
     Program PWSCF v.6.4.1 starts on 16Jun2022 at 14:38:45 

     This program is part of the open-source Quantum ESPRESSO suite
     for quantum simulation of materials; please cite
         "P. Giannozzi et al., J. Phys.:Condens. Matter 21 395502 (2009);
         "P. Giannozzi et al., J. Phys.:Condens. Matter 29 465901 (2017);
          URL http://www.quantum-espresso.org", 
     in publications or presentations arising from this work. More details at
     http://www.quantum-espresso.org/quote

     Parallel version (MPI), running on    64 processors

     MPI processes distributed on     1 nodes
     K-points division:     npool     =       4
     R & G space division:  proc/nbgrp/npool/nimage =      16
     Waiting for input...
     Reading input from standard input

     Current dimensions of program PWSCF are:
     Max number of different atomic species (ntypx) = 10
     Max number of k-points (npk) =  40000
     Max angular momentum in pseudopotentials (lmaxx) =  3

     Subspace diagonalization in iterative solution of the eigenvalue problem:
     one sub-group per band group will be used
     scalapack distributed-memory algorithm (size of sub-group:  2*  2 procs)

 
     Parallelization info
     --------------------
     sticks:   dense  smooth     PW     G-vecs:    dense   smooth      PW
     Min         106      57     17                 4766     1853     321
     Max         107      58     18                 4769     1860     326
     Sum        1711     913    283                76273    29665    5181
 


     bravais-lattice index     =            0
     lattice parameter (alat)  =       6.4243  a.u.
     unit-cell volume          =     307.0741 (a.u.)^3
     number of atoms/cell      =            4
     number of atomic types    =            2
     number of electrons       =        52.00
     number of Kohn-Sham states=           26
     kinetic-energy cutoff     =      80.0000  Ry
     charge density cutoff     =     600.0000  Ry
     convergence threshold     =      1.0E-06
     mixing beta               =       0.5000
     number of iterations used =            8  plain     mixing
     Exchange-correlation      = SLA  PW   PSX  PSC ( 1  4 10  8 0 0)
     Using LIBXC version       =    4   3   4
     nstep                     =          200


     celldm(1)=   6.424331  celldm(2)=   0.000000  celldm(3)=   0.000000
     celldm(4)=   0.000000  celldm(5)=   0.000000  celldm(6)=   0.000000

     crystal axes: (cart. coord. in units of alat)
               a(1) = (   1.000000   0.000000  -0.000000 )  
               a(2) = (  -0.500000   0.866025   0.000000 )  
               a(3) = (  -0.000000  -0.000000   1.337300 )  

     reciprocal axes: (cart. coord. in units 2 pi/alat)
               b(1) = (  1.000000  0.577350  0.000000 )  
               b(2) = ( -0.000000  1.154701  0.000000 )  
               b(3) = (  0.000000  0.000000  0.747775 )  


     PseudoPot. # 1 for Zn read from file:
     ./GBRV_PBEsol/zn_pbesol_v1.uspp.F.UPF
     MD5 check sum: 7d8615e52efe7c1e2b1899de8658bae2
     Pseudo is Ultrasoft, Zval = 20.0
     Generated by new atomic code, or converted to UPF format
     Using radial grid of  943 points,  6 beta functions with: 
                l(1) =   0
                l(2) =   0
                l(3) =   1
                l(4) =   1
                l(5) =   2
                l(6) =   2
     Q(r) pseudized with  8 coefficients,  rinner =    1.100   1.100   1.100
                                                       1.100   1.100

     PseudoPot. # 2 for O  read from file:
     ./GBRV_PBEsol/o_pbesol_v1.2.uspp.F.UPF
     MD5 check sum: 501638753501ef6325af9037351f7734
     Pseudo is Ultrasoft + core correction, Zval =  6.0
     Generated by new atomic code, or converted to UPF format
     Using radial grid of  737 points,  5 beta functions with: 
                l(1) =   0
                l(2) =   0
                l(3) =   1
                l(4) =   1
                l(5) =   2
     Q(r) pseudized with  8 coefficients,  rinner =    0.900   0.900   0.900
                                                       0.900   0.900

     atomic species   valence    mass     pseudopotential
        Zn            20.00    65.38000     Zn( 1.00)
        O              6.00    15.99900     O ( 1.00)

     No symmetry found


                                    s                        frac. trans.

      isym =  1     identity                                     

 cryst.   s( 1) = (     1          0          0      )
                  (     0          1          0      )
                  (     0          0          1      )

 cart.    s( 1) = (  1.0000000  0.0000000 -0.0000000 )
                  (  0.0000000  1.0000000 -0.0000000 )
                  ( -0.0000000 -0.0000000  1.0000000 )


   Cartesian axes

     site n.     atom                  positions (alat units)
         1           O   tau(   1) = (   0.5000002   0.2886756   0.0098236  )
         2           O   tau(   2) = (   0.0000001   0.5773493   0.6784736  )
         3           Zn  tau(   3) = (   0.4999999   0.2886748   0.6504016  )
         4           Zn  tau(   4) = (  -0.0000003   0.5773510   1.3190518  )

   Crystallographic axes

     site n.     atom                  positions (cryst. coord.)
         1           O   tau(   1) = (  0.6666670  0.3333337  0.0073459  )
         2           O   tau(   2) = (  0.3333329  0.6666657  0.5073458  )
         3           Zn  tau(   3) = (  0.6666664  0.3333329  0.4863542  )
         4           Zn  tau(   4) = (  0.3333336  0.6666677  0.9863542  )

     number of k points=   260
                       cart. coord. in units 2pi/alat
        k(    1) = (   0.0000000   0.0000000   0.0000000), wk =   0.0039062
        k(    2) = (   0.0000000   0.0000000   0.0934719), wk =   0.0078125
        k(    3) = (   0.0000000   0.0000000   0.1869438), wk =   0.0078125
        k(    4) = (   0.0000000   0.0000000   0.2804157), wk =   0.0078125
        k(    5) = (  -0.0000000  -0.0000000  -0.3738876), wk =   0.0039062
        k(    6) = (  -0.0000000   0.1443376   0.0000000), wk =   0.0078125
        k(    7) = (  -0.0000000   0.1443376   0.0934719), wk =   0.0078125
        k(    8) = (  -0.0000000   0.1443376   0.1869438), wk =   0.0078125
        k(    9) = (  -0.0000000   0.1443376   0.2804157), wk =   0.0078125
        k(   10) = (  -0.0000001   0.1443376  -0.3738876), wk =   0.0078125
        k(   11) = (  -0.0000001   0.1443376  -0.2804157), wk =   0.0078125
        k(   12) = (  -0.0000000   0.1443376  -0.1869438), wk =   0.0078125
        k(   13) = (  -0.0000000   0.1443376  -0.0934719), wk =   0.0078125
        k(   14) = (  -0.0000001   0.2886751   0.0000000), wk =   0.0078125
        k(   15) = (  -0.0000001   0.2886751   0.0934719), wk =   0.0078125
        k(   16) = (  -0.0000001   0.2886751   0.1869438), wk =   0.0078125
        k(   17) = (  -0.0000001   0.2886752   0.2804157), wk =   0.0078125
        k(   18) = (  -0.0000001   0.2886751  -0.3738876), wk =   0.0078125
        k(   19) = (  -0.0000001   0.2886751  -0.2804157), wk =   0.0078125
        k(   20) = (  -0.0000001   0.2886751  -0.1869438), wk =   0.0078125
        k(   21) = (  -0.0000001   0.2886751  -0.0934719), wk =   0.0078125
        k(   22) = (  -0.0000001   0.4330127   0.0000001), wk =   0.0078125
        k(   23) = (  -0.0000001   0.4330127   0.0934719), wk =   0.0078125
        k(   24) = (  -0.0000001   0.4330127   0.1869438), wk =   0.0078125
        k(   25) = (  -0.0000001   0.4330127   0.2804157), wk =   0.0078125
        k(   26) = (  -0.0000001   0.4330127  -0.3738875), wk =   0.0078125
        k(   27) = (  -0.0000001   0.4330127  -0.2804156), wk =   0.0078125
        k(   28) = (  -0.0000001   0.4330127  -0.1869437), wk =   0.0078125
        k(   29) = (  -0.0000001   0.4330127  -0.0934718), wk =   0.0078125
        k(   30) = (   0.0000002  -0.5773503  -0.0000001), wk =   0.0039062
        k(   31) = (   0.0000002  -0.5773503   0.0934718), wk =   0.0078125
        k(   32) = (   0.0000002  -0.5773503   0.1869437), wk =   0.0078125
        k(   33) = (   0.0000002  -0.5773503   0.2804156), wk =   0.0078125
        k(   34) = (   0.0000001  -0.5773503  -0.3738877), wk =   0.0039062
        k(   35) = (   0.1250000   0.0721688   0.0000000), wk =   0.0078125
        k(   36) = (   0.1250000   0.0721688   0.0934719), wk =   0.0078125
        k(   37) = (   0.1250000   0.0721688   0.1869438), wk =   0.0078125
        k(   38) = (   0.1250000   0.0721688   0.2804157), wk =   0.0078125
        k(   39) = (   0.1250000   0.0721687  -0.3738875), wk =   0.0078125
        k(   40) = (   0.1250000   0.0721687  -0.2804157), wk =   0.0078125
        k(   41) = (   0.1250000   0.0721687  -0.1869438), wk =   0.0078125
        k(   42) = (   0.1250000   0.0721688  -0.0934719), wk =   0.0078125
        k(   43) = (   0.1249999   0.2165063   0.0000001), wk =   0.0078125
        k(   44) = (   0.1249999   0.2165063   0.0934720), wk =   0.0078125
        k(   45) = (   0.1249999   0.2165063   0.1869438), wk =   0.0078125
        k(   46) = (   0.1250000   0.2165063   0.2804157), wk =   0.0078125
        k(   47) = (   0.1249999   0.2165063  -0.3738875), wk =   0.0078125
        k(   48) = (   0.1249999   0.2165063  -0.2804156), wk =   0.0078125
        k(   49) = (   0.1249999   0.2165063  -0.1869437), wk =   0.0078125
        k(   50) = (   0.1249999   0.2165063  -0.0934718), wk =   0.0078125
        k(   51) = (   0.1249999   0.3608439   0.0000001), wk =   0.0078125
        k(   52) = (   0.1249999   0.3608439   0.0934720), wk =   0.0078125
        k(   53) = (   0.1249999   0.3608439   0.1869439), wk =   0.0078125
        k(   54) = (   0.1249999   0.3608439   0.2804158), wk =   0.0078125
        k(   55) = (   0.1249999   0.3608439  -0.3738875), wk =   0.0078125
        k(   56) = (   0.1249999   0.3608439  -0.2804156), wk =   0.0078125
        k(   57) = (   0.1249999   0.3608439  -0.1869437), wk =   0.0078125
        k(   58) = (   0.1249999   0.3608439  -0.0934718), wk =   0.0078125
        k(   59) = (   0.1249999   0.5051815   0.0000001), wk =   0.0078125
        k(   60) = (   0.1249999   0.5051815   0.0934720), wk =   0.0078125
        k(   61) = (   0.1249999   0.5051815   0.1869439), wk =   0.0078125
        k(   62) = (   0.1249999   0.5051815   0.2804158), wk =   0.0078125
        k(   63) = (   0.1249998   0.5051815  -0.3738875), wk =   0.0078125
        k(   64) = (   0.1249998   0.5051815  -0.2804156), wk =   0.0078125
        k(   65) = (   0.1249998   0.5051815  -0.1869437), wk =   0.0078125
        k(   66) = (   0.1249999   0.5051815  -0.0934718), wk =   0.0078125
        k(   67) = (   0.1250001  -0.5051815  -0.0000000), wk =   0.0078125
        k(   68) = (   0.1250001  -0.5051815   0.0934719), wk =   0.0078125
        k(   69) = (   0.1250002  -0.5051815   0.1869438), wk =   0.0078125
        k(   70) = (   0.1250002  -0.5051815   0.2804157), wk =   0.0078125
        k(   71) = (   0.1250001  -0.5051815  -0.3738876), wk =   0.0078125
        k(   72) = (   0.1250001  -0.5051815  -0.2804157), wk =   0.0078125
        k(   73) = (   0.1250001  -0.5051815  -0.1869438), wk =   0.0078125
        k(   74) = (   0.1250001  -0.5051815  -0.0934719), wk =   0.0078125
        k(   75) = (   0.1250001  -0.3608440  -0.0000000), wk =   0.0078125
        k(   76) = (   0.1250001  -0.3608440   0.0934719), wk =   0.0078125
        k(   77) = (   0.1250001  -0.3608440   0.1869438), wk =   0.0078125
        k(   78) = (   0.1250001  -0.3608440   0.2804157), wk =   0.0078125
        k(   79) = (   0.1250001  -0.3608440  -0.3738876), wk =   0.0078125
        k(   80) = (   0.1250001  -0.3608440  -0.2804157), wk =   0.0078125
        k(   81) = (   0.1250001  -0.3608440  -0.1869438), wk =   0.0078125
        k(   82) = (   0.1250001  -0.3608440  -0.0934719), wk =   0.0078125
        k(   83) = (   0.1250001  -0.2165064   0.0000000), wk =   0.0078125
        k(   84) = (   0.1250001  -0.2165064   0.0934719), wk =   0.0078125
        k(   85) = (   0.1250001  -0.2165064   0.1869438), wk =   0.0078125
        k(   86) = (   0.1250001  -0.2165064   0.2804157), wk =   0.0078125
        k(   87) = (   0.1250000  -0.2165064  -0.3738876), wk =   0.0078125
        k(   88) = (   0.1250000  -0.2165064  -0.2804157), wk =   0.0078125
        k(   89) = (   0.1250001  -0.2165064  -0.1869438), wk =   0.0078125
        k(   90) = (   0.1250001  -0.2165064  -0.0934719), wk =   0.0078125
        k(   91) = (   0.1250000  -0.0721688   0.0000000), wk =   0.0078125
        k(   92) = (   0.1250000  -0.0721688   0.0934719), wk =   0.0078125
        k(   93) = (   0.1250000  -0.0721688   0.1869438), wk =   0.0078125
        k(   94) = (   0.1250000  -0.0721688   0.2804157), wk =   0.0078125
        k(   95) = (   0.1250000  -0.0721688  -0.3738876), wk =   0.0078125
        k(   96) = (   0.1250000  -0.0721688  -0.2804157), wk =   0.0078125
        k(   97) = (   0.1250000  -0.0721688  -0.1869438), wk =   0.0078125
        k(   98) = (   0.1250000  -0.0721688  -0.0934719), wk =   0.0078125
        k(   99) = (   0.2500000   0.1443375   0.0000001), wk =   0.0078125
        k(  100) = (   0.2500000   0.1443375   0.0934720), wk =   0.0078125
        k(  101) = (   0.2500000   0.1443375   0.1869439), wk =   0.0078125
        k(  102) = (   0.2500000   0.1443375   0.2804158), wk =   0.0078125
        k(  103) = (   0.2499999   0.1443375  -0.3738875), wk =   0.0078125
        k(  104) = (   0.2499999   0.1443375  -0.2804156), wk =   0.0078125
        k(  105) = (   0.2500000   0.1443375  -0.1869437), wk =   0.0078125
        k(  106) = (   0.2500000   0.1443375  -0.0934718), wk =   0.0078125
        k(  107) = (   0.2499999   0.2886751   0.0000001), wk =   0.0078125
        k(  108) = (   0.2499999   0.2886751   0.0934720), wk =   0.0078125
        k(  109) = (   0.2499999   0.2886751   0.1869439), wk =   0.0078125
        k(  110) = (   0.2499999   0.2886751   0.2804158), wk =   0.0078125
        k(  111) = (   0.2499999   0.2886751  -0.3738875), wk =   0.0078125
        k(  112) = (   0.2499999   0.2886751  -0.2804156), wk =   0.0078125
        k(  113) = (   0.2499999   0.2886751  -0.1869437), wk =   0.0078125
        k(  114) = (   0.2499999   0.2886751  -0.0934718), wk =   0.0078125
        k(  115) = (   0.2499999   0.4330126   0.0000001), wk =   0.0078125
        k(  116) = (   0.2499999   0.4330127   0.0934720), wk =   0.0078125
        k(  117) = (   0.2499999   0.4330127   0.1869439), wk =   0.0078125
        k(  118) = (   0.2499999   0.4330127   0.2804158), wk =   0.0078125
        k(  119) = (   0.2499999   0.4330126  -0.3738875), wk =   0.0078125
        k(  120) = (   0.2499999   0.4330126  -0.2804156), wk =   0.0078125
        k(  121) = (   0.2499999   0.4330126  -0.1869437), wk =   0.0078125
        k(  122) = (   0.2499999   0.4330126  -0.0934718), wk =   0.0078125
        k(  123) = (   0.2499998   0.5773502   0.0000001), wk =   0.0078125
        k(  124) = (   0.2499998   0.5773502   0.0934720), wk =   0.0078125
        k(  125) = (   0.2499998   0.5773502   0.1869439), wk =   0.0078125
        k(  126) = (   0.2499998   0.5773502   0.2804158), wk =   0.0078125
        k(  127) = (   0.2499998   0.5773502  -0.3738875), wk =   0.0078125
        k(  128) = (   0.2499998   0.5773502  -0.2804156), wk =   0.0078125
        k(  129) = (   0.2499998   0.5773502  -0.1869437), wk =   0.0078125
        k(  130) = (   0.2499998   0.5773502  -0.0934718), wk =   0.0078125
        k(  131) = (   0.2500001  -0.4330128   0.0000000), wk =   0.0078125
        k(  132) = (   0.2500001  -0.4330128   0.0934719), wk =   0.0078125
        k(  133) = (   0.2500001  -0.4330128   0.1869438), wk =   0.0078125
        k(  134) = (   0.2500001  -0.4330128   0.2804157), wk =   0.0078125
        k(  135) = (   0.2500001  -0.4330128  -0.3738876), wk =   0.0078125
        k(  136) = (   0.2500001  -0.4330128  -0.2804157), wk =   0.0078125
        k(  137) = (   0.2500001  -0.4330128  -0.1869438), wk =   0.0078125
        k(  138) = (   0.2500001  -0.4330128  -0.0934719), wk =   0.0078125
        k(  139) = (   0.2500001  -0.2886752   0.0000000), wk =   0.0078125
        k(  140) = (   0.2500001  -0.2886752   0.0934719), wk =   0.0078125
        k(  141) = (   0.2500001  -0.2886752   0.1869438), wk =   0.0078125
        k(  142) = (   0.2500001  -0.2886752   0.2804157), wk =   0.0078125
        k(  143) = (   0.2500001  -0.2886752  -0.3738876), wk =   0.0078125
        k(  144) = (   0.2500001  -0.2886752  -0.2804157), wk =   0.0078125
        k(  145) = (   0.2500001  -0.2886752  -0.1869438), wk =   0.0078125
        k(  146) = (   0.2500001  -0.2886752  -0.0934719), wk =   0.0078125
        k(  147) = (   0.2500000  -0.1443376   0.0000000), wk =   0.0078125
        k(  148) = (   0.2500000  -0.1443376   0.0934719), wk =   0.0078125
        k(  149) = (   0.2500000  -0.1443376   0.1869438), wk =   0.0078125
        k(  150) = (   0.2500001  -0.1443376   0.2804157), wk =   0.0078125
        k(  151) = (   0.2500000  -0.1443376  -0.3738875), wk =   0.0078125
        k(  152) = (   0.2500000  -0.1443376  -0.2804156), wk =   0.0078125
        k(  153) = (   0.2500000  -0.1443376  -0.1869438), wk =   0.0078125
        k(  154) = (   0.2500000  -0.1443376  -0.0934719), wk =   0.0078125
        k(  155) = (   0.2500000  -0.0000001   0.0000001), wk =   0.0078125
        k(  156) = (   0.2500000  -0.0000001   0.0934720), wk =   0.0078125
        k(  157) = (   0.2500000  -0.0000001   0.1869439), wk =   0.0078125
        k(  158) = (   0.2500000  -0.0000001   0.2804157), wk =   0.0078125
        k(  159) = (   0.2500000  -0.0000001  -0.3738875), wk =   0.0078125
        k(  160) = (   0.2500000  -0.0000001  -0.2804156), wk =   0.0078125
        k(  161) = (   0.2500000  -0.0000001  -0.1869437), wk =   0.0078125
        k(  162) = (   0.2500000  -0.0000001  -0.0934718), wk =   0.0078125
        k(  163) = (   0.3749999   0.2165063   0.0000001), wk =   0.0078125
        k(  164) = (   0.3749999   0.2165063   0.0934720), wk =   0.0078125
        k(  165) = (   0.3749999   0.2165063   0.1869439), wk =   0.0078125
        k(  166) = (   0.3750000   0.2165063   0.2804158), wk =   0.0078125
        k(  167) = (   0.3749999   0.2165062  -0.3738875), wk =   0.0078125
        k(  168) = (   0.3749999   0.2165063  -0.2804156), wk =   0.0078125
        k(  169) = (   0.3749999   0.2165063  -0.1869437), wk =   0.0078125
        k(  170) = (   0.3749999   0.2165063  -0.0934718), wk =   0.0078125
        k(  171) = (   0.3749999   0.3608438   0.0000001), wk =   0.0078125
        k(  172) = (   0.3749999   0.3608438   0.0934720), wk =   0.0078125
        k(  173) = (   0.3749999   0.3608438   0.1869439), wk =   0.0078125
        k(  174) = (   0.3749999   0.3608438   0.2804158), wk =   0.0078125
        k(  175) = (   0.3749999   0.3608438  -0.3738875), wk =   0.0078125
        k(  176) = (   0.3749999   0.3608438  -0.2804156), wk =   0.0078125
        k(  177) = (   0.3749999   0.3608438  -0.1869437), wk =   0.0078125
        k(  178) = (   0.3749999   0.3608438  -0.0934718), wk =   0.0078125
        k(  179) = (   0.3749999   0.5051814   0.0000002), wk =   0.0078125
        k(  180) = (   0.3749999   0.5051814   0.0934720), wk =   0.0078125
        k(  181) = (   0.3749999   0.5051814   0.1869439), wk =   0.0078125
        k(  182) = (   0.3749999   0.5051814   0.2804158), wk =   0.0078125
        k(  183) = (   0.3749998   0.5051814  -0.3738874), wk =   0.0078125
        k(  184) = (   0.3749998   0.5051814  -0.2804155), wk =   0.0078125
        k(  185) = (   0.3749998   0.5051814  -0.1869436), wk =   0.0078125
        k(  186) = (   0.3749999   0.5051814  -0.0934717), wk =   0.0078125
        k(  187) = (   0.3749998   0.6495190   0.0000002), wk =   0.0078125
        k(  188) = (   0.3749998   0.6495190   0.0934721), wk =   0.0078125
        k(  189) = (   0.3749998   0.6495190   0.1869440), wk =   0.0078125
        k(  190) = (   0.3749998   0.6495190   0.2804159), wk =   0.0078125
        k(  191) = (   0.3749998   0.6495190  -0.3738874), wk =   0.0078125
        k(  192) = (   0.3749998   0.6495190  -0.2804155), wk =   0.0078125
        k(  193) = (   0.3749998   0.6495190  -0.1869436), wk =   0.0078125
        k(  194) = (   0.3749998   0.6495190  -0.0934717), wk =   0.0078125
        k(  195) = (   0.3750001  -0.3608440   0.0000000), wk =   0.0078125
        k(  196) = (   0.3750001  -0.3608440   0.0934719), wk =   0.0078125
        k(  197) = (   0.3750001  -0.3608440   0.1869438), wk =   0.0078125
        k(  198) = (   0.3750001  -0.3608440   0.2804157), wk =   0.0078125
        k(  199) = (   0.3750001  -0.3608440  -0.3738875), wk =   0.0078125
        k(  200) = (   0.3750001  -0.3608440  -0.2804156), wk =   0.0078125
        k(  201) = (   0.3750001  -0.3608440  -0.1869437), wk =   0.0078125
        k(  202) = (   0.3750001  -0.3608440  -0.0934718), wk =   0.0078125
        k(  203) = (   0.3750001  -0.2165065   0.0000001), wk =   0.0078125
        k(  204) = (   0.3750001  -0.2165065   0.0934720), wk =   0.0078125
        k(  205) = (   0.3750001  -0.2165065   0.1869439), wk =   0.0078125
        k(  206) = (   0.3750001  -0.2165065   0.2804158), wk =   0.0078125
        k(  207) = (   0.3750000  -0.2165065  -0.3738875), wk =   0.0078125
        k(  208) = (   0.3750000  -0.2165065  -0.2804156), wk =   0.0078125
        k(  209) = (   0.3750001  -0.2165065  -0.1869437), wk =   0.0078125
        k(  210) = (   0.3750001  -0.2165065  -0.0934718), wk =   0.0078125
        k(  211) = (   0.3750000  -0.0721689   0.0000001), wk =   0.0078125
        k(  212) = (   0.3750000  -0.0721689   0.0934720), wk =   0.0078125
        k(  213) = (   0.3750000  -0.0721689   0.1869439), wk =   0.0078125
        k(  214) = (   0.3750000  -0.0721689   0.2804158), wk =   0.0078125
        k(  215) = (   0.3750000  -0.0721689  -0.3738875), wk =   0.0078125
        k(  216) = (   0.3750000  -0.0721689  -0.2804156), wk =   0.0078125
        k(  217) = (   0.3750000  -0.0721689  -0.1869437), wk =   0.0078125
        k(  218) = (   0.3750000  -0.0721689  -0.0934718), wk =   0.0078125
        k(  219) = (   0.3750000   0.0721687   0.0000001), wk =   0.0078125
        k(  220) = (   0.3750000   0.0721687   0.0934720), wk =   0.0078125
        k(  221) = (   0.3750000   0.0721687   0.1869439), wk =   0.0078125
        k(  222) = (   0.3750000   0.0721687   0.2804158), wk =   0.0078125
        k(  223) = (   0.3750000   0.0721687  -0.3738875), wk =   0.0078125
        k(  224) = (   0.3750000   0.0721687  -0.2804156), wk =   0.0078125
        k(  225) = (   0.3750000   0.0721687  -0.1869437), wk =   0.0078125
        k(  226) = (   0.3750000   0.0721687  -0.0934718), wk =   0.0078125
        k(  227) = (  -0.4999999  -0.2886750  -0.0000002), wk =   0.0039062
        k(  228) = (  -0.4999999  -0.2886750   0.0934717), wk =   0.0078125
        k(  229) = (  -0.4999999  -0.2886750   0.1869436), wk =   0.0078125
        k(  230) = (  -0.4999999  -0.2886750   0.2804155), wk =   0.0078125
        k(  231) = (  -0.4999999  -0.2886750  -0.3738877), wk =   0.0039062
        k(  232) = (  -0.5000000  -0.1443374  -0.0000001), wk =   0.0078125
        k(  233) = (  -0.5000000  -0.1443374   0.0934718), wk =   0.0078125
        k(  234) = (  -0.5000000  -0.1443374   0.1869437), wk =   0.0078125
        k(  235) = (  -0.4999999  -0.1443374   0.2804156), wk =   0.0078125
        k(  236) = (  -0.5000000  -0.1443374  -0.3738877), wk =   0.0078125
        k(  237) = (  -0.5000000  -0.1443374  -0.2804158), wk =   0.0078125
        k(  238) = (  -0.5000000  -0.1443374  -0.1869439), wk =   0.0078125
        k(  239) = (  -0.5000000  -0.1443374  -0.0934720), wk =   0.0078125
        k(  240) = (  -0.5000000   0.0000001  -0.0000001), wk =   0.0078125
        k(  241) = (  -0.5000000   0.0000001   0.0934718), wk =   0.0078125
        k(  242) = (  -0.5000000   0.0000001   0.1869437), wk =   0.0078125
        k(  243) = (  -0.5000000   0.0000001   0.2804156), wk =   0.0078125
        k(  244) = (  -0.5000000   0.0000001  -0.3738877), wk =   0.0078125
        k(  245) = (  -0.5000000   0.0000001  -0.2804158), wk =   0.0078125
        k(  246) = (  -0.5000000   0.0000001  -0.1869439), wk =   0.0078125
        k(  247) = (  -0.5000000   0.0000001  -0.0934720), wk =   0.0078125
        k(  248) = (  -0.5000000   0.1443377  -0.0000001), wk =   0.0078125
        k(  249) = (  -0.5000000   0.1443377   0.0934718), wk =   0.0078125
        k(  250) = (  -0.5000000   0.1443377   0.1869437), wk =   0.0078125
        k(  251) = (  -0.5000000   0.1443377   0.2804156), wk =   0.0078125
        k(  252) = (  -0.5000001   0.1443377  -0.3738877), wk =   0.0078125
        k(  253) = (  -0.5000001   0.1443377  -0.2804158), wk =   0.0078125
        k(  254) = (  -0.5000000   0.1443377  -0.1869439), wk =   0.0078125
        k(  255) = (  -0.5000000   0.1443377  -0.0934720), wk =   0.0078125
        k(  256) = (  -0.4999998  -0.8660253  -0.0000002), wk =   0.0039062
        k(  257) = (  -0.4999998  -0.8660253   0.0934717), wk =   0.0078125
        k(  258) = (  -0.4999997  -0.8660253   0.1869436), wk =   0.0078125
        k(  259) = (  -0.4999997  -0.8660253   0.2804155), wk =   0.0078125
        k(  260) = (  -0.4999998  -0.8660253  -0.3738878), wk =   0.0039062

                       cryst. coord.
        k(    1) = (   0.0000000   0.0000000   0.0000000), wk =   0.0039062
        k(    2) = (  -0.0000000  -0.0000000   0.1250000), wk =   0.0078125
        k(    3) = (  -0.0000000  -0.0000000   0.2500000), wk =   0.0078125
        k(    4) = (  -0.0000000  -0.0000000   0.3750000), wk =   0.0078125
        k(    5) = (   0.0000000   0.0000000  -0.5000000), wk =   0.0039062
        k(    6) = (   0.0000000   0.1250000  -0.0000000), wk =   0.0078125
        k(    7) = (   0.0000000   0.1250000   0.1250000), wk =   0.0078125
        k(    8) = (  -0.0000000   0.1250000   0.2500000), wk =   0.0078125
        k(    9) = (   0.0000000   0.1250000   0.3750000), wk =   0.0078125
        k(   10) = (   0.0000000   0.1250000  -0.5000000), wk =   0.0078125
        k(   11) = (  -0.0000000   0.1250000  -0.3750000), wk =   0.0078125
        k(   12) = (   0.0000000   0.1250000  -0.2500000), wk =   0.0078125
        k(   13) = (   0.0000000   0.1250000  -0.1250000), wk =   0.0078125
        k(   14) = (   0.0000000   0.2500000  -0.0000000), wk =   0.0078125
        k(   15) = (   0.0000000   0.2500000   0.1250000), wk =   0.0078125
        k(   16) = (   0.0000000   0.2500000   0.2500000), wk =   0.0078125
        k(   17) = (   0.0000000   0.2500000   0.3750000), wk =   0.0078125
        k(   18) = (   0.0000000   0.2500000  -0.5000000), wk =   0.0078125
        k(   19) = (  -0.0000000   0.2500000  -0.3750000), wk =   0.0078125
        k(   20) = (   0.0000000   0.2500000  -0.2500000), wk =   0.0078125
        k(   21) = (   0.0000000   0.2500000  -0.1250000), wk =   0.0078125
        k(   22) = (   0.0000000   0.3750000  -0.0000000), wk =   0.0078125
        k(   23) = (   0.0000000   0.3750000   0.1250000), wk =   0.0078125
        k(   24) = (  -0.0000000   0.3750000   0.2500000), wk =   0.0078125
        k(   25) = (   0.0000000   0.3750000   0.3750000), wk =   0.0078125
        k(   26) = (  -0.0000000   0.3750000  -0.5000000), wk =   0.0078125
        k(   27) = (   0.0000000   0.3750000  -0.3750000), wk =   0.0078125
        k(   28) = (   0.0000000   0.3750000  -0.2500000), wk =   0.0078125
        k(   29) = (   0.0000000   0.3750000  -0.1250000), wk =   0.0078125
        k(   30) = (  -0.0000000  -0.5000000   0.0000000), wk =   0.0039062
        k(   31) = (  -0.0000000  -0.5000000   0.1250000), wk =   0.0078125
        k(   32) = (  -0.0000000  -0.5000000   0.2500000), wk =   0.0078125
        k(   33) = (  -0.0000000  -0.5000000   0.3750000), wk =   0.0078125
        k(   34) = (  -0.0000000  -0.5000000  -0.5000000), wk =   0.0039062
        k(   35) = (   0.1250000  -0.0000000  -0.0000000), wk =   0.0078125
        k(   36) = (   0.1250000  -0.0000000   0.1250000), wk =   0.0078125
        k(   37) = (   0.1250000  -0.0000000   0.2500000), wk =   0.0078125
        k(   38) = (   0.1250000  -0.0000000   0.3750000), wk =   0.0078125
        k(   39) = (   0.1250000   0.0000000  -0.5000000), wk =   0.0078125
        k(   40) = (   0.1250000   0.0000000  -0.3750000), wk =   0.0078125
        k(   41) = (   0.1250000  -0.0000000  -0.2500000), wk =   0.0078125
        k(   42) = (   0.1250000   0.0000000  -0.1250000), wk =   0.0078125
        k(   43) = (   0.1250000   0.1250000  -0.0000000), wk =   0.0078125
        k(   44) = (   0.1250000   0.1250000   0.1250000), wk =   0.0078125
        k(   45) = (   0.1250000   0.1250000   0.2500000), wk =   0.0078125
        k(   46) = (   0.1250000   0.1250000   0.3750000), wk =   0.0078125
        k(   47) = (   0.1250000   0.1250000  -0.5000000), wk =   0.0078125
        k(   48) = (   0.1250000   0.1250000  -0.3750000), wk =   0.0078125
        k(   49) = (   0.1250000   0.1250000  -0.2500000), wk =   0.0078125
        k(   50) = (   0.1250000   0.1250000  -0.1250000), wk =   0.0078125
        k(   51) = (   0.1250000   0.2500000  -0.0000000), wk =   0.0078125
        k(   52) = (   0.1250000   0.2500000   0.1250000), wk =   0.0078125
        k(   53) = (   0.1250000   0.2500000   0.2500000), wk =   0.0078125
        k(   54) = (   0.1250000   0.2500000   0.3750000), wk =   0.0078125
        k(   55) = (   0.1250000   0.2500000  -0.5000000), wk =   0.0078125
        k(   56) = (   0.1250000   0.2500000  -0.3750000), wk =   0.0078125
        k(   57) = (   0.1250000   0.2500000  -0.2500000), wk =   0.0078125
        k(   58) = (   0.1250000   0.2500000  -0.1250000), wk =   0.0078125
        k(   59) = (   0.1250000   0.3750000  -0.0000000), wk =   0.0078125
        k(   60) = (   0.1250000   0.3750000   0.1250000), wk =   0.0078125
        k(   61) = (   0.1250000   0.3750000   0.2500000), wk =   0.0078125
        k(   62) = (   0.1250000   0.3750000   0.3750000), wk =   0.0078125
        k(   63) = (   0.1250000   0.3750000  -0.5000000), wk =   0.0078125
        k(   64) = (   0.1250000   0.3750000  -0.3750000), wk =   0.0078125
        k(   65) = (   0.1250000   0.3750000  -0.2500000), wk =   0.0078125
        k(   66) = (   0.1250000   0.3750000  -0.1250000), wk =   0.0078125
        k(   67) = (   0.1250000  -0.5000000   0.0000000), wk =   0.0078125
        k(   68) = (   0.1250000  -0.5000000   0.1250000), wk =   0.0078125
        k(   69) = (   0.1250000  -0.5000000   0.2500000), wk =   0.0078125
        k(   70) = (   0.1250000  -0.5000000   0.3750000), wk =   0.0078125
        k(   71) = (   0.1250000  -0.5000000  -0.5000000), wk =   0.0078125
        k(   72) = (   0.1250000  -0.5000000  -0.3750000), wk =   0.0078125
        k(   73) = (   0.1250000  -0.5000000  -0.2500000), wk =   0.0078125
        k(   74) = (   0.1250000  -0.5000000  -0.1250000), wk =   0.0078125
        k(   75) = (   0.1250000  -0.3750000  -0.0000000), wk =   0.0078125
        k(   76) = (   0.1250000  -0.3750000   0.1250000), wk =   0.0078125
        k(   77) = (   0.1250000  -0.3750000   0.2500000), wk =   0.0078125
        k(   78) = (   0.1250000  -0.3750000   0.3750000), wk =   0.0078125
        k(   79) = (   0.1250000  -0.3750000  -0.5000000), wk =   0.0078125
        k(   80) = (   0.1250000  -0.3750000  -0.3750000), wk =   0.0078125
        k(   81) = (   0.1250000  -0.3750000  -0.2500000), wk =   0.0078125
        k(   82) = (   0.1250000  -0.3750000  -0.1250000), wk =   0.0078125
        k(   83) = (   0.1250000  -0.2500000  -0.0000000), wk =   0.0078125
        k(   84) = (   0.1250000  -0.2500000   0.1250000), wk =   0.0078125
        k(   85) = (   0.1250000  -0.2500000   0.2500000), wk =   0.0078125
        k(   86) = (   0.1250000  -0.2500000   0.3750000), wk =   0.0078125
        k(   87) = (   0.1250000  -0.2500000  -0.5000000), wk =   0.0078125
        k(   88) = (   0.1250000  -0.2500000  -0.3750000), wk =   0.0078125
        k(   89) = (   0.1250000  -0.2500000  -0.2500000), wk =   0.0078125
        k(   90) = (   0.1250000  -0.2500000  -0.1250000), wk =   0.0078125
        k(   91) = (   0.1250000  -0.1250000  -0.0000000), wk =   0.0078125
        k(   92) = (   0.1250000  -0.1250000   0.1250000), wk =   0.0078125
        k(   93) = (   0.1250000  -0.1250000   0.2500000), wk =   0.0078125
        k(   94) = (   0.1250000  -0.1250000   0.3750000), wk =   0.0078125
        k(   95) = (   0.1250000  -0.1250000  -0.5000000), wk =   0.0078125
        k(   96) = (   0.1250000  -0.1250000  -0.3750000), wk =   0.0078125
        k(   97) = (   0.1250000  -0.1250000  -0.2500000), wk =   0.0078125
        k(   98) = (   0.1250000  -0.1250000  -0.1250000), wk =   0.0078125
        k(   99) = (   0.2500000  -0.0000000  -0.0000000), wk =   0.0078125
        k(  100) = (   0.2500000  -0.0000000   0.1250000), wk =   0.0078125
        k(  101) = (   0.2500000  -0.0000000   0.2500000), wk =   0.0078125
        k(  102) = (   0.2500000  -0.0000000   0.3750000), wk =   0.0078125
        k(  103) = (   0.2500000  -0.0000000  -0.5000000), wk =   0.0078125
        k(  104) = (   0.2500000   0.0000000  -0.3750000), wk =   0.0078125
        k(  105) = (   0.2500000   0.0000000  -0.2500000), wk =   0.0078125
        k(  106) = (   0.2500000   0.0000000  -0.1250000), wk =   0.0078125
        k(  107) = (   0.2500000   0.1250000  -0.0000000), wk =   0.0078125
        k(  108) = (   0.2500000   0.1250000   0.1250000), wk =   0.0078125
        k(  109) = (   0.2500000   0.1250000   0.2500000), wk =   0.0078125
        k(  110) = (   0.2500000   0.1250000   0.3750000), wk =   0.0078125
        k(  111) = (   0.2500000   0.1250000  -0.5000000), wk =   0.0078125
        k(  112) = (   0.2500000   0.1250000  -0.3750000), wk =   0.0078125
        k(  113) = (   0.2500000   0.1250000  -0.2500000), wk =   0.0078125
        k(  114) = (   0.2500000   0.1250000  -0.1250000), wk =   0.0078125
        k(  115) = (   0.2500000   0.2500000  -0.0000000), wk =   0.0078125
        k(  116) = (   0.2500000   0.2500000   0.1250000), wk =   0.0078125
        k(  117) = (   0.2500000   0.2500000   0.2500000), wk =   0.0078125
        k(  118) = (   0.2500000   0.2500000   0.3750000), wk =   0.0078125
        k(  119) = (   0.2500000   0.2500000  -0.5000000), wk =   0.0078125
        k(  120) = (   0.2500000   0.2500000  -0.3750000), wk =   0.0078125
        k(  121) = (   0.2500000   0.2500000  -0.2500000), wk =   0.0078125
        k(  122) = (   0.2500000   0.2500000  -0.1250000), wk =   0.0078125
        k(  123) = (   0.2500000   0.3750000  -0.0000000), wk =   0.0078125
        k(  124) = (   0.2500000   0.3750000   0.1250000), wk =   0.0078125
        k(  125) = (   0.2500000   0.3750000   0.2500000), wk =   0.0078125
        k(  126) = (   0.2500000   0.3750000   0.3750000), wk =   0.0078125
        k(  127) = (   0.2500000   0.3750000  -0.5000000), wk =   0.0078125
        k(  128) = (   0.2500000   0.3750000  -0.3750000), wk =   0.0078125
        k(  129) = (   0.2500000   0.3750000  -0.2500000), wk =   0.0078125
        k(  130) = (   0.2500000   0.3750000  -0.1250000), wk =   0.0078125
        k(  131) = (   0.2500000  -0.5000000  -0.0000000), wk =   0.0078125
        k(  132) = (   0.2500000  -0.5000000   0.1250000), wk =   0.0078125
        k(  133) = (   0.2500000  -0.5000000   0.2500000), wk =   0.0078125
        k(  134) = (   0.2500000  -0.5000000   0.3750000), wk =   0.0078125
        k(  135) = (   0.2500000  -0.5000000  -0.5000000), wk =   0.0078125
        k(  136) = (   0.2500000  -0.5000000  -0.3750000), wk =   0.0078125
        k(  137) = (   0.2500000  -0.5000000  -0.2500000), wk =   0.0078125
        k(  138) = (   0.2500000  -0.5000000  -0.1250000), wk =   0.0078125
        k(  139) = (   0.2500000  -0.3750000  -0.0000000), wk =   0.0078125
        k(  140) = (   0.2500000  -0.3750000   0.1250000), wk =   0.0078125
        k(  141) = (   0.2500000  -0.3750000   0.2500000), wk =   0.0078125
        k(  142) = (   0.2500000  -0.3750000   0.3750000), wk =   0.0078125
        k(  143) = (   0.2500000  -0.3750000  -0.5000000), wk =   0.0078125
        k(  144) = (   0.2500000  -0.3750000  -0.3750000), wk =   0.0078125
        k(  145) = (   0.2500000  -0.3750000  -0.2500000), wk =   0.0078125
        k(  146) = (   0.2500000  -0.3750000  -0.1250000), wk =   0.0078125
        k(  147) = (   0.2500000  -0.2500000  -0.0000000), wk =   0.0078125
        k(  148) = (   0.2500000  -0.2500000   0.1250000), wk =   0.0078125
        k(  149) = (   0.2500000  -0.2500000   0.2500000), wk =   0.0078125
        k(  150) = (   0.2500000  -0.2500000   0.3750000), wk =   0.0078125
        k(  151) = (   0.2500000  -0.2500000  -0.5000000), wk =   0.0078125
        k(  152) = (   0.2500000  -0.2500000  -0.3750000), wk =   0.0078125
        k(  153) = (   0.2500000  -0.2500000  -0.2500000), wk =   0.0078125
        k(  154) = (   0.2500000  -0.2500000  -0.1250000), wk =   0.0078125
        k(  155) = (   0.2500000  -0.1250000  -0.0000000), wk =   0.0078125
        k(  156) = (   0.2500000  -0.1250000   0.1250000), wk =   0.0078125
        k(  157) = (   0.2500000  -0.1250000   0.2500000), wk =   0.0078125
        k(  158) = (   0.2500000  -0.1250000   0.3750000), wk =   0.0078125
        k(  159) = (   0.2500000  -0.1250000  -0.5000000), wk =   0.0078125
        k(  160) = (   0.2500000  -0.1250000  -0.3750000), wk =   0.0078125
        k(  161) = (   0.2500000  -0.1250000  -0.2500000), wk =   0.0078125
        k(  162) = (   0.2500000  -0.1250000  -0.1250000), wk =   0.0078125
        k(  163) = (   0.3750000  -0.0000000  -0.0000000), wk =   0.0078125
        k(  164) = (   0.3750000  -0.0000000   0.1250000), wk =   0.0078125
        k(  165) = (   0.3750000  -0.0000000   0.2500000), wk =   0.0078125
        k(  166) = (   0.3750000  -0.0000000   0.3750000), wk =   0.0078125
        k(  167) = (   0.3750000  -0.0000000  -0.5000000), wk =   0.0078125
        k(  168) = (   0.3750000  -0.0000000  -0.3750000), wk =   0.0078125
        k(  169) = (   0.3750000  -0.0000000  -0.2500000), wk =   0.0078125
        k(  170) = (   0.3750000  -0.0000000  -0.1250000), wk =   0.0078125
        k(  171) = (   0.3750000   0.1250000  -0.0000000), wk =   0.0078125
        k(  172) = (   0.3750000   0.1250000   0.1250000), wk =   0.0078125
        k(  173) = (   0.3750000   0.1250000   0.2500000), wk =   0.0078125
        k(  174) = (   0.3750000   0.1250000   0.3750000), wk =   0.0078125
        k(  175) = (   0.3750000   0.1250000  -0.5000000), wk =   0.0078125
        k(  176) = (   0.3750000   0.1250000  -0.3750000), wk =   0.0078125
        k(  177) = (   0.3750000   0.1250000  -0.2500000), wk =   0.0078125
        k(  178) = (   0.3750000   0.1250000  -0.1250000), wk =   0.0078125
        k(  179) = (   0.3750000   0.2500000  -0.0000000), wk =   0.0078125
        k(  180) = (   0.3750000   0.2500000   0.1250000), wk =   0.0078125
        k(  181) = (   0.3750000   0.2500000   0.2500000), wk =   0.0078125
        k(  182) = (   0.3750000   0.2500000   0.3750000), wk =   0.0078125
        k(  183) = (   0.3750000   0.2500000  -0.5000000), wk =   0.0078125
        k(  184) = (   0.3750000   0.2500000  -0.3750000), wk =   0.0078125
        k(  185) = (   0.3750000   0.2500000  -0.2500000), wk =   0.0078125
        k(  186) = (   0.3750000   0.2500000  -0.1250000), wk =   0.0078125
        k(  187) = (   0.3750000   0.3750000  -0.0000000), wk =   0.0078125
        k(  188) = (   0.3750000   0.3750000   0.1250000), wk =   0.0078125
        k(  189) = (   0.3750000   0.3750000   0.2500000), wk =   0.0078125
        k(  190) = (   0.3750000   0.3750000   0.3750000), wk =   0.0078125
        k(  191) = (   0.3750000   0.3750000  -0.5000000), wk =   0.0078125
        k(  192) = (   0.3750000   0.3750000  -0.3750000), wk =   0.0078125
        k(  193) = (   0.3750000   0.3750000  -0.2500000), wk =   0.0078125
        k(  194) = (   0.3750000   0.3750000  -0.1250000), wk =   0.0078125
        k(  195) = (   0.3750000  -0.5000000  -0.0000000), wk =   0.0078125
        k(  196) = (   0.3750000  -0.5000000   0.1250000), wk =   0.0078125
        k(  197) = (   0.3750000  -0.5000000   0.2500000), wk =   0.0078125
        k(  198) = (   0.3750000  -0.5000000   0.3750000), wk =   0.0078125
        k(  199) = (   0.3750000  -0.5000000  -0.5000000), wk =   0.0078125
        k(  200) = (   0.3750000  -0.5000000  -0.3750000), wk =   0.0078125
        k(  201) = (   0.3750000  -0.5000000  -0.2500000), wk =   0.0078125
        k(  202) = (   0.3750000  -0.5000000  -0.1250000), wk =   0.0078125
        k(  203) = (   0.3750000  -0.3750000  -0.0000000), wk =   0.0078125
        k(  204) = (   0.3750000  -0.3750000   0.1250000), wk =   0.0078125
        k(  205) = (   0.3750000  -0.3750000   0.2500000), wk =   0.0078125
        k(  206) = (   0.3750000  -0.3750000   0.3750000), wk =   0.0078125
        k(  207) = (   0.3750000  -0.3750000  -0.5000000), wk =   0.0078125
        k(  208) = (   0.3750000  -0.3750000  -0.3750000), wk =   0.0078125
        k(  209) = (   0.3750000  -0.3750000  -0.2500000), wk =   0.0078125
        k(  210) = (   0.3750000  -0.3750000  -0.1250000), wk =   0.0078125
        k(  211) = (   0.3750000  -0.2500000  -0.0000000), wk =   0.0078125
        k(  212) = (   0.3750000  -0.2500000   0.1250000), wk =   0.0078125
        k(  213) = (   0.3750000  -0.2500000   0.2500000), wk =   0.0078125
        k(  214) = (   0.3750000  -0.2500000   0.3750000), wk =   0.0078125
        k(  215) = (   0.3750000  -0.2500000  -0.5000000), wk =   0.0078125
        k(  216) = (   0.3750000  -0.2500000  -0.3750000), wk =   0.0078125
        k(  217) = (   0.3750000  -0.2500000  -0.2500000), wk =   0.0078125
        k(  218) = (   0.3750000  -0.2500000  -0.1250000), wk =   0.0078125
        k(  219) = (   0.3750000  -0.1250000  -0.0000000), wk =   0.0078125
        k(  220) = (   0.3750000  -0.1250000   0.1250000), wk =   0.0078125
        k(  221) = (   0.3750000  -0.1250000   0.2500000), wk =   0.0078125
        k(  222) = (   0.3750000  -0.1250000   0.3750000), wk =   0.0078125
        k(  223) = (   0.3750000  -0.1250000  -0.5000000), wk =   0.0078125
        k(  224) = (   0.3750000  -0.1250000  -0.3750000), wk =   0.0078125
        k(  225) = (   0.3750000  -0.1250000  -0.2500000), wk =   0.0078125
        k(  226) = (   0.3750000  -0.1250000  -0.1250000), wk =   0.0078125
        k(  227) = (  -0.5000000   0.0000000   0.0000000), wk =   0.0039062
        k(  228) = (  -0.5000000   0.0000000   0.1250000), wk =   0.0078125
        k(  229) = (  -0.5000000  -0.0000000   0.2500000), wk =   0.0078125
        k(  230) = (  -0.5000000   0.0000000   0.3750000), wk =   0.0078125
        k(  231) = (  -0.5000000   0.0000000  -0.5000000), wk =   0.0039062
        k(  232) = (  -0.5000000   0.1250000   0.0000000), wk =   0.0078125
        k(  233) = (  -0.5000000   0.1250000   0.1250000), wk =   0.0078125
        k(  234) = (  -0.5000000   0.1250000   0.2500000), wk =   0.0078125
        k(  235) = (  -0.5000000   0.1250000   0.3750000), wk =   0.0078125
        k(  236) = (  -0.5000000   0.1250000  -0.5000000), wk =   0.0078125
        k(  237) = (  -0.5000000   0.1250000  -0.3750000), wk =   0.0078125
        k(  238) = (  -0.5000000   0.1250000  -0.2500000), wk =   0.0078125
        k(  239) = (  -0.5000000   0.1250000  -0.1250000), wk =   0.0078125
        k(  240) = (  -0.5000000   0.2500000   0.0000000), wk =   0.0078125
        k(  241) = (  -0.5000000   0.2500000   0.1250000), wk =   0.0078125
        k(  242) = (  -0.5000000   0.2500000   0.2500000), wk =   0.0078125
        k(  243) = (  -0.5000000   0.2500000   0.3750000), wk =   0.0078125
        k(  244) = (  -0.5000000   0.2500000  -0.5000000), wk =   0.0078125
        k(  245) = (  -0.5000000   0.2500000  -0.3750000), wk =   0.0078125
        k(  246) = (  -0.5000000   0.2500000  -0.2500000), wk =   0.0078125
        k(  247) = (  -0.5000000   0.2500000  -0.1250000), wk =   0.0078125
        k(  248) = (  -0.5000000   0.3750000   0.0000000), wk =   0.0078125
        k(  249) = (  -0.5000000   0.3750000   0.1250000), wk =   0.0078125
        k(  250) = (  -0.5000000   0.3750000   0.2500000), wk =   0.0078125
        k(  251) = (  -0.5000000   0.3750000   0.3750000), wk =   0.0078125
        k(  252) = (  -0.5000000   0.3750000  -0.5000000), wk =   0.0078125
        k(  253) = (  -0.5000000   0.3750000  -0.3750000), wk =   0.0078125
        k(  254) = (  -0.5000000   0.3750000  -0.2500000), wk =   0.0078125
        k(  255) = (  -0.5000000   0.3750000  -0.1250000), wk =   0.0078125
        k(  256) = (  -0.5000000  -0.5000000   0.0000000), wk =   0.0039062
        k(  257) = (  -0.5000000  -0.5000000   0.1250000), wk =   0.0078125
        k(  258) = (  -0.5000000  -0.5000000   0.2500000), wk =   0.0078125
        k(  259) = (  -0.5000000  -0.5000000   0.3750000), wk =   0.0078125
        k(  260) = (  -0.5000000  -0.5000000  -0.5000000), wk =   0.0039062

     Dense  grid:    76273 G-vectors     FFT dimensions: (  54,  54,  72)

     Smooth grid:    29665 G-vectors     FFT dimensions: (  40,  40,  50)

     Dynamical RAM for                 wfc:       0.09 MB

     Dynamical RAM for     wfc (w. buffer):       6.05 MB

     Dynamical RAM for           str. fact:       0.15 MB

     Dynamical RAM for           local pot:       0.00 MB

     Dynamical RAM for          nlocal pot:       0.22 MB

     Dynamical RAM for                qrad:       8.04 MB

     Dynamical RAM for          rho,v,vnew:       0.55 MB

     Dynamical RAM for               rhoin:       0.18 MB

     Dynamical RAM for            rho*nmix:       1.16 MB

     Dynamical RAM for           G-vectors:       0.29 MB

     Dynamical RAM for          h,s,v(r/c):       0.12 MB

     Dynamical RAM for          <psi|beta>:       0.02 MB

     Dynamical RAM for                 psi:       0.37 MB

     Dynamical RAM for                hpsi:       0.37 MB

     Dynamical RAM for                spsi:       0.37 MB

     Dynamical RAM for      wfcinit/wfcrot:       0.27 MB

     Dynamical RAM for           addusdens:       3.47 MB

     Dynamical RAM for          addusforce:       3.61 MB

     Dynamical RAM for         addusstress:       3.68 MB

     Estimated static dynamical RAM per process >      17.41 MB

     Estimated max dynamical RAM per process >      21.09 MB

     Estimated total dynamical RAM >       1.32 GB

     Check: negative core charge=   -0.000003

     Initial potential from superposition of free atoms

     starting charge   51.99974, renormalised to   52.00000
     Starting wfcs are   34 randomized atomic wfcs

     total cpu time spent up to now is        2.9 secs

     Self-consistent Calculation

     iteration #  1     ecut=    80.00 Ry     beta= 0.50
     Davidson diagonalization with overlap
     ethr =  1.00E-02,  avg # of iterations =  1.0

     total cpu time spent up to now is        3.8 secs

     total energy              =    -986.75628284 Ry
     Harris-Foulkes estimate   =    -987.27124544 Ry
     estimated scf accuracy    <       0.80943993 Ry

     iteration #  2     ecut=    80.00 Ry     beta= 0.50
     Davidson diagonalization with overlap
     ethr =  1.56E-03,  avg # of iterations =  3.0

     total cpu time spent up to now is        5.2 secs

     total energy              =    -986.99544774 Ry
     Harris-Foulkes estimate   =    -987.15736441 Ry
     estimated scf accuracy    <       0.37194621 Ry

     iteration #  3     ecut=    80.00 Ry     beta= 0.50
     Davidson diagonalization with overlap
     ethr =  7.15E-04,  avg # of iterations =  2.1

     total cpu time spent up to now is        6.3 secs

     total energy              =    -987.06241235 Ry
     Harris-Foulkes estimate   =    -987.06469198 Ry
     estimated scf accuracy    <       0.00676922 Ry

     iteration #  4     ecut=    80.00 Ry     beta= 0.50
     Davidson diagonalization with overlap
     ethr =  1.30E-05,  avg # of iterations =  2.0

     total cpu time spent up to now is        7.4 secs

     total energy              =    -987.06299162 Ry
     Harris-Foulkes estimate   =    -987.06343062 Ry
     estimated scf accuracy    <       0.00149628 Ry

     iteration #  5     ecut=    80.00 Ry     beta= 0.50
     Davidson diagonalization with overlap
     ethr =  2.88E-06,  avg # of iterations =  2.0

     total cpu time spent up to now is        8.5 secs

     total energy              =    -987.06314224 Ry
     Harris-Foulkes estimate   =    -987.06314993 Ry
     estimated scf accuracy    <       0.00001595 Ry

     iteration #  6     ecut=    80.00 Ry     beta= 0.50
     Davidson diagonalization with overlap
     ethr =  3.07E-08,  avg # of iterations =  2.5

     total cpu time spent up to now is        9.7 secs

     total energy              =    -987.06314521 Ry
     Harris-Foulkes estimate   =    -987.06314498 Ry
     estimated scf accuracy    <       0.00000402 Ry

     iteration #  7     ecut=    80.00 Ry     beta= 0.50
     Davidson diagonalization with overlap
     ethr =  7.72E-09,  avg # of iterations =  2.0

     total cpu time spent up to now is       10.7 secs

     End of self-consistent calculation

          k = 0.0000 0.0000 0.0000 (  3655 PWs)   bands (ev):

  -113.8089-113.8083 -68.1936 -68.1867 -68.1584 -68.1584 -68.1563 -68.1563
    -8.7811  -7.5975   3.4065   3.4065   3.5068   3.5068   4.1935   4.6407
     4.6407   4.6896   5.0259   5.0259   5.4223   8.4071   8.5002   8.5002
     9.2228   9.2228

     occupation numbers 
     1.0000   1.0000   1.0000   1.0000   1.0000   1.0000   1.0000   1.0000
     1.0000   1.0000   1.0000   1.0000   1.0000   1.0000   1.0000   1.0000
     1.0000   1.0000   1.0000   1.0000   1.0000   1.0000   1.0000   1.0000
     1.0000   1.0000

          k = 0.0000 0.0000 0.0935 (  3667 PWs)   bands (ev):

  -113.8089-113.8084 -68.1933 -68.1871 -68.1583 -68.1583 -68.1564 -68.1564
    -8.7366  -7.6418   3.3998   3.3998   3.4894   3.4894   4.0198   4.5909
     4.6687   4.6687   5.0217   5.0217   5.6803   8.1373   8.5348   8.5348
     9.2038   9.2038

     occupation numbers 
     1.0000   1.0000   1.0000   1.0000   1.0000   1.0000   1.0000   1.0000
     1.0000   1.0000   1.0000   1.0000   1.0000   1.0000   1.0000   1.0000
     1.0000   1.0000   1.0000   1.0000   1.0000   1.0000   1.0000   1.0000
     1.0000   1.0000

          k = 0.0000 0.0000 0.1869 (  3672 PWs)   bands (ev):

  -113.8088-113.8084 -68.1926 -68.1878 -68.1581 -68.1581 -68.1566 -68.1566
    -8.6091  -7.7689   3.3848   3.3848   3.4485   3.4485   3.7737   4.3329
     4.7398   4.7398   5.0051   5.0051   6.1654   7.7127   8.6310   8.6310
     9.1456   9.1456

     occupation numbers 
     1.0000   1.0000   1.0000   1.0000   1.0000   1.0000   1.0000   1.0000
     1.0000   1.0000   1.0000   1.0000   1.0000   1.0000   1.0000   1.0000
     1.0000   1.0000   1.0000   1.0000   1.0000   1.0000   1.0000   1.0000
     1.0000   1.0000

          k = 0.0000 0.0000 0.2804 (  3708 PWs)   bands (ev):

  -113.8087-113.8085 -68.1915 -68.1890 -68.1578 -68.1578 -68.1570 -68.1570
    -8.4171  -7.9612   3.3742   3.3742   3.4063   3.4063   3.6764   4.0190
     4.8275   4.8275   4.9688   4.9688   6.6296   7.3512   8.7674   8.7674
     9.0473   9.0474

     occupation numbers 
     1.0000   1.0000   1.0000   1.0000   1.0000   1.0000   1.0000   1.0000
     1.0000   1.0000   1.0000   1.0000   1.0000   1.0000   1.0000   1.0000
     1.0000   1.0000   1.0000   1.0000   1.0000   1.0000   1.0000   1.0000
     1.0000   1.0000

          k =-0.0000-0.0000-0.3739 (  3732 PWs)   bands (ev):

  -113.8087-113.8086 -68.1903 -68.1902 -68.1574 -68.1574 -68.1574 -68.1574
    -8.1894  -8.1891   3.3797   3.3797   3.3797   3.3797   3.7702   3.7703
     4.9083   4.9083   4.9084   4.9084   7.0141   7.0142   8.9153   8.9153
     8.9154   8.9154

     occupation numbers 
     1.0000   1.0000   1.0000   1.0000   1.0000   1.0000   1.0000   1.0000
     1.0000   1.0000   1.0000   1.0000   1.0000   1.0000   1.0000   1.0000
     1.0000   1.0000   1.0000   1.0000   1.0000   1.0000   1.0000   1.0000
     1.0000   1.0000

          k =-0.0000 0.1443 0.0000 (  3686 PWs)   bands (ev):

  -113.8089-113.8083 -68.1934 -68.1870 -68.1585 -68.1585 -68.1566 -68.1563
    -8.6934  -7.5831   3.3823   3.4745   3.4760   3.6126   4.0976   4.5712
     4.6172   4.7272   5.0401   5.2838   5.4141   7.9816   8.2323   8.3656
     8.4327   9.0521

     occupation numbers 
     1.0000   1.0000   1.0000   1.0000   1.0000   1.0000   1.0000   1.0000
     1.0000   1.0000   1.0000   1.0000   1.0000   1.0000   1.0000   1.0000
     1.0000   1.0000   1.0000   1.0000   1.0000   1.0000   1.0000   1.0000
     1.0000   1.0000

          k =-0.0000 0.1443 0.0935 (  3693 PWs)   bands (ev):

  -113.8089-113.8084 -68.1931 -68.1873 -68.1584 -68.1584 -68.1566 -68.1564
    -8.6507  -7.6235   3.3627   3.4499   3.4702   3.5925   3.9697   4.4965
     4.6472   4.7304   5.0339   5.1471   5.7594   7.8696   8.0833   8.2706
     8.8274   9.0292

     occupation numbers 
     1.0000   1.0000   1.0000   1.0000   1.0000   1.0000   1.0000   1.0000
     1.0000   1.0000   1.0000   1.0000   1.0000   1.0000   1.0000   1.0000
     1.0000   1.0000   1.0000   1.0000   1.0000   1.0000   1.0000   1.0000
     1.0000   1.0000

          k =-0.0000 0.1443 0.1869 (  3703 PWs)   bands (ev):

  -113.8088-113.8084 -68.1925 -68.1880 -68.1582 -68.1582 -68.1569 -68.1567
    -8.5290  -7.7402   3.3064   3.3888   3.4581   3.5454   3.7848   4.2636
     4.7230   4.7849   5.0123   5.0754   6.2308   7.4828   8.2525   8.3771
     8.9601   9.0230

     occupation numbers 
     1.0000   1.0000   1.0000   1.0000   1.0000   1.0000   1.0000   1.0000
     1.0000   1.0000   1.0000   1.0000   1.0000   1.0000   1.0000   1.0000
     1.0000   1.0000   1.0000   1.0000   1.0000   1.0000   1.0000   1.0000
     1.0000   1.0000

          k =-0.0000 0.1443 0.2804 (  3694 PWs)   bands (ev):

  -113.8087-113.8085 -68.1914 -68.1890 -68.1579 -68.1578 -68.1571 -68.1570
    -8.3464  -7.9181   3.2532   3.3204   3.4518   3.4962   3.7184   3.9844
     4.8160   4.8691   4.9695   5.0202   6.6287   7.1872   8.5192   8.5289
     8.8457   8.9854

     occupation numbers 
     1.0000   1.0000   1.0000   1.0000   1.0000   1.0000   1.0000   1.0000
     1.0000   1.0000   1.0000   1.0000   1.0000   1.0000   1.0000   1.0000
     1.0000   1.0000   1.0000   1.0000   1.0000   1.0000   1.0000   1.0000
     1.0000   1.0000

          k =-0.0000 0.1443-0.3739 (  3700 PWs)   bands (ev):

  -113.8086-113.8086 -68.1903 -68.1902 -68.1575 -68.1575 -68.1574 -68.1574
    -8.1315  -8.1312   3.2634   3.2635   3.4630   3.4631   3.7851   3.7852
     4.9026   4.9027   4.9521   4.9522   6.9288   6.9289   8.6951   8.6952
     8.7923   8.7924

     occupation numbers 
     1.0000   1.0000   1.0000   1.0000   1.0000   1.0000   1.0000   1.0000
     1.0000   1.0000   1.0000   1.0000   1.0000   1.0000   1.0000   1.0000
     1.0000   1.0000   1.0000   1.0000   1.0000   1.0000   1.0000   1.0000
     1.0000   1.0000

          k =-0.0000 0.1443-0.2804 (  3694 PWs)   bands (ev):

  -113.8087-113.8085 -68.1914 -68.1890 -68.1579 -68.1578 -68.1571 -68.1570
    -8.3464  -7.9181   3.2532   3.3204   3.4518   3.4962   3.7184   3.9844
     4.8160   4.8691   4.9695   5.0202   6.6287   7.1872   8.5192   8.5289
     8.8457   8.9854

     occupation numbers 
     1.0000   1.0000   1.0000   1.0000   1.0000   1.0000   1.0000   1.0000
     1.0000   1.0000   1.0000   1.0000   1.0000   1.0000   1.0000   1.0000
     1.0000   1.0000   1.0000   1.0000   1.0000   1.0000   1.0000   1.0000
     1.0000   1.0000

          k =-0.0000 0.1443-0.1869 (  3703 PWs)   bands (ev):

  -113.8088-113.8084 -68.1925 -68.1880 -68.1582 -68.1582 -68.1569 -68.1567
    -8.5290  -7.7402   3.3064   3.3888   3.4581   3.5454   3.7848   4.2636
     4.7230   4.7849   5.0123   5.0754   6.2308   7.4828   8.2525   8.3771
     8.9601   9.0230

     occupation numbers 
     1.0000   1.0000   1.0000   1.0000   1.0000   1.0000   1.0000   1.0000
     1.0000   1.0000   1.0000   1.0000   1.0000   1.0000   1.0000   1.0000
     1.0000   1.0000   1.0000   1.0000   1.0000   1.0000   1.0000   1.0000
     1.0000   1.0000

          k =-0.0000 0.1443-0.0935 (  3693 PWs)   bands (ev):

  -113.8089-113.8084 -68.1931 -68.1873 -68.1584 -68.1584 -68.1566 -68.1564
    -8.6507  -7.6235   3.3627   3.4499   3.4702   3.5925   3.9697   4.4965
     4.6472   4.7304   5.0339   5.1471   5.7594   7.8696   8.0833   8.2706
     8.8274   9.0292

     occupation numbers 
     1.0000   1.0000   1.0000   1.0000   1.0000   1.0000   1.0000   1.0000
     1.0000   1.0000   1.0000   1.0000   1.0000   1.0000   1.0000   1.0000
     1.0000   1.0000   1.0000   1.0000   1.0000   1.0000   1.0000   1.0000
     1.0000   1.0000

          k =-0.0000 0.2887 0.0000 (  3714 PWs)   bands (ev):

  -113.8088-113.8084 -68.1927 -68.1877 -68.1588 -68.1587 -68.1572 -68.1564
    -8.4613  -7.5640   3.2740   3.5412   3.6848   3.8793   3.9999   4.4275
     4.5692   4.7866   5.0683   5.3664   5.8273   6.9294   7.3963   7.5995
     8.2636   8.6134

     occupation numbers 
     1.0000   1.0000   1.0000   1.0000   1.0000   1.0000   1.0000   1.0000
     1.0000   1.0000   1.0000   1.0000   1.0000   1.0000   1.0000   1.0000
     1.0000   1.0000   1.0000   1.0000   1.0000   1.0000   1.0000   1.0000
     1.0000   1.0000

          k =-0.0000 0.2887 0.0935 (  3719 PWs)   bands (ev):

  -113.8088-113.8084 -68.1925 -68.1879 -68.1588 -68.1586 -68.1573 -68.1565
    -8.4244  -7.5937   3.2460   3.4747   3.6800   3.8522   3.9277   4.3373
     4.6047   4.8071   5.0573   5.2727   6.0153   7.0386   7.2463   7.6464
     8.5280   8.5835

     occupation numbers 
     1.0000   1.0000   1.0000   1.0000   1.0000   1.0000   1.0000   1.0000
     1.0000   1.0000   1.0000   1.0000   1.0000   1.0000   1.0000   1.0000
     1.0000   1.0000   1.0000   1.0000   1.0000   1.0000   1.0000   1.0000
     1.0000   1.0000

          k =-0.0000 0.2887 0.1869 (  3713 PWs)   bands (ev):

  -113.8088-113.8084 -68.1920 -68.1884 -68.1586 -68.1584 -68.1574 -68.1568
    -8.3199  -7.6809   3.1601   3.3201   3.6709   3.7915   3.8209   4.1279
     4.6905   4.8649   5.0240   5.1786   6.2417   6.8552   7.6297   7.7765
     8.4943   8.8680

     occupation numbers 
     1.0000   1.0000   1.0000   1.0000   1.0000   1.0000   1.0000   1.0000
     1.0000   1.0000   1.0000   1.0000   1.0000   1.0000   1.0000   1.0000
     1.0000   1.0000   1.0000   1.0000   1.0000   1.0000   1.0000   1.0000
     1.0000   1.0000

          k =-0.0000 0.2887 0.2804 (  3711 PWs)   bands (ev):

  -113.8087-113.8085 -68.1912 -68.1893 -68.1582 -68.1580 -68.1576 -68.1571
    -8.1657  -7.8182   3.0681   3.1728   3.6696   3.7301   3.7723   3.9205
     4.7926   4.9467   4.9674   5.1072   6.3947   6.6631   7.9612   8.2168
     8.3500   8.9436

     occupation numbers 
     1.0000   1.0000   1.0000   1.0000   1.0000   1.0000   1.0000   1.0000
     1.0000   1.0000   1.0000   1.0000   1.0000   1.0000   1.0000   1.0000
     1.0000   1.0000   1.0000   1.0000   1.0000   1.0000   1.0000   1.0000
     1.0000   1.0000

          k =-0.0000 0.2887-0.3739 (  3692 PWs)   bands (ev):

  -113.8086-113.8086 -68.1903 -68.1902 -68.1579 -68.1579 -68.1576 -68.1575
    -7.9886  -7.9884   3.0711   3.0711   3.6876   3.6877   3.7999   3.7999
     4.8887   4.8887   5.0314   5.0314   6.5227   6.5227   8.1639   8.1641
     8.7014   8.7014

     occupation numbers 
     1.0000   1.0000   1.0000   1.0000   1.0000   1.0000   1.0000   1.0000
     1.0000   1.0000   1.0000   1.0000   1.0000   1.0000   1.0000   1.0000
     1.0000   1.0000   1.0000   1.0000   1.0000   1.0000   1.0000   1.0000
     1.0000   1.0000

          k =-0.0000 0.2887-0.2804 (  3711 PWs)   bands (ev):

  -113.8087-113.8085 -68.1912 -68.1893 -68.1582 -68.1580 -68.1576 -68.1571
    -8.1657  -7.8182   3.0681   3.1728   3.6696   3.7301   3.7723   3.9205
     4.7926   4.9467   4.9674   5.1072   6.3947   6.6631   7.9612   8.2168
     8.3500   8.9436

     occupation numbers 
     1.0000   1.0000   1.0000   1.0000   1.0000   1.0000   1.0000   1.0000
     1.0000   1.0000   1.0000   1.0000   1.0000   1.0000   1.0000   1.0000
     1.0000   1.0000   1.0000   1.0000   1.0000   1.0000   1.0000   1.0000
     1.0000   1.0000

          k =-0.0000 0.2887-0.1869 (  3713 PWs)   bands (ev):

  -113.8088-113.8084 -68.1920 -68.1884 -68.1586 -68.1584 -68.1574 -68.1568
    -8.3199  -7.6809   3.1601   3.3201   3.6709   3.7915   3.8209   4.1279
     4.6905   4.8649   5.0240   5.1786   6.2417   6.8552   7.6296   7.7765
     8.4943   8.8681

     occupation numbers 
     1.0000   1.0000   1.0000   1.0000   1.0000   1.0000   1.0000   1.0000
     1.0000   1.0000   1.0000   1.0000   1.0000   1.0000   1.0000   1.0000
     1.0000   1.0000   1.0000   1.0000   1.0000   1.0000   1.0000   1.0000
     1.0000   1.0000

          k =-0.0000 0.2887-0.0935 (  3719 PWs)   bands (ev):

  -113.8088-113.8084 -68.1925 -68.1879 -68.1588 -68.1586 -68.1573 -68.1565
    -8.4244  -7.5937   3.2460   3.4747   3.6800   3.8522   3.9277   4.3373
     4.6047   4.8071   5.0573   5.2727   6.0153   7.0386   7.2462   7.6464
     8.5280   8.5835

     occupation numbers 
     1.0000   1.0000   1.0000   1.0000   1.0000   1.0000   1.0000   1.0000
     1.0000   1.0000   1.0000   1.0000   1.0000   1.0000   1.0000   1.0000
     1.0000   1.0000   1.0000   1.0000   1.0000   1.0000   1.0000   1.0000
     1.0000   1.0000

          k =-0.0000 0.4330 0.0000 (  3714 PWs)   bands (ev):

  -113.8087-113.8084 -68.1918 -68.1885 -68.1591 -68.1589 -68.1577 -68.1564
    -8.1777  -7.5895   3.2249   3.7183   3.9578   4.0429   4.1854   4.2649
     4.5439   4.8218   5.0909   5.2271   6.0803   6.3752   6.5166   6.9345
     8.0351   8.1363

     occupation numbers 
     1.0000   1.0000   1.0000   1.0000   1.0000   1.0000   1.0000   1.0000
     1.0000   1.0000   1.0000   1.0000   1.0000   1.0000   1.0000   1.0000
     1.0000   1.0000   1.0000   1.0000   1.0000   1.0000   1.0000   1.0000
     1.0000   1.0000

          k =-0.0000 0.4330 0.0935 (  3721 PWs)   bands (ev):

  -113.8087-113.8085 -68.1917 -68.1886 -68.1591 -68.1588 -68.1578 -68.1565
    -8.1498  -7.6049   3.1841   3.6101   3.9529   3.9939   4.1476   4.1846
     4.5872   4.8486   5.0731   5.2053   5.9295   6.2996   6.8951   6.9937
     8.1012   8.2844

     occupation numbers 
     1.0000   1.0000   1.0000   1.0000   1.0000   1.0000   1.0000   1.0000
     1.0000   1.0000   1.0000   1.0000   1.0000   1.0000   1.0000   1.0000
     1.0000   1.0000   1.0000   1.0000   1.0000   1.0000   1.0000   1.0000
     1.0000   1.0000

          k =-0.0000 0.4330 0.1869 (  3701 PWs)   bands (ev):

  -113.8087-113.8085 -68.1914 -68.1890 -68.1589 -68.1586 -68.1579 -68.1568
    -8.0722  -7.6523   3.0696   3.3647   3.8961   3.9435   4.0357   4.0731
     4.6792   4.9064   5.0252   5.1603   5.8671   6.1212   7.1541   7.6012
     7.9969   8.7182

     occupation numbers 
     1.0000   1.0000   1.0000   1.0000   1.0000   1.0000   1.0000   1.0000
     1.0000   1.0000   1.0000   1.0000   1.0000   1.0000   1.0000   1.0000
     1.0000   1.0000   1.0000   1.0000   1.0000   1.0000   1.0000   1.0000
     1.0000   1.0000

          k =-0.0000 0.4330 0.2804 (  3709 PWs)   bands (ev):

  -113.8086-113.8085 -68.1909 -68.1896 -68.1586 -68.1581 -68.1580 -68.1572
    -7.9615  -7.7327   2.9581   3.1175   3.8344   3.9138   3.9419   4.0050
     4.7797   4.9568   4.9762   5.1074   5.8879   6.0069   7.3755   7.8294
     8.2892   8.9409

     occupation numbers 
     1.0000   1.0000   1.0000   1.0000   1.0000   1.0000   1.0000   1.0000
     1.0000   1.0000   1.0000   1.0000   1.0000   1.0000   1.0000   1.0000
     1.0000   1.0000   1.0000   1.0000   1.0000   1.0000   1.0000   1.0000
     1.0000   1.0000

          k =-0.0000 0.4330-0.3739 (  3718 PWs)   bands (ev):

  -113.8086-113.8086 -68.1903 -68.1903 -68.1583 -68.1583 -68.1577 -68.1577
    -7.8409  -7.8406   2.9637   2.9638   3.8432   3.8432   3.9603   3.9603
     4.8739   4.8739   5.0455   5.0455   5.9373   5.9374   7.6132   7.6134
     8.7830   8.7831

     occupation numbers 
     1.0000   1.0000   1.0000   1.0000   1.0000   1.0000   1.0000   1.0000
     1.0000   1.0000   1.0000   1.0000   1.0000   1.0000   1.0000   1.0000
     1.0000   1.0000   1.0000   1.0000   1.0000   1.0000   1.0000   1.0000
     1.0000   1.0000

          k =-0.0000 0.4330-0.2804 (  3709 PWs)   bands (ev):

  -113.8086-113.8085 -68.1909 -68.1896 -68.1586 -68.1581 -68.1580 -68.1572
    -7.9615  -7.7327   2.9581   3.1175   3.8344   3.9138   3.9419   4.0050
     4.7797   4.9568   4.9762   5.1074   5.8878   6.0069   7.3755   7.8294
     8.2892   8.9409

     occupation numbers 
     1.0000   1.0000   1.0000   1.0000   1.0000   1.0000   1.0000   1.0000
     1.0000   1.0000   1.0000   1.0000   1.0000   1.0000   1.0000   1.0000
     1.0000   1.0000   1.0000   1.0000   1.0000   1.0000   1.0000   1.0000
     1.0000   1.0000

          k =-0.0000 0.4330-0.1869 (  3701 PWs)   bands (ev):

  -113.8087-113.8085 -68.1914 -68.1890 -68.1589 -68.1586 -68.1579 -68.1568
    -8.0722  -7.6523   3.0696   3.3647   3.8961   3.9435   4.0357   4.0731
     4.6792   4.9064   5.0252   5.1603   5.8671   6.1212   7.1541   7.6012
     7.9969   8.7182

     occupation numbers 
     1.0000   1.0000   1.0000   1.0000   1.0000   1.0000   1.0000   1.0000
     1.0000   1.0000   1.0000   1.0000   1.0000   1.0000   1.0000   1.0000
     1.0000   1.0000   1.0000   1.0000   1.0000   1.0000   1.0000   1.0000
     1.0000   1.0000

          k =-0.0000 0.4330-0.0935 (  3721 PWs)   bands (ev):

  -113.8087-113.8085 -68.1917 -68.1886 -68.1591 -68.1588 -68.1578 -68.1565
    -8.1498  -7.6049   3.1841   3.6101   3.9529   3.9940   4.1476   4.1846
     4.5872   4.8486   5.0731   5.2053   5.9295   6.2997   6.8950   6.9937
     8.1012   8.2844

     occupation numbers 
     1.0000   1.0000   1.0000   1.0000   1.0000   1.0000   1.0000   1.0000
     1.0000   1.0000   1.0000   1.0000   1.0000   1.0000   1.0000   1.0000
     1.0000   1.0000   1.0000   1.0000   1.0000   1.0000   1.0000   1.0000
     1.0000   1.0000

          k = 0.0000-0.5774-0.0000 (  3710 PWs)   bands (ev):

  -113.8087-113.8085 -68.1912 -68.1890 -68.1592 -68.1590 -68.1580 -68.1565
    -8.0200  -7.6383   3.2395   3.8134   4.0969   4.1375   4.2086   4.3160
     4.5671   4.8043   5.0862   5.0990   5.8903   5.9396   6.6249   6.7663
     7.8565   7.9230

     occupation numbers 
     1.0000   1.0000   1.0000   1.0000   1.0000   1.0000   1.0000   1.0000
     1.0000   1.0000   1.0000   1.0000   1.0000   1.0000   1.0000   1.0000
     1.0000   1.0000   1.0000   1.0000   1.0000   1.0000   1.0000   1.0000
     1.0000   1.0000

          k = 0.0000-0.5774 0.0935 (  3728 PWs)   bands (ev):

  -113.8087-113.8085 -68.1912 -68.1891 -68.1592 -68.1589 -68.1580 -68.1566
    -7.9986  -7.6448   3.1889   3.7013   4.0467   4.0920   4.1685   4.2755
     4.6105   4.8347   5.0756   5.0787   5.8060   5.8368   6.6930   7.1023
     7.8860   8.1191

     occupation numbers 
     1.0000   1.0000   1.0000   1.0000   1.0000   1.0000   1.0000   1.0000
     1.0000   1.0000   1.0000   1.0000   1.0000   1.0000   1.0000   1.0000
     1.0000   1.0000   1.0000   1.0000   1.0000   1.0000   1.0000   1.0000
     1.0000   1.0000

          k = 0.0000-0.5774 0.1869 (  3720 PWs)   bands (ev):

  -113.8087-113.8085 -68.1910 -68.1894 -68.1590 -68.1586 -68.1581 -68.1568
    -7.9402  -7.6673   3.0542   3.4221   3.9146   4.0721   4.0822   4.2015
     4.6952   4.8883   5.0179   5.0579   5.7096   5.7411   6.8735   7.7535
     7.7763   8.6131

     occupation numbers 
     1.0000   1.0000   1.0000   1.0000   1.0000   1.0000   1.0000   1.0000
     1.0000   1.0000   1.0000   1.0000   1.0000   1.0000   1.0000   1.0000
     1.0000   1.0000   1.0000   1.0000   1.0000   1.0000   1.0000   1.0000
     1.0000   1.0000

          k = 0.0000-0.5774 0.2804 (  3724 PWs)   bands (ev):

  -113.8086-113.8085 -68.1907 -68.1898 -68.1587 -68.1583 -68.1582 -68.1573
    -7.8600  -7.7112   2.9324   3.1239   3.8652   3.9682   4.0793   4.1366
     4.7837   4.9393   4.9455   5.0261   5.6848   5.7060   7.1157   7.5996
     8.3978   8.9234

     occupation numbers 
     1.0000   1.0000   1.0000   1.0000   1.0000   1.0000   1.0000   1.0000
     1.0000   1.0000   1.0000   1.0000   1.0000   1.0000   1.0000   1.0000
     1.0000   1.0000   1.0000   1.0000   1.0000   1.0000   1.0000   1.0000
     1.0000   1.0000

          k = 0.0000-0.5774-0.3739 (  3716 PWs)   bands (ev):

  -113.8086-113.8085 -68.1903 -68.1903 -68.1585 -68.1584 -68.1578 -68.1577
    -7.7782  -7.7779   2.9427   2.9427   3.8915   3.8916   4.0951   4.0952
     4.8672   4.8672   4.9857   4.9857   5.6916   5.6917   7.3706   7.3708
     8.8404   8.8405

     occupation numbers 
     1.0000   1.0000   1.0000   1.0000   1.0000   1.0000   1.0000   1.0000
     1.0000   1.0000   1.0000   1.0000   1.0000   1.0000   1.0000   1.0000
     1.0000   1.0000   1.0000   1.0000   1.0000   1.0000   1.0000   1.0000
     1.0000   1.0000

          k = 0.1250 0.0722 0.0000 (  3686 PWs)   bands (ev):

  -113.8089-113.8083 -68.1934 -68.1870 -68.1585 -68.1585 -68.1566 -68.1563
    -8.6934  -7.5831   3.3823   3.4745   3.4760   3.6126   4.0976   4.5712
     4.6172   4.7272   5.0401   5.2838   5.4141   7.9816   8.2323   8.3656
     8.4327   9.0521

     occupation numbers 
     1.0000   1.0000   1.0000   1.0000   1.0000   1.0000   1.0000   1.0000
     1.0000   1.0000   1.0000   1.0000   1.0000   1.0000   1.0000   1.0000
     1.0000   1.0000   1.0000   1.0000   1.0000   1.0000   1.0000   1.0000
     1.0000   1.0000

          k = 0.1250 0.0722 0.0935 (  3693 PWs)   bands (ev):

  -113.8089-113.8084 -68.1931 -68.1873 -68.1584 -68.1584 -68.1566 -68.1564
    -8.6507  -7.6235   3.3627   3.4499   3.4702   3.5925   3.9697   4.4965
     4.6472   4.7304   5.0339   5.1471   5.7594   7.8696   8.0833   8.2706
     8.8274   9.0292

     occupation numbers 
     1.0000   1.0000   1.0000   1.0000   1.0000   1.0000   1.0000   1.0000
     1.0000   1.0000   1.0000   1.0000   1.0000   1.0000   1.0000   1.0000
     1.0000   1.0000   1.0000   1.0000   1.0000   1.0000   1.0000   1.0000
     1.0000   1.0000

          k = 0.1250 0.0722 0.1869 (  3703 PWs)   bands (ev):

  -113.8088-113.8084 -68.1925 -68.1880 -68.1582 -68.1582 -68.1569 -68.1567
    -8.5290  -7.7402   3.3064   3.3888   3.4581   3.5454   3.7848   4.2636
     4.7230   4.7849   5.0123   5.0754   6.2308   7.4828   8.2525   8.3771
     8.9601   9.0230

     occupation numbers 
     1.0000   1.0000   1.0000   1.0000   1.0000   1.0000   1.0000   1.0000
     1.0000   1.0000   1.0000   1.0000   1.0000   1.0000   1.0000   1.0000
     1.0000   1.0000   1.0000   1.0000   1.0000   1.0000   1.0000   1.0000
     1.0000   1.0000

          k = 0.1250 0.0722 0.2804 (  3694 PWs)   bands (ev):

  -113.8087-113.8085 -68.1914 -68.1890 -68.1579 -68.1578 -68.1571 -68.1570
    -8.3464  -7.9181   3.2532   3.3204   3.4518   3.4962   3.7184   3.9844
     4.8160   4.8691   4.9695   5.0202   6.6287   7.1872   8.5192   8.5289
     8.8457   8.9854

     occupation numbers 
     1.0000   1.0000   1.0000   1.0000   1.0000   1.0000   1.0000   1.0000
     1.0000   1.0000   1.0000   1.0000   1.0000   1.0000   1.0000   1.0000
     1.0000   1.0000   1.0000   1.0000   1.0000   1.0000   1.0000   1.0000
     1.0000   1.0000

          k = 0.1250 0.0722-0.3739 (  3700 PWs)   bands (ev):

  -113.8086-113.8086 -68.1903 -68.1902 -68.1575 -68.1575 -68.1574 -68.1574
    -8.1315  -8.1312   3.2634   3.2635   3.4630   3.4631   3.7851   3.7852
     4.9026   4.9027   4.9521   4.9522   6.9288   6.9289   8.6951   8.6952
     8.7923   8.7924

     occupation numbers 
     1.0000   1.0000   1.0000   1.0000   1.0000   1.0000   1.0000   1.0000
     1.0000   1.0000   1.0000   1.0000   1.0000   1.0000   1.0000   1.0000
     1.0000   1.0000   1.0000   1.0000   1.0000   1.0000   1.0000   1.0000
     1.0000   1.0000

          k = 0.1250 0.0722-0.2804 (  3694 PWs)   bands (ev):

  -113.8087-113.8085 -68.1914 -68.1890 -68.1579 -68.1578 -68.1571 -68.1570
    -8.3464  -7.9181   3.2532   3.3204   3.4518   3.4962   3.7184   3.9844
     4.8160   4.8691   4.9695   5.0202   6.6287   7.1872   8.5192   8.5289
     8.8457   8.9854

     occupation numbers 
     1.0000   1.0000   1.0000   1.0000   1.0000   1.0000   1.0000   1.0000
     1.0000   1.0000   1.0000   1.0000   1.0000   1.0000   1.0000   1.0000
     1.0000   1.0000   1.0000   1.0000   1.0000   1.0000   1.0000   1.0000
     1.0000   1.0000

          k = 0.1250 0.0722-0.1869 (  3703 PWs)   bands (ev):

  -113.8088-113.8084 -68.1925 -68.1880 -68.1582 -68.1582 -68.1569 -68.1567
    -8.5290  -7.7402   3.3064   3.3888   3.4581   3.5454   3.7848   4.2636
     4.7230   4.7849   5.0123   5.0754   6.2308   7.4828   8.2525   8.3771
     8.9601   9.0230

     occupation numbers 
     1.0000   1.0000   1.0000   1.0000   1.0000   1.0000   1.0000   1.0000
     1.0000   1.0000   1.0000   1.0000   1.0000   1.0000   1.0000   1.0000
     1.0000   1.0000   1.0000   1.0000   1.0000   1.0000   1.0000   1.0000
     1.0000   1.0000

          k = 0.1250 0.0722-0.0935 (  3693 PWs)   bands (ev):

  -113.8089-113.8084 -68.1931 -68.1873 -68.1584 -68.1584 -68.1566 -68.1564
    -8.6507  -7.6235   3.3627   3.4499   3.4702   3.5925   3.9697   4.4965
     4.6472   4.7304   5.0339   5.1471   5.7594   7.8696   8.0833   8.2706
     8.8274   9.0292

     occupation numbers 
     1.0000   1.0000   1.0000   1.0000   1.0000   1.0000   1.0000   1.0000
     1.0000   1.0000   1.0000   1.0000   1.0000   1.0000   1.0000   1.0000
     1.0000   1.0000   1.0000   1.0000   1.0000   1.0000   1.0000   1.0000
     1.0000   1.0000

          k = 0.1250 0.2165 0.0000 (  3703 PWs)   bands (ev):

  -113.8088-113.8084 -68.1929 -68.1874 -68.1587 -68.1587 -68.1570 -68.1564
    -8.5331  -7.5665   3.3555   3.4340   3.6452   3.7949   4.0210   4.4653
     4.5857   4.7699   5.0603   5.3854   5.6723   7.3339   7.4672   7.8869
     8.3095   8.6713

     occupation numbers 
     1.0000   1.0000   1.0000   1.0000   1.0000   1.0000   1.0000   1.0000
     1.0000   1.0000   1.0000   1.0000   1.0000   1.0000   1.0000   1.0000
     1.0000   1.0000   1.0000   1.0000   1.0000   1.0000   1.0000   1.0000
     1.0000   1.0000

          k = 0.1250 0.2165 0.0935 (  3711 PWs)   bands (ev):

  -113.8088-113.8084 -68.1927 -68.1877 -68.1586 -68.1586 -68.1571 -68.1565
    -8.4943  -7.5997   3.3368   3.3820   3.6353   3.7659   3.9357   4.3818
     4.6160   4.7853   5.0521   5.2569   5.9438   7.3294   7.4599   7.7887
     8.6195   8.6414

     occupation numbers 
     1.0000   1.0000   1.0000   1.0000   1.0000   1.0000   1.0000   1.0000
     1.0000   1.0000   1.0000   1.0000   1.0000   1.0000   1.0000   1.0000
     1.0000   1.0000   1.0000   1.0000   1.0000   1.0000   1.0000   1.0000
     1.0000   1.0000

          k = 0.1250 0.2165 0.1869 (  3703 PWs)   bands (ev):

  -113.8088-113.8084 -68.1921 -68.1883 -68.1584 -68.1584 -68.1572 -68.1567
    -8.3841  -7.6963   3.2458   3.2818   3.6151   3.7055   3.8118   4.1652
     4.6967   4.8417   5.0246   5.1574   6.2843   7.0575   7.8306   7.8629
     8.5525   8.9449

     occupation numbers 
     1.0000   1.0000   1.0000   1.0000   1.0000   1.0000   1.0000   1.0000
     1.0000   1.0000   1.0000   1.0000   1.0000   1.0000   1.0000   1.0000
     1.0000   1.0000   1.0000   1.0000   1.0000   1.0000   1.0000   1.0000
     1.0000   1.0000

          k = 0.1250 0.2165 0.2804 (  3712 PWs)   bands (ev):

  -113.8087-113.8085 -68.1913 -68.1892 -68.1581 -68.1580 -68.1575 -68.1571
    -8.2206  -7.8466   3.1315   3.1982   3.6034   3.6519   3.7585   3.9356
     4.7968   4.9181   4.9786   5.0875   6.5167   6.8474   8.0306   8.3257
     8.4129   8.9975

     occupation numbers 
     1.0000   1.0000   1.0000   1.0000   1.0000   1.0000   1.0000   1.0000
     1.0000   1.0000   1.0000   1.0000   1.0000   1.0000   1.0000   1.0000
     1.0000   1.0000   1.0000   1.0000   1.0000   1.0000   1.0000   1.0000
     1.0000   1.0000

          k = 0.1250 0.2165-0.3739 (  3692 PWs)   bands (ev):

  -113.8086-113.8086 -68.1903 -68.1902 -68.1578 -68.1577 -68.1576 -68.1575
    -8.0310  -8.0308   3.1240   3.1241   3.6149   3.6150   3.7949   3.7949
     4.8897   4.8897   5.0150   5.0150   6.6848   6.6848   8.2253   8.2255
     8.7656   8.7656

     occupation numbers 
     1.0000   1.0000   1.0000   1.0000   1.0000   1.0000   1.0000   1.0000
     1.0000   1.0000   1.0000   1.0000   1.0000   1.0000   1.0000   1.0000
     1.0000   1.0000   1.0000   1.0000   1.0000   1.0000   1.0000   1.0000
     1.0000   1.0000

          k = 0.1250 0.2165-0.2804 (  3712 PWs)   bands (ev):

  -113.8087-113.8085 -68.1913 -68.1892 -68.1581 -68.1580 -68.1575 -68.1571
    -8.2206  -7.8466   3.1315   3.1982   3.6034   3.6519   3.7585   3.9356
     4.7968   4.9181   4.9786   5.0875   6.5167   6.8474   8.0306   8.3257
     8.4129   8.9975

     occupation numbers 
     1.0000   1.0000   1.0000   1.0000   1.0000   1.0000   1.0000   1.0000
     1.0000   1.0000   1.0000   1.0000   1.0000   1.0000   1.0000   1.0000
     1.0000   1.0000   1.0000   1.0000   1.0000   1.0000   1.0000   1.0000
     1.0000   1.0000

          k = 0.1250 0.2165-0.1869 (  3703 PWs)   bands (ev):

  -113.8088-113.8084 -68.1921 -68.1883 -68.1584 -68.1584 -68.1572 -68.1567
    -8.3841  -7.6963   3.2458   3.2818   3.6151   3.7055   3.8118   4.1652
     4.6967   4.8417   5.0246   5.1574   6.2843   7.0575   7.8306   7.8629
     8.5525   8.9449

     occupation numbers 
     1.0000   1.0000   1.0000   1.0000   1.0000   1.0000   1.0000   1.0000
     1.0000   1.0000   1.0000   1.0000   1.0000   1.0000   1.0000   1.0000
     1.0000   1.0000   1.0000   1.0000   1.0000   1.0000   1.0000   1.0000
     1.0000   1.0000

          k = 0.1250 0.2165-0.0935 (  3711 PWs)   bands (ev):

  -113.8088-113.8084 -68.1927 -68.1877 -68.1586 -68.1586 -68.1571 -68.1565
    -8.4943  -7.5997   3.3368   3.3820   3.6353   3.7659   3.9357   4.3818
     4.6160   4.7853   5.0521   5.2569   5.9438   7.3294   7.4599   7.7887
     8.6195   8.6414

     occupation numbers 
     1.0000   1.0000   1.0000   1.0000   1.0000   1.0000   1.0000   1.0000
     1.0000   1.0000   1.0000   1.0000   1.0000   1.0000   1.0000   1.0000
     1.0000   1.0000   1.0000   1.0000   1.0000   1.0000   1.0000   1.0000
     1.0000   1.0000

          k = 0.1250 0.3608 0.0000 (  3711 PWs)   bands (ev):

  -113.8088-113.8084 -68.1921 -68.1882 -68.1591 -68.1588 -68.1575 -68.1565
    -8.2714  -7.5729   3.3149   3.5905   3.8801   3.9672   4.1435   4.3230
     4.5335   4.8132   5.0853   5.3032   6.1917   6.4545   6.7223   7.0488
     8.0990   8.1235

     occupation numbers 
     1.0000   1.0000   1.0000   1.0000   1.0000   1.0000   1.0000   1.0000
     1.0000   1.0000   1.0000   1.0000   1.0000   1.0000   1.0000   1.0000
     1.0000   1.0000   1.0000   1.0000   1.0000   1.0000   1.0000   1.0000
     1.0000   1.0000

          k = 0.1250 0.3608 0.0935 (  3715 PWs)   bands (ev):

  -113.8087-113.8084 -68.1920 -68.1884 -68.1590 -68.1588 -68.1576 -68.1566
    -8.2402  -7.5932   3.2811   3.5037   3.8700   3.9235   4.0917   4.2378
     4.5758   4.8354   5.0729   5.2616   6.0843   6.5831   6.8825   7.0660
     8.0536   8.3987

     occupation numbers 
     1.0000   1.0000   1.0000   1.0000   1.0000   1.0000   1.0000   1.0000
     1.0000   1.0000   1.0000   1.0000   1.0000   1.0000   1.0000   1.0000
     1.0000   1.0000   1.0000   1.0000   1.0000   1.0000   1.0000   1.0000
     1.0000   1.0000

          k = 0.1250 0.3608 0.1869 (  3713 PWs)   bands (ev):

  -113.8087-113.8085 -68.1916 -68.1888 -68.1587 -68.1586 -68.1576 -68.1569
    -8.1527  -7.6545   3.1709   3.3066   3.8474   3.8568   3.9963   4.0564
     4.6701   4.8879   5.0389   5.1942   6.0685   6.4204   7.0742   7.6630
[...]
    -7.9465  -7.6579   3.3598   3.3748   3.9393   3.9737   4.1059   4.1893
     4.6915   4.8306   5.0810   5.1645   5.8594   5.9899   6.1919   7.1553
     7.9646   8.6990

     occupation numbers 
     1.0000   1.0000   1.0000   1.0000   1.0000   1.0000   1.0000   1.0000
     1.0000   1.0000   1.0000   1.0000   1.0000   1.0000   1.0000   1.0000
     1.0000   1.0000   1.0000   1.0000   1.0000   1.0000   1.0000   1.0000
     1.0000   1.0000

          k =-0.5000 0.0000 0.2805 (  3706 PWs)   bands (ev):

  -113.8033-113.8033 -68.1853 -68.1844 -68.1534 -68.1531 -68.1528 -68.1523
    -7.8630  -7.7057   3.1348   3.1796   3.8977   3.8979   4.0771   4.1180
     4.7568   4.8296   5.0822   5.1308   5.8616   5.9376   6.3996   6.9398
     8.6512   9.0781

     occupation numbers 
     1.0000   1.0000   1.0000   1.0000   1.0000   1.0000   1.0000   1.0000
     1.0000   1.0000   1.0000   1.0000   1.0000   1.0000   1.0000   1.0000
     1.0000   1.0000   1.0000   1.0000   1.0000   1.0000   1.0000   1.0000
     1.0000   1.0000

          k =-0.5000 0.0000-0.3740 (  3706 PWs)   bands (ev):

  -113.8033-113.8033 -68.1849 -68.1849 -68.1530 -68.1530 -68.1527 -68.1527
    -7.7770  -7.7769   3.0708   3.0708   3.8792   3.8792   4.0797   4.0797
     4.8043   4.8043   5.1014   5.1014   5.8923   5.8923   6.6740   6.6740
     9.0702   9.0702

     occupation numbers 
     1.0000   1.0000   1.0000   1.0000   1.0000   1.0000   1.0000   1.0000
     1.0000   1.0000   1.0000   1.0000   1.0000   1.0000   1.0000   1.0000
     1.0000   1.0000   1.0000   1.0000   1.0000   1.0000   1.0000   1.0000
     1.0000   1.0000

          k =-0.5000 0.0000-0.2805 (  3706 PWs)   bands (ev):

  -113.8033-113.8033 -68.1853 -68.1844 -68.1534 -68.1531 -68.1528 -68.1523
    -7.8630  -7.7057   3.1348   3.1796   3.8977   3.8979   4.0771   4.1180
     4.7568   4.8296   5.0822   5.1308   5.8616   5.9376   6.3996   6.9398
     8.6512   9.0781

     occupation numbers 
     1.0000   1.0000   1.0000   1.0000   1.0000   1.0000   1.0000   1.0000
     1.0000   1.0000   1.0000   1.0000   1.0000   1.0000   1.0000   1.0000
     1.0000   1.0000   1.0000   1.0000   1.0000   1.0000   1.0000   1.0000
     1.0000   1.0000

          k =-0.5000 0.0000-0.1870 (  3714 PWs)   bands (ev):

  -113.8034-113.8032 -68.1856 -68.1840 -68.1538 -68.1533 -68.1527 -68.1518
    -7.9465  -7.6579   3.3598   3.3748   3.9393   3.9737   4.1059   4.1893
     4.6915   4.8306   5.0810   5.1645   5.8594   5.9899   6.1919   7.1553
     7.9646   8.6990

     occupation numbers 
     1.0000   1.0000   1.0000   1.0000   1.0000   1.0000   1.0000   1.0000
     1.0000   1.0000   1.0000   1.0000   1.0000   1.0000   1.0000   1.0000
     1.0000   1.0000   1.0000   1.0000   1.0000   1.0000   1.0000   1.0000
     1.0000   1.0000

          k =-0.5000 0.0000-0.0935 (  3711 PWs)   bands (ev):

  -113.8034-113.8032 -68.1858 -68.1837 -68.1541 -68.1535 -68.1527 -68.1515
    -8.0070  -7.6327   3.5191   3.6203   3.9959   4.0694   4.1809   4.2820
     4.6190   4.8130   5.0970   5.1949   5.9054   5.9402   6.2699   7.1681
     7.3562   8.1556

     occupation numbers 
     1.0000   1.0000   1.0000   1.0000   1.0000   1.0000   1.0000   1.0000
     1.0000   1.0000   1.0000   1.0000   1.0000   1.0000   1.0000   1.0000
     1.0000   1.0000   1.0000   1.0000   1.0000   1.0000   1.0000   1.0000
     1.0000   1.0000

          k =-0.5000 0.1443 0.0000 (  3709 PWs)   bands (ev):

  -113.8034-113.8032 -68.1859 -68.1836 -68.1541 -68.1536 -68.1527 -68.1513
    -8.0230  -7.6298   3.3690   3.8053   4.0909   4.0962   4.2053   4.3597
     4.5690   4.8030   5.1064   5.1389   5.8828   6.0680   6.4106   6.7907
     7.6787   7.8591

     occupation numbers 
     1.0000   1.0000   1.0000   1.0000   1.0000   1.0000   1.0000   1.0000
     1.0000   1.0000   1.0000   1.0000   1.0000   1.0000   1.0000   1.0000
     1.0000   1.0000   1.0000   1.0000   1.0000   1.0000   1.0000   1.0000
     1.0000   1.0000

          k =-0.5000 0.1443 0.0935 (  3711 PWs)   bands (ev):

  -113.8034-113.8032 -68.1858 -68.1837 -68.1540 -68.1536 -68.1528 -68.1514
    -8.0013  -7.6369   3.3166   3.6981   4.0326   4.0844   4.1508   4.3014
     4.6151   4.8248   5.0889   5.1306   5.8105   5.9869   6.3943   7.1807
     7.6201   8.1485

     occupation numbers 
     1.0000   1.0000   1.0000   1.0000   1.0000   1.0000   1.0000   1.0000
     1.0000   1.0000   1.0000   1.0000   1.0000   1.0000   1.0000   1.0000
     1.0000   1.0000   1.0000   1.0000   1.0000   1.0000   1.0000   1.0000
     1.0000   1.0000

          k =-0.5000 0.1443 0.1870 (  3705 PWs)   bands (ev):

  -113.8034-113.8032 -68.1856 -68.1840 -68.1538 -68.1534 -68.1528 -68.1517
    -7.9417  -7.6607   3.1678   3.4363   3.9225   4.0299   4.0948   4.2056
     4.6957   4.8582   5.0540   5.1084   5.7478   5.8658   6.5339   7.4809
     7.8852   8.6687

     occupation numbers 
     1.0000   1.0000   1.0000   1.0000   1.0000   1.0000   1.0000   1.0000
     1.0000   1.0000   1.0000   1.0000   1.0000   1.0000   1.0000   1.0000
     1.0000   1.0000   1.0000   1.0000   1.0000   1.0000   1.0000   1.0000
     1.0000   1.0000

          k =-0.5000 0.1443 0.2805 (  3717 PWs)   bands (ev):

  -113.8033-113.8033 -68.1853 -68.1844 -68.1535 -68.1531 -68.1529 -68.1521
    -7.8598  -7.7066   3.0205   3.1632   3.8722   3.9488   4.0798   4.1323
     4.7722   4.8662   5.0353   5.0787   5.7469   5.8010   6.7695   7.2821
     8.5488   9.0173

     occupation numbers 
     1.0000   1.0000   1.0000   1.0000   1.0000   1.0000   1.0000   1.0000
     1.0000   1.0000   1.0000   1.0000   1.0000   1.0000   1.0000   1.0000
     1.0000   1.0000   1.0000   1.0000   1.0000   1.0000   1.0000   1.0000
     1.0000   1.0000

          k =-0.5000 0.1443-0.3740 (  3716 PWs)   bands (ev):

  -113.8033-113.8033 -68.1849 -68.1849 -68.1532 -68.1532 -68.1526 -68.1526
    -7.7757  -7.7757   3.0060   3.0060   3.8885   3.8885   4.0908   4.0908
     4.8332   4.8332   5.0492   5.0492   5.7688   5.7688   7.0336   7.0336
     8.9764   8.9764

     occupation numbers 
     1.0000   1.0000   1.0000   1.0000   1.0000   1.0000   1.0000   1.0000
     1.0000   1.0000   1.0000   1.0000   1.0000   1.0000   1.0000   1.0000
     1.0000   1.0000   1.0000   1.0000   1.0000   1.0000   1.0000   1.0000
     1.0000   1.0000

          k =-0.5000 0.1443-0.2805 (  3717 PWs)   bands (ev):

  -113.8033-113.8033 -68.1853 -68.1844 -68.1535 -68.1531 -68.1529 -68.1521
    -7.8598  -7.7066   3.0205   3.1632   3.8722   3.9488   4.0798   4.1323
     4.7722   4.8662   5.0353   5.0787   5.7469   5.8010   6.7695   7.2821
     8.5488   9.0173

     occupation numbers 
     1.0000   1.0000   1.0000   1.0000   1.0000   1.0000   1.0000   1.0000
     1.0000   1.0000   1.0000   1.0000   1.0000   1.0000   1.0000   1.0000
     1.0000   1.0000   1.0000   1.0000   1.0000   1.0000   1.0000   1.0000
     1.0000   1.0000

          k =-0.5000 0.1443-0.1870 (  3705 PWs)   bands (ev):

  -113.8034-113.8032 -68.1856 -68.1840 -68.1538 -68.1534 -68.1528 -68.1517
    -7.9417  -7.6607   3.1678   3.4363   3.9225   4.0299   4.0948   4.2056
     4.6957   4.8582   5.0540   5.1084   5.7478   5.8658   6.5339   7.4809
     7.8852   8.6687

     occupation numbers 
     1.0000   1.0000   1.0000   1.0000   1.0000   1.0000   1.0000   1.0000
     1.0000   1.0000   1.0000   1.0000   1.0000   1.0000   1.0000   1.0000
     1.0000   1.0000   1.0000   1.0000   1.0000   1.0000   1.0000   1.0000
     1.0000   1.0000

          k =-0.5000 0.1443-0.0935 (  3711 PWs)   bands (ev):

  -113.8034-113.8032 -68.1858 -68.1837 -68.1540 -68.1536 -68.1528 -68.1514
    -8.0013  -7.6369   3.3166   3.6981   4.0326   4.0844   4.1507   4.3014
     4.6151   4.8248   5.0889   5.1306   5.8105   5.9869   6.3943   7.1807
     7.6201   8.1485

     occupation numbers 
     1.0000   1.0000   1.0000   1.0000   1.0000   1.0000   1.0000   1.0000
     1.0000   1.0000   1.0000   1.0000   1.0000   1.0000   1.0000   1.0000
     1.0000   1.0000   1.0000   1.0000   1.0000   1.0000   1.0000   1.0000
     1.0000   1.0000

          k =-0.5000-0.8661 0.0000 (  3710 PWs)   bands (ev):

  -113.8034-113.8032 -68.1858 -68.1836 -68.1540 -68.1538 -68.1528 -68.1512
    -8.0167  -7.6346   3.2432   3.8178   4.1013   4.1418   4.2134   4.3209
     4.5721   4.8094   5.0915   5.1045   5.8957   5.9452   6.6288   6.7703
     7.8603   7.9281

     occupation numbers 
     1.0000   1.0000   1.0000   1.0000   1.0000   1.0000   1.0000   1.0000
     1.0000   1.0000   1.0000   1.0000   1.0000   1.0000   1.0000   1.0000
     1.0000   1.0000   1.0000   1.0000   1.0000   1.0000   1.0000   1.0000
     1.0000   1.0000

          k =-0.5000-0.8661 0.0935 (  3724 PWs)   bands (ev):

  -113.8034-113.8032 -68.1858 -68.1837 -68.1540 -68.1537 -68.1528 -68.1513
    -7.9953  -7.6411   3.1925   3.7055   4.0509   4.0964   4.1733   4.2803
     4.6155   4.8398   5.0811   5.0840   5.8112   5.8422   6.6970   7.1068
     7.8911   8.1235

     occupation numbers 
     1.0000   1.0000   1.0000   1.0000   1.0000   1.0000   1.0000   1.0000
     1.0000   1.0000   1.0000   1.0000   1.0000   1.0000   1.0000   1.0000
     1.0000   1.0000   1.0000   1.0000   1.0000   1.0000   1.0000   1.0000
     1.0000   1.0000

          k =-0.5000-0.8661 0.1870 (  3716 PWs)   bands (ev):

  -113.8034-113.8032 -68.1856 -68.1840 -68.1538 -68.1534 -68.1529 -68.1516
    -7.9368  -7.6636   3.0575   3.4258   3.9188   4.0767   4.0866   4.2061
     4.7003   4.8934   5.0234   5.0631   5.7148   5.7464   6.8778   7.7587
     7.7814   8.6182

     occupation numbers 
     1.0000   1.0000   1.0000   1.0000   1.0000   1.0000   1.0000   1.0000
     1.0000   1.0000   1.0000   1.0000   1.0000   1.0000   1.0000   1.0000
     1.0000   1.0000   1.0000   1.0000   1.0000   1.0000   1.0000   1.0000
     1.0000   1.0000

          k =-0.5000-0.8661 0.2805 (  3724 PWs)   bands (ev):

  -113.8033-113.8033 -68.1853 -68.1844 -68.1535 -68.1530 -68.1530 -68.1520
    -7.8565  -7.7075   2.9354   3.1271   3.8695   3.9726   4.0836   4.1410
     4.7889   4.9444   4.9508   5.0313   5.6900   5.7112   7.1203   7.6046
     8.4034   8.9291

     occupation numbers 
     1.0000   1.0000   1.0000   1.0000   1.0000   1.0000   1.0000   1.0000
     1.0000   1.0000   1.0000   1.0000   1.0000   1.0000   1.0000   1.0000
     1.0000   1.0000   1.0000   1.0000   1.0000   1.0000   1.0000   1.0000
     1.0000   1.0000

          k =-0.5000-0.8661-0.3740 (  3716 PWs)   bands (ev):

  -113.8033-113.8033 -68.1849 -68.1849 -68.1532 -68.1532 -68.1525 -68.1525
    -7.7745  -7.7744   2.9456   2.9456   3.8959   3.8959   4.0995   4.0995
     4.8725   4.8725   4.9909   4.9909   5.6969   5.6969   7.3755   7.3755
     8.8462   8.8462

     occupation numbers 
     1.0000   1.0000   1.0000   1.0000   1.0000   1.0000   1.0000   1.0000
     1.0000   1.0000   1.0000   1.0000   1.0000   1.0000   1.0000   1.0000
     1.0000   1.0000   1.0000   1.0000   1.0000   1.0000   1.0000   1.0000
     1.0000   1.0000

     highest occupied level (ev):     9.2280

!    total energy              =    -987.06314073 Ry
     Harris-Foulkes estimate   =    -987.06314076 Ry
     estimated scf accuracy    <       0.00000004 Ry

     The total energy is the sum of the following terms:

     one-electron contribution =    -791.15720182 Ry
     hartree contribution      =     418.07025147 Ry
     xc contribution           =     -98.10371816 Ry
     ewald contribution        =    -515.87247222 Ry

     convergence has been achieved in   7 iterations

     Forces acting on atoms (cartesian axes, Ry/au):

     atom    1 type  2   force =     0.00000022    0.00000077    0.00287494
     atom    2 type  2   force =    -0.00000104    0.00000060    0.00287725
     atom    3 type  1   force =     0.00000130   -0.00000069   -0.00287717
     atom    4 type  1   force =    -0.00000048   -0.00000068   -0.00287502
     The non-local contrib.  to forces
     atom    1 type  2   force =     0.00000027   -0.00000414    0.04618219
     atom    2 type  2   force =     0.00000139    0.00000069    0.04618350
     atom    3 type  1   force =     0.00000505   -0.00000372    0.10681405
     atom    4 type  1   force =    -0.00000080   -0.00000459    0.10681450
     The ionic contribution  to forces
     atom    1 type  2   force =     0.00000446    0.00005418   -0.63886401
     atom    2 type  2   force =    -0.00003155   -0.00000182   -0.63886286
     atom    3 type  1   force =     0.00004117   -0.00000260    0.63886820
     atom    4 type  1   force =    -0.00001408   -0.00004976    0.63885866
     The local contribution  to forces
     atom    1 type  2   force =    -0.00000452   -0.00004935    0.59588305
     atom    2 type  2   force =     0.00002904    0.00000160    0.59588291
     atom    3 type  1   force =    -0.00004496    0.00000566   -0.74868466
     atom    4 type  1   force =     0.00001437    0.00005386   -0.74867157
     The core correction contribution to forces
     atom    1 type  2   force =     0.00000000    0.00000002   -0.00024362
     atom    2 type  2   force =    -0.00000001   -0.00000001   -0.00024364
     atom    3 type  1   force =     0.00000000    0.00000000    0.00000000
     atom    4 type  1   force =     0.00000000    0.00000000    0.00000000
     The Hubbard contrib.    to forces
     atom    1 type  2   force =     0.00000000    0.00000000    0.00000000
     atom    2 type  2   force =     0.00000000    0.00000000    0.00000000
     atom    3 type  1   force =     0.00000000    0.00000000    0.00000000
     atom    4 type  1   force =     0.00000000    0.00000000    0.00000000
     The SCF correction term to forces
     atom    1 type  2   force =     0.00000000    0.00000000    0.00000000
     atom    2 type  2   force =     0.00000000    0.00000000    0.00000000
     atom    3 type  1   force =     0.00000000    0.00000000    0.00000000
     atom    4 type  1   force =     0.00000000    0.00000000    0.00000000

     Total force =     0.000000     Total SCF correction =     0.000000


     Computing stress (Cartesian axis) and pressure

          total   stress  (Ry/bohr**3)                   (kbar)     P=   -0.09
   0.00000227  -0.00000000  -0.00000001          0.33     -0.00     -0.00
  -0.00000000   0.00000229  -0.00000000         -0.00      0.34     -0.00
  -0.00000001  -0.00000000  -0.00000648         -0.00     -0.00     -0.95

     kinetic stress (kbar)  35083.35     -0.00     -0.00
                               -0.00  35083.35     -0.00
                               -0.00     -0.00  35472.71

     local   stress (kbar)   2152.38     -0.01     -0.00
                               -0.01   2152.12     -0.02
                               -0.00     -0.02 -12847.37

     nonloc. stress (kbar)  -1733.19      0.00      0.00
                                0.00  -1733.19      0.00
                                0.00      0.00  -1876.83

     hartree stress (kbar)  64172.48      0.00      0.00
                                0.00  64172.59      0.01
                                0.00      0.01  71997.80

     exc-cor stress (kbar) -14701.80      0.00      0.00
                                0.00 -14701.80      0.00
                                0.00      0.00 -14706.15

     corecor stress (kbar)   -258.49      0.00      0.00
                                0.00   -258.49      0.00
                                0.00      0.00   -259.21

     ewald   stress (kbar) -84714.39      0.00      0.00
                                0.00 -84714.24      0.01
                                0.00      0.01 -77781.90

     hubbard stress (kbar)      0.00      0.00      0.00
                                0.00      0.00      0.00
                                0.00      0.00      0.00

     london  stress (kbar)      0.00      0.00      0.00
                                0.00      0.00      0.00
                                0.00      0.00      0.00

     DFT-D3  stress (kbar)      0.00      0.00      0.00
                                0.00      0.00      0.00
                                0.00      0.00      0.00

     XDM     stress (kbar)      0.00      0.00      0.00
                                0.00      0.00      0.00
                                0.00      0.00      0.00

     dft-nl  stress (kbar)      0.00      0.00      0.00
                                0.00      0.00      0.00
                                0.00      0.00      0.00

     TS-vdW  stress (kbar)      0.00      0.00      0.00
                                0.00      0.00      0.00
                                0.00      0.00      0.00



     Writing output data file ZnO.save/
 
     init_run     :      1.07s CPU      2.27s WALL (       2 calls)
     electrons    :     29.79s CPU     32.14s WALL (       5 calls)
     update_pot   :      0.37s CPU      0.39s WALL (       3 calls)
     forces       :      0.77s CPU      0.86s WALL (       5 calls)
     stress       :      1.38s CPU      1.49s WALL (       5 calls)

     Called by init_run:
     wfcinit      :      0.74s CPU      1.29s WALL (       2 calls)
     wfcinit:atom :      0.01s CPU      0.01s WALL (     130 calls)
     wfcinit:wfcr :      0.70s CPU      1.23s WALL (     130 calls)
     potinit      :      0.12s CPU      0.17s WALL (       2 calls)
     hinit0       :      0.19s CPU      0.53s WALL (       2 calls)

     Called by electrons:
     c_bands      :     25.04s CPU     26.91s WALL (      29 calls)
     sum_band     :      3.65s CPU      3.85s WALL (      29 calls)
     v_of_rho     :      1.01s CPU      1.07s WALL (      32 calls)
     v_h          :      0.01s CPU      0.01s WALL (      32 calls)
     v_xc         :      1.31s CPU      1.35s WALL (      42 calls)
     newd         :      0.14s CPU      0.17s WALL (      32 calls)
     mix_rho      :      0.03s CPU      0.10s WALL (      29 calls)

     Called by c_bands:
     init_us_2    :      0.30s CPU      0.32s WALL (    4550 calls)
     cegterg      :     23.46s CPU     24.53s WALL (    1885 calls)

     Called by sum_band:
     sum_band:bec :      0.02s CPU      0.03s WALL (    1885 calls)
     addusdens    :      0.14s CPU      0.14s WALL (      29 calls)

     Called by *egterg:
     h_psi        :     14.63s CPU     15.15s WALL (    5807 calls)
     s_psi        :      0.45s CPU      0.46s WALL (    5807 calls)
     g_psi        :      0.03s CPU      0.03s WALL (    3792 calls)
     cdiaghg      :      5.58s CPU      6.30s WALL (    5352 calls)
     cegterg:over :      1.42s CPU      1.65s WALL (    3792 calls)
     cegterg:upda :      0.81s CPU      0.83s WALL (    3792 calls)
     cegterg:last :      0.58s CPU      0.60s WALL (    1950 calls)
     cdiaghg:chol :      0.25s CPU      0.39s WALL (    5352 calls)
     cdiaghg:inve :      0.09s CPU      0.11s WALL (    5352 calls)
     cdiaghg:para :      0.57s CPU      0.62s WALL (   10704 calls)

     Called by h_psi:
     h_psi:pot    :     14.59s CPU     15.11s WALL (    5807 calls)
     h_psi:calbec :      0.76s CPU      0.82s WALL (    5807 calls)
     vloc_psi     :     13.36s CPU     13.81s WALL (    5807 calls)
     add_vuspsi   :      0.45s CPU      0.46s WALL (    5807 calls)

     General routines
     calbec       :      1.30s CPU      1.37s WALL (    9317 calls)
     fft          :      0.20s CPU      0.30s WALL (     536 calls)
     ffts         :      0.02s CPU      0.02s WALL (      61 calls)
     fftw         :     15.32s CPU     15.83s WALL (  301446 calls)
     interpolate  :      0.01s CPU      0.02s WALL (      32 calls)
 
     Parallel routines
     fft_scatt_xy :      2.44s CPU      2.52s WALL (  302043 calls)
     fft_scatt_yz :      7.71s CPU      8.01s WALL (  302043 calls)
 
     PWSCF        :     33.83s CPU     40.06s WALL

 
   This run was terminated on:  14:39:25  16Jun2022            

=------------------------------------------------------------------------------=
   JOB DONE.
=------------------------------------------------------------------------------=
