
     Program PWSCF v.6.4.1 starts on 15Jun2022 at 20:46:34 

     This program is part of the open-source Quantum ESPRESSO suite
     for quantum simulation of materials; please cite
         "P. Giannozzi et al., J. Phys.:Condens. Matter 21 395502 (2009);
         "P. Giannozzi et al., J. Phys.:Condens. Matter 29 465901 (2017);
          URL http://www.quantum-espresso.org", 
     in publications or presentations arising from this work. More details at
     http://www.quantum-espresso.org/quote

     Parallel version (MPI), running on    64 processors

     MPI processes distributed on     1 nodes
     K-points division:     npool     =       4
     R & G space division:  proc/nbgrp/npool/nimage =      16
     Waiting for input...
     Reading input from standard input
Warning: card &IONS ignored
Warning: card   UPSCALE           = 100.D0, ignored
Warning: card / ignored
Warning: card &CELL ignored
Warning: card   CELL_DYNAMICS     = 'BFGS' ignored
Warning: card   PRESS_CONV_THR    = 0.5D0 ignored
Warning: card   CELL_DOFREE = 'ALL' ignored
Warning: card / ignored

     Current dimensions of program PWSCF are:
     Max number of different atomic species (ntypx) = 10
     Max number of k-points (npk) =  40000
     Max angular momentum in pseudopotentials (lmaxx) =  3

     Subspace diagonalization in iterative solution of the eigenvalue problem:
     one sub-group per band group will be used
     scalapack distributed-memory algorithm (size of sub-group:  2*  2 procs)

--------------------------------------------------------------------------------
NOTICE: Bravais lattice has wrong number (10) of symmetries - symmetries are disabled
--------------------------------------------------------------------------------
 
     Parallelization info
     --------------------
     sticks:   dense  smooth     PW     G-vecs:    dense   smooth      PW
     Min         103      55     17                 4837     1881     329
     Max         104      56     18                 4844     1884     332
     Sum        1663     889    283                77463    30135    5279
 


     bravais-lattice index     =            0
     lattice parameter (alat)  =       6.3487  a.u.
     unit-cell volume          =     312.0243 (a.u.)^3
     number of atoms/cell      =            4
     number of atomic types    =            2
     number of electrons       =        52.00
     number of Kohn-Sham states=           26
     kinetic-energy cutoff     =      80.0000  Ry
     charge density cutoff     =     600.0000  Ry
     convergence threshold     =      1.0E-06
     mixing beta               =       0.5000
     number of iterations used =            8  plain     mixing
     Exchange-correlation      = SLA  PW   PSX  PSC ( 1  4 10  8 0 0)
     Using LIBXC version       =    4   3   4

     celldm(1)=   6.348723  celldm(2)=   0.000000  celldm(3)=   0.000000
     celldm(4)=   0.000000  celldm(5)=   0.000000  celldm(6)=   0.000000

     crystal axes: (cart. coord. in units of alat)
               a(1) = (   1.000000   0.000000   0.000000 )  
               a(2) = (  -0.500000   0.866025  -0.000000 )  
               a(3) = (   0.000000  -0.000000   1.407988 )  

     reciprocal axes: (cart. coord. in units 2 pi/alat)
               b(1) = (  1.000000  0.577350 -0.000000 )  
               b(2) = ( -0.000000  1.154701  0.000000 )  
               b(3) = ( -0.000000  0.000000  0.710234 )  


     PseudoPot. # 1 for Zn read from file:
     ./GBRV_PBEsol/zn_pbesol_v1.uspp.F.UPF
     MD5 check sum: 7d8615e52efe7c1e2b1899de8658bae2
     Pseudo is Ultrasoft, Zval = 20.0
     Generated by new atomic code, or converted to UPF format
     Using radial grid of  943 points,  6 beta functions with: 
                l(1) =   0
                l(2) =   0
                l(3) =   1
                l(4) =   1
                l(5) =   2
                l(6) =   2
     Q(r) pseudized with  8 coefficients,  rinner =    1.100   1.100   1.100
                                                       1.100   1.100

     PseudoPot. # 2 for O  read from file:
     ./GBRV_PBEsol/o_pbesol_v1.2.uspp.F.UPF
     MD5 check sum: 501638753501ef6325af9037351f7734
     Pseudo is Ultrasoft + core correction, Zval =  6.0
     Generated by new atomic code, or converted to UPF format
     Using radial grid of  737 points,  5 beta functions with: 
                l(1) =   0
                l(2) =   0
                l(3) =   1
                l(4) =   1
                l(5) =   2
     Q(r) pseudized with  8 coefficients,  rinner =    0.900   0.900   0.900
                                                       0.900   0.900

     atomic species   valence    mass     pseudopotential
        Zn            20.00    65.38000     Zn( 1.00)
        O              6.00    15.99900     O ( 1.00)

     No symmetry found


                                    s                        frac. trans.

      isym =  1     identity                                     

 cryst.   s( 1) = (     1          0          0      )
                  (     0          1          0      )
                  (     0          0          1      )

 cart.    s( 1) = (  1.0000000 -0.0000000 -0.0000000 )
                  (  0.0000000  1.0000000 -0.0000000 )
                  ( -0.0000000 -0.0000000  1.0000000 )


   Cartesian axes

     site n.     atom                  positions (alat units)
         1           O   tau(   1) = (   0.5000003   0.2886756   0.0103430  )
         2           O   tau(   2) = (   0.0000005   0.5773492   0.7143365  )
         3           Zn  tau(   3) = (   0.5000004   0.2886748   0.7833400  )
         4           Zn  tau(   4) = (   0.0000005   0.5773507   1.4873335  )

   Crystallographic axes

     site n.     atom                  positions (cryst. coord.)
         1           O   tau(   1) = (  0.6666670  0.3333337  0.0073459  )
         2           O   tau(   2) = (  0.3333329  0.6666657  0.5073458  )
         3           Zn  tau(   3) = (  0.6666664  0.3333329  0.5563542  )
         4           Zn  tau(   4) = (  0.3333336  0.6666677  1.0563542  )

     number of k points=   260
                       cart. coord. in units 2pi/alat
        k(    1) = (   0.0000000   0.0000000   0.0000000), wk =   0.0039062
        k(    2) = (  -0.0000000   0.0000000   0.0887792), wk =   0.0078125
        k(    3) = (  -0.0000001   0.0000000   0.1775584), wk =   0.0078125
        k(    4) = (  -0.0000001   0.0000000   0.2663376), wk =   0.0078125
        k(    5) = (   0.0000001  -0.0000000  -0.3551168), wk =   0.0039062
        k(    6) = (  -0.0000001   0.1443376   0.0000000), wk =   0.0078125
        k(    7) = (  -0.0000001   0.1443376   0.0887792), wk =   0.0078125
        k(    8) = (  -0.0000001   0.1443376   0.1775584), wk =   0.0078125
        k(    9) = (  -0.0000001   0.1443376   0.2663376), wk =   0.0078125
        k(   10) = (   0.0000001   0.1443375  -0.3551167), wk =   0.0078125
        k(   11) = (   0.0000000   0.1443376  -0.2663375), wk =   0.0078125
        k(   12) = (  -0.0000000   0.1443376  -0.1775583), wk =   0.0078125
        k(   13) = (  -0.0000000   0.1443376  -0.0887792), wk =   0.0078125
        k(   14) = (  -0.0000001   0.2886752   0.0000001), wk =   0.0078125
        k(   15) = (  -0.0000001   0.2886752   0.0887793), wk =   0.0078125
        k(   16) = (  -0.0000002   0.2886752   0.1775584), wk =   0.0078125
        k(   17) = (  -0.0000002   0.2886752   0.2663376), wk =   0.0078125
        k(   18) = (  -0.0000000   0.2886751  -0.3551167), wk =   0.0078125
        k(   19) = (  -0.0000000   0.2886751  -0.2663375), wk =   0.0078125
        k(   20) = (  -0.0000001   0.2886751  -0.1775583), wk =   0.0078125
        k(   21) = (  -0.0000001   0.2886752  -0.0887791), wk =   0.0078125
        k(   22) = (  -0.0000002   0.4330127   0.0000001), wk =   0.0078125
        k(   23) = (  -0.0000002   0.4330128   0.0887793), wk =   0.0078125
        k(   24) = (  -0.0000002   0.4330128   0.1775585), wk =   0.0078125
        k(   25) = (  -0.0000002   0.4330128   0.2663377), wk =   0.0078125
        k(   26) = (  -0.0000001   0.4330127  -0.3551167), wk =   0.0078125
        k(   27) = (  -0.0000001   0.4330127  -0.2663375), wk =   0.0078125
        k(   28) = (  -0.0000001   0.4330127  -0.1775583), wk =   0.0078125
        k(   29) = (  -0.0000001   0.4330127  -0.0887791), wk =   0.0078125
        k(   30) = (   0.0000002  -0.5773503  -0.0000001), wk =   0.0039062
        k(   31) = (   0.0000002  -0.5773503   0.0887791), wk =   0.0078125
        k(   32) = (   0.0000002  -0.5773503   0.1775582), wk =   0.0078125
        k(   33) = (   0.0000001  -0.5773503   0.2663374), wk =   0.0078125
        k(   34) = (   0.0000003  -0.5773504  -0.3551169), wk =   0.0039062
        k(   35) = (   0.1250000   0.0721687  -0.0000000), wk =   0.0078125
        k(   36) = (   0.1249999   0.0721688   0.0887792), wk =   0.0078125
        k(   37) = (   0.1249999   0.0721688   0.1775584), wk =   0.0078125
        k(   38) = (   0.1249999   0.0721688   0.2663375), wk =   0.0078125
        k(   39) = (   0.1250001   0.0721687  -0.3551168), wk =   0.0078125
        k(   40) = (   0.1250001   0.0721687  -0.2663376), wk =   0.0078125
        k(   41) = (   0.1250000   0.0721687  -0.1775584), wk =   0.0078125
        k(   42) = (   0.1250000   0.0721687  -0.0887792), wk =   0.0078125
        k(   43) = (   0.1249999   0.2165063   0.0000000), wk =   0.0078125
        k(   44) = (   0.1249999   0.2165063   0.0887792), wk =   0.0078125
        k(   45) = (   0.1249999   0.2165063   0.1775584), wk =   0.0078125
        k(   46) = (   0.1249998   0.2165064   0.2663376), wk =   0.0078125
        k(   47) = (   0.1250000   0.2165063  -0.3551167), wk =   0.0078125
        k(   48) = (   0.1250000   0.2165063  -0.2663376), wk =   0.0078125
        k(   49) = (   0.1250000   0.2165063  -0.1775584), wk =   0.0078125
        k(   50) = (   0.1249999   0.2165063  -0.0887792), wk =   0.0078125
        k(   51) = (   0.1249999   0.3608439   0.0000000), wk =   0.0078125
        k(   52) = (   0.1249998   0.3608439   0.0887792), wk =   0.0078125
        k(   53) = (   0.1249998   0.3608439   0.1775584), wk =   0.0078125
        k(   54) = (   0.1249998   0.3608439   0.2663376), wk =   0.0078125
        k(   55) = (   0.1250000   0.3608439  -0.3551167), wk =   0.0078125
        k(   56) = (   0.1249999   0.3608439  -0.2663375), wk =   0.0078125
        k(   57) = (   0.1249999   0.3608439  -0.1775583), wk =   0.0078125
        k(   58) = (   0.1249999   0.3608439  -0.0887791), wk =   0.0078125
        k(   59) = (   0.1249998   0.5051815   0.0000001), wk =   0.0078125
        k(   60) = (   0.1249998   0.5051815   0.0887793), wk =   0.0078125
        k(   61) = (   0.1249998   0.5051815   0.1775585), wk =   0.0078125
        k(   62) = (   0.1249997   0.5051815   0.2663376), wk =   0.0078125
        k(   63) = (   0.1249999   0.5051814  -0.3551167), wk =   0.0078125
        k(   64) = (   0.1249999   0.5051815  -0.2663375), wk =   0.0078125
        k(   65) = (   0.1249999   0.5051815  -0.1775583), wk =   0.0078125
        k(   66) = (   0.1249998   0.5051815  -0.0887791), wk =   0.0078125
        k(   67) = (   0.1250002  -0.5051816  -0.0000002), wk =   0.0078125
        k(   68) = (   0.1250002  -0.5051816   0.0887790), wk =   0.0078125
        k(   69) = (   0.1250001  -0.5051816   0.1775582), wk =   0.0078125
        k(   70) = (   0.1250001  -0.5051816   0.2663374), wk =   0.0078125
        k(   71) = (   0.1250003  -0.5051816  -0.3551169), wk =   0.0078125
        k(   72) = (   0.1250003  -0.5051816  -0.2663377), wk =   0.0078125
        k(   73) = (   0.1250002  -0.5051816  -0.1775585), wk =   0.0078125
        k(   74) = (   0.1250002  -0.5051816  -0.0887793), wk =   0.0078125
        k(   75) = (   0.1250001  -0.3608440  -0.0000001), wk =   0.0078125
        k(   76) = (   0.1250001  -0.3608440   0.0887791), wk =   0.0078125
        k(   77) = (   0.1250001  -0.3608440   0.1775583), wk =   0.0078125
        k(   78) = (   0.1250001  -0.3608440   0.2663374), wk =   0.0078125
        k(   79) = (   0.1250002  -0.3608440  -0.3551169), wk =   0.0078125
        k(   80) = (   0.1250002  -0.3608440  -0.2663377), wk =   0.0078125
        k(   81) = (   0.1250002  -0.3608440  -0.1775585), wk =   0.0078125
        k(   82) = (   0.1250002  -0.3608440  -0.0887793), wk =   0.0078125
        k(   83) = (   0.1250001  -0.2165064  -0.0000001), wk =   0.0078125
        k(   84) = (   0.1250001  -0.2165064   0.0887791), wk =   0.0078125
        k(   85) = (   0.1250000  -0.2165064   0.1775583), wk =   0.0078125
        k(   86) = (   0.1250000  -0.2165064   0.2663375), wk =   0.0078125
        k(   87) = (   0.1250002  -0.2165065  -0.3551168), wk =   0.0078125
        k(   88) = (   0.1250002  -0.2165065  -0.2663377), wk =   0.0078125
        k(   89) = (   0.1250001  -0.2165064  -0.1775585), wk =   0.0078125
        k(   90) = (   0.1250001  -0.2165064  -0.0887793), wk =   0.0078125
        k(   91) = (   0.1250000  -0.0721688  -0.0000001), wk =   0.0078125
        k(   92) = (   0.1250000  -0.0721688   0.0887791), wk =   0.0078125
        k(   93) = (   0.1250000  -0.0721688   0.1775583), wk =   0.0078125
        k(   94) = (   0.1249999  -0.0721688   0.2663375), wk =   0.0078125
        k(   95) = (   0.1250001  -0.0721689  -0.3551168), wk =   0.0078125
        k(   96) = (   0.1250001  -0.0721689  -0.2663376), wk =   0.0078125
        k(   97) = (   0.1250001  -0.0721689  -0.1775584), wk =   0.0078125
        k(   98) = (   0.1250001  -0.0721688  -0.0887792), wk =   0.0078125
        k(   99) = (   0.2499999   0.1443375  -0.0000000), wk =   0.0078125
        k(  100) = (   0.2499999   0.1443375   0.0887791), wk =   0.0078125
        k(  101) = (   0.2499999   0.1443375   0.1775583), wk =   0.0078125
        k(  102) = (   0.2499999   0.1443375   0.2663375), wk =   0.0078125
        k(  103) = (   0.2500001   0.1443374  -0.3551168), wk =   0.0078125
        k(  104) = (   0.2500000   0.1443375  -0.2663376), wk =   0.0078125
        k(  105) = (   0.2500000   0.1443375  -0.1775584), wk =   0.0078125
        k(  106) = (   0.2500000   0.1443375  -0.0887792), wk =   0.0078125
        k(  107) = (   0.2499999   0.2886751  -0.0000000), wk =   0.0078125
        k(  108) = (   0.2499999   0.2886751   0.0887792), wk =   0.0078125
        k(  109) = (   0.2499998   0.2886751   0.1775584), wk =   0.0078125
        k(  110) = (   0.2499998   0.2886751   0.2663376), wk =   0.0078125
        k(  111) = (   0.2500000   0.2886750  -0.3551168), wk =   0.0078125
        k(  112) = (   0.2500000   0.2886750  -0.2663376), wk =   0.0078125
        k(  113) = (   0.2499999   0.2886750  -0.1775584), wk =   0.0078125
        k(  114) = (   0.2499999   0.2886751  -0.0887792), wk =   0.0078125
        k(  115) = (   0.2499998   0.4330127   0.0000000), wk =   0.0078125
        k(  116) = (   0.2499998   0.4330127   0.0887792), wk =   0.0078125
        k(  117) = (   0.2499998   0.4330127   0.1775584), wk =   0.0078125
        k(  118) = (   0.2499998   0.4330127   0.2663376), wk =   0.0078125
        k(  119) = (   0.2499999   0.4330126  -0.3551167), wk =   0.0078125
        k(  120) = (   0.2499999   0.4330126  -0.2663375), wk =   0.0078125
        k(  121) = (   0.2499999   0.4330126  -0.1775584), wk =   0.0078125
        k(  122) = (   0.2499999   0.4330126  -0.0887792), wk =   0.0078125
        k(  123) = (   0.2499998   0.5773502   0.0000001), wk =   0.0078125
        k(  124) = (   0.2499998   0.5773502   0.0887792), wk =   0.0078125
        k(  125) = (   0.2499997   0.5773503   0.1775584), wk =   0.0078125
        k(  126) = (   0.2499997   0.5773503   0.2663376), wk =   0.0078125
        k(  127) = (   0.2499999   0.5773502  -0.3551167), wk =   0.0078125
        k(  128) = (   0.2499999   0.5773502  -0.2663375), wk =   0.0078125
        k(  129) = (   0.2499998   0.5773502  -0.1775583), wk =   0.0078125
        k(  130) = (   0.2499998   0.5773502  -0.0887791), wk =   0.0078125
        k(  131) = (   0.2500002  -0.4330128  -0.0000002), wk =   0.0078125
        k(  132) = (   0.2500001  -0.4330128   0.0887790), wk =   0.0078125
        k(  133) = (   0.2500001  -0.4330128   0.1775582), wk =   0.0078125
        k(  134) = (   0.2500001  -0.4330128   0.2663374), wk =   0.0078125
        k(  135) = (   0.2500003  -0.4330129  -0.3551169), wk =   0.0078125
        k(  136) = (   0.2500002  -0.4330129  -0.2663378), wk =   0.0078125
        k(  137) = (   0.2500002  -0.4330129  -0.1775586), wk =   0.0078125
        k(  138) = (   0.2500002  -0.4330129  -0.0887794), wk =   0.0078125
        k(  139) = (   0.2500001  -0.2886753  -0.0000002), wk =   0.0078125
        k(  140) = (   0.2500001  -0.2886753   0.0887790), wk =   0.0078125
        k(  141) = (   0.2500001  -0.2886752   0.1775582), wk =   0.0078125
        k(  142) = (   0.2500000  -0.2886752   0.2663374), wk =   0.0078125
        k(  143) = (   0.2500002  -0.2886753  -0.3551169), wk =   0.0078125
        k(  144) = (   0.2500002  -0.2886753  -0.2663377), wk =   0.0078125
        k(  145) = (   0.2500002  -0.2886753  -0.1775585), wk =   0.0078125
        k(  146) = (   0.2500001  -0.2886753  -0.0887793), wk =   0.0078125
        k(  147) = (   0.2500001  -0.1443377  -0.0000001), wk =   0.0078125
        k(  148) = (   0.2500000  -0.1443377   0.0887791), wk =   0.0078125
        k(  149) = (   0.2500000  -0.1443377   0.1775583), wk =   0.0078125
        k(  150) = (   0.2500000  -0.1443376   0.2663374), wk =   0.0078125
        k(  151) = (   0.2500002  -0.1443377  -0.3551169), wk =   0.0078125
        k(  152) = (   0.2500001  -0.1443377  -0.2663377), wk =   0.0078125
        k(  153) = (   0.2500001  -0.1443377  -0.1775585), wk =   0.0078125
        k(  154) = (   0.2500001  -0.1443377  -0.0887793), wk =   0.0078125
        k(  155) = (   0.2500000  -0.0000001  -0.0000001), wk =   0.0078125
        k(  156) = (   0.2500000  -0.0000001   0.0887791), wk =   0.0078125
        k(  157) = (   0.2499999  -0.0000001   0.1775583), wk =   0.0078125
        k(  158) = (   0.2499999  -0.0000001   0.2663375), wk =   0.0078125
        k(  159) = (   0.2500001  -0.0000001  -0.3551168), wk =   0.0078125
        k(  160) = (   0.2500001  -0.0000001  -0.2663377), wk =   0.0078125
        k(  161) = (   0.2500001  -0.0000001  -0.1775585), wk =   0.0078125
        k(  162) = (   0.2500000  -0.0000001  -0.0887793), wk =   0.0078125
        k(  163) = (   0.3749999   0.2165062  -0.0000001), wk =   0.0078125
        k(  164) = (   0.3749999   0.2165062   0.0887791), wk =   0.0078125
        k(  165) = (   0.3749999   0.2165063   0.1775583), wk =   0.0078125
        k(  166) = (   0.3749998   0.2165063   0.2663375), wk =   0.0078125
        k(  167) = (   0.3750000   0.2165062  -0.3551168), wk =   0.0078125
        k(  168) = (   0.3750000   0.2165062  -0.2663376), wk =   0.0078125
        k(  169) = (   0.3750000   0.2165062  -0.1775585), wk =   0.0078125
        k(  170) = (   0.3749999   0.2165062  -0.0887793), wk =   0.0078125
        k(  171) = (   0.3749999   0.3608438  -0.0000000), wk =   0.0078125
        k(  172) = (   0.3749998   0.3608438   0.0887791), wk =   0.0078125
        k(  173) = (   0.3749998   0.3608438   0.1775583), wk =   0.0078125
        k(  174) = (   0.3749998   0.3608438   0.2663375), wk =   0.0078125
        k(  175) = (   0.3750000   0.3608438  -0.3551168), wk =   0.0078125
        k(  176) = (   0.3749999   0.3608438  -0.2663376), wk =   0.0078125
        k(  177) = (   0.3749999   0.3608438  -0.1775584), wk =   0.0078125
        k(  178) = (   0.3749999   0.3608438  -0.0887792), wk =   0.0078125
        k(  179) = (   0.3749998   0.5051814  -0.0000000), wk =   0.0078125
        k(  180) = (   0.3749998   0.5051814   0.0887792), wk =   0.0078125
        k(  181) = (   0.3749998   0.5051814   0.1775584), wk =   0.0078125
        k(  182) = (   0.3749997   0.5051814   0.2663376), wk =   0.0078125
        k(  183) = (   0.3749999   0.5051814  -0.3551168), wk =   0.0078125
        k(  184) = (   0.3749999   0.5051814  -0.2663376), wk =   0.0078125
        k(  185) = (   0.3749999   0.5051814  -0.1775584), wk =   0.0078125
        k(  186) = (   0.3749998   0.5051814  -0.0887792), wk =   0.0078125
        k(  187) = (   0.3749998   0.6495190   0.0000000), wk =   0.0078125
        k(  188) = (   0.3749997   0.6495190   0.0887792), wk =   0.0078125
        k(  189) = (   0.3749997   0.6495190   0.1775584), wk =   0.0078125
        k(  190) = (   0.3749997   0.6495190   0.2663376), wk =   0.0078125
        k(  191) = (   0.3749999   0.6495189  -0.3551167), wk =   0.0078125
        k(  192) = (   0.3749998   0.6495189  -0.2663375), wk =   0.0078125
        k(  193) = (   0.3749998   0.6495190  -0.1775584), wk =   0.0078125
        k(  194) = (   0.3749998   0.6495190  -0.0887792), wk =   0.0078125
        k(  195) = (   0.3750001  -0.3608441  -0.0000002), wk =   0.0078125
        k(  196) = (   0.3750001  -0.3608441   0.0887790), wk =   0.0078125
        k(  197) = (   0.3750001  -0.3608441   0.1775582), wk =   0.0078125
        k(  198) = (   0.3750001  -0.3608441   0.2663374), wk =   0.0078125
        k(  199) = (   0.3750002  -0.3608441  -0.3551170), wk =   0.0078125
        k(  200) = (   0.3750002  -0.3608441  -0.2663378), wk =   0.0078125
        k(  201) = (   0.3750002  -0.3608441  -0.1775586), wk =   0.0078125
        k(  202) = (   0.3750002  -0.3608441  -0.0887794), wk =   0.0078125
        k(  203) = (   0.3750001  -0.2165065  -0.0000002), wk =   0.0078125
        k(  204) = (   0.3750001  -0.2165065   0.0887790), wk =   0.0078125
        k(  205) = (   0.3750000  -0.2165065   0.1775582), wk =   0.0078125
        k(  206) = (   0.3750000  -0.2165065   0.2663374), wk =   0.0078125
        k(  207) = (   0.3750002  -0.2165066  -0.3551169), wk =   0.0078125
        k(  208) = (   0.3750002  -0.2165065  -0.2663377), wk =   0.0078125
        k(  209) = (   0.3750001  -0.2165065  -0.1775586), wk =   0.0078125
        k(  210) = (   0.3750001  -0.2165065  -0.0887794), wk =   0.0078125
        k(  211) = (   0.3750000  -0.0721689  -0.0000001), wk =   0.0078125
        k(  212) = (   0.3750000  -0.0721689   0.0887790), wk =   0.0078125
        k(  213) = (   0.3750000  -0.0721689   0.1775582), wk =   0.0078125
        k(  214) = (   0.3749999  -0.0721689   0.2663374), wk =   0.0078125
        k(  215) = (   0.3750001  -0.0721690  -0.3551169), wk =   0.0078125
        k(  216) = (   0.3750001  -0.0721690  -0.2663377), wk =   0.0078125
        k(  217) = (   0.3750001  -0.0721690  -0.1775585), wk =   0.0078125
        k(  218) = (   0.3750001  -0.0721689  -0.0887793), wk =   0.0078125
        k(  219) = (   0.3750000   0.0721686  -0.0000001), wk =   0.0078125
        k(  220) = (   0.3749999   0.0721687   0.0887791), wk =   0.0078125
        k(  221) = (   0.3749999   0.0721687   0.1775583), wk =   0.0078125
        k(  222) = (   0.3749999   0.0721687   0.2663375), wk =   0.0078125
        k(  223) = (   0.3750001   0.0721686  -0.3551169), wk =   0.0078125
        k(  224) = (   0.3750001   0.0721686  -0.2663377), wk =   0.0078125
        k(  225) = (   0.3750000   0.0721686  -0.1775585), wk =   0.0078125
        k(  226) = (   0.3750000   0.0721686  -0.0887793), wk =   0.0078125
        k(  227) = (  -0.4999999  -0.2886750   0.0000001), wk =   0.0039062
        k(  228) = (  -0.4999999  -0.2886750   0.0887793), wk =   0.0078125
        k(  229) = (  -0.4999999  -0.2886750   0.1775585), wk =   0.0078125
        k(  230) = (  -0.5000000  -0.2886749   0.2663377), wk =   0.0078125
        k(  231) = (  -0.4999998  -0.2886750  -0.3551167), wk =   0.0039062
        k(  232) = (  -0.4999999  -0.1443374   0.0000001), wk =   0.0078125
        k(  233) = (  -0.5000000  -0.1443374   0.0887793), wk =   0.0078125
        k(  234) = (  -0.5000000  -0.1443374   0.1775585), wk =   0.0078125
        k(  235) = (  -0.5000000  -0.1443374   0.2663377), wk =   0.0078125
        k(  236) = (  -0.4999998  -0.1443374  -0.3551166), wk =   0.0078125
        k(  237) = (  -0.4999999  -0.1443374  -0.2663374), wk =   0.0078125
        k(  238) = (  -0.4999999  -0.1443374  -0.1775582), wk =   0.0078125
        k(  239) = (  -0.4999999  -0.1443374  -0.0887791), wk =   0.0078125
        k(  240) = (  -0.5000000   0.0000002   0.0000002), wk =   0.0078125
        k(  241) = (  -0.5000000   0.0000002   0.0887794), wk =   0.0078125
        k(  242) = (  -0.5000001   0.0000002   0.1775585), wk =   0.0078125
        k(  243) = (  -0.5000001   0.0000002   0.2663377), wk =   0.0078125
        k(  244) = (  -0.4999999   0.0000001  -0.3551166), wk =   0.0078125
        k(  245) = (  -0.4999999   0.0000002  -0.2663374), wk =   0.0078125
        k(  246) = (  -0.4999999   0.0000002  -0.1775582), wk =   0.0078125
        k(  247) = (  -0.5000000   0.0000002  -0.0887790), wk =   0.0078125
        k(  248) = (  -0.5000001   0.1443378   0.0000002), wk =   0.0078125
        k(  249) = (  -0.5000001   0.1443378   0.0887794), wk =   0.0078125
        k(  250) = (  -0.5000001   0.1443378   0.1775586), wk =   0.0078125
        k(  251) = (  -0.5000001   0.1443378   0.2663378), wk =   0.0078125
        k(  252) = (  -0.4999999   0.1443377  -0.3551166), wk =   0.0078125
        k(  253) = (  -0.5000000   0.1443377  -0.2663374), wk =   0.0078125
        k(  254) = (  -0.5000000   0.1443378  -0.1775582), wk =   0.0078125
        k(  255) = (  -0.5000000   0.1443378  -0.0887790), wk =   0.0078125
        k(  256) = (  -0.4999997  -0.8660253  -0.0000000), wk =   0.0039062
        k(  257) = (  -0.4999997  -0.8660253   0.0887792), wk =   0.0078125
        k(  258) = (  -0.4999997  -0.8660253   0.1775583), wk =   0.0078125
        k(  259) = (  -0.4999998  -0.8660253   0.2663375), wk =   0.0078125
        k(  260) = (  -0.4999996  -0.8660253  -0.3551168), wk =   0.0039062

                       cryst. coord.
        k(    1) = (   0.0000000   0.0000000   0.0000000), wk =   0.0039062
        k(    2) = (  -0.0000000  -0.0000000   0.1250000), wk =   0.0078125
        k(    3) = (  -0.0000000  -0.0000000   0.2500000), wk =   0.0078125
        k(    4) = (  -0.0000000   0.0000000   0.3750000), wk =   0.0078125
        k(    5) = (   0.0000000   0.0000000  -0.5000000), wk =   0.0039062
        k(    6) = (   0.0000000   0.1250000  -0.0000000), wk =   0.0078125
        k(    7) = (   0.0000000   0.1250000   0.1250000), wk =   0.0078125
        k(    8) = (   0.0000000   0.1250000   0.2500000), wk =   0.0078125
        k(    9) = (   0.0000000   0.1250000   0.3750000), wk =   0.0078125
        k(   10) = (   0.0000000   0.1250000  -0.5000000), wk =   0.0078125
        k(   11) = (   0.0000000   0.1250000  -0.3750000), wk =   0.0078125
        k(   12) = (   0.0000000   0.1250000  -0.2500000), wk =   0.0078125
        k(   13) = (   0.0000000   0.1250000  -0.1250000), wk =   0.0078125
        k(   14) = (   0.0000000   0.2500000  -0.0000000), wk =   0.0078125
        k(   15) = (   0.0000000   0.2500000   0.1250000), wk =   0.0078125
        k(   16) = (   0.0000000   0.2500000   0.2500000), wk =   0.0078125
        k(   17) = (   0.0000000   0.2500000   0.3750000), wk =   0.0078125
        k(   18) = (   0.0000000   0.2500000  -0.5000000), wk =   0.0078125
        k(   19) = (   0.0000000   0.2500000  -0.3750000), wk =   0.0078125
        k(   20) = (   0.0000000   0.2500000  -0.2500000), wk =   0.0078125
        k(   21) = (  -0.0000000   0.2500000  -0.1250000), wk =   0.0078125
        k(   22) = (   0.0000000   0.3750000  -0.0000000), wk =   0.0078125
        k(   23) = (   0.0000000   0.3750000   0.1250000), wk =   0.0078125
        k(   24) = (   0.0000000   0.3750000   0.2500000), wk =   0.0078125
        k(   25) = (   0.0000000   0.3750000   0.3750000), wk =   0.0078125
        k(   26) = (   0.0000000   0.3750000  -0.5000000), wk =   0.0078125
        k(   27) = (   0.0000000   0.3750000  -0.3750000), wk =   0.0078125
        k(   28) = (   0.0000000   0.3750000  -0.2500000), wk =   0.0078125
        k(   29) = (   0.0000000   0.3750000  -0.1250000), wk =   0.0078125
        k(   30) = (  -0.0000000  -0.5000000   0.0000000), wk =   0.0039062
        k(   31) = (  -0.0000000  -0.5000000   0.1250000), wk =   0.0078125
        k(   32) = (   0.0000000  -0.5000000   0.2500000), wk =   0.0078125
        k(   33) = (  -0.0000000  -0.5000000   0.3750000), wk =   0.0078125
        k(   34) = (  -0.0000000  -0.5000000  -0.5000000), wk =   0.0039062
        k(   35) = (   0.1250000   0.0000000  -0.0000000), wk =   0.0078125
        k(   36) = (   0.1250000   0.0000000   0.1250000), wk =   0.0078125
        k(   37) = (   0.1250000   0.0000000   0.2500000), wk =   0.0078125
        k(   38) = (   0.1250000   0.0000000   0.3750000), wk =   0.0078125
        k(   39) = (   0.1250000   0.0000000  -0.5000000), wk =   0.0078125
        k(   40) = (   0.1250000   0.0000000  -0.3750000), wk =   0.0078125
        k(   41) = (   0.1250000   0.0000000  -0.2500000), wk =   0.0078125
        k(   42) = (   0.1250000   0.0000000  -0.1250000), wk =   0.0078125
        k(   43) = (   0.1250000   0.1250000  -0.0000000), wk =   0.0078125
        k(   44) = (   0.1250000   0.1250000   0.1250000), wk =   0.0078125
        k(   45) = (   0.1250000   0.1250000   0.2500000), wk =   0.0078125
        k(   46) = (   0.1250000   0.1250000   0.3750000), wk =   0.0078125
        k(   47) = (   0.1250000   0.1250000  -0.5000000), wk =   0.0078125
        k(   48) = (   0.1250000   0.1250000  -0.3750000), wk =   0.0078125
        k(   49) = (   0.1250000   0.1250000  -0.2500000), wk =   0.0078125
        k(   50) = (   0.1250000   0.1250000  -0.1250000), wk =   0.0078125
        k(   51) = (   0.1250000   0.2500000  -0.0000000), wk =   0.0078125
        k(   52) = (   0.1250000   0.2500000   0.1250000), wk =   0.0078125
        k(   53) = (   0.1250000   0.2500000   0.2500000), wk =   0.0078125
        k(   54) = (   0.1250000   0.2500000   0.3750000), wk =   0.0078125
        k(   55) = (   0.1250000   0.2500000  -0.5000000), wk =   0.0078125
        k(   56) = (   0.1250000   0.2500000  -0.3750000), wk =   0.0078125
        k(   57) = (   0.1250000   0.2500000  -0.2500000), wk =   0.0078125
        k(   58) = (   0.1250000   0.2500000  -0.1250000), wk =   0.0078125
        k(   59) = (   0.1250000   0.3750000  -0.0000000), wk =   0.0078125
        k(   60) = (   0.1250000   0.3750000   0.1250000), wk =   0.0078125
        k(   61) = (   0.1250000   0.3750000   0.2500000), wk =   0.0078125
        k(   62) = (   0.1250000   0.3750000   0.3750000), wk =   0.0078125
        k(   63) = (   0.1250000   0.3750000  -0.5000000), wk =   0.0078125
        k(   64) = (   0.1250000   0.3750000  -0.3750000), wk =   0.0078125
        k(   65) = (   0.1250000   0.3750000  -0.2500000), wk =   0.0078125
        k(   66) = (   0.1250000   0.3750000  -0.1250000), wk =   0.0078125
        k(   67) = (   0.1250000  -0.5000000   0.0000000), wk =   0.0078125
        k(   68) = (   0.1250000  -0.5000000   0.1250000), wk =   0.0078125
        k(   69) = (   0.1250000  -0.5000000   0.2500000), wk =   0.0078125
        k(   70) = (   0.1250000  -0.5000000   0.3750000), wk =   0.0078125
        k(   71) = (   0.1250000  -0.5000000  -0.5000000), wk =   0.0078125
        k(   72) = (   0.1250000  -0.5000000  -0.3750000), wk =   0.0078125
        k(   73) = (   0.1250000  -0.5000000  -0.2500000), wk =   0.0078125
        k(   74) = (   0.1250000  -0.5000000  -0.1250000), wk =   0.0078125
        k(   75) = (   0.1250000  -0.3750000   0.0000000), wk =   0.0078125
        k(   76) = (   0.1250000  -0.3750000   0.1250000), wk =   0.0078125
        k(   77) = (   0.1250000  -0.3750000   0.2500000), wk =   0.0078125
        k(   78) = (   0.1250000  -0.3750000   0.3750000), wk =   0.0078125
        k(   79) = (   0.1250000  -0.3750000  -0.5000000), wk =   0.0078125
        k(   80) = (   0.1250000  -0.3750000  -0.3750000), wk =   0.0078125
        k(   81) = (   0.1250000  -0.3750000  -0.2500000), wk =   0.0078125
        k(   82) = (   0.1250000  -0.3750000  -0.1250000), wk =   0.0078125
        k(   83) = (   0.1250000  -0.2500000   0.0000000), wk =   0.0078125
        k(   84) = (   0.1250000  -0.2500000   0.1250000), wk =   0.0078125
        k(   85) = (   0.1250000  -0.2500000   0.2500000), wk =   0.0078125
        k(   86) = (   0.1250000  -0.2500000   0.3750000), wk =   0.0078125
        k(   87) = (   0.1250000  -0.2500000  -0.5000000), wk =   0.0078125
        k(   88) = (   0.1250000  -0.2500000  -0.3750000), wk =   0.0078125
        k(   89) = (   0.1250000  -0.2500000  -0.2500000), wk =   0.0078125
        k(   90) = (   0.1250000  -0.2500000  -0.1250000), wk =   0.0078125
        k(   91) = (   0.1250000  -0.1250000   0.0000000), wk =   0.0078125
        k(   92) = (   0.1250000  -0.1250000   0.1250000), wk =   0.0078125
        k(   93) = (   0.1250000  -0.1250000   0.2500000), wk =   0.0078125
        k(   94) = (   0.1250000  -0.1250000   0.3750000), wk =   0.0078125
        k(   95) = (   0.1250000  -0.1250000  -0.5000000), wk =   0.0078125
        k(   96) = (   0.1250000  -0.1250000  -0.3750000), wk =   0.0078125
        k(   97) = (   0.1250000  -0.1250000  -0.2500000), wk =   0.0078125
        k(   98) = (   0.1250000  -0.1250000  -0.1250000), wk =   0.0078125
        k(   99) = (   0.2500000   0.0000000  -0.0000000), wk =   0.0078125
        k(  100) = (   0.2500000   0.0000000   0.1250000), wk =   0.0078125
        k(  101) = (   0.2500000   0.0000000   0.2500000), wk =   0.0078125
        k(  102) = (   0.2500000   0.0000000   0.3750000), wk =   0.0078125
        k(  103) = (   0.2500000   0.0000000  -0.5000000), wk =   0.0078125
        k(  104) = (   0.2500000   0.0000000  -0.3750000), wk =   0.0078125
        k(  105) = (   0.2500000   0.0000000  -0.2500000), wk =   0.0078125
        k(  106) = (   0.2500000   0.0000000  -0.1250000), wk =   0.0078125
        k(  107) = (   0.2500000   0.1250000  -0.0000000), wk =   0.0078125
        k(  108) = (   0.2500000   0.1250000   0.1250000), wk =   0.0078125
        k(  109) = (   0.2500000   0.1250000   0.2500000), wk =   0.0078125
        k(  110) = (   0.2500000   0.1250000   0.3750000), wk =   0.0078125
        k(  111) = (   0.2500000   0.1250000  -0.5000000), wk =   0.0078125
        k(  112) = (   0.2500000   0.1250000  -0.3750000), wk =   0.0078125
        k(  113) = (   0.2500000   0.1250000  -0.2500000), wk =   0.0078125
        k(  114) = (   0.2500000   0.1250000  -0.1250000), wk =   0.0078125
        k(  115) = (   0.2500000   0.2500000  -0.0000000), wk =   0.0078125
        k(  116) = (   0.2500000   0.2500000   0.1250000), wk =   0.0078125
        k(  117) = (   0.2500000   0.2500000   0.2500000), wk =   0.0078125
        k(  118) = (   0.2500000   0.2500000   0.3750000), wk =   0.0078125
        k(  119) = (   0.2500000   0.2500000  -0.5000000), wk =   0.0078125
        k(  120) = (   0.2500000   0.2500000  -0.3750000), wk =   0.0078125
        k(  121) = (   0.2500000   0.2500000  -0.2500000), wk =   0.0078125
        k(  122) = (   0.2500000   0.2500000  -0.1250000), wk =   0.0078125
        k(  123) = (   0.2500000   0.3750000  -0.0000000), wk =   0.0078125
        k(  124) = (   0.2500000   0.3750000   0.1250000), wk =   0.0078125
        k(  125) = (   0.2500000   0.3750000   0.2500000), wk =   0.0078125
        k(  126) = (   0.2500000   0.3750000   0.3750000), wk =   0.0078125
        k(  127) = (   0.2500000   0.3750000  -0.5000000), wk =   0.0078125
        k(  128) = (   0.2500000   0.3750000  -0.3750000), wk =   0.0078125
        k(  129) = (   0.2500000   0.3750000  -0.2500000), wk =   0.0078125
        k(  130) = (   0.2500000   0.3750000  -0.1250000), wk =   0.0078125
        k(  131) = (   0.2500000  -0.5000000   0.0000000), wk =   0.0078125
        k(  132) = (   0.2500000  -0.5000000   0.1250000), wk =   0.0078125
        k(  133) = (   0.2500000  -0.5000000   0.2500000), wk =   0.0078125
        k(  134) = (   0.2500000  -0.5000000   0.3750000), wk =   0.0078125
        k(  135) = (   0.2500000  -0.5000000  -0.5000000), wk =   0.0078125
        k(  136) = (   0.2500000  -0.5000000  -0.3750000), wk =   0.0078125
        k(  137) = (   0.2500000  -0.5000000  -0.2500000), wk =   0.0078125
        k(  138) = (   0.2500000  -0.5000000  -0.1250000), wk =   0.0078125
        k(  139) = (   0.2500000  -0.3750000   0.0000000), wk =   0.0078125
        k(  140) = (   0.2500000  -0.3750000   0.1250000), wk =   0.0078125
        k(  141) = (   0.2500000  -0.3750000   0.2500000), wk =   0.0078125
        k(  142) = (   0.2500000  -0.3750000   0.3750000), wk =   0.0078125
        k(  143) = (   0.2500000  -0.3750000  -0.5000000), wk =   0.0078125
        k(  144) = (   0.2500000  -0.3750000  -0.3750000), wk =   0.0078125
        k(  145) = (   0.2500000  -0.3750000  -0.2500000), wk =   0.0078125
        k(  146) = (   0.2500000  -0.3750000  -0.1250000), wk =   0.0078125
        k(  147) = (   0.2500000  -0.2500000   0.0000000), wk =   0.0078125
        k(  148) = (   0.2500000  -0.2500000   0.1250000), wk =   0.0078125
        k(  149) = (   0.2500000  -0.2500000   0.2500000), wk =   0.0078125
        k(  150) = (   0.2500000  -0.2500000   0.3750000), wk =   0.0078125
        k(  151) = (   0.2500000  -0.2500000  -0.5000000), wk =   0.0078125
        k(  152) = (   0.2500000  -0.2500000  -0.3750000), wk =   0.0078125
        k(  153) = (   0.2500000  -0.2500000  -0.2500000), wk =   0.0078125
        k(  154) = (   0.2500000  -0.2500000  -0.1250000), wk =   0.0078125
        k(  155) = (   0.2500000  -0.1250000   0.0000000), wk =   0.0078125
        k(  156) = (   0.2500000  -0.1250000   0.1250000), wk =   0.0078125
        k(  157) = (   0.2500000  -0.1250000   0.2500000), wk =   0.0078125
        k(  158) = (   0.2500000  -0.1250000   0.3750000), wk =   0.0078125
        k(  159) = (   0.2500000  -0.1250000  -0.5000000), wk =   0.0078125
        k(  160) = (   0.2500000  -0.1250000  -0.3750000), wk =   0.0078125
        k(  161) = (   0.2500000  -0.1250000  -0.2500000), wk =   0.0078125
        k(  162) = (   0.2500000  -0.1250000  -0.1250000), wk =   0.0078125
        k(  163) = (   0.3750000   0.0000000  -0.0000000), wk =   0.0078125
        k(  164) = (   0.3750000  -0.0000000   0.1250000), wk =   0.0078125
        k(  165) = (   0.3750000   0.0000000   0.2500000), wk =   0.0078125
        k(  166) = (   0.3750000   0.0000000   0.3750000), wk =   0.0078125
        k(  167) = (   0.3750000   0.0000000  -0.5000000), wk =   0.0078125
        k(  168) = (   0.3750000   0.0000000  -0.3750000), wk =   0.0078125
        k(  169) = (   0.3750000   0.0000000  -0.2500000), wk =   0.0078125
        k(  170) = (   0.3750000   0.0000000  -0.1250000), wk =   0.0078125
        k(  171) = (   0.3750000   0.1250000  -0.0000000), wk =   0.0078125
        k(  172) = (   0.3750000   0.1250000   0.1250000), wk =   0.0078125
        k(  173) = (   0.3750000   0.1250000   0.2500000), wk =   0.0078125
        k(  174) = (   0.3750000   0.1250000   0.3750000), wk =   0.0078125
        k(  175) = (   0.3750000   0.1250000  -0.5000000), wk =   0.0078125
        k(  176) = (   0.3750000   0.1250000  -0.3750000), wk =   0.0078125
        k(  177) = (   0.3750000   0.1250000  -0.2500000), wk =   0.0078125
        k(  178) = (   0.3750000   0.1250000  -0.1250000), wk =   0.0078125
        k(  179) = (   0.3750000   0.2500000  -0.0000000), wk =   0.0078125
        k(  180) = (   0.3750000   0.2500000   0.1250000), wk =   0.0078125
        k(  181) = (   0.3750000   0.2500000   0.2500000), wk =   0.0078125
        k(  182) = (   0.3750000   0.2500000   0.3750000), wk =   0.0078125
        k(  183) = (   0.3750000   0.2500000  -0.5000000), wk =   0.0078125
        k(  184) = (   0.3750000   0.2500000  -0.3750000), wk =   0.0078125
        k(  185) = (   0.3750000   0.2500000  -0.2500000), wk =   0.0078125
        k(  186) = (   0.3750000   0.2500000  -0.1250000), wk =   0.0078125
        k(  187) = (   0.3750000   0.3750000  -0.0000000), wk =   0.0078125
        k(  188) = (   0.3750000   0.3750000   0.1250000), wk =   0.0078125
        k(  189) = (   0.3750000   0.3750000   0.2500000), wk =   0.0078125
        k(  190) = (   0.3750000   0.3750000   0.3750000), wk =   0.0078125
        k(  191) = (   0.3750000   0.3750000  -0.5000000), wk =   0.0078125
        k(  192) = (   0.3750000   0.3750000  -0.3750000), wk =   0.0078125
        k(  193) = (   0.3750000   0.3750000  -0.2500000), wk =   0.0078125
        k(  194) = (   0.3750000   0.3750000  -0.1250000), wk =   0.0078125
        k(  195) = (   0.3750000  -0.5000000   0.0000000), wk =   0.0078125
        k(  196) = (   0.3750000  -0.5000000   0.1250000), wk =   0.0078125
        k(  197) = (   0.3750000  -0.5000000   0.2500000), wk =   0.0078125
        k(  198) = (   0.3750000  -0.5000000   0.3750000), wk =   0.0078125
        k(  199) = (   0.3750000  -0.5000000  -0.5000000), wk =   0.0078125
        k(  200) = (   0.3750000  -0.5000000  -0.3750000), wk =   0.0078125
        k(  201) = (   0.3750000  -0.5000000  -0.2500000), wk =   0.0078125
        k(  202) = (   0.3750000  -0.5000000  -0.1250000), wk =   0.0078125
        k(  203) = (   0.3750000  -0.3750000   0.0000000), wk =   0.0078125
        k(  204) = (   0.3750000  -0.3750000   0.1250000), wk =   0.0078125
        k(  205) = (   0.3750000  -0.3750000   0.2500000), wk =   0.0078125
        k(  206) = (   0.3750000  -0.3750000   0.3750000), wk =   0.0078125
        k(  207) = (   0.3750000  -0.3750000  -0.5000000), wk =   0.0078125
        k(  208) = (   0.3750000  -0.3750000  -0.3750000), wk =   0.0078125
        k(  209) = (   0.3750000  -0.3750000  -0.2500000), wk =   0.0078125
        k(  210) = (   0.3750000  -0.3750000  -0.1250000), wk =   0.0078125
        k(  211) = (   0.3750000  -0.2500000   0.0000000), wk =   0.0078125
        k(  212) = (   0.3750000  -0.2500000   0.1250000), wk =   0.0078125
        k(  213) = (   0.3750000  -0.2500000   0.2500000), wk =   0.0078125
        k(  214) = (   0.3750000  -0.2500000   0.3750000), wk =   0.0078125
        k(  215) = (   0.3750000  -0.2500000  -0.5000000), wk =   0.0078125
        k(  216) = (   0.3750000  -0.2500000  -0.3750000), wk =   0.0078125
        k(  217) = (   0.3750000  -0.2500000  -0.2500000), wk =   0.0078125
        k(  218) = (   0.3750000  -0.2500000  -0.1250000), wk =   0.0078125
        k(  219) = (   0.3750000  -0.1250000   0.0000000), wk =   0.0078125
        k(  220) = (   0.3750000  -0.1250000   0.1250000), wk =   0.0078125
        k(  221) = (   0.3750000  -0.1250000   0.2500000), wk =   0.0078125
        k(  222) = (   0.3750000  -0.1250000   0.3750000), wk =   0.0078125
        k(  223) = (   0.3750000  -0.1250000  -0.5000000), wk =   0.0078125
        k(  224) = (   0.3750000  -0.1250000  -0.3750000), wk =   0.0078125
        k(  225) = (   0.3750000  -0.1250000  -0.2500000), wk =   0.0078125
        k(  226) = (   0.3750000  -0.1250000  -0.1250000), wk =   0.0078125
        k(  227) = (  -0.5000000  -0.0000000   0.0000000), wk =   0.0039062
        k(  228) = (  -0.5000000  -0.0000000   0.1250000), wk =   0.0078125
        k(  229) = (  -0.5000000  -0.0000000   0.2500000), wk =   0.0078125
        k(  230) = (  -0.5000000  -0.0000000   0.3750000), wk =   0.0078125
        k(  231) = (  -0.5000000  -0.0000000  -0.5000000), wk =   0.0039062
        k(  232) = (  -0.5000000   0.1250000   0.0000000), wk =   0.0078125
        k(  233) = (  -0.5000000   0.1250000   0.1250000), wk =   0.0078125
        k(  234) = (  -0.5000000   0.1250000   0.2500000), wk =   0.0078125
        k(  235) = (  -0.5000000   0.1250000   0.3750000), wk =   0.0078125
        k(  236) = (  -0.5000000   0.1250000  -0.5000000), wk =   0.0078125
        k(  237) = (  -0.5000000   0.1250000  -0.3750000), wk =   0.0078125
        k(  238) = (  -0.5000000   0.1250000  -0.2500000), wk =   0.0078125
        k(  239) = (  -0.5000000   0.1250000  -0.1250000), wk =   0.0078125
        k(  240) = (  -0.5000000   0.2500000  -0.0000000), wk =   0.0078125
        k(  241) = (  -0.5000000   0.2500000   0.1250000), wk =   0.0078125
        k(  242) = (  -0.5000000   0.2500000   0.2500000), wk =   0.0078125
        k(  243) = (  -0.5000000   0.2500000   0.3750000), wk =   0.0078125
        k(  244) = (  -0.5000000   0.2500000  -0.5000000), wk =   0.0078125
        k(  245) = (  -0.5000000   0.2500000  -0.3750000), wk =   0.0078125
        k(  246) = (  -0.5000000   0.2500000  -0.2500000), wk =   0.0078125
        k(  247) = (  -0.5000000   0.2500000  -0.1250000), wk =   0.0078125
        k(  248) = (  -0.5000000   0.3750000  -0.0000000), wk =   0.0078125
        k(  249) = (  -0.5000000   0.3750000   0.1250000), wk =   0.0078125
        k(  250) = (  -0.5000000   0.3750000   0.2500000), wk =   0.0078125
        k(  251) = (  -0.5000000   0.3750000   0.3750000), wk =   0.0078125
        k(  252) = (  -0.5000000   0.3750000  -0.5000000), wk =   0.0078125
        k(  253) = (  -0.5000000   0.3750000  -0.3750000), wk =   0.0078125
        k(  254) = (  -0.5000000   0.3750000  -0.2500000), wk =   0.0078125
        k(  255) = (  -0.5000000   0.3750000  -0.1250000), wk =   0.0078125
        k(  256) = (  -0.5000000  -0.5000000   0.0000000), wk =   0.0039062
        k(  257) = (  -0.5000000  -0.5000000   0.1250000), wk =   0.0078125
        k(  258) = (  -0.5000000  -0.5000000   0.2500000), wk =   0.0078125
        k(  259) = (  -0.5000000  -0.5000000   0.3750000), wk =   0.0078125
        k(  260) = (  -0.5000000  -0.5000000  -0.5000000), wk =   0.0039062

     Dense  grid:    77463 G-vectors     FFT dimensions: (  50,  50,  72)

     Smooth grid:    30135 G-vectors     FFT dimensions: (  40,  40,  54)

     Dynamical RAM for                 wfc:       0.09 MB

     Dynamical RAM for     wfc (w. buffer):       6.15 MB

     Dynamical RAM for           str. fact:       0.15 MB

     Dynamical RAM for           local pot:       0.00 MB

     Dynamical RAM for          nlocal pot:       0.22 MB

     Dynamical RAM for                qrad:       3.97 MB

     Dynamical RAM for          rho,v,vnew:       0.51 MB

     Dynamical RAM for               rhoin:       0.17 MB

     Dynamical RAM for            rho*nmix:       1.18 MB

     Dynamical RAM for           G-vectors:       0.29 MB

     Dynamical RAM for          h,s,v(r/c):       0.12 MB

     Dynamical RAM for          <psi|beta>:       0.02 MB

     Dynamical RAM for                 psi:       0.37 MB

     Dynamical RAM for                hpsi:       0.37 MB

     Dynamical RAM for                spsi:       0.37 MB

     Dynamical RAM for      wfcinit/wfcrot:       0.27 MB

     Dynamical RAM for           addusdens:       3.53 MB

     Dynamical RAM for          addusforce:       3.67 MB

     Dynamical RAM for         addusstress:       3.74 MB

     Estimated static dynamical RAM per process >      13.34 MB

     Estimated max dynamical RAM per process >      17.08 MB

     Estimated total dynamical RAM >       1.07 GB

     Check: negative core charge=   -0.000003

     Initial potential from superposition of free atoms

     starting charge   51.99974, renormalised to   52.00000
     Starting wfcs are   34 randomized atomic wfcs

     total cpu time spent up to now is        1.6 secs

     Self-consistent Calculation

     iteration #  1     ecut=    80.00 Ry     beta= 0.50
     Davidson diagonalization with overlap
     ethr =  1.00E-02,  avg # of iterations =  1.0

     total cpu time spent up to now is        2.4 secs

     total energy              =    -986.75503809 Ry
     Harris-Foulkes estimate   =    -987.27629982 Ry
     estimated scf accuracy    <       0.81918057 Ry

     iteration #  2     ecut=    80.00 Ry     beta= 0.50
     Davidson diagonalization with overlap
     ethr =  1.58E-03,  avg # of iterations =  3.0

     total cpu time spent up to now is        3.8 secs

     total energy              =    -986.99666711 Ry
     Harris-Foulkes estimate   =    -987.16320616 Ry
     estimated scf accuracy    <       0.38375837 Ry

     iteration #  3     ecut=    80.00 Ry     beta= 0.50
     Davidson diagonalization with overlap
     ethr =  7.38E-04,  avg # of iterations =  2.1

     total cpu time spent up to now is        4.9 secs

     total energy              =    -987.06569776 Ry
     Harris-Foulkes estimate   =    -987.06798366 Ry
     estimated scf accuracy    <       0.00683500 Ry

     iteration #  4     ecut=    80.00 Ry     beta= 0.50
     Davidson diagonalization with overlap
     ethr =  1.31E-05,  avg # of iterations =  2.0

     total cpu time spent up to now is        6.1 secs

     total energy              =    -987.06628723 Ry
     Harris-Foulkes estimate   =    -987.06673150 Ry
     estimated scf accuracy    <       0.00151395 Ry

     iteration #  5     ecut=    80.00 Ry     beta= 0.50
     Davidson diagonalization with overlap
     ethr =  2.91E-06,  avg # of iterations =  2.0

     total cpu time spent up to now is        7.1 secs

     total energy              =    -987.06644278 Ry
     Harris-Foulkes estimate   =    -987.06645129 Ry
     estimated scf accuracy    <       0.00001706 Ry

     iteration #  6     ecut=    80.00 Ry     beta= 0.50
     Davidson diagonalization with overlap
     ethr =  3.28E-08,  avg # of iterations =  2.2

     total cpu time spent up to now is        8.3 secs

     total energy              =    -987.06644588 Ry
     Harris-Foulkes estimate   =    -987.06644524 Ry
     estimated scf accuracy    <       0.00000350 Ry

     iteration #  7     ecut=    80.00 Ry     beta= 0.50
     Davidson diagonalization with overlap
     ethr =  6.73E-09,  avg # of iterations =  2.0

     total cpu time spent up to now is        9.3 secs

     End of self-consistent calculation

          k = 0.0000 0.0000 0.0000 (  3703 PWs)   bands (ev):

  -114.0556-114.0552 -68.4486 -68.4431 -68.3988 -68.3988 -68.3973 -68.3973
    -8.9777  -7.9472   3.1774   3.1774   3.2119   3.2120   3.9172   4.1924
     4.4336   4.4336   4.7582   4.7582   5.1413   8.3538   8.3538   8.4203
     9.0290   9.0291

     occupation numbers 
     1.0000   1.0000   1.0000   1.0000   1.0000   1.0000   1.0000   1.0000
     1.0000   1.0000   1.0000   1.0000   1.0000   1.0000   1.0000   1.0000
     1.0000   1.0000   1.0000   1.0000   1.0000   1.0000   1.0000   1.0000
     1.0000   1.0000

          k =-0.0000 0.0000 0.0888 (  3751 PWs)   bands (ev):

  -114.0556-114.0552 -68.4484 -68.4434 -68.3988 -68.3988 -68.3974 -68.3974
    -8.9397  -7.9871   3.1715   3.1715   3.2023   3.2023   3.7766   4.1215
     4.4544   4.4544   4.7532   4.7532   5.3769   8.1362   8.3834   8.3834
     9.0081   9.0081

     occupation numbers 
     1.0000   1.0000   1.0000   1.0000   1.0000   1.0000   1.0000   1.0000
     1.0000   1.0000   1.0000   1.0000   1.0000   1.0000   1.0000   1.0000
     1.0000   1.0000   1.0000   1.0000   1.0000   1.0000   1.0000   1.0000
     1.0000   1.0000

          k =-0.0000 0.0000 0.1776 (  3769 PWs)   bands (ev):

  -114.0556-114.0552 -68.4479 -68.4440 -68.3987 -68.3987 -68.3976 -68.3976
    -8.8307  -8.1007   3.1580   3.1580   3.1794   3.1794   3.5693   3.9370
     4.5089   4.5089   4.7357   4.7357   5.8540   7.6705   8.4665   8.4665
     8.9462   8.9462

     occupation numbers 
     1.0000   1.0000   1.0000   1.0000   1.0000   1.0000   1.0000   1.0000
     1.0000   1.0000   1.0000   1.0000   1.0000   1.0000   1.0000   1.0000
     1.0000   1.0000   1.0000   1.0000   1.0000   1.0000   1.0000   1.0000
     1.0000   1.0000

          k =-0.0000 0.0000 0.2663 (  3758 PWs)   bands (ev):

  -114.0555-114.0553 -68.4469 -68.4448 -68.3984 -68.3984 -68.3978 -68.3978
    -8.6659  -8.2703   3.1458   3.1458   3.1563   3.1563   3.4777   3.7124
     4.5793   4.5793   4.7010   4.7010   6.3550   7.2355   8.5867   8.5867
     8.8472   8.8472

     occupation numbers 
     1.0000   1.0000   1.0000   1.0000   1.0000   1.0000   1.0000   1.0000
     1.0000   1.0000   1.0000   1.0000   1.0000   1.0000   1.0000   1.0000
     1.0000   1.0000   1.0000   1.0000   1.0000   1.0000   1.0000   1.0000
     1.0000   1.0000

          k = 0.0000-0.0000-0.3551 (  3758 PWs)   bands (ev):

  -114.0555-114.0553 -68.4460 -68.4458 -68.3982 -68.3982 -68.3981 -68.3981
    -8.4692  -8.4690   3.1439   3.1439   3.1440   3.1440   3.5358   3.5359
     4.6473   4.6473   4.6474   4.6474   6.8123   6.8124   8.7214   8.7214
     8.7214   8.7214

     occupation numbers 
     1.0000   1.0000   1.0000   1.0000   1.0000   1.0000   1.0000   1.0000
     1.0000   1.0000   1.0000   1.0000   1.0000   1.0000   1.0000   1.0000
     1.0000   1.0000   1.0000   1.0000   1.0000   1.0000   1.0000   1.0000
     1.0000   1.0000

          k =-0.0000 0.1443 0.0000 (  3755 PWs)   bands (ev):

  -114.0556-114.0552 -68.4484 -68.4433 -68.3990 -68.3989 -68.3977 -68.3974
    -8.8902  -7.9239   3.1251   3.1984   3.2467   3.3138   3.8477   4.1930
     4.4145   4.4146   4.7704   4.9870   5.1448   7.8040   8.0904   8.2004
     8.3850   8.8560

     occupation numbers 
     1.0000   1.0000   1.0000   1.0000   1.0000   1.0000   1.0000   1.0000
     1.0000   1.0000   1.0000   1.0000   1.0000   1.0000   1.0000   1.0000
     1.0000   1.0000   1.0000   1.0000   1.0000   1.0000   1.0000   1.0000
     1.0000   1.0000

          k =-0.0000 0.1443 0.0888 (  3755 PWs)   bands (ev):

  -114.0556-114.0552 -68.4482 -68.4435 -68.3990 -68.3989 -68.3977 -68.3975
    -8.8539  -7.9605   3.1131   3.1774   3.2419   3.3023   3.7411   4.1067
     4.4367   4.4526   4.7638   4.8745   5.4554   7.7744   7.9276   8.1235
     8.6488   8.8316

     occupation numbers 
     1.0000   1.0000   1.0000   1.0000   1.0000   1.0000   1.0000   1.0000
     1.0000   1.0000   1.0000   1.0000   1.0000   1.0000   1.0000   1.0000
     1.0000   1.0000   1.0000   1.0000   1.0000   1.0000   1.0000   1.0000
     1.0000   1.0000

          k =-0.0000 0.1443 0.1776 (  3756 PWs)   bands (ev):

  -114.0555-114.0552 -68.4477 -68.4441 -68.3988 -68.3987 -68.3979 -68.3976
    -8.7501  -8.0652   3.0788   3.1242   3.2312   3.2749   3.5811   3.9151
     4.4943   4.5261   4.7419   4.8056   5.9315   7.4207   8.0324   8.2164
     8.7598   8.7777

     occupation numbers 
     1.0000   1.0000   1.0000   1.0000   1.0000   1.0000   1.0000   1.0000
     1.0000   1.0000   1.0000   1.0000   1.0000   1.0000   1.0000   1.0000
     1.0000   1.0000   1.0000   1.0000   1.0000   1.0000   1.0000   1.0000
     1.0000   1.0000

          k =-0.0000 0.1443 0.2663 (  3749 PWs)   bands (ev):

  -114.0555-114.0553 -68.4468 -68.4449 -68.3986 -68.3985 -68.3981 -68.3979
    -8.5939  -8.2225   3.0391   3.0710   3.2235   3.2460   3.5160   3.7074
     4.5688   4.6082   4.7015   4.7509   6.3803   7.0811   8.2561   8.3512
     8.6461   8.7061

     occupation numbers 
     1.0000   1.0000   1.0000   1.0000   1.0000   1.0000   1.0000   1.0000
     1.0000   1.0000   1.0000   1.0000   1.0000   1.0000   1.0000   1.0000
     1.0000   1.0000   1.0000   1.0000   1.0000   1.0000   1.0000   1.0000
     1.0000   1.0000

          k = 0.0000 0.1443-0.3551 (  3744 PWs)   bands (ev):

  -114.0555-114.0553 -68.4459 -68.4458 -68.3984 -68.3983 -68.3982 -68.3981
    -8.4085  -8.4084   3.0363   3.0363   3.2274   3.2274   3.5612   3.5613
     4.6420   4.6421   4.6858   4.6859   6.7534   6.7534   8.5030   8.5030
     8.5065   8.5065

     occupation numbers 
     1.0000   1.0000   1.0000   1.0000   1.0000   1.0000   1.0000   1.0000
     1.0000   1.0000   1.0000   1.0000   1.0000   1.0000   1.0000   1.0000
     1.0000   1.0000   1.0000   1.0000   1.0000   1.0000   1.0000   1.0000
     1.0000   1.0000

          k = 0.0000 0.1443-0.2663 (  3749 PWs)   bands (ev):

  -114.0555-114.0553 -68.4468 -68.4449 -68.3986 -68.3985 -68.3981 -68.3979
    -8.5939  -8.2225   3.0391   3.0710   3.2235   3.2460   3.5160   3.7074
     4.5688   4.6082   4.7015   4.7509   6.3803   7.0811   8.2561   8.3512
     8.6461   8.7061

     occupation numbers 
     1.0000   1.0000   1.0000   1.0000   1.0000   1.0000   1.0000   1.0000
     1.0000   1.0000   1.0000   1.0000   1.0000   1.0000   1.0000   1.0000
     1.0000   1.0000   1.0000   1.0000   1.0000   1.0000   1.0000   1.0000
     1.0000   1.0000

          k =-0.0000 0.1443-0.1776 (  3756 PWs)   bands (ev):

  -114.0555-114.0552 -68.4477 -68.4441 -68.3988 -68.3987 -68.3979 -68.3976
    -8.7501  -8.0652   3.0788   3.1242   3.2312   3.2749   3.5811   3.9151
     4.4943   4.5261   4.7419   4.8056   5.9315   7.4207   8.0324   8.2164
     8.7598   8.7777

     occupation numbers 
     1.0000   1.0000   1.0000   1.0000   1.0000   1.0000   1.0000   1.0000
     1.0000   1.0000   1.0000   1.0000   1.0000   1.0000   1.0000   1.0000
     1.0000   1.0000   1.0000   1.0000   1.0000   1.0000   1.0000   1.0000
     1.0000   1.0000

          k =-0.0000 0.1443-0.0888 (  3755 PWs)   bands (ev):

  -114.0556-114.0552 -68.4482 -68.4435 -68.3990 -68.3989 -68.3977 -68.3975
    -8.8539  -7.9605   3.1131   3.1774   3.2419   3.3023   3.7411   4.1067
     4.4367   4.4526   4.7638   4.8745   5.4554   7.7744   7.9276   8.1235
     8.6488   8.8316

     occupation numbers 
     1.0000   1.0000   1.0000   1.0000   1.0000   1.0000   1.0000   1.0000
     1.0000   1.0000   1.0000   1.0000   1.0000   1.0000   1.0000   1.0000
     1.0000   1.0000   1.0000   1.0000   1.0000   1.0000   1.0000   1.0000
     1.0000   1.0000

          k =-0.0000 0.2887 0.0000 (  3782 PWs)   bands (ev):

  -114.0555-114.0552 -68.4479 -68.4438 -68.3995 -68.3992 -68.3983 -68.3975
    -8.6605  -7.8803   3.0048   3.2422   3.4639   3.5536   3.8038   4.1362
     4.3854   4.4312   4.7941   5.0825   5.5249   6.6954   7.1561   7.4650
     8.2478   8.4149

     occupation numbers 
     1.0000   1.0000   1.0000   1.0000   1.0000   1.0000   1.0000   1.0000
     1.0000   1.0000   1.0000   1.0000   1.0000   1.0000   1.0000   1.0000
     1.0000   1.0000   1.0000   1.0000   1.0000   1.0000   1.0000   1.0000
     1.0000   1.0000

          k =-0.0000 0.2887 0.0888 (  3768 PWs)   bands (ev):

  -114.0555-114.0552 -68.4477 -68.4440 -68.3994 -68.3991 -68.3983 -68.3976
    -8.6295  -7.9078   2.9866   3.1910   3.4594   3.5398   3.7316   4.0415
     4.4092   4.4842   4.7836   5.0004   5.7252   6.7814   7.0596   7.5062
     8.3839   8.3976

     occupation numbers 
     1.0000   1.0000   1.0000   1.0000   1.0000   1.0000   1.0000   1.0000
     1.0000   1.0000   1.0000   1.0000   1.0000   1.0000   1.0000   1.0000
     1.0000   1.0000   1.0000   1.0000   1.0000   1.0000   1.0000   1.0000
     1.0000   1.0000

          k =-0.0000 0.2887 0.1776 (  3766 PWs)   bands (ev):

  -114.0555-114.0552 -68.4473 -68.4444 -68.3993 -68.3989 -68.3985 -68.3978
    -8.5415  -7.9875   2.9338   3.0642   3.4499   3.5074   3.6216   3.8581
     4.4707   4.5775   4.7519   4.9127   6.0027   6.7104   7.2839   7.6213
     8.2932   8.5958

     occupation numbers 
     1.0000   1.0000   1.0000   1.0000   1.0000   1.0000   1.0000   1.0000
     1.0000   1.0000   1.0000   1.0000   1.0000   1.0000   1.0000   1.0000
     1.0000   1.0000   1.0000   1.0000   1.0000   1.0000   1.0000   1.0000
     1.0000   1.0000

          k =-0.0000 0.2887 0.2663 (  3759 PWs)   bands (ev):

  -114.0555-114.0553 -68.4466 -68.4451 -68.3991 -68.3987 -68.3986 -68.3980
    -8.4107  -8.1100   2.8735   2.9407   3.4443   3.4735   3.5709   3.6907
     4.5504   4.6737   4.7000   4.8410   6.1990   6.5224   7.7875   7.8060
     8.1512   8.5775

     occupation numbers 
     1.0000   1.0000   1.0000   1.0000   1.0000   1.0000   1.0000   1.0000
     1.0000   1.0000   1.0000   1.0000   1.0000   1.0000   1.0000   1.0000
     1.0000   1.0000   1.0000   1.0000   1.0000   1.0000   1.0000   1.0000
     1.0000   1.0000

          k =-0.0000 0.2887-0.3551 (  3768 PWs)   bands (ev):

  -114.0555-114.0553 -68.4459 -68.4458 -68.3989 -68.3988 -68.3984 -68.3983
    -8.2587  -8.2586   2.8692   2.8692   3.4509   3.4510   3.5922   3.5923
     4.6306   4.6307   4.7630   4.7631   6.3584   6.3585   7.9744   7.9744
     8.2888   8.2889

     occupation numbers 
     1.0000   1.0000   1.0000   1.0000   1.0000   1.0000   1.0000   1.0000
     1.0000   1.0000   1.0000   1.0000   1.0000   1.0000   1.0000   1.0000
     1.0000   1.0000   1.0000   1.0000   1.0000   1.0000   1.0000   1.0000
     1.0000   1.0000

          k =-0.0000 0.2887-0.2663 (  3759 PWs)   bands (ev):

  -114.0555-114.0553 -68.4466 -68.4451 -68.3991 -68.3987 -68.3986 -68.3980
    -8.4107  -8.1100   2.8735   2.9407   3.4443   3.4735   3.5709   3.6907
     4.5503   4.6737   4.7000   4.8410   6.1990   6.5224   7.7875   7.8060
     8.1512   8.5775

     occupation numbers 
     1.0000   1.0000   1.0000   1.0000   1.0000   1.0000   1.0000   1.0000
     1.0000   1.0000   1.0000   1.0000   1.0000   1.0000   1.0000   1.0000
     1.0000   1.0000   1.0000   1.0000   1.0000   1.0000   1.0000   1.0000
     1.0000   1.0000

          k =-0.0000 0.2887-0.1776 (  3766 PWs)   bands (ev):

  -114.0555-114.0552 -68.4473 -68.4444 -68.3993 -68.3989 -68.3985 -68.3978
    -8.5415  -7.9875   2.9338   3.0642   3.4499   3.5074   3.6216   3.8581
     4.4707   4.5774   4.7519   4.9127   6.0027   6.7104   7.2839   7.6213
     8.2932   8.5958

     occupation numbers 
     1.0000   1.0000   1.0000   1.0000   1.0000   1.0000   1.0000   1.0000
     1.0000   1.0000   1.0000   1.0000   1.0000   1.0000   1.0000   1.0000
     1.0000   1.0000   1.0000   1.0000   1.0000   1.0000   1.0000   1.0000
     1.0000   1.0000

          k =-0.0000 0.2887-0.0888 (  3768 PWs)   bands (ev):

  -114.0555-114.0552 -68.4477 -68.4440 -68.3994 -68.3991 -68.3983 -68.3976
    -8.6295  -7.9078   2.9866   3.1910   3.4594   3.5398   3.7316   4.0415
     4.4091   4.4842   4.7836   5.0005   5.7253   6.7814   7.0596   7.5062
     8.3839   8.3976

     occupation numbers 
     1.0000   1.0000   1.0000   1.0000   1.0000   1.0000   1.0000   1.0000
     1.0000   1.0000   1.0000   1.0000   1.0000   1.0000   1.0000   1.0000
     1.0000   1.0000   1.0000   1.0000   1.0000   1.0000   1.0000   1.0000
     1.0000   1.0000

          k =-0.0000 0.4330 0.0000 (  3774 PWs)   bands (ev):

  -114.0555-114.0552 -68.4472 -68.4444 -68.3999 -68.3994 -68.3989 -68.3976
    -8.3847  -7.8746   2.9815   3.3168   3.7483   3.8009   3.8868   4.0845
     4.4045   4.5051   4.8123   4.9767   5.6523   6.0250   6.3497   6.8071
     7.9376   7.9986

     occupation numbers 
     1.0000   1.0000   1.0000   1.0000   1.0000   1.0000   1.0000   1.0000
     1.0000   1.0000   1.0000   1.0000   1.0000   1.0000   1.0000   1.0000
     1.0000   1.0000   1.0000   1.0000   1.0000   1.0000   1.0000   1.0000
     1.0000   1.0000

          k =-0.0000 0.4330 0.0888 (  3766 PWs)   bands (ev):

  -114.0555-114.0552 -68.4470 -68.4446 -68.3999 -68.3993 -68.3989 -68.3977
    -8.3619  -7.8898   2.9521   3.2509   3.7426   3.7887   3.8102   4.0090
     4.4253   4.5508   4.7968   4.9560   5.6062   5.9965   6.6101   6.8591
     7.9014   8.1527

     occupation numbers 
     1.0000   1.0000   1.0000   1.0000   1.0000   1.0000   1.0000   1.0000
     1.0000   1.0000   1.0000   1.0000   1.0000   1.0000   1.0000   1.0000
     1.0000   1.0000   1.0000   1.0000   1.0000   1.0000   1.0000   1.0000
     1.0000   1.0000

          k =-0.0000 0.4330 0.1776 (  3772 PWs)   bands (ev):

  -114.0555-114.0552 -68.4468 -68.4449 -68.3997 -68.3991 -68.3990 -68.3979
    -8.2981  -7.9353   2.8717   3.0829   3.6928   3.7294   3.7608   3.8587
     4.4791   4.6361   4.7547   4.9135   5.5968   5.8822   7.0016   7.2079
     7.7957   8.4331

     occupation numbers 
     1.0000   1.0000   1.0000   1.0000   1.0000   1.0000   1.0000   1.0000
     1.0000   1.0000   1.0000   1.0000   1.0000   1.0000   1.0000   1.0000
     1.0000   1.0000   1.0000   1.0000   1.0000   1.0000   1.0000   1.0000
     1.0000   1.0000

          k =-0.0000 0.4330 0.2663 (  3769 PWs)   bands (ev):

  -114.0554-114.0553 -68.4464 -68.4453 -68.3996 -68.3992 -68.3988 -68.3981
    -8.2062  -8.0089   2.7917   2.9025   3.6371   3.7182   3.7284   3.7334
     4.5497   4.6947   4.7213   4.8613   5.6367   5.7782   7.2024   7.6303
     7.8457   8.5450

     occupation numbers 
     1.0000   1.0000   1.0000   1.0000   1.0000   1.0000   1.0000   1.0000
     1.0000   1.0000   1.0000   1.0000   1.0000   1.0000   1.0000   1.0000
     1.0000   1.0000   1.0000   1.0000   1.0000   1.0000   1.0000   1.0000
     1.0000   1.0000

          k =-0.0000 0.4330-0.3551 (  3774 PWs)   bands (ev):

  -114.0554-114.0553 -68.4459 -68.4458 -68.3995 -68.3993 -68.3985 -68.3984
    -8.1038  -8.1037   2.7926   2.7926   3.6518   3.6519   3.7180   3.7181
     4.6242   4.6243   4.7973   4.7973   5.6990   5.6990   7.4234   7.4235
     8.3370   8.3371

     occupation numbers 
     1.0000   1.0000   1.0000   1.0000   1.0000   1.0000   1.0000   1.0000
     1.0000   1.0000   1.0000   1.0000   1.0000   1.0000   1.0000   1.0000
     1.0000   1.0000   1.0000   1.0000   1.0000   1.0000   1.0000   1.0000
     1.0000   1.0000

          k =-0.0000 0.4330-0.2663 (  3769 PWs)   bands (ev):

  -114.0554-114.0553 -68.4464 -68.4453 -68.3996 -68.3992 -68.3988 -68.3981
    -8.2062  -8.0089   2.7916   2.9026   3.6371   3.7181   3.7284   3.7334
     4.5497   4.6947   4.7213   4.8613   5.6367   5.7782   7.2024   7.6303
     7.8457   8.5450

     occupation numbers 
     1.0000   1.0000   1.0000   1.0000   1.0000   1.0000   1.0000   1.0000
     1.0000   1.0000   1.0000   1.0000   1.0000   1.0000   1.0000   1.0000
     1.0000   1.0000   1.0000   1.0000   1.0000   1.0000   1.0000   1.0000
     1.0000   1.0000

          k =-0.0000 0.4330-0.1776 (  3772 PWs)   bands (ev):

  -114.0555-114.0552 -68.4468 -68.4449 -68.3997 -68.3991 -68.3990 -68.3979
    -8.2981  -7.9353   2.8717   3.0829   3.6928   3.7294   3.7608   3.8587
     4.4791   4.6360   4.7547   4.9136   5.5969   5.8822   7.0016   7.2079
     7.7957   8.4331

     occupation numbers 
     1.0000   1.0000   1.0000   1.0000   1.0000   1.0000   1.0000   1.0000
     1.0000   1.0000   1.0000   1.0000   1.0000   1.0000   1.0000   1.0000
     1.0000   1.0000   1.0000   1.0000   1.0000   1.0000   1.0000   1.0000
     1.0000   1.0000

          k =-0.0000 0.4330-0.0888 (  3766 PWs)   bands (ev):

  -114.0555-114.0552 -68.4470 -68.4446 -68.3999 -68.3993 -68.3989 -68.3977
    -8.3619  -7.8898   2.9521   3.2509   3.7426   3.7887   3.8102   4.0089
     4.4253   4.5508   4.7968   4.9560   5.6062   5.9965   6.6101   6.8591
     7.9014   8.1527

     occupation numbers 
     1.0000   1.0000   1.0000   1.0000   1.0000   1.0000   1.0000   1.0000
     1.0000   1.0000   1.0000   1.0000   1.0000   1.0000   1.0000   1.0000
     1.0000   1.0000   1.0000   1.0000   1.0000   1.0000   1.0000   1.0000
     1.0000   1.0000

          k = 0.0000-0.5774-0.0000 (  3786 PWs)   bands (ev):

  -114.0554-114.0552 -68.4467 -68.4449 -68.4001 -68.3995 -68.3992 -68.3976
    -8.2347  -7.9054   3.0290   3.3327   3.8941   3.8954   3.8963   4.1999
     4.4526   4.5819   4.8183   4.8378   5.3549   5.6001   6.5025   6.5477
     7.7247   7.8158

     occupation numbers 
     1.0000   1.0000   1.0000   1.0000   1.0000   1.0000   1.0000   1.0000
     1.0000   1.0000   1.0000   1.0000   1.0000   1.0000   1.0000   1.0000
     1.0000   1.0000   1.0000   1.0000   1.0000   1.0000   1.0000   1.0000
     1.0000   1.0000

          k = 0.0000-0.5774 0.0888 (  3768 PWs)   bands (ev):

  -114.0554-114.0552 -68.4466 -68.4450 -68.4000 -68.3994 -68.3992 -68.3977
    -8.2178  -7.9130   2.9884   3.2716   3.8228   3.8877   3.8878   4.1196
     4.4679   4.6130   4.7992   4.8316   5.3483   5.5352   6.5618   6.8120
     7.6864   7.9831

     occupation numbers 
     1.0000   1.0000   1.0000   1.0000   1.0000   1.0000   1.0000   1.0000
     1.0000   1.0000   1.0000   1.0000   1.0000   1.0000   1.0000   1.0000
     1.0000   1.0000   1.0000   1.0000   1.0000   1.0000   1.0000   1.0000
     1.0000   1.0000

          k = 0.0000-0.5774 0.1776 (  3770 PWs)   bands (ev):

  -114.0554-114.0552 -68.4464 -68.4451 -68.3999 -68.3993 -68.3992 -68.3979
    -8.1713  -7.9368   2.8825   3.1063   3.7161   3.8690   3.8717   3.9535
     4.5085   4.6678   4.7507   4.8159   5.3509   5.4587   6.7216   7.3739
     7.5748   8.3181

     occupation numbers 
     1.0000   1.0000   1.0000   1.0000   1.0000   1.0000   1.0000   1.0000
     1.0000   1.0000   1.0000   1.0000   1.0000   1.0000   1.0000   1.0000
     1.0000   1.0000   1.0000   1.0000   1.0000   1.0000   1.0000   1.0000
     1.0000   1.0000

          k = 0.0000-0.5774 0.2663 (  3780 PWs)   bands (ev):

  -114.0554-114.0553 -68.4462 -68.4455 -68.3998 -68.3994 -68.3989 -68.3982
    -8.1065  -7.9789   2.7857   2.9112   3.6793   3.8075   3.8523   3.8551
     4.5636   4.6893   4.7173   4.7917   5.3708   5.4194   6.9417   7.3998
     7.9630   8.5170

     occupation numbers 
     1.0000   1.0000   1.0000   1.0000   1.0000   1.0000   1.0000   1.0000
     1.0000   1.0000   1.0000   1.0000   1.0000   1.0000   1.0000   1.0000
     1.0000   1.0000   1.0000   1.0000   1.0000   1.0000   1.0000   1.0000
     1.0000   1.0000

          k = 0.0000-0.5774-0.3551 (  3772 PWs)   bands (ev):

  -114.0554-114.0553 -68.4459 -68.4458 -68.3997 -68.3995 -68.3986 -68.3984
    -8.0380  -8.0379   2.7869   2.7870   3.7141   3.7142   3.8470   3.8470
     4.6253   4.6254   4.7585   4.7586   5.3948   5.3949   7.1797   7.1797
     8.3920   8.3921

     occupation numbers 
     1.0000   1.0000   1.0000   1.0000   1.0000   1.0000   1.0000   1.0000
     1.0000   1.0000   1.0000   1.0000   1.0000   1.0000   1.0000   1.0000
     1.0000   1.0000   1.0000   1.0000   1.0000   1.0000   1.0000   1.0000
     1.0000   1.0000

          k = 0.1250 0.0722-0.0000 (  3755 PWs)   bands (ev):

  -114.0556-114.0552 -68.4484 -68.4433 -68.3990 -68.3989 -68.3977 -68.3974
    -8.8902  -7.9239   3.1251   3.1984   3.2467   3.3138   3.8477   4.1930
     4.4145   4.4146   4.7704   4.9870   5.1448   7.8040   8.0904   8.2004
     8.3850   8.8560

     occupation numbers 
     1.0000   1.0000   1.0000   1.0000   1.0000   1.0000   1.0000   1.0000
     1.0000   1.0000   1.0000   1.0000   1.0000   1.0000   1.0000   1.0000
     1.0000   1.0000   1.0000   1.0000   1.0000   1.0000   1.0000   1.0000
     1.0000   1.0000

          k = 0.1250 0.0722 0.0888 (  3755 PWs)   bands (ev):

  -114.0556-114.0552 -68.4482 -68.4435 -68.3990 -68.3989 -68.3977 -68.3975
    -8.8539  -7.9605   3.1131   3.1774   3.2419   3.3023   3.7411   4.1067
     4.4366   4.4526   4.7638   4.8745   5.4554   7.7744   7.9276   8.1235
     8.6488   8.8316

     occupation numbers 
     1.0000   1.0000   1.0000   1.0000   1.0000   1.0000   1.0000   1.0000
     1.0000   1.0000   1.0000   1.0000   1.0000   1.0000   1.0000   1.0000
     1.0000   1.0000   1.0000   1.0000   1.0000   1.0000   1.0000   1.0000
     1.0000   1.0000

          k = 0.1250 0.0722 0.1776 (  3756 PWs)   bands (ev):

  -114.0555-114.0552 -68.4477 -68.4441 -68.3988 -68.3987 -68.3979 -68.3976
    -8.7501  -8.0652   3.0788   3.1242   3.2312   3.2749   3.5811   3.9151
     4.4943   4.5261   4.7419   4.8056   5.9315   7.4207   8.0324   8.2164
     8.7598   8.7777

     occupation numbers 
     1.0000   1.0000   1.0000   1.0000   1.0000   1.0000   1.0000   1.0000
     1.0000   1.0000   1.0000   1.0000   1.0000   1.0000   1.0000   1.0000
     1.0000   1.0000   1.0000   1.0000   1.0000   1.0000   1.0000   1.0000
     1.0000   1.0000

          k = 0.1250 0.0722 0.2663 (  3749 PWs)   bands (ev):

  -114.0555-114.0553 -68.4468 -68.4449 -68.3986 -68.3985 -68.3981 -68.3979
    -8.5939  -8.2225   3.0391   3.0710   3.2235   3.2460   3.5160   3.7074
     4.5688   4.6082   4.7015   4.7509   6.3803   7.0811   8.2561   8.3512
     8.6461   8.7061

     occupation numbers 
     1.0000   1.0000   1.0000   1.0000   1.0000   1.0000   1.0000   1.0000
     1.0000   1.0000   1.0000   1.0000   1.0000   1.0000   1.0000   1.0000
     1.0000   1.0000   1.0000   1.0000   1.0000   1.0000   1.0000   1.0000
     1.0000   1.0000

          k = 0.1250 0.0722-0.3551 (  3744 PWs)   bands (ev):

  -114.0555-114.0553 -68.4459 -68.4458 -68.3984 -68.3983 -68.3982 -68.3981
    -8.4085  -8.4084   3.0363   3.0363   3.2274   3.2274   3.5612   3.5613
     4.6420   4.6421   4.6858   4.6859   6.7534   6.7534   8.5030   8.5030
     8.5065   8.5065

     occupation numbers 
     1.0000   1.0000   1.0000   1.0000   1.0000   1.0000   1.0000   1.0000
     1.0000   1.0000   1.0000   1.0000   1.0000   1.0000   1.0000   1.0000
     1.0000   1.0000   1.0000   1.0000   1.0000   1.0000   1.0000   1.0000
     1.0000   1.0000

          k = 0.1250 0.0722-0.2663 (  3749 PWs)   bands (ev):

  -114.0555-114.0553 -68.4468 -68.4449 -68.3986 -68.3985 -68.3981 -68.3979
    -8.5939  -8.2225   3.0391   3.0710   3.2235   3.2460   3.5160   3.7074
     4.5688   4.6082   4.7015   4.7509   6.3803   7.0811   8.2561   8.3512
     8.6461   8.7061

     occupation numbers 
     1.0000   1.0000   1.0000   1.0000   1.0000   1.0000   1.0000   1.0000
     1.0000   1.0000   1.0000   1.0000   1.0000   1.0000   1.0000   1.0000
     1.0000   1.0000   1.0000   1.0000   1.0000   1.0000   1.0000   1.0000
     1.0000   1.0000

          k = 0.1250 0.0722-0.1776 (  3756 PWs)   bands (ev):

  -114.0555-114.0552 -68.4477 -68.4441 -68.3988 -68.3987 -68.3979 -68.3976
    -8.7501  -8.0652   3.0788   3.1242   3.2312   3.2749   3.5811   3.9151
     4.4943   4.5261   4.7419   4.8056   5.9315   7.4207   8.0324   8.2164
     8.7598   8.7777

     occupation numbers 
     1.0000   1.0000   1.0000   1.0000   1.0000   1.0000   1.0000   1.0000
     1.0000   1.0000   1.0000   1.0000   1.0000   1.0000   1.0000   1.0000
     1.0000   1.0000   1.0000   1.0000   1.0000   1.0000   1.0000   1.0000
     1.0000   1.0000

          k = 0.1250 0.0722-0.0888 (  3755 PWs)   bands (ev):

  -114.0556-114.0552 -68.4482 -68.4435 -68.3990 -68.3989 -68.3977 -68.3975
    -8.8539  -7.9605   3.1131   3.1774   3.2419   3.3023   3.7411   4.1067
     4.4367   4.4526   4.7638   4.8745   5.4554   7.7744   7.9276   8.1235
     8.6488   8.8316

     occupation numbers 
     1.0000   1.0000   1.0000   1.0000   1.0000   1.0000   1.0000   1.0000
     1.0000   1.0000   1.0000   1.0000   1.0000   1.0000   1.0000   1.0000
     1.0000   1.0000   1.0000   1.0000   1.0000   1.0000   1.0000   1.0000
     1.0000   1.0000

          k = 0.1250 0.2165 0.0000 (  3793 PWs)   bands (ev):

  -114.0556-114.0552 -68.4481 -68.4437 -68.3993 -68.3992 -68.3981 -68.3975
    -8.7313  -7.8906   3.0636   3.1967   3.4116   3.4576   3.8127   4.1587
     4.3903   4.4177   4.7871   5.0944   5.3840   7.1258   7.2783   7.6876
     8.3055   8.4726

     occupation numbers 
     1.0000   1.0000   1.0000   1.0000   1.0000   1.0000   1.0000   1.0000
     1.0000   1.0000   1.0000   1.0000   1.0000   1.0000   1.0000   1.0000
     1.0000   1.0000   1.0000   1.0000   1.0000   1.0000   1.0000   1.0000
     1.0000   1.0000

          k = 0.1250 0.2165 0.0888 (  3773 PWs)   bands (ev):

  -114.0555-114.0552 -68.4479 -68.4438 -68.3993 -68.3991 -68.3981 -68.3976
    -8.6985  -7.9210   3.0498   3.1534   3.4043   3.4448   3.7339   4.0632
     4.4125   4.4704   4.7783   4.9837   5.6466   7.1785   7.2206   7.6468
     8.4416   8.4780

     occupation numbers 
     1.0000   1.0000   1.0000   1.0000   1.0000   1.0000   1.0000   1.0000
     1.0000   1.0000   1.0000   1.0000   1.0000   1.0000   1.0000   1.0000
     1.0000   1.0000   1.0000   1.0000   1.0000   1.0000   1.0000   1.0000
     1.0000   1.0000

          k = 0.1250 0.2165 0.1776 (  3761 PWs)   bands (ev):

  -114.0555-114.0552 -68.4474 -68.4443 -68.3991 -68.3989 -68.3982 -68.3977
    -8.6053  -8.0086   3.0105   3.0421   3.3877   3.4174   3.6140   3.8739
     4.4728   4.5611   4.7507   4.8906   6.0236   6.9488   7.5116   7.7074
     8.3513   8.6726

     occupation numbers 
     1.0000   1.0000   1.0000   1.0000   1.0000   1.0000   1.0000   1.0000
     1.0000   1.0000   1.0000   1.0000   1.0000   1.0000   1.0000   1.0000
     1.0000   1.0000   1.0000   1.0000   1.0000   1.0000   1.0000   1.0000
     1.0000   1.0000

          k = 0.1250 0.2165 0.2663 (  3751 PWs)   bands (ev):

  -114.0555-114.0553 -68.4467 -68.4450 -68.3989 -68.3987 -68.3984 -68.3980
    -8.4661  -8.1424   2.9412   2.9554   3.3741   3.3910   3.5596   3.6943
     4.5521   4.6504   4.7066   4.8203   6.3127   6.7273   7.8542   7.9424
     8.2138   8.6441

     occupation numbers 
     1.0000   1.0000   1.0000   1.0000   1.0000   1.0000   1.0000   1.0000
     1.0000   1.0000   1.0000   1.0000   1.0000   1.0000   1.0000   1.0000
     1.0000   1.0000   1.0000   1.0000   1.0000   1.0000   1.0000   1.0000
     1.0000   1.0000

          k = 0.1250 0.2165-0.3551 (  3750 PWs)   bands (ev):

  -114.0555-114.0553 -68.4459 -68.4458 -68.3988 -68.3986 -68.3984 -68.3982
    -8.3032  -8.3031   2.9162   2.9162   3.3745   3.3745   3.5849   3.5850
     4.6303   4.6304   4.7460   4.7461   6.5285   6.5286   8.0305   8.0306
     8.3766   8.3766

     occupation numbers 
     1.0000   1.0000   1.0000   1.0000   1.0000   1.0000   1.0000   1.0000
     1.0000   1.0000   1.0000   1.0000   1.0000   1.0000   1.0000   1.0000
     1.0000   1.0000   1.0000   1.0000   1.0000   1.0000   1.0000   1.0000
     1.0000   1.0000

          k = 0.1250 0.2165-0.2663 (  3751 PWs)   bands (ev):

  -114.0555-114.0553 -68.4467 -68.4450 -68.3989 -68.3987 -68.3984 -68.3980
    -8.4661  -8.1424   2.9412   2.9554   3.3741   3.3910   3.5596   3.6943
     4.5521   4.6504   4.7066   4.8203   6.3127   6.7273   7.8542   7.9424
     8.2138   8.6441

     occupation numbers 
     1.0000   1.0000   1.0000   1.0000   1.0000   1.0000   1.0000   1.0000
     1.0000   1.0000   1.0000   1.0000   1.0000   1.0000   1.0000   1.0000
     1.0000   1.0000   1.0000   1.0000   1.0000   1.0000   1.0000   1.0000
     1.0000   1.0000

          k = 0.1250 0.2165-0.1776 (  3761 PWs)   bands (ev):

  -114.0555-114.0552 -68.4474 -68.4443 -68.3991 -68.3989 -68.3982 -68.3977
    -8.6053  -8.0086   3.0105   3.0421   3.3877   3.4174   3.6140   3.8739
     4.4728   4.5611   4.7507   4.8906   6.0236   6.9488   7.5116   7.7074
     8.3513   8.6726

     occupation numbers 
     1.0000   1.0000   1.0000   1.0000   1.0000   1.0000   1.0000   1.0000
     1.0000   1.0000   1.0000   1.0000   1.0000   1.0000   1.0000   1.0000
     1.0000   1.0000   1.0000   1.0000   1.0000   1.0000   1.0000   1.0000
     1.0000   1.0000

          k = 0.1250 0.2165-0.0888 (  3773 PWs)   bands (ev):

  -114.0555-114.0552 -68.4479 -68.4438 -68.3993 -68.3991 -68.3981 -68.3976
    -8.6985  -7.9210   3.0498   3.1534   3.4043   3.4448   3.7339   4.0632
     4.4125   4.4704   4.7783   4.9837   5.6466   7.1785   7.2206   7.6468
     8.4416   8.4780

     occupation numbers 
     1.0000   1.0000   1.0000   1.0000   1.0000   1.0000   1.0000   1.0000
     1.0000   1.0000   1.0000   1.0000   1.0000   1.0000   1.0000   1.0000
     1.0000   1.0000   1.0000   1.0000   1.0000   1.0000   1.0000   1.0000
     1.0000   1.0000

          k = 0.1250 0.3608 0.0000 (  3764 PWs)   bands (ev):

  -114.0555-114.0552 -68.4474 -68.4442 -68.3997 -68.3994 -68.3986 -68.3977
    -8.4751  -7.8685   3.0417   3.3031   3.6341   3.6610   3.9073   4.0826
     4.3755   4.4758   4.8072   5.0387   5.8043   6.2438   6.5271   6.8322
     7.8979   8.0963

     occupation numbers 
     1.0000   1.0000   1.0000   1.0000   1.0000   1.0000   1.0000   1.0000
     1.0000   1.0000   1.0000   1.0000   1.0000   1.0000   1.0000   1.0000
     1.0000   1.0000   1.0000   1.0000   1.0000   1.0000   1.0000   1.0000
     1.0000   1.0000

          k = 0.1250 0.3608 0.0888 (  3771 PWs)   bands (ev):

  -114.0555-114.0552 -68.4473 -68.4444 -68.3996 -68.3994 -68.3986 -68.3977
    -8.4493  -7.8880   3.0188   3.2355   3.6255   3.6481   3.8384   3.9984
     4.4016   4.5243   4.7946   5.0020   5.8008   6.3392   6.6322   6.8652
     7.8549   8.2609

     occupation numbers 
[...]

  -114.0554-114.0552 -68.4465 -68.4452 -68.3997 -68.3995 -68.3990 -68.3982
    -8.1809  -7.9318   3.1357   3.1873   3.7108   3.7219   3.8520   3.9217
     4.5033   4.5864   4.7995   4.9332   5.5676   5.7467   5.9975   6.9275
     7.5590   8.3673

     occupation numbers 
     1.0000   1.0000   1.0000   1.0000   1.0000   1.0000   1.0000   1.0000
     1.0000   1.0000   1.0000   1.0000   1.0000   1.0000   1.0000   1.0000
     1.0000   1.0000   1.0000   1.0000   1.0000   1.0000   1.0000   1.0000
     1.0000   1.0000

          k =-0.5000 0.0000 0.2663 (  3775 PWs)   bands (ev):

  -114.0554-114.0553 -68.4462 -68.4455 -68.3995 -68.3994 -68.3990 -68.3985
    -8.1130  -7.9775   3.0046   3.0051   3.6632   3.6726   3.8200   3.8604
     4.5395   4.5914   4.8192   4.8964   5.5940   5.6909   6.2033   6.7204
     8.1623   8.6257

     occupation numbers 
     1.0000   1.0000   1.0000   1.0000   1.0000   1.0000   1.0000   1.0000
     1.0000   1.0000   1.0000   1.0000   1.0000   1.0000   1.0000   1.0000
     1.0000   1.0000   1.0000   1.0000   1.0000   1.0000   1.0000   1.0000
     1.0000   1.0000

          k =-0.5000 0.0000-0.3551 (  3778 PWs)   bands (ev):

  -114.0554-114.0553 -68.4459 -68.4458 -68.3994 -68.3992 -68.3989 -68.3987
    -8.0407  -8.0406   2.9396   2.9396   3.6502   3.6503   3.8266   3.8266
     4.5711   4.5711   4.8566   4.8566   5.6374   5.6375   6.4637   6.4638
     8.5642   8.5643

     occupation numbers 
     1.0000   1.0000   1.0000   1.0000   1.0000   1.0000   1.0000   1.0000
     1.0000   1.0000   1.0000   1.0000   1.0000   1.0000   1.0000   1.0000
     1.0000   1.0000   1.0000   1.0000   1.0000   1.0000   1.0000   1.0000
     1.0000   1.0000

          k =-0.5000 0.0000-0.2663 (  3775 PWs)   bands (ev):

  -114.0554-114.0553 -68.4462 -68.4455 -68.3995 -68.3994 -68.3990 -68.3985
    -8.1130  -7.9775   3.0046   3.0051   3.6632   3.6726   3.8200   3.8604
     4.5395   4.5914   4.8192   4.8964   5.5940   5.6909   6.2033   6.7204
     8.1623   8.6257

     occupation numbers 
     1.0000   1.0000   1.0000   1.0000   1.0000   1.0000   1.0000   1.0000
     1.0000   1.0000   1.0000   1.0000   1.0000   1.0000   1.0000   1.0000
     1.0000   1.0000   1.0000   1.0000   1.0000   1.0000   1.0000   1.0000
     1.0000   1.0000

          k =-0.5000 0.0000-0.1776 (  3782 PWs)   bands (ev):

  -114.0554-114.0552 -68.4465 -68.4452 -68.3997 -68.3995 -68.3990 -68.3982
    -8.1809  -7.9318   3.1357   3.1873   3.7108   3.7219   3.8520   3.9217
     4.5033   4.5864   4.7995   4.9332   5.5676   5.7467   5.9975   6.9275
     7.5590   8.3673

     occupation numbers 
     1.0000   1.0000   1.0000   1.0000   1.0000   1.0000   1.0000   1.0000
     1.0000   1.0000   1.0000   1.0000   1.0000   1.0000   1.0000   1.0000
     1.0000   1.0000   1.0000   1.0000   1.0000   1.0000   1.0000   1.0000
     1.0000   1.0000

          k =-0.5000 0.0000-0.0888 (  3776 PWs)   bands (ev):

  -114.0554-114.0552 -68.4466 -68.4449 -68.3999 -68.3996 -68.3989 -68.3980
    -8.2293  -7.9055   3.2369   3.3807   3.7376   3.7956   3.9433   4.0140
     4.4686   4.5475   4.8093   4.9631   5.5806   5.7144   5.9779   6.8763
     7.1477   7.9881

     occupation numbers 
     1.0000   1.0000   1.0000   1.0000   1.0000   1.0000   1.0000   1.0000
     1.0000   1.0000   1.0000   1.0000   1.0000   1.0000   1.0000   1.0000
     1.0000   1.0000   1.0000   1.0000   1.0000   1.0000   1.0000   1.0000
     1.0000   1.0000

          k =-0.5000 0.1443 0.0000 (  3771 PWs)   bands (ev):

  -114.0554-114.0552 -68.4467 -68.4449 -68.4000 -68.3995 -68.3991 -68.3977
    -8.2409  -7.9012   3.1402   3.3844   3.8170   3.8549   3.9604   4.1648
     4.4431   4.5444   4.8197   4.8926   5.4534   5.7152   6.1691   6.6271
     7.4660   7.8070

     occupation numbers 
     1.0000   1.0000   1.0000   1.0000   1.0000   1.0000   1.0000   1.0000
     1.0000   1.0000   1.0000   1.0000   1.0000   1.0000   1.0000   1.0000
     1.0000   1.0000   1.0000   1.0000   1.0000   1.0000   1.0000   1.0000
     1.0000   1.0000

          k =-0.5000 0.1443 0.0888 (  3774 PWs)   bands (ev):

  -114.0554-114.0552 -68.4466 -68.4449 -68.4000 -68.3995 -68.3991 -68.3978
    -8.2237  -7.9092   3.1005   3.3211   3.7808   3.8419   3.9203   4.0806
     4.4646   4.5743   4.8052   4.8862   5.4356   5.6634   6.2122   6.9007
     7.4154   7.9901

     occupation numbers 
     1.0000   1.0000   1.0000   1.0000   1.0000   1.0000   1.0000   1.0000
     1.0000   1.0000   1.0000   1.0000   1.0000   1.0000   1.0000   1.0000
     1.0000   1.0000   1.0000   1.0000   1.0000   1.0000   1.0000   1.0000
     1.0000   1.0000

          k =-0.5000 0.1443 0.1776 (  3772 PWs)   bands (ev):

  -114.0554-114.0552 -68.4464 -68.4452 -68.3999 -68.3993 -68.3991 -68.3980
    -8.1762  -7.9343   2.9895   3.1538   3.6988   3.8174   3.8735   3.9314
     4.5056   4.6183   4.7807   4.8684   5.4304   5.5815   6.3620   7.2674
     7.4946   8.3499

     occupation numbers 
     1.0000   1.0000   1.0000   1.0000   1.0000   1.0000   1.0000   1.0000
     1.0000   1.0000   1.0000   1.0000   1.0000   1.0000   1.0000   1.0000
     1.0000   1.0000   1.0000   1.0000   1.0000   1.0000   1.0000   1.0000
     1.0000   1.0000

          k =-0.5000 0.1443 0.2663 (  3783 PWs)   bands (ev):

  -114.0554-114.0553 -68.4462 -68.4455 -68.3997 -68.3993 -68.3990 -68.3983
    -8.1098  -7.9782   2.8763   2.9671   3.6635   3.7556   3.8392   3.8570
     4.5513   4.6250   4.7818   4.8416   5.4528   5.5247   6.5844   7.0753
     8.0839   8.5826

     occupation numbers 
     1.0000   1.0000   1.0000   1.0000   1.0000   1.0000   1.0000   1.0000
     1.0000   1.0000   1.0000   1.0000   1.0000   1.0000   1.0000   1.0000
     1.0000   1.0000   1.0000   1.0000   1.0000   1.0000   1.0000   1.0000
     1.0000   1.0000

          k =-0.5000 0.1443-0.3551 (  3786 PWs)   bands (ev):

  -114.0554-114.0553 -68.4459 -68.4458 -68.3996 -68.3994 -68.3987 -68.3986
    -8.0394  -8.0392   2.8587   2.8587   3.6873   3.6874   3.8363   3.8364
     4.5948   4.5949   4.8095   4.8095   5.4857   5.4857   6.8349   6.8350
     8.4946   8.4947

     occupation numbers 
     1.0000   1.0000   1.0000   1.0000   1.0000   1.0000   1.0000   1.0000
     1.0000   1.0000   1.0000   1.0000   1.0000   1.0000   1.0000   1.0000
     1.0000   1.0000   1.0000   1.0000   1.0000   1.0000   1.0000   1.0000
     1.0000   1.0000

          k =-0.5000 0.1443-0.2663 (  3783 PWs)   bands (ev):

  -114.0554-114.0553 -68.4462 -68.4455 -68.3997 -68.3993 -68.3990 -68.3983
    -8.1098  -7.9782   2.8763   2.9671   3.6635   3.7556   3.8393   3.8570
     4.5513   4.6250   4.7818   4.8416   5.4528   5.5247   6.5844   7.0753
     8.0839   8.5826

     occupation numbers 
     1.0000   1.0000   1.0000   1.0000   1.0000   1.0000   1.0000   1.0000
     1.0000   1.0000   1.0000   1.0000   1.0000   1.0000   1.0000   1.0000
     1.0000   1.0000   1.0000   1.0000   1.0000   1.0000   1.0000   1.0000
     1.0000   1.0000

          k =-0.5000 0.1443-0.1776 (  3772 PWs)   bands (ev):

  -114.0554-114.0552 -68.4464 -68.4452 -68.3999 -68.3993 -68.3991 -68.3980
    -8.1762  -7.9343   2.9895   3.1538   3.6988   3.8174   3.8735   3.9314
     4.5056   4.6183   4.7807   4.8684   5.4303   5.5815   6.3620   7.2674
     7.4947   8.3499

     occupation numbers 
     1.0000   1.0000   1.0000   1.0000   1.0000   1.0000   1.0000   1.0000
     1.0000   1.0000   1.0000   1.0000   1.0000   1.0000   1.0000   1.0000
     1.0000   1.0000   1.0000   1.0000   1.0000   1.0000   1.0000   1.0000
     1.0000   1.0000

          k =-0.5000 0.1443-0.0888 (  3774 PWs)   bands (ev):

  -114.0554-114.0552 -68.4466 -68.4449 -68.4000 -68.3995 -68.3991 -68.3978
    -8.2237  -7.9092   3.1005   3.3211   3.7808   3.8419   3.9203   4.0806
     4.4646   4.5744   4.8052   4.8862   5.4356   5.6634   6.2122   6.9007
     7.4154   7.9901

     occupation numbers 
     1.0000   1.0000   1.0000   1.0000   1.0000   1.0000   1.0000   1.0000
     1.0000   1.0000   1.0000   1.0000   1.0000   1.0000   1.0000   1.0000
     1.0000   1.0000   1.0000   1.0000   1.0000   1.0000   1.0000   1.0000
     1.0000   1.0000

          k =-0.5000-0.8660-0.0000 (  3786 PWs)   bands (ev):

  -114.0554-114.0552 -68.4467 -68.4449 -68.4001 -68.3995 -68.3992 -68.3976
    -8.2347  -7.9054   3.0290   3.3327   3.8941   3.8954   3.8963   4.1999
     4.4526   4.5819   4.8183   4.8378   5.3548   5.6001   6.5025   6.5477
     7.7247   7.8158

     occupation numbers 
     1.0000   1.0000   1.0000   1.0000   1.0000   1.0000   1.0000   1.0000
     1.0000   1.0000   1.0000   1.0000   1.0000   1.0000   1.0000   1.0000
     1.0000   1.0000   1.0000   1.0000   1.0000   1.0000   1.0000   1.0000
     1.0000   1.0000

          k =-0.5000-0.8660 0.0888 (  3768 PWs)   bands (ev):

  -114.0554-114.0552 -68.4466 -68.4450 -68.4000 -68.3994 -68.3992 -68.3977
    -8.2178  -7.9130   2.9884   3.2716   3.8229   3.8877   3.8878   4.1196
     4.4679   4.6130   4.7992   4.8316   5.3483   5.5352   6.5618   6.8120
     7.6864   7.9831

     occupation numbers 
     1.0000   1.0000   1.0000   1.0000   1.0000   1.0000   1.0000   1.0000
     1.0000   1.0000   1.0000   1.0000   1.0000   1.0000   1.0000   1.0000
     1.0000   1.0000   1.0000   1.0000   1.0000   1.0000   1.0000   1.0000
     1.0000   1.0000

          k =-0.5000-0.8660 0.1776 (  3770 PWs)   bands (ev):

  -114.0554-114.0552 -68.4464 -68.4451 -68.3999 -68.3993 -68.3992 -68.3979
    -8.1713  -7.9368   2.8825   3.1063   3.7161   3.8690   3.8717   3.9535
     4.5085   4.6678   4.7507   4.8159   5.3509   5.4587   6.7216   7.3739
     7.5748   8.3181

     occupation numbers 
     1.0000   1.0000   1.0000   1.0000   1.0000   1.0000   1.0000   1.0000
     1.0000   1.0000   1.0000   1.0000   1.0000   1.0000   1.0000   1.0000
     1.0000   1.0000   1.0000   1.0000   1.0000   1.0000   1.0000   1.0000
     1.0000   1.0000

          k =-0.5000-0.8660 0.2663 (  3780 PWs)   bands (ev):

  -114.0554-114.0553 -68.4462 -68.4455 -68.3998 -68.3994 -68.3989 -68.3982
    -8.1065  -7.9789   2.7857   2.9112   3.6793   3.8075   3.8523   3.8551
     4.5636   4.6893   4.7173   4.7917   5.3708   5.4194   6.9417   7.3998
     7.9630   8.5170

     occupation numbers 
     1.0000   1.0000   1.0000   1.0000   1.0000   1.0000   1.0000   1.0000
     1.0000   1.0000   1.0000   1.0000   1.0000   1.0000   1.0000   1.0000
     1.0000   1.0000   1.0000   1.0000   1.0000   1.0000   1.0000   1.0000
     1.0000   1.0000

          k =-0.5000-0.8660-0.3551 (  3772 PWs)   bands (ev):

  -114.0554-114.0553 -68.4459 -68.4458 -68.3997 -68.3995 -68.3986 -68.3984
    -8.0380  -8.0379   2.7869   2.7870   3.7141   3.7142   3.8470   3.8470
     4.6253   4.6254   4.7585   4.7586   5.3948   5.3949   7.1797   7.1797
     8.3920   8.3921

     occupation numbers 
     1.0000   1.0000   1.0000   1.0000   1.0000   1.0000   1.0000   1.0000
     1.0000   1.0000   1.0000   1.0000   1.0000   1.0000   1.0000   1.0000
     1.0000   1.0000   1.0000   1.0000   1.0000   1.0000   1.0000   1.0000
     1.0000   1.0000

     highest occupied level (ev):     9.0291

!    total energy              =    -987.06644610 Ry
     Harris-Foulkes estimate   =    -987.06644613 Ry
     estimated scf accuracy    <       0.00000007 Ry

     The total energy is the sum of the following terms:

     one-electron contribution =    -796.04716455 Ry
     hartree contribution      =     420.02450644 Ry
     xc contribution           =     -98.08649004 Ry
     ewald contribution        =    -512.95729795 Ry

     convergence has been achieved in   7 iterations

     Forces acting on atoms (cartesian axes, Ry/au):

     atom    1 type  2   force =     0.00000112   -0.00000033   -0.01045731
     atom    2 type  2   force =     0.00000123    0.00000109   -0.01046121
     atom    3 type  1   force =    -0.00000110   -0.00000483    0.01045140
     atom    4 type  1   force =    -0.00000125    0.00000408    0.01046712
     The non-local contrib.  to forces
     atom    1 type  2   force =    -0.00000028   -0.00000360   -0.05856697
     atom    2 type  2   force =     0.00000104    0.00000013   -0.05856750
     atom    3 type  1   force =     0.00000236   -0.00000428   -0.14088042
     atom    4 type  1   force =    -0.00000179   -0.00000286   -0.14087440
     The ionic contribution  to forces
     atom    1 type  2   force =     0.00001095    0.00004543    0.82910225
     atom    2 type  2   force =    -0.00002317    0.00000472    0.82910295
     atom    3 type  1   force =     0.00003104   -0.00001288   -0.82909803
     atom    4 type  1   force =    -0.00001882   -0.00003727   -0.82910717
     The local contribution  to forces
     atom    1 type  2   force =    -0.00000847   -0.00003962   -0.78147288
     atom    2 type  2   force =     0.00002320   -0.00000469   -0.78146542
     atom    3 type  1   force =    -0.00003356    0.00001937    0.98063927
     atom    4 type  1   force =     0.00001979    0.00003786    0.98061622
     The core correction contribution to forces
     atom    1 type  2   force =     0.00000001    0.00000003    0.00032140
     atom    2 type  2   force =     0.00000001   -0.00000001    0.00032142
     atom    3 type  1   force =     0.00000000    0.00000000    0.00000000
     atom    4 type  1   force =     0.00000000    0.00000000    0.00000000
     The Hubbard contrib.    to forces
     atom    1 type  2   force =     0.00000000    0.00000000    0.00000000
     atom    2 type  2   force =     0.00000000    0.00000000    0.00000000
     atom    3 type  1   force =     0.00000000    0.00000000    0.00000000
     atom    4 type  1   force =     0.00000000    0.00000000    0.00000000
     The SCF correction term to forces
     atom    1 type  2   force =     0.00000000    0.00000000    0.00000000
     atom    2 type  2   force =     0.00000000    0.00000000    0.00000000
     atom    3 type  1   force =     0.00000000    0.00000000    0.00000000
     atom    4 type  1   force =     0.00000000    0.00000000    0.00000000

     Total force =     0.000000     Total SCF correction =     0.000000


     Computing stress (Cartesian axis) and pressure

          total   stress  (Ry/bohr**3)                   (kbar)     P=   -2.91
  -0.00001523  -0.00000000  -0.00000001         -2.24     -0.00     -0.00
  -0.00000000  -0.00001522   0.00000000         -0.00     -2.24      0.00
  -0.00000001   0.00000000  -0.00002892         -0.00      0.00     -4.25

     kinetic stress (kbar)  34496.14     -0.00     -0.00
                               -0.00  34496.14      0.00
                               -0.00      0.00  34915.28

     local   stress (kbar)  -1992.68     -0.00     -0.03
                               -0.00  -1992.87      0.05
                               -0.03      0.05  -6747.06

     nonloc. stress (kbar)  -1683.83      0.00      0.00
                                0.00  -1683.83     -0.00
                                0.00     -0.00  -1850.14

     hartree stress (kbar)  64868.61      0.00      0.01
                                0.00  64868.69     -0.02
                                0.01     -0.02  68284.84

     exc-cor stress (kbar) -14460.86      0.00      0.00
                                0.00 -14460.86     -0.00
                                0.00     -0.00 -14467.02

     corecor stress (kbar)   -254.28      0.00      0.00
                                0.00   -254.28     -0.00
                                0.00     -0.00   -255.08

     ewald   stress (kbar) -80975.35      0.00      0.02
                                0.00 -80975.23     -0.03
                                0.02     -0.03 -79885.08

     hubbard stress (kbar)      0.00      0.00      0.00
                                0.00      0.00      0.00
                                0.00      0.00      0.00

     london  stress (kbar)      0.00      0.00      0.00
                                0.00      0.00      0.00
                                0.00      0.00      0.00

     DFT-D3  stress (kbar)      0.00      0.00      0.00
                                0.00      0.00      0.00
                                0.00      0.00      0.00

     XDM     stress (kbar)      0.00      0.00      0.00
                                0.00      0.00      0.00
                                0.00      0.00      0.00

     dft-nl  stress (kbar)      0.00      0.00      0.00
                                0.00      0.00      0.00
                                0.00      0.00      0.00

     TS-vdW  stress (kbar)      0.00      0.00      0.00
                                0.00      0.00      0.00
                                0.00      0.00      0.00



     Writing output data file ZnO.save/
 
     init_run     :      0.62s CPU      1.13s WALL (       1 calls)
     electrons    :      7.23s CPU      7.80s WALL (       1 calls)
     forces       :      0.15s CPU      0.17s WALL (       1 calls)
     stress       :      0.28s CPU      0.30s WALL (       1 calls)

     Called by init_run:
     wfcinit      :      0.48s CPU      0.78s WALL (       1 calls)
     wfcinit:atom :      0.00s CPU      0.00s WALL (      65 calls)
     wfcinit:wfcr :      0.46s CPU      0.75s WALL (      65 calls)
     potinit      :      0.06s CPU      0.08s WALL (       1 calls)
     hinit0       :      0.07s CPU      0.22s WALL (       1 calls)

     Called by electrons:
     c_bands      :      6.09s CPU      6.51s WALL (       7 calls)
     sum_band     :      0.89s CPU      0.93s WALL (       7 calls)
     v_of_rho     :      0.21s CPU      0.23s WALL (       8 calls)
     v_h          :      0.00s CPU      0.00s WALL (       8 calls)
     v_xc         :      0.26s CPU      0.28s WALL (      10 calls)
     newd         :      0.04s CPU      0.05s WALL (       8 calls)
     mix_rho      :      0.01s CPU      0.03s WALL (       7 calls)

     Called by c_bands:
     init_us_2    :      0.07s CPU      0.08s WALL (    1105 calls)
     cegterg      :      5.75s CPU      6.02s WALL (     455 calls)

     Called by sum_band:
     sum_band:bec :      0.01s CPU      0.01s WALL (     455 calls)
     addusdens    :      0.03s CPU      0.04s WALL (       7 calls)

     Called by *egterg:
     h_psi        :      3.64s CPU      3.79s WALL (    1469 calls)
     s_psi        :      0.11s CPU      0.11s WALL (    1469 calls)
     g_psi        :      0.01s CPU      0.01s WALL (     949 calls)
     cdiaghg      :      1.61s CPU      1.95s WALL (    1404 calls)
     cegterg:over :      0.35s CPU      0.40s WALL (     949 calls)
     cegterg:upda :      0.19s CPU      0.19s WALL (     949 calls)
     cegterg:last :      0.12s CPU      0.13s WALL (     455 calls)
     cdiaghg:chol :      0.15s CPU      0.20s WALL (    1404 calls)
     cdiaghg:inve :      0.02s CPU      0.03s WALL (    1404 calls)
     cdiaghg:para :      0.14s CPU      0.15s WALL (    2808 calls)

     Called by h_psi:
     h_psi:pot    :      3.63s CPU      3.78s WALL (    1469 calls)
     h_psi:calbec :      0.19s CPU      0.21s WALL (    1469 calls)
     vloc_psi     :      3.33s CPU      3.45s WALL (    1469 calls)
     add_vuspsi   :      0.11s CPU      0.12s WALL (    1469 calls)

     General routines
     calbec       :      0.31s CPU      0.33s WALL (    2249 calls)
     fft          :      0.04s CPU      0.11s WALL (     127 calls)
     ffts         :      0.00s CPU      0.01s WALL (      15 calls)
     fftw         :      3.80s CPU      3.94s WALL (   74124 calls)
     interpolate  :      0.00s CPU      0.01s WALL (       8 calls)
 
     Parallel routines
     fft_scatt_xy :      0.60s CPU      0.62s WALL (   74266 calls)
     fft_scatt_yz :      1.88s CPU      1.96s WALL (   74266 calls)
 
     PWSCF        :      8.79s CPU     11.01s WALL

 
   This run was terminated on:  20:46:45  15Jun2022            

=------------------------------------------------------------------------------=
   JOB DONE.
=------------------------------------------------------------------------------=
