
     Program PWSCF v.6.4.1 starts on 17Sep2021 at 17:55:32 

     This program is part of the open-source Quantum ESPRESSO suite
     for quantum simulation of materials; please cite
         "P. Giannozzi et al., J. Phys.:Condens. Matter 21 395502 (2009);
         "P. Giannozzi et al., J. Phys.:Condens. Matter 29 465901 (2017);
          URL http://www.quantum-espresso.org", 
     in publications or presentations arising from this work. More details at
     http://www.quantum-espresso.org/quote

     Parallel version (MPI), running on    64 processors

     MPI processes distributed on     1 nodes
     R & G space division:  proc/nbgrp/npool/nimage =      64
     Waiting for input...
     Reading input from standard input

     Current dimensions of program PWSCF are:
     Max number of different atomic species (ntypx) = 10
     Max number of k-points (npk) =  40000
     Max angular momentum in pseudopotentials (lmaxx) =  3

     Atomic positions and unit cell read from directory:
     ./temp/ZnO.save/
 

     Subspace diagonalization in iterative solution of the eigenvalue problem:
     one sub-group per band group will be used
     scalapack distributed-memory algorithm (size of sub-group:  5*  5 procs)

 
     Parallelization info
     --------------------
     sticks:   dense  smooth     PW     G-vecs:    dense   smooth      PW
     Min         182      87     24                16985     5646     839
     Max         183      88     25                16992     5654     845
     Sum       11705    5617   1573              1087323   361631   53877
 


     bravais-lattice index     =            0
     lattice parameter (alat)  =      18.4226  a.u.
     unit-cell volume          =    5757.6291 (a.u.)^3
     number of atoms/cell      =           72
     number of atomic types    =            3
     number of electrons       =       816.00
     number of Kohn-Sham states=          408
     kinetic-energy cutoff     =      60.0000  Ry
     charge density cutoff     =     500.0000  Ry
     Exchange-correlation      = SLA  PW   PSX  PSC ( 1  4 10  8 0 0)
     Using LIBXC version       =    4   3   4

     celldm(1)=  18.422634  celldm(2)=   0.000000  celldm(3)=   0.000000
     celldm(4)=   0.000000  celldm(5)=   0.000000  celldm(6)=   0.000000

     crystal axes: (cart. coord. in units of alat)
               a(1) = (   1.000000  -0.000928  -0.000030 )  
               a(2) = (  -0.500802   0.866030   0.000259 )  
               a(3) = (  -0.000032   0.000301   1.063871 )  

     reciprocal axes: (cart. coord. in units 2 pi/alat)
               b(1) = (  1.000537  0.578584 -0.000134 )  
               b(2) = (  0.001072  1.155315 -0.000327 )  
               b(3) = (  0.000028 -0.000265  0.939964 )  


     PseudoPot. # 1 for Zn read from file:
     ./GBRV_PBEsol/zn_pbesol_v1.uspp.F.UPF
     MD5 check sum: 7d8615e52efe7c1e2b1899de8658bae2
     Pseudo is Ultrasoft, Zval = 20.0
     Generated by new atomic code, or converted to UPF format
     Using radial grid of  943 points,  6 beta functions with: 
                l(1) =   0
                l(2) =   0
                l(3) =   1
                l(4) =   1
                l(5) =   2
                l(6) =   2
     Q(r) pseudized with  8 coefficients,  rinner =    1.100   1.100   1.100
                                                       1.100   1.100

     PseudoPot. # 2 for O  read from file:
     ./GBRV_PBEsol/o_pbesol_v1.2.uspp.F.UPF
     MD5 check sum: 501638753501ef6325af9037351f7734
     Pseudo is Ultrasoft + core correction, Zval =  6.0
     Generated by new atomic code, or converted to UPF format
     Using radial grid of  737 points,  5 beta functions with: 
                l(1) =   0
                l(2) =   0
                l(3) =   1
                l(4) =   1
                l(5) =   2
     Q(r) pseudized with  8 coefficients,  rinner =    0.900   0.900   0.900
                                                       0.900   0.900

     PseudoPot. # 3 for Mg read from file:
     ./GBRV_PBEsol/mg_pbesol_v1.4.uspp.F.UPF
     MD5 check sum: 4059f37963cf5867752dbf5ab2400678
     Pseudo is Ultrasoft, Zval = 10.0
     Generated by new atomic code, or converted to UPF format
     Using radial grid of  821 points,  7 beta functions with: 
                l(1) =   0
                l(2) =   0
                l(3) =   0
                l(4) =   1
                l(5) =   1
                l(6) =   2
                l(7) =   2
     Q(r) pseudized with  8 coefficients,  rinner =    1.200   1.200   1.200
                                                       1.200   1.200

     atomic species   valence    mass     pseudopotential
        Zn            20.00    65.38000     Zn( 1.00)
        O              6.00    15.99900     O ( 1.00)
        Mg            10.00    24.30500     Mg( 1.00)

     No symmetry found


                                    s                        frac. trans.

      isym =  1     identity                                     

 cryst.   s( 1) = (     1          0          0      )
                  (     0          1          0      )
                  (     0          0          1      )

 cart.    s( 1) = (  1.0000000  0.0000000 -0.0000000 )
                  ( -0.0000000  1.0000000 -0.0000000 )
                  (  0.0000000 -0.0000000  1.0000000 )


   Cartesian axes

     site n.     atom                  positions (alat units)
         1           Zn  tau(   1) = (   0.1666025   0.0964078   0.2070153  )
         2           Zn  tau(   2) = (   0.1668970   0.0959606   0.7383466  )
         3           Zn  tau(   3) = (   0.0009089   0.3842508   0.2062161  )
         4           Zn  tau(   4) = (  -0.0011870   0.3860721   0.7384667  )
         5           Zn  tau(   5) = (  -0.1667322   0.6766084   0.2058074  )
         6           Zn  tau(   6) = (  -0.1681075   0.6718713   0.7378074  )
         7           Zn  tau(   7) = (   0.4991371   0.0949598   0.2075247  )
         8           Zn  tau(   8) = (   0.5001482   0.0965203   0.7397554  )
         9           Zn  tau(   9) = (   0.3329196   0.3842321   0.2051527  )
        10           Mg  tau(  10) = (   0.3333779   0.3827662   0.7397367  )
        11           Mg  tau(  11) = (   0.1645005   0.6754114   0.2066528  )
        12           Zn  tau(  12) = (   0.1669635   0.6718463   0.7363825  )
        13           Zn  tau(  13) = (   0.8334608   0.0950535   0.2058856  )
        14           Mg  tau(  14) = (   0.8320008   0.0946564   0.7405431  )
        15           Zn  tau(  15) = (   0.6648507   0.3833254   0.2058568  )
        16           Mg  tau(  16) = (   0.6664149   0.3844145   0.7395451  )
        17           Mg  tau(  17) = (   0.4991991   0.6729640   0.2054155  )
        18           Mg  tau(  18) = (   0.4980102   0.6714998   0.7382575  )
        19           Zn  tau(  19) = (  -0.0014371   0.1926506   0.4738537  )
        20           Zn  tau(  20) = (   0.0011155   0.1943856   1.0046586  )
        21           Zn  tau(  21) = (  -0.1676551   0.4815367   0.4711395  )
        22           Mg  tau(  22) = (  -0.1659164   0.4812963   1.0072913  )
        23           Mg  tau(  23) = (  -0.3342049   0.7699490   0.4723255  )
        24           Mg  tau(  24) = (  -0.3327015   0.7719641   1.0034811  )
        25           Zn  tau(  25) = (   0.3338129   0.1937589   0.4736302  )
        26           Zn  tau(  26) = (   0.3337573   0.1919861   1.0057092  )
        27           Mg  tau(  27) = (   0.1672170   0.4789267   0.4716481  )
        28           Mg  tau(  28) = (   0.1663095   0.4813530   1.0039688  )
        29           Mg  tau(  29) = (  -0.0008366   0.7706407   0.4756707  )
        30           Zn  tau(  30) = (   0.0001869   0.7689344   1.0033289  )
        31           Zn  tau(  31) = (   0.6670500   0.1928254   0.4724152  )
        32           Zn  tau(  32) = (   0.6653473   0.1917185   1.0043853  )
        33           Zn  tau(  33) = (   0.4991242   0.4794014   0.4719447  )
        34           Zn  tau(  34) = (   0.4999168   0.4811219   1.0026748  )
        35           Zn  tau(  35) = (   0.3327179   0.7693948   0.4713442  )
        36           Zn  tau(  36) = (   0.3317095   0.7677960   1.0035614  )
        37           O   tau(  37) = (   0.1665811   0.0966005   0.0037836  )
        38           O   tau(  38) = (   0.1664833   0.0963376   0.5346263  )
        39           O   tau(  39) = (   0.0006203   0.3856604   0.0031601  )
        40           O   tau(  40) = (  -0.0008013   0.3855643   0.5346650  )
        41           O   tau(  41) = (  -0.1674288   0.6740173   0.0023520  )
        42           O   tau(  42) = (  -0.1678659   0.6740163   0.5345398  )
        43           O   tau(  43) = (   0.4998887   0.0945471   0.0040626  )
        44           O   tau(  44) = (   0.5000669   0.0969060   0.5359573  )
        45           O   tau(  45) = (   0.3330515   0.3849920   0.0013252  )
        46           O   tau(  46) = (   0.3326841   0.3848405   0.5373168  )
        47           O   tau(  47) = (   0.1656498   0.6723553   0.0043428  )
        48           O   tau(  48) = (   0.1656543   0.6718915   0.5323495  )
        49           O   tau(  49) = (   0.8335703   0.0952364   0.0016428  )
        50           O   tau(  50) = (   0.8325809   0.0950954   0.5373585  )
        51           O   tau(  51) = (   0.6663689   0.3842541   0.0021159  )
        52           O   tau(  52) = (   0.6665520   0.3847683   0.5364388  )
        53           O   tau(  53) = (   0.5008009   0.6736346   0.0023133  )
        54           O   tau(  54) = (   0.4995408   0.6729650   0.5348714  )
        55           O   tau(  55) = (  -0.0004389   0.1924181   0.2700270  )
        56           O   tau(  56) = (  -0.0005432   0.1923885   0.8007270  )
        57           O   tau(  57) = (  -0.1672412   0.4817086   0.2668180  )
        58           O   tau(  58) = (  -0.1676208   0.4806467   0.8042147  )
        59           O   tau(  59) = (  -0.3349243   0.7696770   0.2692970  )
        60           O   tau(  60) = (  -0.3352702   0.7689072   0.8004986  )
        61           O   tau(  61) = (   0.3331978   0.1926639   0.2697257  )
        62           O   tau(  62) = (   0.3331355   0.1911488   0.8022889  )
        63           O   tau(  63) = (   0.1669020   0.4823192   0.2686128  )
        64           O   tau(  64) = (   0.1671321   0.4799130   0.8010377  )
        65           O   tau(  65) = (  -0.0007202   0.7698554   0.2727942  )
        66           O   tau(  66) = (  -0.0002639   0.7685778   0.7991850  )
        67           O   tau(  67) = (   0.6667449   0.1913772   0.2690559  )
        68           O   tau(  68) = (   0.6668284   0.1924412   0.8011860  )
        69           O   tau(  69) = (   0.4992766   0.4808216   0.2685521  )
        70           O   tau(  70) = (   0.4995281   0.4798424   0.7993385  )
        71           O   tau(  71) = (   0.3327418   0.7686704   0.2677521  )
        72           O   tau(  72) = (   0.3326774   0.7684240   0.8003524  )

   Crystallographic axes

     site n.     atom                  positions (cryst. coord.)
         1           Zn  tau(   1) = (  0.2224444  0.1114922  0.1945659  )
         2           Zn  tau(   2) = (  0.2224093  0.1108019  0.6939982  )
         3           Zn  tau(   3) = (  0.2232031  0.4438640  0.1937339  )
         4           Zn  tau(   4) = (  0.2220888  0.4457917  0.6940297  )
         5           Zn  tau(   5) = (  0.2246254  0.7814494  0.1932678  )
         6           Zn  tau(   6) = (  0.2204375  0.7758009  0.6933296  )
         7           Zn  tau(   7) = (  0.5543198  0.1101757  0.1950543  )
         8           Zn  tau(   8) = (  0.5561632  0.1118054  0.6953315  )
         9           Zn  tau(   9) = (  0.5553816  0.4441988  0.1927436  )
        10           Mg  tau(  10) = (  0.5549206  0.4423306  0.6952335  )
        11           Mg  tau(  11) = (  0.5553434  0.7804214  0.1940719  )
        12           Zn  tau(  12) = (  0.5556743  0.7761318  0.6919995  )
        13           Zn  tau(  13) = (  0.8888776  0.1106430  0.1935228  )
        14           Mg  tau(  14) = (  0.8871157  0.1100076  0.6960815  )
        15           Zn  tau(  15) = (  0.8869664  0.4435069  0.1934148  )
        16           Mg  tau(  16) = (  0.8890903  0.4445922  0.6950622  )
        17           Mg  tau(  17) = (  0.8888061  0.7779531  0.1929187  )
        18           Mg  tau(  18) = (  0.8866982  0.7760859  0.6937712  )
        19           Zn  tau(  19) = (  0.1099634  0.2224154  0.4453542  )
        20           Zn  tau(  20) = (  0.1134503  0.2242488  0.9442912  )
        21           Zn  tau(  21) = (  0.1108013  0.5559924  0.4427219  )
        22           Mg  tau(  22) = (  0.1123302  0.5555409  0.9466853  )
        23           Mg  tau(  23) = (  0.1110325  0.8890204  0.4437557  )
        24           Mg  tau(  24) = (  0.1136317  0.8911761  0.9430222  )
        25           Zn  tau(  25) = (  0.4460348  0.2240554  0.4451531  )
        26           Zn  tau(  26) = (  0.4448823  0.2218330  0.9452885  )
        27           Mg  tau(  27) = (  0.4443432  0.5533359  0.4432099  )
        28           Mg  tau(  28) = (  0.4447678  0.5559637  0.9435713  )
        29           Mg  tau(  29) = (  0.4449797  0.8901758  0.4469091  )
        30           Zn  tau(  30) = (  0.4449460  0.8880329  0.9428892  )
        31           Zn  tau(  31) = (  0.7789110  0.2233345  0.4440205  )
        32           Zn  tau(  32) = (  0.7764959  0.2218798  0.9440533  )
        33           Zn  tau(  33) = (  0.7767033  0.5542400  0.4434977  )
        34           Zn  tau(  34) = (  0.7784209  0.5560549  0.9423643  )
        35           Zn  tau(  35) = (  0.7779932  0.8890955  0.4428519  )
        36           Zn  tau(  36) = (  0.7759881  0.8870731  0.9431171  )
        37           O   tau(  37) = (  0.2225616  0.1117814  0.0035355  )
        38           O   tau(  38) = (  0.2222407  0.1113037  0.5025084  )
        39           O   tau(  39) = (  0.2237571  0.4455587  0.0028683  )
        40           O   tau(  40) = (  0.2222081  0.4452722  0.5024636  )
        41           O   tau(  41) = (  0.2224565  0.7785218  0.0020277  )
        42           O   tau(  42) = (  0.2219475  0.7783459  0.5022649  )
        43           O   tau(  43) = (  0.5548602  0.1097663  0.0038075  )
        44           O   tau(  44) = (  0.5563323  0.1123176  0.5037686  )
        45           O   tau(  45) = (  0.5559805  0.4451435  0.0011529  )
        46           O   tau(  46) = (  0.5554536  0.4447927  0.5049655  )
        47           O   tau(  47) = (  0.5547522  0.7769581  0.0039086  )
        48           O   tau(  48) = (  0.5544178  0.7762494  0.5002159  )
        49           O   tau(  49) = (  0.8891203  0.1109213  0.0015419  )
        50           O   tau(  50) = (  0.8879772  0.1105819  0.5050953  )
        51           O   tau(  51) = (  0.8890500  0.4446482  0.0019056  )
        52           O   tau(  52) = (  0.8894593  0.4450675  0.5041496  )
        53           O   tau(  53) = (  0.8908239  0.7787961  0.0020099  )
        54           O   tau(  54) = (  0.8891045  0.7778468  0.5025953  )
        55           O   tau(  55) = (  0.1108548  0.2222146  0.2537646  )
        56           O   tau(  56) = (  0.1106624  0.2220066  0.7526033  )
        57           O   tau(  57) = (  0.1113422  0.5562584  0.2506671  )
        58           O   tau(  58) = (  0.1102761  0.5548551  0.7558007  )
        59           O   tau(  59) = (  0.1101824  0.8887718  0.2529164  )
        60           O   tau(  60) = (  0.1093201  0.8877082  0.7522268  )
        61           O   tau(  61) = (  0.4448131  0.2228564  0.2534906  )
        62           O   tau(  62) = (  0.4438030  0.2209315  0.7540810  )
        63           O   tau(  63) = (  0.4460179  0.5573214  0.2523632  )
        64           O   tau(  64) = (  0.4447848  0.5543675  0.7528239  )
        65           O   tau(  65) = (  0.4446690  0.8893351  0.2562128  )
        66           O   tau(  66) = (  0.4443159  0.8876872  0.7510014  )
        67           O   tau(  67) = (  0.7777950  0.2217277  0.2528705  )
        68           O   tau(  68) = (  0.7784231  0.2227829  0.7530532  )
        69           O   tau(  69) = (  0.7777046  0.5559476  0.2523157  )
        70           O   tau(  70) = (  0.7773188  0.5546428  0.7512360  )
        71           O   tau(  71) = (  0.7776252  0.8883253  0.2514829  )
        72           O   tau(  72) = (  0.7773470  0.8878661  0.7521080  )

     number of k points=    80
                       cart. coord. in units 2pi/alat
        k(    1) = (   0.0000000   0.0000000   0.0000000), wk =   0.0156250
        k(    2) = (   0.0000039  -0.0000378   0.1342805), wk =   0.0156250
        k(    3) = (   0.0000079  -0.0000756   0.2685611), wk =   0.0156250
        k(    4) = (   0.0000118  -0.0001135   0.4028416), wk =   0.0156250
        k(    5) = (   0.0000158  -0.0001513   0.5371221), wk =   0.0156250
        k(    6) = (   0.0000197  -0.0001891   0.6714026), wk =   0.0156250
        k(    7) = (   0.0000237  -0.0002269   0.8056832), wk =   0.0156250
        k(    8) = (   0.0000276  -0.0002648   0.9399637), wk =   0.0156250
        k(    9) = (   0.0002681   0.2888286  -0.0000818), wk =   0.0312500
        k(   10) = (   0.0002720   0.2887908   0.1341987), wk =   0.0312500
        k(   11) = (   0.0002759   0.2887530   0.2684792), wk =   0.0312500
        k(   12) = (   0.0002799   0.2887152   0.4027597), wk =   0.0312500
        k(   13) = (   0.0002838   0.2886774   0.5370403), wk =   0.0312500
        k(   14) = (   0.0002878   0.2886395   0.6713208), wk =   0.0312500
        k(   15) = (   0.0002917   0.2886017   0.8056013), wk =   0.0312500
        k(   16) = (   0.0002957   0.2885639   0.9398818), wk =   0.0312500
        k(   17) = (  -0.0005361  -0.5776573   0.0001637), wk =   0.0156250
        k(   18) = (  -0.0005322  -0.5776951   0.1344442), wk =   0.0156250
        k(   19) = (  -0.0005282  -0.5777329   0.2687247), wk =   0.0156250
        k(   20) = (  -0.0005243  -0.5777708   0.4030053), wk =   0.0156250
        k(   21) = (  -0.0005204  -0.5778086   0.5372858), wk =   0.0156250
        k(   22) = (  -0.0005164  -0.5778464   0.6715663), wk =   0.0156250
        k(   23) = (  -0.0005125  -0.5778842   0.8058468), wk =   0.0156250
        k(   24) = (  -0.0005085  -0.5779220   0.9401274), wk =   0.0156250
        k(   25) = (   0.2501344   0.1446460  -0.0000334), wk =   0.0312500
        k(   26) = (   0.2501383   0.1446082   0.1342471), wk =   0.0312500
        k(   27) = (   0.2501422   0.1445703   0.2685277), wk =   0.0312500
        k(   28) = (   0.2501462   0.1445325   0.4028082), wk =   0.0312500
        k(   29) = (   0.2501501   0.1444947   0.5370887), wk =   0.0312500
        k(   30) = (   0.2501541   0.1444569   0.6713692), wk =   0.0312500
        k(   31) = (   0.2501580   0.1444191   0.8056498), wk =   0.0312500
        k(   32) = (   0.2501620   0.1443812   0.9399303), wk =   0.0312500
        k(   33) = (   0.2504024   0.4334746  -0.0001152), wk =   0.0312500
        k(   34) = (   0.2504064   0.4334368   0.1341653), wk =   0.0312500
        k(   35) = (   0.2504103   0.4333990   0.2684458), wk =   0.0312500
        k(   36) = (   0.2504142   0.4333612   0.4027263), wk =   0.0312500
        k(   37) = (   0.2504182   0.4333233   0.5370069), wk =   0.0312500
        k(   38) = (   0.2504221   0.4332855   0.6712874), wk =   0.0312500
        k(   39) = (   0.2504261   0.4332477   0.8055679), wk =   0.0312500
        k(   40) = (   0.2504300   0.4332099   0.9398484), wk =   0.0312500
        k(   41) = (   0.2495982  -0.4330113   0.0001303), wk =   0.0312500
        k(   42) = (   0.2496022  -0.4330491   0.1344108), wk =   0.0312500
        k(   43) = (   0.2496061  -0.4330869   0.2686913), wk =   0.0312500
        k(   44) = (   0.2496101  -0.4331248   0.4029719), wk =   0.0312500
        k(   45) = (   0.2496140  -0.4331626   0.5372524), wk =   0.0312500
        k(   46) = (   0.2496179  -0.4332004   0.6715329), wk =   0.0312500
        k(   47) = (   0.2496219  -0.4332382   0.8058134), wk =   0.0312500
        k(   48) = (   0.2496258  -0.4332761   0.9400940), wk =   0.0312500
        k(   49) = (   0.2498663  -0.1441827   0.0000484), wk =   0.0312500
        k(   50) = (   0.2498702  -0.1442205   0.1343290), wk =   0.0312500
        k(   51) = (   0.2498742  -0.1442583   0.2686095), wk =   0.0312500
        k(   52) = (   0.2498781  -0.1442961   0.4028900), wk =   0.0312500
        k(   53) = (   0.2498821  -0.1443339   0.5371705), wk =   0.0312500
        k(   54) = (   0.2498860  -0.1443718   0.6714511), wk =   0.0312500
        k(   55) = (   0.2498899  -0.1444096   0.8057316), wk =   0.0312500
        k(   56) = (   0.2498939  -0.1444474   0.9400121), wk =   0.0312500
        k(   57) = (  -0.5002687  -0.2892920   0.0000668), wk =   0.0156250
        k(   58) = (  -0.5002648  -0.2893298   0.1343473), wk =   0.0156250
        k(   59) = (  -0.5002608  -0.2893676   0.2686279), wk =   0.0156250
        k(   60) = (  -0.5002569  -0.2894054   0.4029084), wk =   0.0156250
        k(   61) = (  -0.5002529  -0.2894432   0.5371889), wk =   0.0156250
        k(   62) = (  -0.5002490  -0.2894811   0.6714694), wk =   0.0156250
        k(   63) = (  -0.5002451  -0.2895189   0.8057500), wk =   0.0156250
        k(   64) = (  -0.5002411  -0.2895567   0.9400305), wk =   0.0156250
        k(   65) = (  -0.5000006  -0.0004633  -0.0000150), wk =   0.0312500
        k(   66) = (  -0.4999967  -0.0005011   0.1342655), wk =   0.0312500
        k(   67) = (  -0.4999928  -0.0005390   0.2685460), wk =   0.0312500
        k(   68) = (  -0.4999888  -0.0005768   0.4028265), wk =   0.0312500
        k(   69) = (  -0.4999849  -0.0006146   0.5371071), wk =   0.0312500
        k(   70) = (  -0.4999809  -0.0006524   0.6713876), wk =   0.0312500
        k(   71) = (  -0.4999770  -0.0006902   0.8056681), wk =   0.0312500
        k(   72) = (  -0.4999730  -0.0007281   0.9399486), wk =   0.0312500
        k(   73) = (  -0.5008048  -0.8669493   0.0002305), wk =   0.0156250
        k(   74) = (  -0.5008009  -0.8669871   0.1345110), wk =   0.0156250
        k(   75) = (  -0.5007969  -0.8670249   0.2687915), wk =   0.0156250
        k(   76) = (  -0.5007930  -0.8670627   0.4030721), wk =   0.0156250
        k(   77) = (  -0.5007891  -0.8671005   0.5373526), wk =   0.0156250
        k(   78) = (  -0.5007851  -0.8671384   0.6716331), wk =   0.0156250
        k(   79) = (  -0.5007812  -0.8671762   0.8059136), wk =   0.0156250
        k(   80) = (  -0.5007772  -0.8672140   0.9401942), wk =   0.0156250

                       cryst. coord.
        k(    1) = (   0.0000000   0.0000000   0.0000000), wk =   0.0156250
        k(    2) = (   0.0000000  -0.0000000   0.1428571), wk =   0.0156250
        k(    3) = (   0.0000000  -0.0000000   0.2857143), wk =   0.0156250
        k(    4) = (   0.0000000  -0.0000000   0.4285714), wk =   0.0156250
        k(    5) = (   0.0000000  -0.0000000   0.5714286), wk =   0.0156250
        k(    6) = (   0.0000000  -0.0000000   0.7142857), wk =   0.0156250
        k(    7) = (   0.0000000  -0.0000000   0.8571429), wk =   0.0156250
        k(    8) = (   0.0000000  -0.0000000   1.0000000), wk =   0.0156250
        k(    9) = (  -0.0000000   0.2500000   0.0000000), wk =   0.0312500
        k(   10) = (  -0.0000000   0.2500000   0.1428571), wk =   0.0312500
        k(   11) = (   0.0000000   0.2500000   0.2857143), wk =   0.0312500
        k(   12) = (  -0.0000000   0.2500000   0.4285714), wk =   0.0312500
        k(   13) = (  -0.0000000   0.2500000   0.5714286), wk =   0.0312500
        k(   14) = (  -0.0000000   0.2500000   0.7142857), wk =   0.0312500
        k(   15) = (   0.0000000   0.2500000   0.8571429), wk =   0.0312500
        k(   16) = (  -0.0000000   0.2500000   1.0000000), wk =   0.0312500
        k(   17) = (   0.0000000  -0.5000000  -0.0000000), wk =   0.0156250
        k(   18) = (   0.0000000  -0.5000000   0.1428571), wk =   0.0156250
        k(   19) = (   0.0000000  -0.5000000   0.2857143), wk =   0.0156250
        k(   20) = (   0.0000000  -0.5000000   0.4285714), wk =   0.0156250
        k(   21) = (   0.0000000  -0.5000000   0.5714286), wk =   0.0156250
        k(   22) = (   0.0000000  -0.5000000   0.7142857), wk =   0.0156250
        k(   23) = (  -0.0000000  -0.5000000   0.8571429), wk =   0.0156250
        k(   24) = (   0.0000000  -0.5000000   1.0000000), wk =   0.0156250
        k(   25) = (   0.2500000   0.0000000   0.0000000), wk =   0.0312500
        k(   26) = (   0.2500000  -0.0000000   0.1428571), wk =   0.0312500
        k(   27) = (   0.2500000   0.0000000   0.2857143), wk =   0.0312500
        k(   28) = (   0.2500000   0.0000000   0.4285714), wk =   0.0312500
        k(   29) = (   0.2500000  -0.0000000   0.5714286), wk =   0.0312500
        k(   30) = (   0.2500000   0.0000000   0.7142857), wk =   0.0312500
        k(   31) = (   0.2500000   0.0000000   0.8571429), wk =   0.0312500
        k(   32) = (   0.2500000   0.0000000   1.0000000), wk =   0.0312500
        k(   33) = (   0.2500000   0.2500000  -0.0000000), wk =   0.0312500
        k(   34) = (   0.2500000   0.2500000   0.1428571), wk =   0.0312500
        k(   35) = (   0.2500000   0.2500000   0.2857143), wk =   0.0312500
        k(   36) = (   0.2500000   0.2500000   0.4285714), wk =   0.0312500
        k(   37) = (   0.2500000   0.2500000   0.5714286), wk =   0.0312500
        k(   38) = (   0.2500000   0.2500000   0.7142857), wk =   0.0312500
        k(   39) = (   0.2500000   0.2500000   0.8571429), wk =   0.0312500
        k(   40) = (   0.2500000   0.2500000   1.0000000), wk =   0.0312500
        k(   41) = (   0.2500000  -0.5000000   0.0000000), wk =   0.0312500
        k(   42) = (   0.2500000  -0.5000000   0.1428571), wk =   0.0312500
        k(   43) = (   0.2500000  -0.5000000   0.2857143), wk =   0.0312500
        k(   44) = (   0.2500000  -0.5000000   0.4285714), wk =   0.0312500
        k(   45) = (   0.2500000  -0.5000000   0.5714286), wk =   0.0312500
        k(   46) = (   0.2500000  -0.5000000   0.7142857), wk =   0.0312500
        k(   47) = (   0.2500000  -0.5000000   0.8571429), wk =   0.0312500
        k(   48) = (   0.2500000  -0.5000000   1.0000000), wk =   0.0312500
        k(   49) = (   0.2500000  -0.2500000   0.0000000), wk =   0.0312500
        k(   50) = (   0.2500000  -0.2500000   0.1428571), wk =   0.0312500
        k(   51) = (   0.2500000  -0.2500000   0.2857143), wk =   0.0312500
        k(   52) = (   0.2500000  -0.2500000   0.4285714), wk =   0.0312500
        k(   53) = (   0.2500000  -0.2500000   0.5714286), wk =   0.0312500
        k(   54) = (   0.2500000  -0.2500000   0.7142857), wk =   0.0312500
        k(   55) = (   0.2500000  -0.2500000   0.8571429), wk =   0.0312500
        k(   56) = (   0.2500000  -0.2500000   1.0000000), wk =   0.0312500
        k(   57) = (  -0.5000000  -0.0000000  -0.0000000), wk =   0.0156250
        k(   58) = (  -0.5000000  -0.0000000   0.1428571), wk =   0.0156250
        k(   59) = (  -0.5000000  -0.0000000   0.2857143), wk =   0.0156250
        k(   60) = (  -0.5000000   0.0000000   0.4285714), wk =   0.0156250
        k(   61) = (  -0.5000000  -0.0000000   0.5714286), wk =   0.0156250
        k(   62) = (  -0.5000000  -0.0000000   0.7142857), wk =   0.0156250
        k(   63) = (  -0.5000000  -0.0000000   0.8571429), wk =   0.0156250
        k(   64) = (  -0.5000000  -0.0000000   1.0000000), wk =   0.0156250
        k(   65) = (  -0.5000000   0.2500000  -0.0000000), wk =   0.0312500
        k(   66) = (  -0.5000000   0.2500000   0.1428571), wk =   0.0312500
        k(   67) = (  -0.5000000   0.2500000   0.2857143), wk =   0.0312500
        k(   68) = (  -0.5000000   0.2500000   0.4285714), wk =   0.0312500
        k(   69) = (  -0.5000000   0.2500000   0.5714286), wk =   0.0312500
        k(   70) = (  -0.5000000   0.2500000   0.7142857), wk =   0.0312500
        k(   71) = (  -0.5000000   0.2500000   0.8571429), wk =   0.0312500
        k(   72) = (  -0.5000000   0.2500000   1.0000000), wk =   0.0312500
        k(   73) = (  -0.5000000  -0.5000000   0.0000000), wk =   0.0156250
        k(   74) = (  -0.5000000  -0.5000000   0.1428571), wk =   0.0156250
        k(   75) = (  -0.5000000  -0.5000000   0.2857143), wk =   0.0156250
        k(   76) = (  -0.5000000  -0.5000000   0.4285714), wk =   0.0156250
        k(   77) = (  -0.5000000  -0.5000000   0.5714286), wk =   0.0156250
        k(   78) = (  -0.5000000  -0.5000000   0.7142857), wk =   0.0156250
        k(   79) = (  -0.5000000  -0.5000000   0.8571429), wk =   0.0156250
        k(   80) = (  -0.5000000  -0.5000000   1.0000000), wk =   0.0156250

     Dense  grid:  1087323 G-vectors     FFT dimensions: ( 135, 135, 144)

     Smooth grid:   361631 G-vectors     FFT dimensions: (  96,  96, 100)

     Dynamical RAM for                 wfc:       4.40 MB

     Dynamical RAM for     wfc (w. buffer):     356.02 MB

     Dynamical RAM for           str. fact:       0.78 MB

     Dynamical RAM for           local pot:       0.00 MB

     Dynamical RAM for          nlocal pot:      12.15 MB

     Dynamical RAM for                qrad:      21.02 MB

     Dynamical RAM for          rho,v,vnew:       2.03 MB

     Dynamical RAM for           G-vectors:       1.02 MB

     Dynamical RAM for          h,s,v(r/c):       4.86 MB

     Dynamical RAM for          <psi|beta>:       7.02 MB

     Dynamical RAM for                 psi:      17.58 MB

     Dynamical RAM for                hpsi:      17.58 MB

     Dynamical RAM for                spsi:      17.58 MB

     Dynamical RAM for      wfcinit/wfcrot:      17.22 MB

     Dynamical RAM for           addusdens:      62.48 MB

     Estimated static dynamical RAM per process >     396.13 MB

     Estimated max dynamical RAM per process >     460.76 MB

     Estimated total dynamical RAM >      28.80 GB

     Check: negative core charge=   -0.000002

     The potential is recalculated from file :
     ./temp/ZnO.save/charge-density

     Starting wfcs are  516 randomized atomic wfcs

     Band Structure Calculation
     Davidson diagonalization with overlap

     Computing kpt #:     1
     total cpu time spent up to now is       19.7 secs

     Computing kpt #:     2
     total cpu time spent up to now is       35.0 secs

     Computing kpt #:     3
     total cpu time spent up to now is       50.4 secs

     Computing kpt #:     4
     total cpu time spent up to now is       65.7 secs

     Computing kpt #:     5
     total cpu time spent up to now is       80.9 secs

     Computing kpt #:     6
     total cpu time spent up to now is       96.4 secs

     Computing kpt #:     7
     total cpu time spent up to now is      111.9 secs

     Computing kpt #:     8
     total cpu time spent up to now is      127.2 secs

     Computing kpt #:     9
     total cpu time spent up to now is      142.6 secs

     Computing kpt #:    10
     total cpu time spent up to now is      158.1 secs

     Computing kpt #:    11
     total cpu time spent up to now is      173.4 secs

     Computing kpt #:    12
     total cpu time spent up to now is      188.8 secs

     Computing kpt #:    13
     total cpu time spent up to now is      204.2 secs

     Computing kpt #:    14
     total cpu time spent up to now is      219.6 secs

     Computing kpt #:    15
     total cpu time spent up to now is      235.0 secs

     Computing kpt #:    16
     total cpu time spent up to now is      250.5 secs

     Computing kpt #:    17
     total cpu time spent up to now is      266.0 secs

     Computing kpt #:    18
     total cpu time spent up to now is      281.4 secs

     Computing kpt #:    19
     total cpu time spent up to now is      306.8 secs

     Computing kpt #:    20
     total cpu time spent up to now is      322.1 secs

     Computing kpt #:    21
     total cpu time spent up to now is      337.6 secs

     Computing kpt #:    22
     total cpu time spent up to now is      353.1 secs

     Computing kpt #:    23
     total cpu time spent up to now is      368.6 secs

     Computing kpt #:    24
     total cpu time spent up to now is      384.1 secs

     Computing kpt #:    25
     total cpu time spent up to now is      399.7 secs

     Computing kpt #:    26
     total cpu time spent up to now is      415.3 secs

     Computing kpt #:    27
     total cpu time spent up to now is      430.8 secs

     Computing kpt #:    28
     total cpu time spent up to now is      446.3 secs

     Computing kpt #:    29
     total cpu time spent up to now is      461.8 secs

     Computing kpt #:    30
     total cpu time spent up to now is      477.3 secs

     Computing kpt #:    31
     total cpu time spent up to now is      492.8 secs

     Computing kpt #:    32
     total cpu time spent up to now is      508.3 secs

     Computing kpt #:    33
     total cpu time spent up to now is      523.8 secs

     Computing kpt #:    34
     total cpu time spent up to now is      539.2 secs

     Computing kpt #:    35
     total cpu time spent up to now is      554.7 secs

     Computing kpt #:    36
     total cpu time spent up to now is      570.2 secs

     Computing kpt #:    37
     total cpu time spent up to now is      585.7 secs

     Computing kpt #:    38
     total cpu time spent up to now is      601.2 secs

     Computing kpt #:    39
     total cpu time spent up to now is      616.5 secs

     Computing kpt #:    40
     total cpu time spent up to now is      632.0 secs

     Computing kpt #:    41
     total cpu time spent up to now is      647.5 secs

     Computing kpt #:    42
     total cpu time spent up to now is      662.9 secs

     Computing kpt #:    43
     total cpu time spent up to now is      678.5 secs

     Computing kpt #:    44
     total cpu time spent up to now is      694.0 secs

     Computing kpt #:    45
     total cpu time spent up to now is      709.5 secs

     Computing kpt #:    46
     total cpu time spent up to now is      724.9 secs

     Computing kpt #:    47
     total cpu time spent up to now is      740.4 secs

     Computing kpt #:    48
     total cpu time spent up to now is      755.9 secs

     Computing kpt #:    49
     total cpu time spent up to now is      771.4 secs

     Computing kpt #:    50
     total cpu time spent up to now is      786.9 secs

     Computing kpt #:    51
     total cpu time spent up to now is      802.4 secs

     Computing kpt #:    52
     total cpu time spent up to now is      817.9 secs

     Computing kpt #:    53
     total cpu time spent up to now is      833.3 secs

     Computing kpt #:    54
     total cpu time spent up to now is      848.8 secs

     Computing kpt #:    55
     total cpu time spent up to now is      864.2 secs

     Computing kpt #:    56
     total cpu time spent up to now is      879.9 secs

     Computing kpt #:    57
     total cpu time spent up to now is      895.3 secs

     Computing kpt #:    58
     total cpu time spent up to now is      910.8 secs

     Computing kpt #:    59
     total cpu time spent up to now is      926.2 secs

     Computing kpt #:    60
     total cpu time spent up to now is      941.7 secs

     Computing kpt #:    61
     total cpu time spent up to now is      957.2 secs

     Computing kpt #:    62
     total cpu time spent up to now is      972.6 secs

     Computing kpt #:    63
     total cpu time spent up to now is      988.0 secs

     Computing kpt #:    64
     total cpu time spent up to now is     1003.4 secs

     Computing kpt #:    65
     total cpu time spent up to now is     1018.9 secs

     Computing kpt #:    66
     total cpu time spent up to now is     1034.4 secs

     Computing kpt #:    67
     total cpu time spent up to now is     1049.9 secs

     Computing kpt #:    68
     total cpu time spent up to now is     1065.4 secs

     Computing kpt #:    69
     total cpu time spent up to now is     1080.8 secs

     Computing kpt #:    70
     total cpu time spent up to now is     1096.2 secs

     Computing kpt #:    71
     total cpu time spent up to now is     1111.6 secs

     Computing kpt #:    72
     total cpu time spent up to now is     1127.1 secs

     Computing kpt #:    73
     total cpu time spent up to now is     1192.1 secs

     Computing kpt #:    74
     total cpu time spent up to now is     1207.7 secs

     Computing kpt #:    75
     total cpu time spent up to now is     1223.1 secs

     Computing kpt #:    76
     total cpu time spent up to now is     1238.6 secs

     Computing kpt #:    77
     total cpu time spent up to now is     1254.0 secs

     Computing kpt #:    78
     total cpu time spent up to now is     1269.5 secs

     Computing kpt #:    79
     total cpu time spent up to now is     1285.0 secs

     Computing kpt #:    80
     total cpu time spent up to now is     1300.5 secs

     ethr =  1.23E-12,  avg # of iterations = 12.3

     total cpu time spent up to now is     1300.5 secs

     End of band structure calculation

          k = 0.0000 0.0000 0.0000 ( 45181 PWs)   bands (ev):

  -115.4000-115.3964-115.3929-115.3916-115.3897-115.3877-115.3855-115.3849
  -115.3825-115.3823-115.3773-115.3772-115.3743-115.3742-115.3716-115.3715
  -115.3712-115.3705-115.3690-115.3687-115.3687-115.3670-115.3652-115.3614
   -69.7597 -69.7566 -69.7559 -69.7550 -69.7523 -69.7516 -69.7513 -69.7510
   -69.7497 -69.7485 -69.7482 -69.7472 -69.7470 -69.7456 -69.7455 -69.7454
   -69.7436 -69.7431 -69.7428 -69.7420 -69.7418 -69.7417 -69.7398 -69.7388
   -69.7380 -69.7378 -69.7376 -69.7376 -69.7367 -69.7366 -69.7364 -69.7358
   -69.7353 -69.7350 -69.7345 -69.7334 -69.7333 -69.7326 -69.7322 -69.7317
   -69.7308 -69.7304 -69.7302 -69.7299 -69.7297 -69.7284 -69.7280 -69.7280
   -69.7274 -69.7273 -69.7271 -69.7271 -69.7269 -69.7260 -69.7250 -69.7248
   -69.7247 -69.7245 -69.7243 -69.7241 -69.7240 -69.7232 -69.7232 -69.7231
   -69.7230 -69.7223 -69.7216 -69.7212 -69.7196 -69.7182 -69.7168 -69.7140
   -64.8520 -64.8476 -64.8446 -64.8425 -64.8379 -64.8293 -64.8281 -64.8192
   -64.8154 -64.8145 -64.8118 -64.8106 -31.8459 -31.8394 -31.8385 -31.8373
   -31.8371 -31.8345 -31.8341 -31.8323 -31.8318 -31.8304 -31.8292 -31.8270
   -31.8267 -31.8236 -31.8220 -31.8207 -31.8177 -31.8173 -31.8139 -31.8130
   -31.8127 -31.8123 -31.8079 -31.8062 -31.8044 -31.8038 -31.8017 -31.8013
   -31.8003 -31.7995 -31.7988 -31.7987 -31.7978 -31.7937 -31.7905 -31.7886
   -10.0669  -9.7347  -9.7018  -9.6513  -9.6360  -9.5995  -9.5548  -9.5062
    -9.4543  -9.4412  -9.4270  -9.3992  -9.3846  -9.3691  -9.3530  -9.3187
    -9.2858  -9.2760  -9.2675  -9.2295  -9.2276  -9.2063  -9.1953  -9.1577
    -9.1285  -9.1231  -9.1163  -9.0917  -9.0789  -9.0679  -9.0429  -9.0362
    -9.0261  -8.9929  -8.9836  -8.8958   1.7188   1.7468   1.7590   1.7619
     1.7971   1.8028   1.8456   1.8713   1.8936   1.9053   1.9245   1.9338
     1.9401   1.9996   2.0057   2.0244   2.0450   2.0756   2.0965   2.1096
     2.1238   2.1470   2.1606   2.1706   2.1962   2.2059   2.2239   2.2285
     2.2535   2.2631   2.2748   2.2790   2.2977   2.3072   2.3212   2.3352
     2.3410   2.3421   2.3625   2.3723   2.3819   2.3851   2.3939   2.4077
     2.4118   2.4229   2.4331   2.4390   2.4488   2.4580   2.4632   2.4817
     2.4980   2.5078   2.5184   2.5350   2.5700   2.5890   2.6016   2.6242
     2.6457   2.6628   2.6689   2.6880   2.7095   2.7205   2.7309   2.7575
     2.7749   2.7916   2.7994   2.8291   2.8471   2.8600   2.8655   2.8964
     2.9111   2.9260   2.9374   2.9456   2.9549   2.9739   3.0067   3.0187
     3.0291   3.0383   3.0552   3.0821   3.0951   3.0964   3.1060   3.1337
     3.1450   3.1527   3.1682   3.1817   3.1986   3.2068   3.2212   3.2368
     3.2460   3.2591   3.2674   3.2717   3.2813   3.2919   3.3047   3.3053
     3.3091   3.3195   3.3309   3.3372   3.3651   3.3685   3.3810   3.3854
     3.4105   3.4362   3.4493   3.4921   3.5221   3.6103   3.6549   3.6750
     3.6997   3.7561   3.7677   3.7855   3.8485   3.8591   3.8847   3.9030
     3.9559   3.9652   3.9770   4.0124   4.0527   4.0945   4.1579   4.2451
     4.2500   4.2849   4.3086   4.3346   4.3622   4.4502   4.4593   4.4994
     4.5172   4.5605   4.6276   4.6634   4.6813   4.7344   4.7561   4.8594
     4.9004   4.9219   4.9579   5.0364   5.0656   5.1593   5.1856   5.2122
     5.2934   5.3432   5.4585   5.5331   5.5885   5.5936   5.6147   5.6263
     5.6847   5.7449   5.7660   5.7908   5.8187   5.8242   5.8338   5.8524
     5.9050   5.9249   6.0041   6.0392   6.0541   6.0690   6.1264   6.1395
     6.1964   6.2095   6.2439   6.2711   6.2920   6.3058   6.3467   6.3550
     6.3765   6.3913   6.4006   6.4216   6.4351   6.4514   6.4594   6.4701
     6.5054   6.5170   6.5281   6.5410   6.6226   6.6565   6.7032   6.7270
     6.7363   6.7691   6.7755   6.8065   6.8209   6.8849   6.9294   6.9556
     7.0201   7.0719   7.0810   7.1073   7.1268   7.3750   7.3978   7.4511

     occupation numbers 
     1.0000   1.0000   1.0000   1.0000   1.0000   1.0000   1.0000   1.0000
     1.0000   1.0000   1.0000   1.0000   1.0000   1.0000   1.0000   1.0000
     1.0000   1.0000   1.0000   1.0000   1.0000   1.0000   1.0000   1.0000
     1.0000   1.0000   1.0000   1.0000   1.0000   1.0000   1.0000   1.0000
     1.0000   1.0000   1.0000   1.0000   1.0000   1.0000   1.0000   1.0000
     1.0000   1.0000   1.0000   1.0000   1.0000   1.0000   1.0000   1.0000
     1.0000   1.0000   1.0000   1.0000   1.0000   1.0000   1.0000   1.0000
     1.0000   1.0000   1.0000   1.0000   1.0000   1.0000   1.0000   1.0000
     1.0000   1.0000   1.0000   1.0000   1.0000   1.0000   1.0000   1.0000
     1.0000   1.0000   1.0000   1.0000   1.0000   1.0000   1.0000   1.0000
     1.0000   1.0000   1.0000   1.0000   1.0000   1.0000   1.0000   1.0000
     1.0000   1.0000   1.0000   1.0000   1.0000   1.0000   1.0000   1.0000
     1.0000   1.0000   1.0000   1.0000   1.0000   1.0000   1.0000   1.0000
     1.0000   1.0000   1.0000   1.0000   1.0000   1.0000   1.0000   1.0000
     1.0000   1.0000   1.0000   1.0000   1.0000   1.0000   1.0000   1.0000
     1.0000   1.0000   1.0000   1.0000   1.0000   1.0000   1.0000   1.0000
     1.0000   1.0000   1.0000   1.0000   1.0000   1.0000   1.0000   1.0000
     1.0000   1.0000   1.0000   1.0000   1.0000   1.0000   1.0000   1.0000
     1.0000   1.0000   1.0000   1.0000   1.0000   1.0000   1.0000   1.0000
     1.0000   1.0000   1.0000   1.0000   1.0000   1.0000   1.0000   1.0000
     1.0000   1.0000   1.0000   1.0000   1.0000   1.0000   1.0000   1.0000
     1.0000   1.0000   1.0000   1.0000   1.0000   1.0000   1.0000   1.0000
     1.0000   1.0000   1.0000   1.0000   1.0000   1.0000   1.0000   1.0000
     1.0000   1.0000   1.0000   1.0000   1.0000   1.0000   1.0000   1.0000
     1.0000   1.0000   1.0000   1.0000   1.0000   1.0000   1.0000   1.0000
     1.0000   1.0000   1.0000   1.0000   1.0000   1.0000   1.0000   1.0000
     1.0000   1.0000   1.0000   1.0000   1.0000   1.0000   1.0000   1.0000
     1.0000   1.0000   1.0000   1.0000   1.0000   1.0000   1.0000   1.0000
     1.0000   1.0000   1.0000   1.0000   1.0000   1.0000   1.0000   1.0000
     1.0000   1.0000   1.0000   1.0000   1.0000   1.0000   1.0000   1.0000
     1.0000   1.0000   1.0000   1.0000   1.0000   1.0000   1.0000   1.0000
     1.0000   1.0000   1.0000   1.0000   1.0000   1.0000   1.0000   1.0000
     1.0000   1.0000   1.0000   1.0000   1.0000   1.0000   1.0000   1.0000
     1.0000   1.0000   1.0000   1.0000   1.0000   1.0000   1.0000   1.0000
     1.0000   1.0000   1.0000   1.0000   1.0000   1.0000   1.0000   1.0000
     1.0000   1.0000   1.0000   1.0000   1.0000   1.0000   1.0000   1.0000
     1.0000   1.0000   1.0000   1.0000   1.0000   1.0000   1.0000   1.0000
     1.0000   1.0000   1.0000   1.0000   1.0000   1.0000   1.0000   1.0000
     1.0000   1.0000   1.0000   1.0000   1.0000   1.0000   1.0000   1.0000
     1.0000   1.0000   1.0000   1.0000   1.0000   1.0000   1.0000   1.0000
     1.0000   1.0000   1.0000   1.0000   1.0000   1.0000   1.0000   1.0000
     1.0000   1.0000   1.0000   1.0000   1.0000   1.0000   1.0000   1.0000
     1.0000   1.0000   1.0000   1.0000   1.0000   1.0000   1.0000   1.0000
     1.0000   1.0000   1.0000   1.0000   1.0000   1.0000   1.0000   1.0000
     1.0000   1.0000   1.0000   1.0000   1.0000   1.0000   1.0000   1.0000
     1.0000   1.0000   1.0000   1.0000   1.0000   1.0000   1.0000   1.0000
     1.0000   1.0000   1.0000   1.0000   1.0000   1.0000   1.0000   1.0000
     1.0000   1.0000   1.0000   1.0000   1.0000   1.0000   1.0000   1.0000
     1.0000   1.0000   1.0000   1.0000   1.0000   1.0000   1.0000   1.0000
     1.0000   1.0000   1.0000   1.0000   1.0000   1.0000   1.0000   1.0000
     1.0000   1.0000   1.0000   1.0000   1.0000   1.0000   1.0000   1.0000

          k = 0.0000-0.0000 0.1343 ( 45157 PWs)   bands (ev):

  -115.4000-115.3964-115.3929-115.3916-115.3897-115.3877-115.3855-115.3849
  -115.3825-115.3823-115.3773-115.3772-115.3743-115.3742-115.3716-115.3715
  -115.3712-115.3705-115.3690-115.3687-115.3687-115.3670-115.3652-115.3614
   -69.7597 -69.7566 -69.7559 -69.7550 -69.7523 -69.7516 -69.7513 -69.7510
   -69.7497 -69.7485 -69.7482 -69.7472 -69.7470 -69.7456 -69.7455 -69.7454
   -69.7436 -69.7431 -69.7428 -69.7420 -69.7418 -69.7417 -69.7398 -69.7388
   -69.7380 -69.7378 -69.7376 -69.7376 -69.7367 -69.7366 -69.7364 -69.7358
   -69.7353 -69.7350 -69.7345 -69.7334 -69.7333 -69.7326 -69.7322 -69.7317
   -69.7308 -69.7304 -69.7302 -69.7299 -69.7297 -69.7284 -69.7280 -69.7280
   -69.7274 -69.7273 -69.7271 -69.7271 -69.7269 -69.7260 -69.7250 -69.7248
   -69.7247 -69.7245 -69.7243 -69.7241 -69.7240 -69.7232 -69.7232 -69.7231
   -69.7230 -69.7223 -69.7216 -69.7212 -69.7196 -69.7182 -69.7168 -69.7140
   -64.8520 -64.8476 -64.8446 -64.8425 -64.8379 -64.8293 -64.8281 -64.8192
   -64.8154 -64.8145 -64.8118 -64.8106 -31.8459 -31.8394 -31.8385 -31.8373
   -31.8371 -31.8345 -31.8340 -31.8323 -31.8318 -31.8304 -31.8292 -31.8270
   -31.8267 -31.8236 -31.8220 -31.8207 -31.8177 -31.8173 -31.8139 -31.8130
   -31.8127 -31.8123 -31.8079 -31.8062 -31.8044 -31.8038 -31.8017 -31.8013
   -31.8003 -31.7995 -31.7988 -31.7987 -31.7978 -31.7937 -31.7905 -31.7886
   -10.0589  -9.7886  -9.6691  -9.6386  -9.6285  -9.5941  -9.5515  -9.5047
    -9.4645  -9.4458  -9.4245  -9.4143  -9.3926  -9.3684  -9.3379  -9.3187
    -9.2991  -9.2807  -9.2651  -9.2423  -9.2136  -9.2007  -9.1793  -9.1561
    -9.1257  -9.1201  -9.1157  -9.0931  -9.0780  -9.0657  -9.0440  -9.0390
    -9.0274  -8.9967  -8.9880  -8.8969   1.7249   1.7532   1.7644   1.7714
     1.8008   1.8099   1.8504   1.8777   1.8950   1.9083   1.9290   1.9383
     1.9457   1.9999   2.0084   2.0277   2.0436   2.0829   2.0984   2.1107
     2.1259   2.1493   2.1606   2.1711   2.1933   2.2027   2.2206   2.2231
     2.2497   2.2615   2.2723   2.2793   2.2969   2.3050   2.3171   2.3337
     2.3373   2.3454   2.3602   2.3633   2.3757   2.3865   2.3966   2.4076
     2.4166   2.4226   2.4353   2.4416   2.4547   2.4550   2.4623   2.4832
     2.4946   2.5056   2.5224   2.5326   2.5632   2.5827   2.6037   2.6197
     2.6412   2.6583   2.6614   2.6842   2.6926   2.7142   2.7211   2.7504
     2.7637   2.7847   2.7961   2.8142   2.8364   2.8537   2.8627   2.8878
     2.8990   2.9112   2.9299   2.9337   2.9530   2.9585   2.9881   3.0037
     3.0183   3.0464   3.0549   3.0785   3.0901   3.1002   3.1027   3.1295
     3.1436   3.1533   3.1674   3.1917   3.2058   3.2097   3.2248   3.2311
     3.2419   3.2526   3.2709   3.2758   3.2853   3.2947   3.3024   3.3080
     3.3163   3.3200   3.3330   3.3438   3.3612   3.3671   3.3849   3.3945
     3.4110   3.4301   3.4426   3.4789   3.5422   3.6250   3.6625   3.7031
     3.7234   3.7574   3.7843   3.8156   3.8501   3.8780   3.8941   3.9248
     3.9595   3.9718   3.9945   4.0134   4.0583   4.0944   4.1659   4.2539
     4.2603   4.2914   4.3143   4.3478   4.3787   4.4498   4.4668   4.5067
     4.5185   4.5613   4.6199   4.6508   4.6730   4.7061   4.7517   4.8038
     4.8607   4.9213   5.0336   5.0584   5.1186   5.1635   5.1868   5.2405
     5.3154   5.3589   5.4543   5.5377   5.5880   5.6052   5.6193   5.6443
     5.6880   5.7386   5.7520   5.7831   5.7950   5.8164   5.8297   5.8521
     5.8570   5.8899   5.9185   5.9609   5.9940   6.0456   6.0966   6.1279
     6.1439   6.1988   6.2153   6.2366   6.2581   6.2788   6.3339   6.3724
     6.3757   6.4065   6.4179   6.4428   6.4677   6.4815   6.5005   6.5169
     6.5399   6.5436   6.5810   6.5941   6.6415   6.6690   6.7146   6.7285
     6.7457   6.7762   6.7853   6.8201   6.8343   6.8783   6.9215   6.9463
     7.0104   7.0249   7.0592   7.1382   7.1708   7.2885   7.3927   7.4451

     occupation numbers 
     1.0000   1.0000   1.0000   1.0000   1.0000   1.0000   1.0000   1.0000
     1.0000   1.0000   1.0000   1.0000   1.0000   1.0000   1.0000   1.0000
     1.0000   1.0000   1.0000   1.0000   1.0000   1.0000   1.0000   1.0000
     1.0000   1.0000   1.0000   1.0000   1.0000   1.0000   1.0000   1.0000
     1.0000   1.0000   1.0000   1.0000   1.0000   1.0000   1.0000   1.0000
     1.0000   1.0000   1.0000   1.0000   1.0000   1.0000   1.0000   1.0000
     1.0000   1.0000   1.0000   1.0000   1.0000   1.0000   1.0000   1.0000
     1.0000   1.0000   1.0000   1.0000   1.0000   1.0000   1.0000   1.0000
     1.0000   1.0000   1.0000   1.0000   1.0000   1.0000   1.0000   1.0000
     1.0000   1.0000   1.0000   1.0000   1.0000   1.0000   1.0000   1.0000
     1.0000   1.0000   1.0000   1.0000   1.0000   1.0000   1.0000   1.0000
     1.0000   1.0000   1.0000   1.0000   1.0000   1.0000   1.0000   1.0000
     1.0000   1.0000   1.0000   1.0000   1.0000   1.0000   1.0000   1.0000
     1.0000   1.0000   1.0000   1.0000   1.0000   1.0000   1.0000   1.0000
     1.0000   1.0000   1.0000   1.0000   1.0000   1.0000   1.0000   1.0000
     1.0000   1.0000   1.0000   1.0000   1.0000   1.0000   1.0000   1.0000
     1.0000   1.0000   1.0000   1.0000   1.0000   1.0000   1.0000   1.0000
     1.0000   1.0000   1.0000   1.0000   1.0000   1.0000   1.0000   1.0000
     1.0000   1.0000   1.0000   1.0000   1.0000   1.0000   1.0000   1.0000
     1.0000   1.0000   1.0000   1.0000   1.0000   1.0000   1.0000   1.0000
     1.0000   1.0000   1.0000   1.0000   1.0000   1.0000   1.0000   1.0000
     1.0000   1.0000   1.0000   1.0000   1.0000   1.0000   1.0000   1.0000
     1.0000   1.0000   1.0000   1.0000   1.0000   1.0000   1.0000   1.0000
     1.0000   1.0000   1.0000   1.0000   1.0000   1.0000   1.0000   1.0000
     1.0000   1.0000   1.0000   1.0000   1.0000   1.0000   1.0000   1.0000
     1.0000   1.0000   1.0000   1.0000   1.0000   1.0000   1.0000   1.0000
     1.0000   1.0000   1.0000   1.0000   1.0000   1.0000   1.0000   1.0000
     1.0000   1.0000   1.0000   1.0000   1.0000   1.0000   1.0000   1.0000
     1.0000   1.0000   1.0000   1.0000   1.0000   1.0000   1.0000   1.0000
     1.0000   1.0000   1.0000   1.0000   1.0000   1.0000   1.0000   1.0000
     1.0000   1.0000   1.0000   1.0000   1.0000   1.0000   1.0000   1.0000
     1.0000   1.0000   1.0000   1.0000   1.0000   1.0000   1.0000   1.0000
     1.0000   1.0000   1.0000   1.0000   1.0000   1.0000   1.0000   1.0000
     1.0000   1.0000   1.0000   1.0000   1.0000   1.0000   1.0000   1.0000
     1.0000   1.0000   1.0000   1.0000   1.0000   1.0000   1.0000   1.0000
     1.0000   1.0000   1.0000   1.0000   1.0000   1.0000   1.0000   1.0000
     1.0000   1.0000   1.0000   1.0000   1.0000   1.0000   1.0000   1.0000
     1.0000   1.0000   1.0000   1.0000   1.0000   1.0000   1.0000   1.0000
     1.0000   1.0000   1.0000   1.0000   1.0000   1.0000   1.0000   1.0000
     1.0000   1.0000   1.0000   1.0000   1.0000   1.0000   1.0000   1.0000
     1.0000   1.0000   1.0000   1.0000   1.0000   1.0000   1.0000   1.0000
     1.0000   1.0000   1.0000   1.0000   1.0000   1.0000   1.0000   1.0000
     1.0000   1.0000   1.0000   1.0000   1.0000   1.0000   1.0000   1.0000
     1.0000   1.0000   1.0000   1.0000   1.0000   1.0000   1.0000   1.0000
     1.0000   1.0000   1.0000   1.0000   1.0000   1.0000   1.0000   1.0000
     1.0000   1.0000   1.0000   1.0000   1.0000   1.0000   1.0000   1.0000
     1.0000   1.0000   1.0000   1.0000   1.0000   1.0000   1.0000   1.0000
     1.0000   1.0000   1.0000   1.0000   1.0000   1.0000   1.0000   1.0000
     1.0000   1.0000   1.0000   1.0000   1.0000   1.0000   1.0000   1.0000
     1.0000   1.0000   1.0000   1.0000   1.0000   1.0000   1.0000   1.0000
     1.0000   1.0000   1.0000   1.0000   1.0000   1.0000   1.0000   1.0000

          k = 0.0000-0.0001 0.2686 ( 45197 PWs)   bands (ev):

  -115.4000-115.3964-115.3929-115.3916-115.3897-115.3877-115.3855-115.3849
  -115.3825-115.3823-115.3773-115.3772-115.3743-115.3742-115.3716-115.3715
  -115.3712-115.3705-115.3690-115.3687-115.3687-115.3670-115.3652-115.3614
   -69.7597 -69.7566 -69.7559 -69.7550 -69.7523 -69.7516 -69.7513 -69.7510
   -69.7497 -69.7485 -69.7482 -69.7472 -69.7470 -69.7456 -69.7455 -69.7454
   -69.7436 -69.7431 -69.7428 -69.7420 -69.7418 -69.7417 -69.7398 -69.7388
   -69.7380 -69.7378 -69.7376 -69.7376 -69.7367 -69.7366 -69.7364 -69.7358
   -69.7352 -69.7350 -69.7345 -69.7334 -69.7333 -69.7326 -69.7322 -69.7317
   -69.7308 -69.7304 -69.7302 -69.7299 -69.7297 -69.7284 -69.7280 -69.7280
   -69.7274 -69.7273 -69.7271 -69.7271 -69.7269 -69.7260 -69.7250 -69.7248
   -69.7247 -69.7245 -69.7243 -69.7241 -69.7240 -69.7232 -69.7232 -69.7231
   -69.7230 -69.7223 -69.7216 -69.7212 -69.7196 -69.7182 -69.7168 -69.7140
   -64.8520 -64.8476 -64.8446 -64.8425 -64.8379 -64.8293 -64.8281 -64.8192
   -64.8154 -64.8145 -64.8118 -64.8106 -31.8459 -31.8394 -31.8385 -31.8372
   -31.8370 -31.8347 -31.8340 -31.8323 -31.8318 -31.8304 -31.8292 -31.8270
   -31.8267 -31.8236 -31.8220 -31.8207 -31.8177 -31.8172 -31.8139 -31.8130
   -31.8127 -31.8123 -31.8079 -31.8062 -31.8044 -31.8038 -31.8017 -31.8013
   -31.8003 -31.7995 -31.7989 -31.7987 -31.7978 -31.7937 -31.7905 -31.7886
   -10.0361  -9.8557  -9.6504  -9.6252  -9.6041  -9.5815  -9.5428  -9.5043
    -9.4815  -9.4549  -9.4267  -9.4174  -9.4139  -9.3642  -9.3389  -9.3255
    -9.3105  -9.2909  -9.2604  -9.2362  -9.2066  -9.1862  -9.1642  -9.1476
    -9.1218  -9.1149  -9.1077  -9.0939  -9.0754  -9.0583  -9.0496  -9.0438
    -9.0293  -9.0073  -9.0006  -8.8996   1.7387   1.7649   1.7807   1.7942
     1.8103   1.8275   1.8589   1.8813   1.9064   1.9201   1.9289   1.9506
     1.9744   1.9993   2.0171   2.0363   2.0488   2.0946   2.1004   2.1162
     2.1300   2.1430   2.1628   2.1733   2.1801   2.1929   2.2090   2.2111
     2.2370   2.2551   2.2656   2.2831   2.2933   2.2962   2.3059   2.3264
     2.3361   2.3452   2.3543   2.3620   2.3783   2.3856   2.3971   2.4066
     2.4212   2.4310   2.4356   2.4486   2.4521   2.4597   2.4752   2.4846
     2.4943   2.5066   2.5246   2.5273   2.5454   2.5686   2.5919   2.6147
     2.6276   2.6319   2.6424   2.6550   2.6750   2.6815   2.6995   2.7377
     2.7416   2.7607   2.7800   2.7959   2.8200   2.8351   2.8530   2.8613
     2.8798   2.8955   2.9074   2.9144   2.9414   2.9457   2.9719   2.9933
     3.0131   3.0331   3.0477   3.0720   3.0808   3.0989   3.1030   3.1263
     3.1398   3.1490   3.1788   3.1902   3.2048   3.2210   3.2253   3.2358
     3.2461   3.2648   3.2749   3.2816   3.2870   3.2925   3.3082   3.3106
     3.3170   3.3278   3.3349   3.3487   3.3607   3.3741   3.3877   3.3963
     3.4097   3.4225   3.4415   3.4694   3.5978   3.6309   3.6790   3.7340
     3.7556   3.8027   3.8189   3.8417   3.8721   3.9012   3.9339   3.9626
     3.9686   3.9879   4.0207   4.0434   4.0676   4.0996   4.1773   4.2475
     4.2564   4.2809   4.3183   4.3826   4.4008   4.4390   4.4591   4.5263
     4.5474   4.5728   4.5941   4.6498   4.6798   4.7285   4.7754   4.8034
     4.8378   4.8986   5.0876   5.1295   5.1660   5.1987   5.2253   5.2837
     5.3191   5.3791   5.4522   5.4885   5.5329   5.5674   5.5956   5.6358
     5.6576   5.6707   5.6907   5.7363   5.7756   5.8035   5.8108   5.8427
     5.8536   5.8865   5.8933   5.9060   5.9427   5.9947   6.0464   6.0571
     6.0859   6.1209   6.1445   6.1867   6.2110   6.2634   6.2907   6.3707
     6.3957   6.4396   6.4602   6.4718   6.5002   6.5242   6.5490   6.5600
     6.5965   6.6138   6.6440   6.6619   6.6904   6.7197   6.7318   6.7438
     6.7727   6.8076   6.8145   6.8440   6.8555   6.8768   6.9028   6.9255
     6.9755   6.9896   7.0176   7.0968   7.1910   7.2218   7.3794   7.4292

     occupation numbers 
     1.0000   1.0000   1.0000   1.0000   1.0000   1.0000   1.0000   1.0000
     1.0000   1.0000   1.0000   1.0000   1.0000   1.0000   1.0000   1.0000
     1.0000   1.0000   1.0000   1.0000   1.0000   1.0000   1.0000   1.0000
     1.0000   1.0000   1.0000   1.0000   1.0000   1.0000   1.0000   1.0000
     1.0000   1.0000   1.0000   1.0000   1.0000   1.0000   1.0000   1.0000
     1.0000   1.0000   1.0000   1.0000   1.0000   1.0000   1.0000   1.0000
     1.0000   1.0000   1.0000   1.0000   1.0000   1.0000   1.0000   1.0000
     1.0000   1.0000   1.0000   1.0000   1.0000   1.0000   1.0000   1.0000
     1.0000   1.0000   1.0000   1.0000   1.0000   1.0000   1.0000   1.0000
     1.0000   1.0000   1.0000   1.0000   1.0000   1.0000   1.0000   1.0000
     1.0000   1.0000   1.0000   1.0000   1.0000   1.0000   1.0000   1.0000
     1.0000   1.0000   1.0000   1.0000   1.0000   1.0000   1.0000   1.0000
     1.0000   1.0000   1.0000   1.0000   1.0000   1.0000   1.0000   1.0000
     1.0000   1.0000   1.0000   1.0000   1.0000   1.0000   1.0000   1.0000
     1.0000   1.0000   1.0000   1.0000   1.0000   1.0000   1.0000   1.0000
     1.0000   1.0000   1.0000   1.0000   1.0000   1.0000   1.0000   1.0000
     1.0000   1.0000   1.0000   1.0000   1.0000   1.0000   1.0000   1.0000
     1.0000   1.0000   1.0000   1.0000   1.0000   1.0000   1.0000   1.0000
     1.0000   1.0000   1.0000   1.0000   1.0000   1.0000   1.0000   1.0000
     1.0000   1.0000   1.0000   1.0000   1.0000   1.0000   1.0000   1.0000
     1.0000   1.0000   1.0000   1.0000   1.0000   1.0000   1.0000   1.0000
     1.0000   1.0000   1.0000   1.0000   1.0000   1.0000   1.0000   1.0000
     1.0000   1.0000   1.0000   1.0000   1.0000   1.0000   1.0000   1.0000
     1.0000   1.0000   1.0000   1.0000   1.0000   1.0000   1.0000   1.0000
     1.0000   1.0000   1.0000   1.0000   1.0000   1.0000   1.0000   1.0000
     1.0000   1.0000   1.0000   1.0000   1.0000   1.0000   1.0000   1.0000
     1.0000   1.0000   1.0000   1.0000   1.0000   1.0000   1.0000   1.0000
     1.0000   1.0000   1.0000   1.0000   1.0000   1.0000   1.0000   1.0000
     1.0000   1.0000   1.0000   1.0000   1.0000   1.0000   1.0000   1.0000
     1.0000   1.0000   1.0000   1.0000   1.0000   1.0000   1.0000   1.0000
     1.0000   1.0000   1.0000   1.0000   1.0000   1.0000   1.0000   1.0000
     1.0000   1.0000   1.0000   1.0000   1.0000   1.0000   1.0000   1.0000
     1.0000   1.0000   1.0000   1.0000   1.0000   1.0000   1.0000   1.0000
     1.0000   1.0000   1.0000   1.0000   1.0000   1.0000   1.0000   1.0000
     1.0000   1.0000   1.0000   1.0000   1.0000   1.0000   1.0000   1.0000
     1.0000   1.0000   1.0000   1.0000   1.0000   1.0000   1.0000   1.0000
     1.0000   1.0000   1.0000   1.0000   1.0000   1.0000   1.0000   1.0000
     1.0000   1.0000   1.0000   1.0000   1.0000   1.0000   1.0000   1.0000
     1.0000   1.0000   1.0000   1.0000   1.0000   1.0000   1.0000   1.0000
     1.0000   1.0000   1.0000   1.0000   1.0000   1.0000   1.0000   1.0000
     1.0000   1.0000   1.0000   1.0000   1.0000   1.0000   1.0000   1.0000
     1.0000   1.0000   1.0000   1.0000   1.0000   1.0000   1.0000   1.0000
     1.0000   1.0000   1.0000   1.0000   1.0000   1.0000   1.0000   1.0000
     1.0000   1.0000   1.0000   1.0000   1.0000   1.0000   1.0000   1.0000
     1.0000   1.0000   1.0000   1.0000   1.0000   1.0000   1.0000   1.0000
     1.0000   1.0000   1.0000   1.0000   1.0000   1.0000   1.0000   1.0000
     1.0000   1.0000   1.0000   1.0000   1.0000   1.0000   1.0000   1.0000
     1.0000   1.0000   1.0000   1.0000   1.0000   1.0000   1.0000   1.0000
     1.0000   1.0000   1.0000   1.0000   1.0000   1.0000   1.0000   1.0000
     1.0000   1.0000   1.0000   1.0000   1.0000   1.0000   1.0000   1.0000
     1.0000   1.0000   1.0000   1.0000   1.0000   1.0000   1.0000   1.0000

          k = 0.0000-0.0001 0.4028 ( 45202 PWs)   bands (ev):

  -115.4000-115.3964-115.3929-115.3916-115.3897-115.3877-115.3855-115.3849
  -115.3825-115.3823-115.3773-115.3772-115.3743-115.3742-115.3716-115.3715
  -115.3712-115.3705-115.3690-115.3687-115.3687-115.3670-115.3652-115.3614
   -69.7597 -69.7566 -69.7559 -69.7550 -69.7523 -69.7516 -69.7513 -69.7510
   -69.7497 -69.7485 -69.7482 -69.7472 -69.7470 -69.7456 -69.7455 -69.7454
   -69.7436 -69.7431 -69.7428 -69.7420 -69.7418 -69.7417 -69.7398 -69.7388
   -69.7380 -69.7378 -69.7376 -69.7376 -69.7367 -69.7366 -69.7364 -69.7358
   -69.7352 -69.7350 -69.7345 -69.7334 -69.7333 -69.7326 -69.7322 -69.7317
   -69.7308 -69.7304 -69.7302 -69.7299 -69.7297 -69.7284 -69.7280 -69.7279
   -69.7274 -69.7273 -69.7271 -69.7271 -69.7269 -69.7260 -69.7250 -69.7248
   -69.7247 -69.7245 -69.7243 -69.7241 -69.7240 -69.7232 -69.7232 -69.7231
   -69.7230 -69.7223 -69.7216 -69.7212 -69.7196 -69.7182 -69.7168 -69.7140
   -64.8520 -64.8476 -64.8446 -64.8425 -64.8379 -64.8293 -64.8281 -64.8192
   -64.8154 -64.8145 -64.8118 -64.8106 -31.8459 -31.8394 -31.8385 -31.8372
   -31.8369 -31.8348 -31.8340 -31.8323 -31.8318 -31.8304 -31.8292 -31.8270
   -31.8267 -31.8236 -31.8220 -31.8207 -31.8177 -31.8172 -31.8139 -31.8130
   -31.8127 -31.8123 -31.8079 -31.8062 -31.8044 -31.8039 -31.8017 -31.8013
   -31.8003 -31.7995 -31.7989 -31.7987 -31.7978 -31.7937 -31.7905 -31.7886
   -10.0061  -9.9093  -9.6367  -9.6137  -9.5929  -9.5811  -9.5329  -9.5062
    -9.4887  -9.4689  -9.4382  -9.4090  -9.3965  -9.3742  -9.3563  -9.3457
    -9.3106  -9.2925  -9.2459  -9.2353  -9.1963  -9.1836  -9.1615  -9.1347
    -9.1216  -9.1123  -9.0962  -9.0897  -9.0773  -9.0541  -9.0474  -9.0415
    -9.0304  -9.0211  -9.0176  -8.9019   1.7499   1.7737   1.7956   1.8119
     1.8247   1.8431   1.8648   1.8765   1.9029   1.9188   1.9576   1.9766
     1.9930   2.0037   2.0319   2.0462   2.0606   2.0939   2.1076   2.1152
     2.1209   2.1298   2.1502   2.1716   2.1778   2.1837   2.1917   2.2041
     2.2290   2.2433   2.2618   2.2742   2.2909   2.2994   2.3043   2.3205
     2.3336   2.3454   2.3555   2.3654   2.3786   2.3852   2.3958   2.4064
     2.4215   2.4330   2.4429   2.4537   2.4581   2.4699   2.4835   2.4939
     2.5028   2.5132   2.5181   2.5274   2.5309   2.5583   2.5714   2.5825
     2.5922   2.6093   2.6172   2.6289   2.6532   2.6667   2.6846   2.7250
     2.7349   2.7433   2.7632   2.7924   2.8097   2.8233   2.8434   2.8518
     2.8679   2.8778   2.8927   2.9154   2.9315   2.9436   2.9640   2.9920
     3.0082   3.0168   3.0446   3.0554   3.0790   3.0966   3.1022   3.1209
     3.1433   3.1531   3.1753   3.1988   3.2050   3.2248   3.2314   3.2433
     3.2473   3.2679   3.2757   3.2828   3.2897   3.2947   3.3090   3.3130
     3.3214   3.3315   3.3442   3.3473   3.3614   3.3755   3.3843   3.3974
     3.4045   3.4189   3.4469   3.4660   3.6225   3.6776   3.6928   3.7336
     3.7850   3.8251   3.8579   3.8696   3.8813   3.9091   3.9302   3.9766
     3.9974   4.0144   4.0570   4.0748   4.0950   4.1254   4.1658   4.2007
     4.2314   4.2549   4.2954   4.3365   4.3494   4.4547   4.4925   4.5078
     4.5487   4.6279   4.6528   4.7298   4.7643   4.7825   4.8026   4.8321
     4.8582   4.8991   5.1186   5.1617   5.1833   5.2106   5.2463   5.3079
     5.3340   5.3549   5.4028   5.4194   5.4600   5.4686   5.4899   5.5124
     5.5739   5.6094   5.6661   5.7803   5.7849   5.8149   5.8362   5.8655
     5.8971   5.9169   5.9313   5.9480   5.9779   5.9952   6.0059   6.0297
     6.0410   6.0575   6.0798   6.1186   6.1340   6.1563   6.3414   6.3839
     6.4047   6.4435   6.4642   6.5036   6.5297   6.5417   6.5724   6.5969
     6.6338   6.6407   6.6682   6.6921   6.7199   6.7511   6.7609   6.7708
     6.8036   6.8144   6.8359   6.8507   6.8796   6.8879   6.8997   6.9149
     6.9286   6.9510   6.9630   6.9980   7.2248   7.2564   7.3651   7.4129

     occupation numbers 
     1.0000   1.0000   1.0000   1.0000   1.0000   1.0000   1.0000   1.0000
     1.0000   1.0000   1.0000   1.0000   1.0000   1.0000   1.0000   1.0000
     1.0000   1.0000   1.0000   1.0000   1.0000   1.0000   1.0000   1.0000
     1.0000   1.0000   1.0000   1.0000   1.0000   1.0000   1.0000   1.0000
     1.0000   1.0000   1.0000   1.0000   1.0000   1.0000   1.0000   1.0000
     1.0000   1.0000   1.0000   1.0000   1.0000   1.0000   1.0000   1.0000
     1.0000   1.0000   1.0000   1.0000   1.0000   1.0000   1.0000   1.0000
     1.0000   1.0000   1.0000   1.0000   1.0000   1.0000   1.0000   1.0000
     1.0000   1.0000   1.0000   1.0000   1.0000   1.0000   1.0000   1.0000
     1.0000   1.0000   1.0000   1.0000   1.0000   1.0000   1.0000   1.0000
     1.0000   1.0000   1.0000   1.0000   1.0000   1.0000   1.0000   1.0000
     1.0000   1.0000   1.0000   1.0000   1.0000   1.0000   1.0000   1.0000
     1.0000   1.0000   1.0000   1.0000   1.0000   1.0000   1.0000   1.0000
     1.0000   1.0000   1.0000   1.0000   1.0000   1.0000   1.0000   1.0000
     1.0000   1.0000   1.0000   1.0000   1.0000   1.0000   1.0000   1.0000
     1.0000   1.0000   1.0000   1.0000   1.0000   1.0000   1.0000   1.0000
     1.0000   1.0000   1.0000   1.0000   1.0000   1.0000   1.0000   1.0000
     1.0000   1.0000   1.0000   1.0000   1.0000   1.0000   1.0000   1.0000
     1.0000   1.0000   1.0000   1.0000   1.0000   1.0000   1.0000   1.0000
     1.0000   1.0000   1.0000   1.0000   1.0000   1.0000   1.0000   1.0000
     1.0000   1.0000   1.0000   1.0000   1.0000   1.0000   1.0000   1.0000
     1.0000   1.0000   1.0000   1.0000   1.0000   1.0000   1.0000   1.0000
     1.0000   1.0000   1.0000   1.0000   1.0000   1.0000   1.0000   1.0000
     1.0000   1.0000   1.0000   1.0000   1.0000   1.0000   1.0000   1.0000
     1.0000   1.0000   1.0000   1.0000   1.0000   1.0000   1.0000   1.0000
     1.0000   1.0000   1.0000   1.0000   1.0000   1.0000   1.0000   1.0000
     1.0000   1.0000   1.0000   1.0000   1.0000   1.0000   1.0000   1.0000
     1.0000   1.0000   1.0000   1.0000   1.0000   1.0000   1.0000   1.0000
     1.0000   1.0000   1.0000   1.0000   1.0000   1.0000   1.0000   1.0000
     1.0000   1.0000   1.0000   1.0000   1.0000   1.0000   1.0000   1.0000
     1.0000   1.0000   1.0000   1.0000   1.0000   1.0000   1.0000   1.0000
     1.0000   1.0000   1.0000   1.0000   1.0000   1.0000   1.0000   1.0000
     1.0000   1.0000   1.0000   1.0000   1.0000   1.0000   1.0000   1.0000
     1.0000   1.0000   1.0000   1.0000   1.0000   1.0000   1.0000   1.0000
     1.0000   1.0000   1.0000   1.0000   1.0000   1.0000   1.0000   1.0000
     1.0000   1.0000   1.0000   1.0000   1.0000   1.0000   1.0000   1.0000
     1.0000   1.0000   1.0000   1.0000   1.0000   1.0000   1.0000   1.0000
     1.0000   1.0000   1.0000   1.0000   1.0000   1.0000   1.0000   1.0000
     1.0000   1.0000   1.0000   1.0000   1.0000   1.0000   1.0000   1.0000
     1.0000   1.0000   1.0000   1.0000   1.0000   1.0000   1.0000   1.0000
     1.0000   1.0000   1.0000   1.0000   1.0000   1.0000   1.0000   1.0000
     1.0000   1.0000   1.0000   1.0000   1.0000   1.0000   1.0000   1.0000
     1.0000   1.0000   1.0000   1.0000   1.0000   1.0000   1.0000   1.0000
     1.0000   1.0000   1.0000   1.0000   1.0000   1.0000   1.0000   1.0000
     1.0000   1.0000   1.0000   1.0000   1.0000   1.0000   1.0000   1.0000
     1.0000   1.0000   1.0000   1.0000   1.0000   1.0000   1.0000   1.0000
     1.0000   1.0000   1.0000   1.0000   1.0000   1.0000   1.0000   1.0000
     1.0000   1.0000   1.0000   1.0000   1.0000   1.0000   1.0000   1.0000
     1.0000   1.0000   1.0000   1.0000   1.0000   1.0000   1.0000   1.0000
     1.0000   1.0000   1.0000   1.0000   1.0000   1.0000   1.0000   1.0000
     1.0000   1.0000   1.0000   1.0000   1.0000   1.0000   1.0000   1.0000

          k = 0.0000-0.0002 0.5371 ( 45202 PWs)   bands (ev):

  -115.4000-115.3964-115.3929-115.3916-115.3897-115.3877-115.3855-115.3849
  -115.3825-115.3823-115.3773-115.3772-115.3743-115.3742-115.3716-115.3715
  -115.3712-115.3705-115.3690-115.3687-115.3687-115.3670-115.3652-115.3614
   -69.7597 -69.7566 -69.7559 -69.7550 -69.7523 -69.7516 -69.7513 -69.7510
   -69.7497 -69.7485 -69.7482 -69.7472 -69.7470 -69.7456 -69.7455 -69.7454
   -69.7436 -69.7431 -69.7428 -69.7420 -69.7418 -69.7417 -69.7398 -69.7388
   -69.7380 -69.7378 -69.7376 -69.7376 -69.7367 -69.7366 -69.7364 -69.7358
   -69.7352 -69.7350 -69.7345 -69.7334 -69.7333 -69.7326 -69.7322 -69.7317
   -69.7308 -69.7304 -69.7302 -69.7299 -69.7297 -69.7284 -69.7280 -69.7279
   -69.7274 -69.7273 -69.7271 -69.7271 -69.7269 -69.7260 -69.7250 -69.7248
   -69.7247 -69.7245 -69.7243 -69.7241 -69.7240 -69.7232 -69.7232 -69.7231
   -69.7230 -69.7223 -69.7216 -69.7212 -69.7196 -69.7182 -69.7168 -69.7140
   -64.8520 -64.8476 -64.8446 -64.8425 -64.8379 -64.8293 -64.8281 -64.8192
   -64.8154 -64.8145 -64.8118 -64.8106 -31.8459 -31.8394 -31.8385 -31.8372
   -31.8369 -31.8348 -31.8340 -31.8323 -31.8318 -31.8304 -31.8292 -31.8270
   -31.8267 -31.8236 -31.8220 -31.8207 -31.8177 -31.8172 -31.8139 -31.8130
   -31.8127 -31.8123 -31.8079 -31.8062 -31.8044 -31.8039 -31.8017 -31.8013
   -31.8003 -31.7995 -31.7989 -31.7987 -31.7978 -31.7937 -31.7905 -31.7886
   -10.0061  -9.9093  -9.6367  -9.6137  -9.5929  -9.5811  -9.5329  -9.5062
    -9.4887  -9.4689  -9.4382  -9.4090  -9.3965  -9.3742  -9.3563  -9.3457
    -9.3106  -9.2925  -9.2459  -9.2353  -9.1963  -9.1836  -9.1615  -9.1347
    -9.1216  -9.1123  -9.0962  -9.0897  -9.0773  -9.0541  -9.0474  -9.0415
    -9.0304  -9.0211  -9.0176  -8.9019   1.7499   1.7737   1.7956   1.8119
     1.8247   1.8431   1.8648   1.8765   1.9029   1.9188   1.9576   1.9766
     1.9930   2.0037   2.0319   2.0462   2.0606   2.0939   2.1076   2.1152
     2.1209   2.1298   2.1502   2.1716   2.1778   2.1837   2.1917   2.2041
     2.2290   2.2433   2.2618   2.2742   2.2909   2.2994   2.3043   2.3205
     2.3336   2.3454   2.3555   2.3654   2.3786   2.3852   2.3958   2.4064
     2.4215   2.4330   2.4429   2.4537   2.4581   2.4699   2.4835   2.4939
     2.5028   2.5132   2.5181   2.5274   2.5309   2.5583   2.5714   2.5825
     2.5922   2.6093   2.6172   2.6289   2.6532   2.6667   2.6846   2.7250
     2.7349   2.7433   2.7632   2.7924   2.8097   2.8233   2.8434   2.8518
     2.8679   2.8778   2.8927   2.9154   2.9315   2.9436   2.9640   2.9920
     3.0082   3.0168   3.0446   3.0554   3.0790   3.0966   3.1022   3.1209
     3.1433   3.1531   3.1753   3.1988   3.2050   3.2248   3.2314   3.2433
     3.2473   3.2679   3.2757   3.2828   3.2897   3.2947   3.3090   3.3130
     3.3214   3.3315   3.3442   3.3473   3.3614   3.3755   3.3843   3.3974
     3.4045   3.4189   3.4469   3.4660   3.6225   3.6776   3.6928   3.7336
     3.7850   3.8251   3.8579   3.8696   3.8813   3.9091   3.9302   3.9766
     3.9974   4.0144   4.0570   4.0748   4.0950   4.1254   4.1658   4.2007
     4.2314   4.2549   4.2954   4.3365   4.3494   4.4547   4.4925   4.5078
     4.5487   4.6279   4.6528   4.7298   4.7643   4.7825   4.8026   4.8321
     4.8582   4.8991   5.1186   5.1617   5.1833   5.2106   5.2463   5.3079
     5.3340   5.3549   5.4028   5.4194   5.4600   5.4686   5.4899   5.5124
     5.5739   5.6094   5.6661   5.7803   5.7849   5.8149   5.8362   5.8655
     5.8971   5.9169   5.9313   5.9480   5.9779   5.9952   6.0059   6.0297
     6.0410   6.0575   6.0798   6.1186   6.1340   6.1563   6.3414   6.3839
     6.4047   6.4435   6.4642   6.5036   6.5297   6.5417   6.5724   6.5969
     6.6338   6.6407   6.6682   6.6921   6.7199   6.7511   6.7609   6.7708
     6.8036   6.8144   6.8359   6.8507   6.8796   6.8879   6.8997   6.9149
     6.9286   6.9510   6.9630   6.9980   7.2248   7.2564   7.3651   7.4129

     occupation numbers 
     1.0000   1.0000   1.0000   1.0000   1.0000   1.0000   1.0000   1.0000
     1.0000   1.0000   1.0000   1.0000   1.0000   1.0000   1.0000   1.0000
     1.0000   1.0000   1.0000   1.0000   1.0000   1.0000   1.0000   1.0000
     1.0000   1.0000   1.0000   1.0000   1.0000   1.0000   1.0000   1.0000
     1.0000   1.0000   1.0000   1.0000   1.0000   1.0000   1.0000   1.0000
     1.0000   1.0000   1.0000   1.0000   1.0000   1.0000   1.0000   1.0000
     1.0000   1.0000   1.0000   1.0000   1.0000   1.0000   1.0000   1.0000
     1.0000   1.0000   1.0000   1.0000   1.0000   1.0000   1.0000   1.0000
     1.0000   1.0000   1.0000   1.0000   1.0000   1.0000   1.0000   1.0000
     1.0000   1.0000   1.0000   1.0000   1.0000   1.0000   1.0000   1.0000
     1.0000   1.0000   1.0000   1.0000   1.0000   1.0000   1.0000   1.0000
     1.0000   1.0000   1.0000   1.0000   1.0000   1.0000   1.0000   1.0000
     1.0000   1.0000   1.0000   1.0000   1.0000   1.0000   1.0000   1.0000
     1.0000   1.0000   1.0000   1.0000   1.0000   1.0000   1.0000   1.0000
     1.0000   1.0000   1.0000   1.0000   1.0000   1.0000   1.0000   1.0000
     1.0000   1.0000   1.0000   1.0000   1.0000   1.0000   1.0000   1.0000
     1.0000   1.0000   1.0000   1.0000   1.0000   1.0000   1.0000   1.0000
     1.0000   1.0000   1.0000   1.0000   1.0000   1.0000   1.0000   1.0000
     1.0000   1.0000   1.0000   1.0000   1.0000   1.0000   1.0000   1.0000
     1.0000   1.0000   1.0000   1.0000   1.0000   1.0000   1.0000   1.0000
     1.0000   1.0000   1.0000   1.0000   1.0000   1.0000   1.0000   1.0000
     1.0000   1.0000   1.0000   1.0000   1.0000   1.0000   1.0000   1.0000
     1.0000   1.0000   1.0000   1.0000   1.0000   1.0000   1.0000   1.0000
     1.0000   1.0000   1.0000   1.0000   1.0000   1.0000   1.0000   1.0000
     1.0000   1.0000   1.0000   1.0000   1.0000   1.0000   1.0000   1.0000
     1.0000   1.0000   1.0000   1.0000   1.0000   1.0000   1.0000   1.0000
     1.0000   1.0000   1.0000   1.0000   1.0000   1.0000   1.0000   1.0000
     1.0000   1.0000   1.0000   1.0000   1.0000   1.0000   1.0000   1.0000
     1.0000   1.0000   1.0000   1.0000   1.0000   1.0000   1.0000   1.0000
     1.0000   1.0000   1.0000   1.0000   1.0000   1.0000   1.0000   1.0000
     1.0000   1.0000   1.0000   1.0000   1.0000   1.0000   1.0000   1.0000
     1.0000   1.0000   1.0000   1.0000   1.0000   1.0000   1.0000   1.0000
     1.0000   1.0000   1.0000   1.0000   1.0000   1.0000   1.0000   1.0000
     1.0000   1.0000   1.0000   1.0000   1.0000   1.0000   1.0000   1.0000
     1.0000   1.0000   1.0000   1.0000   1.0000   1.0000   1.0000   1.0000
     1.0000   1.0000   1.0000   1.0000   1.0000   1.0000   1.0000   1.0000
     1.0000   1.0000   1.0000   1.0000   1.0000   1.0000   1.0000   1.0000
     1.0000   1.0000   1.0000   1.0000   1.0000   1.0000   1.0000   1.0000
     1.0000   1.0000   1.0000   1.0000   1.0000   1.0000   1.0000   1.0000
     1.0000   1.0000   1.0000   1.0000   1.0000   1.0000   1.0000   1.0000
     1.0000   1.0000   1.0000   1.0000   1.0000   1.0000   1.0000   1.0000
     1.0000   1.0000   1.0000   1.0000   1.0000   1.0000   1.0000   1.0000
     1.0000   1.0000   1.0000   1.0000   1.0000   1.0000   1.0000   1.0000
     1.0000   1.0000   1.0000   1.0000   1.0000   1.0000   1.0000   1.0000
     1.0000   1.0000   1.0000   1.0000   1.0000   1.0000   1.0000   1.0000
     1.0000   1.0000   1.0000   1.0000   1.0000   1.0000   1.0000   1.0000
     1.0000   1.0000   1.0000   1.0000   1.0000   1.0000   1.0000   1.0000
     1.0000   1.0000   1.0000   1.0000   1.0000   1.0000   1.0000   1.0000
     1.0000   1.0000   1.0000   1.0000   1.0000   1.0000   1.0000   1.0000
     1.0000   1.0000   1.0000   1.0000   1.0000   1.0000   1.0000   1.0000
     1.0000   1.0000   1.0000   1.0000   1.0000   1.0000   1.0000   1.0000

          k = 0.0000-0.0002 0.6714 ( 45197 PWs)   bands (ev):

  -115.4000-115.3964-115.3929-115.3916-115.3897-115.3877-115.3855-115.3849
  -115.3825-115.3823-115.3773-115.3772-115.3743-115.3742-115.3716-115.3715
  -115.3712-115.3705-115.3690-115.3687-115.3687-115.3670-115.3652-115.3614
   -69.7597 -69.7566 -69.7559 -69.7550 -69.7523 -69.7516 -69.7513 -69.7510
   -69.7497 -69.7485 -69.7482 -69.7472 -69.7470 -69.7456 -69.7455 -69.7454
   -69.7436 -69.7431 -69.7428 -69.7420 -69.7418 -69.7417 -69.7398 -69.7388
   -69.7380 -69.7378 -69.7376 -69.7376 -69.7367 -69.7366 -69.7364 -69.7358
   -69.7352 -69.7350 -69.7345 -69.7334 -69.7333 -69.7326 -69.7322 -69.7317
   -69.7308 -69.7304 -69.7302 -69.7299 -69.7297 -69.7284 -69.7280 -69.7280
   -69.7274 -69.7273 -69.7271 -69.7271 -69.7269 -69.7260 -69.7250 -69.7248
   -69.7247 -69.7245 -69.7243 -69.7241 -69.7240 -69.7232 -69.7232 -69.7231
   -69.7230 -69.7223 -69.7216 -69.7212 -69.7196 -69.7182 -69.7168 -69.7140
   -64.8520 -64.8476 -64.8446 -64.8425 -64.8379 -64.8293 -64.8281 -64.8192
   -64.8154 -64.8145 -64.8118 -64.8106 -31.8459 -31.8394 -31.8385 -31.8372
   -31.8370 -31.8347 -31.8340 -31.8323 -31.8318 -31.8304 -31.8292 -31.8270
   -31.8267 -31.8236 -31.8220 -31.8207 -31.8177 -31.8172 -31.8139 -31.8130
   -31.8127 -31.8123 -31.8079 -31.8062 -31.8044 -31.8038 -31.8017 -31.8013
   -31.8003 -31.7995 -31.7989 -31.7987 -31.7978 -31.7937 -31.7905 -31.7886
   -10.0361  -9.8557  -9.6504  -9.6252  -9.6041  -9.5815  -9.5428  -9.5043
    -9.4815  -9.4549  -9.4267  -9.4174  -9.4139  -9.3642  -9.3389  -9.3255
    -9.3105  -9.2909  -9.2604  -9.2362  -9.2066  -9.1862  -9.1642  -9.1476
    -9.1218  -9.1149  -9.1077  -9.0939  -9.0754  -9.0583  -9.0496  -9.0438
    -9.0293  -9.0073  -9.0006  -8.8996   1.7387   1.7649   1.7807   1.7942
     1.8103   1.8275   1.8589   1.8813   1.9064   1.9201   1.9289   1.9506
     1.9744   1.9993   2.0171   2.0363   2.0488   2.0946   2.1004   2.1162
     2.1300   2.1430   2.1628   2.1733   2.1801   2.1929   2.2090   2.2111
     2.2370   2.2551   2.2656   2.2831   2.2933   2.2962   2.3059   2.3264
     2.3361   2.3452   2.3543   2.3620   2.3783   2.3856   2.3971   2.4066
     2.4212   2.4310   2.4356   2.4486   2.4521   2.4597   2.4752   2.4846
     2.4943   2.5066   2.5246   2.5273   2.5454   2.5686   2.5919   2.6147
     2.6276   2.6319   2.6424   2.6550   2.6750   2.6815   2.6995   2.7377
     2.7416   2.7607   2.7800   2.7959   2.8200   2.8351   2.8530   2.8613
     2.8798   2.8955   2.9074   2.9144   2.9414   2.9457   2.9719   2.9933
     3.0131   3.0331   3.0477   3.0720   3.0808   3.0989   3.1030   3.1263
     3.1398   3.1490   3.1788   3.1902   3.2048   3.2210   3.2253   3.2358
     3.2461   3.2648   3.2749   3.2816   3.2870   3.2925   3.3082   3.3106
     3.3170   3.3278   3.3349   3.3487   3.3607   3.3741   3.3877   3.3963
     3.4097   3.4225   3.4415   3.4694   3.5978   3.6309   3.6790   3.7340
     3.7556   3.8027   3.8189   3.8417   3.8721   3.9012   3.9339   3.9626
     3.9686   3.9879   4.0207   4.0434   4.0676   4.0996   4.1773   4.2475
     4.2564   4.2809   4.3183   4.3826   4.4008   4.4390   4.4591   4.5263
     4.5474   4.5728   4.5941   4.6498   4.6798   4.7285   4.7754   4.8034
     4.8378   4.8986   5.0876   5.1295   5.1660   5.1987   5.2253   5.2837
     5.3191   5.3791   5.4522   5.4885   5.5329   5.5674   5.5956   5.6358
     5.6576   5.6707   5.6907   5.7363   5.7756   5.8035   5.8108   5.8427
     5.8536   5.8865   5.8933   5.9060   5.9427   5.9947   6.0464   6.0571
     6.0859   6.1209   6.1445   6.1867   6.2110   6.2634   6.2907   6.3707
     6.3957   6.4396   6.4602   6.4718   6.5002   6.5242   6.5490   6.5600
     6.5965   6.6138   6.6440   6.6619   6.6904   6.7197   6.7318   6.7438
     6.7727   6.8076   6.8145   6.8440   6.8555   6.8768   6.9028   6.9255
     6.9755   6.9896   7.0176   7.0968   7.1910   7.2218   7.3794   7.4292

     occupation numbers 
     1.0000   1.0000   1.0000   1.0000   1.0000   1.0000   1.0000   1.0000
     1.0000   1.0000   1.0000   1.0000   1.0000   1.0000   1.0000   1.0000
     1.0000   1.0000   1.0000   1.0000   1.0000   1.0000   1.0000   1.0000
[...]
   -31.8267 -31.8238 -31.8220 -31.8208 -31.8193 -31.8173 -31.8139 -31.8131
   -31.8126 -31.8123 -31.8064 -31.8061 -31.8043 -31.8037 -31.8016 -31.8014
   -31.7999 -31.7994 -31.7988 -31.7978 -31.7970 -31.7943 -31.7904 -31.7903
    -9.9506  -9.9010  -9.7041  -9.6652  -9.6074  -9.5809  -9.5655  -9.5544
    -9.4680  -9.4515  -9.4260  -9.3930  -9.3734  -9.3476  -9.3179  -9.3039
    -9.3007  -9.2701  -9.2590  -9.2429  -9.1940  -9.1887  -9.1752  -9.1705
    -9.1429  -9.1277  -9.1131  -9.0985  -9.0842  -9.0642  -9.0525  -9.0406
    -9.0154  -9.0016  -8.9829  -8.8903   1.7517   1.7636   1.8131   1.8230
     1.8459   1.8600   1.8748   1.8894   1.9110   1.9322   1.9575   1.9742
     1.9837   2.0033   2.0142   2.0232   2.0439   2.0633   2.0791   2.1030
     2.1166   2.1414   2.1609   2.1761   2.1965   2.2039   2.2235   2.2307
     2.2416   2.2435   2.2606   2.2798   2.2831   2.2877   2.2940   2.3072
     2.3234   2.3265   2.3346   2.3497   2.3629   2.3773   2.3865   2.3887
     2.4045   2.4123   2.4216   2.4293   2.4354   2.4501   2.4569   2.4600
     2.4780   2.4896   2.5276   2.5360   2.5432   2.5484   2.5534   2.5685
     2.5805   2.6066   2.6252   2.6398   2.6537   2.6672   2.6967   2.7226
     2.7416   2.7617   2.7680   2.7948   2.8345   2.8551   2.8588   2.8702
     2.8900   2.8973   2.9023   2.9273   2.9409   2.9602   2.9766   3.0036
     3.0201   3.0385   3.0505   3.0722   3.0797   3.1052   3.1136   3.1288
     3.1382   3.1568   3.1834   3.1913   3.2150   3.2183   3.2308   3.2463
     3.2601   3.2737   3.2805   3.2867   3.3001   3.3070   3.3102   3.3276
     3.3380   3.3512   3.3573   3.3641   3.3712   3.3876   3.3936   3.4004
     3.4084   3.4384   3.4450   3.4499   3.4742   3.4840   3.5993   3.6109
     3.6656   3.7091   3.7219   3.7376   3.7777   3.8109   3.8433   3.8930
     3.9147   3.9550   3.9955   4.0292   4.0723   4.1481   4.1894   4.2193
     4.2891   4.3233   4.3578   4.3995   4.5791   4.5865   4.6671   4.7344
     4.7480   4.7953   4.8313   4.9044   4.9298   4.9364   4.9707   5.0077
     5.0312   5.0555   5.0978   5.0990   5.1485   5.1743   5.2320   5.2853
     5.2967   5.3243   5.3762   5.4387   5.4754   5.4872   5.5190   5.5825
     5.5977   5.6507   5.6707   5.7815   5.8306   5.8403   5.8699   5.9189
     5.9886   6.0265   6.0346   6.0454   6.0718   6.0781   6.1159   6.1512
     6.1712   6.1729   6.2115   6.2387   6.2650   6.2931   6.3091   6.3207
     6.3460   6.3504   6.3715   6.3882   6.3961   6.4307   6.4339   6.4478
     6.4722   6.4875   6.4971   6.5190   6.5233   6.5558   6.5874   6.6159
     6.6192   6.6517   6.6619   6.7030   6.7813   6.8120   6.8438   6.8578
     6.8702   6.8982   6.9266   6.9457   7.1689   7.1999   7.2647   7.2905

     occupation numbers 
     1.0000   1.0000   1.0000   1.0000   1.0000   1.0000   1.0000   1.0000
     1.0000   1.0000   1.0000   1.0000   1.0000   1.0000   1.0000   1.0000
     1.0000   1.0000   1.0000   1.0000   1.0000   1.0000   1.0000   1.0000
     1.0000   1.0000   1.0000   1.0000   1.0000   1.0000   1.0000   1.0000
     1.0000   1.0000   1.0000   1.0000   1.0000   1.0000   1.0000   1.0000
     1.0000   1.0000   1.0000   1.0000   1.0000   1.0000   1.0000   1.0000
     1.0000   1.0000   1.0000   1.0000   1.0000   1.0000   1.0000   1.0000
     1.0000   1.0000   1.0000   1.0000   1.0000   1.0000   1.0000   1.0000
     1.0000   1.0000   1.0000   1.0000   1.0000   1.0000   1.0000   1.0000
     1.0000   1.0000   1.0000   1.0000   1.0000   1.0000   1.0000   1.0000
     1.0000   1.0000   1.0000   1.0000   1.0000   1.0000   1.0000   1.0000
     1.0000   1.0000   1.0000   1.0000   1.0000   1.0000   1.0000   1.0000
     1.0000   1.0000   1.0000   1.0000   1.0000   1.0000   1.0000   1.0000
     1.0000   1.0000   1.0000   1.0000   1.0000   1.0000   1.0000   1.0000
     1.0000   1.0000   1.0000   1.0000   1.0000   1.0000   1.0000   1.0000
     1.0000   1.0000   1.0000   1.0000   1.0000   1.0000   1.0000   1.0000
     1.0000   1.0000   1.0000   1.0000   1.0000   1.0000   1.0000   1.0000
     1.0000   1.0000   1.0000   1.0000   1.0000   1.0000   1.0000   1.0000
     1.0000   1.0000   1.0000   1.0000   1.0000   1.0000   1.0000   1.0000
     1.0000   1.0000   1.0000   1.0000   1.0000   1.0000   1.0000   1.0000
     1.0000   1.0000   1.0000   1.0000   1.0000   1.0000   1.0000   1.0000
     1.0000   1.0000   1.0000   1.0000   1.0000   1.0000   1.0000   1.0000
     1.0000   1.0000   1.0000   1.0000   1.0000   1.0000   1.0000   1.0000
     1.0000   1.0000   1.0000   1.0000   1.0000   1.0000   1.0000   1.0000
     1.0000   1.0000   1.0000   1.0000   1.0000   1.0000   1.0000   1.0000
     1.0000   1.0000   1.0000   1.0000   1.0000   1.0000   1.0000   1.0000
     1.0000   1.0000   1.0000   1.0000   1.0000   1.0000   1.0000   1.0000
     1.0000   1.0000   1.0000   1.0000   1.0000   1.0000   1.0000   1.0000
     1.0000   1.0000   1.0000   1.0000   1.0000   1.0000   1.0000   1.0000
     1.0000   1.0000   1.0000   1.0000   1.0000   1.0000   1.0000   1.0000
     1.0000   1.0000   1.0000   1.0000   1.0000   1.0000   1.0000   1.0000
     1.0000   1.0000   1.0000   1.0000   1.0000   1.0000   1.0000   1.0000
     1.0000   1.0000   1.0000   1.0000   1.0000   1.0000   1.0000   1.0000
     1.0000   1.0000   1.0000   1.0000   1.0000   1.0000   1.0000   1.0000
     1.0000   1.0000   1.0000   1.0000   1.0000   1.0000   1.0000   1.0000
     1.0000   1.0000   1.0000   1.0000   1.0000   1.0000   1.0000   1.0000
     1.0000   1.0000   1.0000   1.0000   1.0000   1.0000   1.0000   1.0000
     1.0000   1.0000   1.0000   1.0000   1.0000   1.0000   1.0000   1.0000
     1.0000   1.0000   1.0000   1.0000   1.0000   1.0000   1.0000   1.0000
     1.0000   1.0000   1.0000   1.0000   1.0000   1.0000   1.0000   1.0000
     1.0000   1.0000   1.0000   1.0000   1.0000   1.0000   1.0000   1.0000
     1.0000   1.0000   1.0000   1.0000   1.0000   1.0000   1.0000   1.0000
     1.0000   1.0000   1.0000   1.0000   1.0000   1.0000   1.0000   1.0000
     1.0000   1.0000   1.0000   1.0000   1.0000   1.0000   1.0000   1.0000
     1.0000   1.0000   1.0000   1.0000   1.0000   1.0000   1.0000   1.0000
     1.0000   1.0000   1.0000   1.0000   1.0000   1.0000   1.0000   1.0000
     1.0000   1.0000   1.0000   1.0000   1.0000   1.0000   1.0000   1.0000
     1.0000   1.0000   1.0000   1.0000   1.0000   1.0000   1.0000   1.0000
     1.0000   1.0000   1.0000   1.0000   1.0000   1.0000   1.0000   1.0000
     1.0000   1.0000   1.0000   1.0000   1.0000   1.0000   1.0000   1.0000
     1.0000   1.0000   1.0000   1.0000   1.0000   1.0000   1.0000   1.0000

     highest occupied level (ev):     7.4511



               ==================================================
                            POLARIZATION CALCULATION
                         !!! NOT THOROUGHLY TESTED !!!
               --------------------------------------------------


                     K-POINTS STRINGS USED IN CALCULATIONS
                     ~~~~~~~~~~~~~~~~~~~~~~~~~~~~~~~~~~~~~

       G-vector along string (2 pi/a):  0.00003 -0.00026  0.93996
       Modulus of the vector (1/bohr):  0.32058
       Number of k-points per string:   8
       Number of different strings  :  10


                               IONIC POLARIZATION
                               ~~~~~~~~~~~~~~~~~~

        Note: (mod 1) means that the phases (angles ranging from
        -pi to pi) have been mapped to the interval [-1/2,+1/2) by
        dividing by 2*pi; (mod 2) refers to the interval [-1,+1)

  ============================================================================
    Ion    Species    Charge              Position                Phase
  ----------------------------------------------------------------------------
     1        Zn      20.000       0.1666  0.0964  0.2070    -0.10868 (mod 2)
     2        Zn      20.000       0.1669  0.0960  0.7383    -0.12004 (mod 2)
     3        Zn      20.000       0.0009  0.3843  0.2062    -0.12532 (mod 2)
     4        Zn      20.000      -0.0012  0.3861  0.7385    -0.11941 (mod 2)
     5        Zn      20.000      -0.1667  0.6766  0.2058    -0.13464 (mod 2)
     6        Zn      20.000      -0.1681  0.6719  0.7378    -0.13341 (mod 2)
     7        Zn      20.000       0.4991  0.0950  0.2075    -0.09891 (mod 2)
     8        Zn      20.000       0.5001  0.0965  0.7398    -0.09337 (mod 2)
     9        Zn      20.000       0.3329  0.3842  0.2052    -0.14513 (mod 2)
    10        Mg      10.000       0.3334  0.3828  0.7397     0.95234 (mod 2)
    11        Mg      10.000       0.1645  0.6754  0.2067    -0.05928 (mod 2)
    12        Zn      20.000       0.1670  0.6718  0.7364    -0.16001 (mod 2)
    13        Zn      20.000       0.8335  0.0951  0.2059    -0.12954 (mod 2)
    14        Mg      10.000       0.8320  0.0947  0.7405     0.96081 (mod 2)
    15        Zn      20.000       0.6649  0.3833  0.2059    -0.13170 (mod 2)
    16        Mg      10.000       0.6664  0.3844  0.7395     0.95062 (mod 2)
    17        Mg      10.000       0.4992  0.6730  0.2054    -0.07081 (mod 2)
    18        Mg      10.000       0.4980  0.6715  0.7383     0.93771 (mod 2)
    19        Zn      20.000      -0.0014  0.1927  0.4739     0.90708 (mod 2)
    20        Zn      20.000       0.0011  0.1944  1.0047     0.88582 (mod 2)
    21        Zn      20.000      -0.1677  0.4815  0.4711     0.85444 (mod 2)
    22        Mg      10.000      -0.1659  0.4813  1.0073    -0.53315 (mod 2)
    23        Mg      10.000      -0.3342  0.7699  0.4723     0.43756 (mod 2)
    24        Mg      10.000      -0.3327  0.7720  1.0035    -0.56978 (mod 2)
    25        Zn      20.000       0.3338  0.1938  0.4736     0.90306 (mod 2)
    26        Zn      20.000       0.3338  0.1920  1.0057     0.90577 (mod 2)
    27        Mg      10.000       0.1672  0.4789  0.4716     0.43210 (mod 2)
    28        Mg      10.000       0.1663  0.4814  1.0040    -0.56429 (mod 2)
    29        Mg      10.000      -0.0008  0.7706  0.4757     0.46909 (mod 2)
    30        Zn      20.000       0.0002  0.7689  1.0033     0.85778 (mod 2)
    31        Zn      20.000       0.6670  0.1928  0.4724     0.88041 (mod 2)
    32        Zn      20.000       0.6653  0.1917  1.0044     0.88107 (mod 2)
    33        Zn      20.000       0.4991  0.4794  0.4719     0.86995 (mod 2)
    34        Zn      20.000       0.4999  0.4811  1.0027     0.84729 (mod 2)
    35        Zn      20.000       0.3327  0.7694  0.4713     0.85704 (mod 2)
    36        Zn      20.000       0.3317  0.7678  1.0036     0.86234 (mod 2)
    37        O        6.000       0.1666  0.0966  0.0038     0.02121 (mod 2)
    38        O        6.000       0.1665  0.0963  0.5346    -0.98495 (mod 2)
    39        O        6.000       0.0006  0.3857  0.0032     0.01721 (mod 2)
    40        O        6.000      -0.0008  0.3856  0.5347    -0.98522 (mod 2)
    41        O        6.000      -0.1674  0.6740  0.0024     0.01217 (mod 2)
    42        O        6.000      -0.1679  0.6740  0.5345    -0.98641 (mod 2)
    43        O        6.000       0.4999  0.0945  0.0041     0.02284 (mod 2)
    44        O        6.000       0.5001  0.0969  0.5360    -0.97739 (mod 2)
    45        O        6.000       0.3331  0.3850  0.0013     0.00692 (mod 2)
    46        O        6.000       0.3327  0.3848  0.5373    -0.97021 (mod 2)
    47        O        6.000       0.1656  0.6724  0.0043     0.02345 (mod 2)
    48        O        6.000       0.1657  0.6719  0.5323    -0.99870 (mod 2)
    49        O        6.000       0.8336  0.0952  0.0016     0.00925 (mod 2)
    50        O        6.000       0.8326  0.0951  0.5374    -0.96943 (mod 2)
    51        O        6.000       0.6664  0.3843  0.0021     0.01143 (mod 2)
    52        O        6.000       0.6666  0.3848  0.5364    -0.97510 (mod 2)
    53        O        6.000       0.5008  0.6736  0.0023     0.01206 (mod 2)
    54        O        6.000       0.4995  0.6730  0.5349    -0.98443 (mod 2)
    55        O        6.000      -0.0004  0.1924  0.2700    -0.47741 (mod 2)
    56        O        6.000      -0.0005  0.1924  0.8007     0.51562 (mod 2)
    57        O        6.000      -0.1672  0.4817  0.2668    -0.49600 (mod 2)
    58        O        6.000      -0.1676  0.4806  0.8042     0.53480 (mod 2)
    59        O        6.000      -0.3349  0.7697  0.2693    -0.48250 (mod 2)
    60        O        6.000      -0.3353  0.7689  0.8005     0.51336 (mod 2)
    61        O        6.000       0.3332  0.1927  0.2697    -0.47906 (mod 2)
    62        O        6.000       0.3331  0.1911  0.8023     0.52449 (mod 2)
    63        O        6.000       0.1669  0.4823  0.2686    -0.48582 (mod 2)
    64        O        6.000       0.1671  0.4799  0.8010     0.51694 (mod 2)
    65        O        6.000      -0.0007  0.7699  0.2728    -0.46272 (mod 2)
    66        O        6.000      -0.0003  0.7686  0.7992     0.50601 (mod 2)
    67        O        6.000       0.6667  0.1914  0.2691    -0.48278 (mod 2)
    68        O        6.000       0.6668  0.1924  0.8012     0.51832 (mod 2)
    69        O        6.000       0.4993  0.4808  0.2686    -0.48611 (mod 2)
    70        O        6.000       0.4995  0.4798  0.7993     0.50742 (mod 2)
    71        O        6.000       0.3327  0.7687  0.2678    -0.49110 (mod 2)
    72        O        6.000       0.3327  0.7684  0.8004     0.51265 (mod 2)
  ----------------------------------------------------------------------------
                                               IONIC PHASE:  -0.03437 (mod 2)
  ============================================================================


                            ELECTRONIC POLARIZATION
                            ~~~~~~~~~~~~~~~~~~~~~~~

        Note: (mod 1) means that the phases (angles ranging from
        -pi to pi) have been mapped to the interval [-1/2,+1/2) by
        dividing by 2*pi; (mod 2) refers to the interval [-1,+1)

  ============================================================================
   Spin    String     Weight      First k-point in string         Phase
  ----------------------------------------------------------------------------
    up        1      0.062500      0.0000  0.0000  0.0000    -0.08932 (mod 1)
    up        2      0.125000      0.0003  0.2888 -0.0001    -0.09355 (mod 1)
    up        3      0.062500     -0.0005 -0.5777  0.0002    -0.09642 (mod 1)
    up        4      0.125000      0.2501  0.1446 -0.0000    -0.09363 (mod 1)
    up        5      0.125000      0.2504  0.4335 -0.0001    -0.09649 (mod 1)
    up        6      0.125000      0.2496 -0.4330  0.0001    -0.09653 (mod 1)
    up        7      0.125000      0.2499 -0.1442  0.0000    -0.09371 (mod 1)
    up        8      0.062500     -0.5003 -0.2893  0.0001    -0.09653 (mod 1)
    up        9      0.125000     -0.5000 -0.0005 -0.0000    -0.09658 (mod 1)
    up       10      0.062500     -0.5008 -0.8669  0.0002    -0.09661 (mod 1)
  ----------------------------------------------------------------------------
   down       1      0.062500      0.0000  0.0000  0.0000    -0.08932 (mod 1)
   down       2      0.125000      0.0003  0.2888 -0.0001    -0.09355 (mod 1)
   down       3      0.062500     -0.0005 -0.5777  0.0002    -0.09642 (mod 1)
   down       4      0.125000      0.2501  0.1446 -0.0000    -0.09363 (mod 1)
   down       5      0.125000      0.2504  0.4335 -0.0001    -0.09649 (mod 1)
   down       6      0.125000      0.2496 -0.4330  0.0001    -0.09653 (mod 1)
   down       7      0.125000      0.2499 -0.1442  0.0000    -0.09371 (mod 1)
   down       8      0.062500     -0.5003 -0.2893  0.0001    -0.09653 (mod 1)
   down       9      0.125000     -0.5000 -0.0005 -0.0000    -0.09658 (mod 1)
   down      10      0.062500     -0.5008 -0.8669  0.0002    -0.09661 (mod 1)
  ----------------------------------------------------------------------------
                                        Average phase (up):  -0.09499 (mod 1)
                                      Average phase (down):  -0.09499 (mod 1)
                                          ELECTRONIC PHASE:  -0.18999 (mod 2)
  ============================================================================


                               SUMMARY OF PHASES
                               ~~~~~~~~~~~~~~~~~

                          Ionic Phase: -0.03437 (mod 2)
                     Electronic Phase: -0.18999 (mod 2)
                          TOTAL PHASE: -0.22435 (mod 2)


                             VALUES OF POLARIZATION
                             ~~~~~~~~~~~~~~~~~~~~~~

        The calculation of phases done along the direction of vector 3
        of the reciprocal lattice gives the following contribution to
        the polarization vector (in different units, and being Omega
        the volume of the unit cell):

           P =  -4.3971549  (mod  39.1986127)  (e/Omega).bohr

           P =  -0.0007637  (mod   0.0068081)  e/bohr^2

           P =  -0.0436626  (mod   0.3892318)  C/m^2

        The polarization direction is:  (-0.00003 , 0.00028 , 1.00000 )


               ==================================================



     Writing output data file ZnO.save/
 
     init_run     :      1.14s CPU      2.73s WALL (       1 calls)
     electrons    :   1715.81s CPU   1821.15s WALL (       1 calls)

     Called by init_run:
     wfcinit      :      0.00s CPU      0.01s WALL (       1 calls)
     wfcinit:atom :      0.44s CPU      0.46s WALL (      80 calls)
     wfcinit:wfcr :     59.57s CPU    111.45s WALL (      80 calls)
     potinit      :      0.16s CPU      0.41s WALL (       1 calls)
     hinit0       :      0.25s CPU      1.16s WALL (       1 calls)

     Called by electrons:
     c_bands      :   1193.13s CPU   1296.35s WALL (       1 calls)
     v_of_rho     :      0.14s CPU      0.25s WALL (       1 calls)
     v_h          :      0.00s CPU      0.00s WALL (       1 calls)
     v_xc         :      0.14s CPU      0.24s WALL (       1 calls)
     newd         :      0.13s CPU      0.36s WALL (       1 calls)

     Called by c_bands:
     init_us_2    :      1.57s CPU      1.63s WALL (     220 calls)
     cegterg      :   1129.00s CPU   1180.16s WALL (      80 calls)

     Called by sum_band:

     Called by *egterg:
     h_psi        :    339.71s CPU    351.15s WALL (    1147 calls)
     s_psi        :     68.02s CPU     68.12s WALL (    1147 calls)
     g_psi        :      1.08s CPU      1.09s WALL (     987 calls)
     cdiaghg      :    427.72s CPU    503.49s WALL (    1067 calls)
     cegterg:over :    125.16s CPU    137.05s WALL (     987 calls)
     cegterg:upda :     98.96s CPU     99.66s WALL (     987 calls)
     cegterg:last :    110.15s CPU    110.82s WALL (     320 calls)
     cdiaghg:chol :     24.14s CPU     25.02s WALL (    1067 calls)
     cdiaghg:inve :     27.03s CPU     27.18s WALL (    1067 calls)
     cdiaghg:para :     74.31s CPU     92.66s WALL (    2134 calls)

     Called by h_psi:
     h_psi:pot    :    336.79s CPU    347.68s WALL (    1147 calls)
     h_psi:calbec :     80.39s CPU     88.33s WALL (    1147 calls)
     vloc_psi     :    187.29s CPU    189.68s WALL (    1147 calls)
     add_vuspsi   :     69.09s CPU     69.66s WALL (    1147 calls)

     General routines
     calbec       :     93.86s CPU    103.05s WALL (    1287 calls)
     fft          :      0.04s CPU      0.76s WALL (      13 calls)
     ffts         :      0.00s CPU      0.01s WALL (       1 calls)
     fftw         :    180.25s CPU    182.56s WALL (  743918 calls)
     interpolate  :      0.00s CPU      0.01s WALL (       1 calls)
 
     Parallel routines
     fft_scatt_xy :     19.24s CPU     19.41s WALL (  743932 calls)
     fft_scatt_yz :     83.41s CPU     84.86s WALL (  743932 calls)
 
     PWSCF        :  29m 9.39s CPU  31m19.06s WALL

 
   This run was terminated on:  18:26:51  17Sep2021            

=------------------------------------------------------------------------------=
   JOB DONE.
=------------------------------------------------------------------------------=
