
     Program PWSCF v.6.4.1 starts on 15Jun2022 at 22:21:32 

     This program is part of the open-source Quantum ESPRESSO suite
     for quantum simulation of materials; please cite
         "P. Giannozzi et al., J. Phys.:Condens. Matter 21 395502 (2009);
         "P. Giannozzi et al., J. Phys.:Condens. Matter 29 465901 (2017);
          URL http://www.quantum-espresso.org", 
     in publications or presentations arising from this work. More details at
     http://www.quantum-espresso.org/quote

     Parallel version (MPI), running on    64 processors

     MPI processes distributed on     1 nodes
     R & G space division:  proc/nbgrp/npool/nimage =      64
     Waiting for input...
     Reading input from standard input
Warning: card &IONS ignored
Warning: card   UPSCALE           = 100.D0, ignored
Warning: card / ignored
Warning: card &CELL ignored
Warning: card   CELL_DYNAMICS     = 'BFGS' ignored
Warning: card   PRESS_CONV_THR    = 0.5D0 ignored
Warning: card   CELL_DOFREE = 'ALL' ignored
Warning: card / ignored

     Current dimensions of program PWSCF are:
     Max number of different atomic species (ntypx) = 10
     Max number of k-points (npk) =  40000
     Max angular momentum in pseudopotentials (lmaxx) =  3

     Atomic positions and unit cell read from directory:
     ./temp/ZnO.save/
 

     Subspace diagonalization in iterative solution of the eigenvalue problem:
     one sub-group per band group will be used
     scalapack distributed-memory algorithm (size of sub-group:  5*  5 procs)

 
     Parallelization info
     --------------------
     sticks:   dense  smooth     PW     G-vecs:    dense   smooth      PW
     Min          24      13      4                 1232      480      86
     Max          25      14      5                 1241      485      91
     Sum        1561     847    265                79035    30841    5623
 


     bravais-lattice index     =            0
     lattice parameter (alat)  =       6.1605  a.u.
     unit-cell volume          =     318.9995 (a.u.)^3
     number of atoms/cell      =            4
     number of atomic types    =            2
     number of electrons       =        52.00
     number of Kohn-Sham states=           26
     kinetic-energy cutoff     =      80.0000  Ry
     charge density cutoff     =     600.0000  Ry
     Exchange-correlation      = SLA  PW   PSX  PSC ( 1  4 10  8 0 0)
     Using LIBXC version       =    4   3   4

     celldm(1)=   6.160486  celldm(2)=   0.000000  celldm(3)=   0.000000
     celldm(4)=   0.000000  celldm(5)=   0.000000  celldm(6)=   0.000000

     crystal axes: (cart. coord. in units of alat)
               a(1) = (   1.000000  -0.000000  -0.000001 )  
               a(2) = (  -0.500000   0.866025  -0.000001 )  
               a(3) = (  -0.000002  -0.000003   1.575486 )  

     reciprocal axes: (cart. coord. in units 2 pi/alat)
               b(1) = (  1.000000  0.577351  0.000002 )  
               b(2) = (  0.000000  1.154701  0.000002 )  
               b(3) = (  0.000001  0.000001  0.634725 )  


     PseudoPot. # 1 for Zn read from file:
     ./GBRV_PBEsol/zn_pbesol_v1.uspp.F.UPF
     MD5 check sum: 7d8615e52efe7c1e2b1899de8658bae2
     Pseudo is Ultrasoft, Zval = 20.0
     Generated by new atomic code, or converted to UPF format
     Using radial grid of  943 points,  6 beta functions with: 
                l(1) =   0
                l(2) =   0
                l(3) =   1
                l(4) =   1
                l(5) =   2
                l(6) =   2
     Q(r) pseudized with  8 coefficients,  rinner =    1.100   1.100   1.100
                                                       1.100   1.100

     PseudoPot. # 2 for O  read from file:
     ./GBRV_PBEsol/o_pbesol_v1.2.uspp.F.UPF
     MD5 check sum: 501638753501ef6325af9037351f7734
     Pseudo is Ultrasoft + core correction, Zval =  6.0
     Generated by new atomic code, or converted to UPF format
     Using radial grid of  737 points,  5 beta functions with: 
                l(1) =   0
                l(2) =   0
                l(3) =   1
                l(4) =   1
                l(5) =   2
     Q(r) pseudized with  8 coefficients,  rinner =    0.900   0.900   0.900
                                                       0.900   0.900

     atomic species   valence    mass     pseudopotential
        Zn            20.00    65.38000     Zn( 1.00)
        O              6.00    15.99900     O ( 1.00)

     No symmetry found


                                    s                        frac. trans.

      isym =  1     identity                                     

 cryst.   s( 1) = (     1          0          0      )
                  (     0          1          0      )
                  (     0          0          1      )

 cart.    s( 1) = (  1.0000000 -0.0000000  0.0000000 )
                  (  0.0000000  1.0000000  0.0000000 )
                  (  0.0000000  0.0000000  1.0000000 )


   Cartesian axes

     site n.     atom                  positions (alat units)
         1           O   tau(   1) = (   0.5000001   0.2886752   0.0115723  )
         2           O   tau(   2) = (  -0.0000009   0.5773478   0.7993151  )
         3           Zn  tau(   3) = (   0.4999990   0.2886727   0.9710565  )
         4           Zn  tau(   4) = (  -0.0000021   0.5773477   1.7587995  )

   Crystallographic axes

     site n.     atom                  positions (cryst. coord.)
         1           O   tau(   1) = (  0.6666670  0.3333337  0.0073459  )
         2           O   tau(   2) = (  0.3333329  0.6666657  0.5073458  )
         3           Zn  tau(   3) = (  0.6666664  0.3333329  0.6163542  )
         4           Zn  tau(   4) = (  0.3333336  0.6666677  1.1163542  )

     number of k points=   544
                       cart. coord. in units 2pi/alat
        k(    1) = (   0.0000000   0.0000000   0.0000000), wk =   0.0019531
        k(    2) = (   0.0000000   0.0000001   0.0423150), wk =   0.0019531
        k(    3) = (   0.0000001   0.0000002   0.0846300), wk =   0.0019531
        k(    4) = (   0.0000001   0.0000002   0.1269449), wk =   0.0019531
        k(    5) = (   0.0000002   0.0000003   0.1692599), wk =   0.0019531
        k(    6) = (   0.0000002   0.0000004   0.2115749), wk =   0.0019531
        k(    7) = (   0.0000002   0.0000005   0.2538899), wk =   0.0019531
        k(    8) = (   0.0000003   0.0000005   0.2962049), wk =   0.0019531
        k(    9) = (   0.0000003   0.0000006   0.3385199), wk =   0.0019531
        k(   10) = (   0.0000003   0.0000007   0.3808348), wk =   0.0019531
        k(   11) = (   0.0000004   0.0000008   0.4231498), wk =   0.0019531
        k(   12) = (   0.0000004   0.0000008   0.4654648), wk =   0.0019531
        k(   13) = (   0.0000005   0.0000009   0.5077798), wk =   0.0019531
        k(   14) = (   0.0000005   0.0000010   0.5500948), wk =   0.0019531
        k(   15) = (   0.0000005   0.0000011   0.5924098), wk =   0.0019531
        k(   16) = (   0.0000006   0.0000011   0.6347247), wk =   0.0019531
        k(   17) = (   0.0000000   0.1443376   0.0000003), wk =   0.0039062
        k(   18) = (   0.0000001   0.1443377   0.0423153), wk =   0.0039062
        k(   19) = (   0.0000001   0.1443377   0.0846302), wk =   0.0039062
        k(   20) = (   0.0000002   0.1443378   0.1269452), wk =   0.0039062
        k(   21) = (   0.0000002   0.1443379   0.1692602), wk =   0.0039062
        k(   22) = (   0.0000002   0.1443380   0.2115752), wk =   0.0039062
        k(   23) = (   0.0000003   0.1443381   0.2538902), wk =   0.0039062
        k(   24) = (   0.0000003   0.1443381   0.2962052), wk =   0.0039062
        k(   25) = (   0.0000003   0.1443382   0.3385201), wk =   0.0039062
        k(   26) = (   0.0000004   0.1443383   0.3808351), wk =   0.0039062
        k(   27) = (   0.0000004   0.1443384   0.4231501), wk =   0.0039062
        k(   28) = (   0.0000005   0.1443384   0.4654651), wk =   0.0039062
        k(   29) = (   0.0000005   0.1443385   0.5077801), wk =   0.0039062
        k(   30) = (   0.0000005   0.1443386   0.5500950), wk =   0.0039062
        k(   31) = (   0.0000006   0.1443387   0.5924100), wk =   0.0039062
        k(   32) = (   0.0000006   0.1443387   0.6347250), wk =   0.0039062
        k(   33) = (   0.0000001   0.2886752   0.0000005), wk =   0.0039062
        k(   34) = (   0.0000001   0.2886753   0.0423155), wk =   0.0039062
        k(   35) = (   0.0000002   0.2886753   0.0846305), wk =   0.0039062
        k(   36) = (   0.0000002   0.2886754   0.1269455), wk =   0.0039062
        k(   37) = (   0.0000002   0.2886755   0.1692605), wk =   0.0039062
        k(   38) = (   0.0000003   0.2886756   0.2115755), wk =   0.0039062
        k(   39) = (   0.0000003   0.2886756   0.2538904), wk =   0.0039062
        k(   40) = (   0.0000004   0.2886757   0.2962054), wk =   0.0039062
        k(   41) = (   0.0000004   0.2886758   0.3385204), wk =   0.0039062
        k(   42) = (   0.0000004   0.2886759   0.3808354), wk =   0.0039062
        k(   43) = (   0.0000005   0.2886759   0.4231504), wk =   0.0039062
        k(   44) = (   0.0000005   0.2886760   0.4654654), wk =   0.0039062
        k(   45) = (   0.0000005   0.2886761   0.5077803), wk =   0.0039062
        k(   46) = (   0.0000006   0.2886762   0.5500953), wk =   0.0039062
        k(   47) = (   0.0000006   0.2886763   0.5924103), wk =   0.0039062
        k(   48) = (   0.0000007   0.2886763   0.6347253), wk =   0.0039062
        k(   49) = (   0.0000001   0.4330128   0.0000008), wk =   0.0039062
        k(   50) = (   0.0000002   0.4330129   0.0423158), wk =   0.0039062
        k(   51) = (   0.0000002   0.4330129   0.0846308), wk =   0.0039062
        k(   52) = (   0.0000002   0.4330130   0.1269458), wk =   0.0039062
        k(   53) = (   0.0000003   0.4330131   0.1692608), wk =   0.0039062
        k(   54) = (   0.0000003   0.4330132   0.2115757), wk =   0.0039062
        k(   55) = (   0.0000004   0.4330132   0.2538907), wk =   0.0039062
        k(   56) = (   0.0000004   0.4330133   0.2962057), wk =   0.0039062
        k(   57) = (   0.0000004   0.4330134   0.3385207), wk =   0.0039062
        k(   58) = (   0.0000005   0.4330135   0.3808357), wk =   0.0039062
        k(   59) = (   0.0000005   0.4330135   0.4231506), wk =   0.0039062
        k(   60) = (   0.0000005   0.4330136   0.4654656), wk =   0.0039062
        k(   61) = (   0.0000006   0.4330137   0.5077806), wk =   0.0039062
        k(   62) = (   0.0000006   0.4330138   0.5500956), wk =   0.0039062
        k(   63) = (   0.0000007   0.4330138   0.5924106), wk =   0.0039062
        k(   64) = (   0.0000007   0.4330139   0.6347256), wk =   0.0039062
        k(   65) = (  -0.0000002  -0.5773504  -0.0000011), wk =   0.0019531
        k(   66) = (  -0.0000001  -0.5773503   0.0423139), wk =   0.0019531
        k(   67) = (  -0.0000001  -0.5773502   0.0846289), wk =   0.0019531
        k(   68) = (  -0.0000000  -0.5773501   0.1269439), wk =   0.0019531
        k(   69) = (  -0.0000000  -0.5773501   0.1692588), wk =   0.0019531
        k(   70) = (   0.0000000  -0.5773500   0.2115738), wk =   0.0019531
        k(   71) = (   0.0000001  -0.5773499   0.2538888), wk =   0.0019531
        k(   72) = (   0.0000001  -0.5773498   0.2962038), wk =   0.0019531
        k(   73) = (   0.0000001  -0.5773498   0.3385188), wk =   0.0019531
        k(   74) = (   0.0000002  -0.5773497   0.3808337), wk =   0.0019531
        k(   75) = (   0.0000002  -0.5773496   0.4231487), wk =   0.0019531
        k(   76) = (   0.0000003  -0.5773495   0.4654637), wk =   0.0019531
        k(   77) = (   0.0000003  -0.5773495   0.5077787), wk =   0.0019531
        k(   78) = (   0.0000003  -0.5773494   0.5500937), wk =   0.0019531
        k(   79) = (   0.0000004  -0.5773493   0.5924087), wk =   0.0019531
        k(   80) = (   0.0000004  -0.5773492   0.6347236), wk =   0.0019531
        k(   81) = (   0.1250000   0.0721688   0.0000003), wk =   0.0039062
        k(   82) = (   0.1250001   0.0721689   0.0423152), wk =   0.0039062
        k(   83) = (   0.1250001   0.0721690   0.0846302), wk =   0.0039062
        k(   84) = (   0.1250001   0.0721691   0.1269452), wk =   0.0039062
        k(   85) = (   0.1250002   0.0721691   0.1692602), wk =   0.0039062
        k(   86) = (   0.1250002   0.0721692   0.2115752), wk =   0.0039062
        k(   87) = (   0.1250003   0.0721693   0.2538902), wk =   0.0039062
        k(   88) = (   0.1250003   0.0721694   0.2962051), wk =   0.0039062
        k(   89) = (   0.1250003   0.0721694   0.3385201), wk =   0.0039062
        k(   90) = (   0.1250004   0.0721695   0.3808351), wk =   0.0039062
        k(   91) = (   0.1250004   0.0721696   0.4231501), wk =   0.0039062
        k(   92) = (   0.1250004   0.0721697   0.4654651), wk =   0.0039062
        k(   93) = (   0.1250005   0.0721697   0.5077800), wk =   0.0039062
        k(   94) = (   0.1250005   0.0721698   0.5500950), wk =   0.0039062
        k(   95) = (   0.1250006   0.0721699   0.5924100), wk =   0.0039062
        k(   96) = (   0.1250006   0.0721700   0.6347250), wk =   0.0039062
        k(   97) = (   0.1250001   0.2165064   0.0000005), wk =   0.0039062
        k(   98) = (   0.1250001   0.2165065   0.0423155), wk =   0.0039062
        k(   99) = (   0.1250001   0.2165066   0.0846305), wk =   0.0039062
        k(  100) = (   0.1250002   0.2165067   0.1269455), wk =   0.0039062
        k(  101) = (   0.1250002   0.2165067   0.1692605), wk =   0.0039062
        k(  102) = (   0.1250003   0.2165068   0.2115754), wk =   0.0039062
        k(  103) = (   0.1250003   0.2165069   0.2538904), wk =   0.0039062
        k(  104) = (   0.1250003   0.2165070   0.2962054), wk =   0.0039062
        k(  105) = (   0.1250004   0.2165070   0.3385204), wk =   0.0039062
        k(  106) = (   0.1250004   0.2165071   0.3808354), wk =   0.0039062
        k(  107) = (   0.1250004   0.2165072   0.4231504), wk =   0.0039062
        k(  108) = (   0.1250005   0.2165073   0.4654653), wk =   0.0039062
        k(  109) = (   0.1250005   0.2165073   0.5077803), wk =   0.0039062
        k(  110) = (   0.1250006   0.2165074   0.5500953), wk =   0.0039062
        k(  111) = (   0.1250006   0.2165075   0.5924103), wk =   0.0039062
        k(  112) = (   0.1250006   0.2165076   0.6347253), wk =   0.0039062
        k(  113) = (   0.1250001   0.3608440   0.0000008), wk =   0.0039062
        k(  114) = (   0.1250001   0.3608441   0.0423158), wk =   0.0039062
        k(  115) = (   0.1250002   0.3608442   0.0846308), wk =   0.0039062
        k(  116) = (   0.1250002   0.3608442   0.1269458), wk =   0.0039062
        k(  117) = (   0.1250003   0.3608443   0.1692607), wk =   0.0039062
        k(  118) = (   0.1250003   0.3608444   0.2115757), wk =   0.0039062
        k(  119) = (   0.1250003   0.3608445   0.2538907), wk =   0.0039062
        k(  120) = (   0.1250004   0.3608446   0.2962057), wk =   0.0039062
        k(  121) = (   0.1250004   0.3608446   0.3385207), wk =   0.0039062
        k(  122) = (   0.1250004   0.3608447   0.3808356), wk =   0.0039062
        k(  123) = (   0.1250005   0.3608448   0.4231506), wk =   0.0039062
        k(  124) = (   0.1250005   0.3608449   0.4654656), wk =   0.0039062
        k(  125) = (   0.1250006   0.3608449   0.5077806), wk =   0.0039062
        k(  126) = (   0.1250006   0.3608450   0.5500956), wk =   0.0039062
        k(  127) = (   0.1250006   0.3608451   0.5924106), wk =   0.0039062
        k(  128) = (   0.1250007   0.3608452   0.6347255), wk =   0.0039062
        k(  129) = (   0.1250001   0.5051816   0.0000011), wk =   0.0039062
        k(  130) = (   0.1250002   0.5051817   0.0423161), wk =   0.0039062
        k(  131) = (   0.1250002   0.5051818   0.0846310), wk =   0.0039062
        k(  132) = (   0.1250003   0.5051818   0.1269460), wk =   0.0039062
        k(  133) = (   0.1250003   0.5051819   0.1692610), wk =   0.0039062
        k(  134) = (   0.1250003   0.5051820   0.2115760), wk =   0.0039062
        k(  135) = (   0.1250004   0.5051821   0.2538910), wk =   0.0039062
        k(  136) = (   0.1250004   0.5051821   0.2962060), wk =   0.0039062
        k(  137) = (   0.1250004   0.5051822   0.3385209), wk =   0.0039062
        k(  138) = (   0.1250005   0.5051823   0.3808359), wk =   0.0039062
        k(  139) = (   0.1250005   0.5051824   0.4231509), wk =   0.0039062
        k(  140) = (   0.1250006   0.5051824   0.4654659), wk =   0.0039062
        k(  141) = (   0.1250006   0.5051825   0.5077809), wk =   0.0039062
        k(  142) = (   0.1250006   0.5051826   0.5500959), wk =   0.0039062
        k(  143) = (   0.1250007   0.5051827   0.5924108), wk =   0.0039062
        k(  144) = (   0.1250007   0.5051828   0.6347258), wk =   0.0039062
        k(  145) = (   0.1249999  -0.5051815  -0.0000008), wk =   0.0039062
        k(  146) = (   0.1249999  -0.5051815   0.0423141), wk =   0.0039062
        k(  147) = (   0.1249999  -0.5051814   0.0846291), wk =   0.0039062
        k(  148) = (   0.1250000  -0.5051813   0.1269441), wk =   0.0039062
        k(  149) = (   0.1250000  -0.5051812   0.1692591), wk =   0.0039062
        k(  150) = (   0.1250000  -0.5051812   0.2115741), wk =   0.0039062
        k(  151) = (   0.1250001  -0.5051811   0.2538891), wk =   0.0039062
        k(  152) = (   0.1250001  -0.5051810   0.2962040), wk =   0.0039062
        k(  153) = (   0.1250002  -0.5051809   0.3385190), wk =   0.0039062
        k(  154) = (   0.1250002  -0.5051809   0.3808340), wk =   0.0039062
        k(  155) = (   0.1250002  -0.5051808   0.4231490), wk =   0.0039062
        k(  156) = (   0.1250003  -0.5051807   0.4654640), wk =   0.0039062
        k(  157) = (   0.1250003  -0.5051806   0.5077789), wk =   0.0039062
        k(  158) = (   0.1250004  -0.5051805   0.5500939), wk =   0.0039062
        k(  159) = (   0.1250004  -0.5051805   0.5924089), wk =   0.0039062
        k(  160) = (   0.1250004  -0.5051804   0.6347239), wk =   0.0039062
        k(  161) = (   0.1249999  -0.3608439  -0.0000006), wk =   0.0039062
        k(  162) = (   0.1249999  -0.3608439   0.0423144), wk =   0.0039062
        k(  163) = (   0.1250000  -0.3608438   0.0846294), wk =   0.0039062
        k(  164) = (   0.1250000  -0.3608437   0.1269444), wk =   0.0039062
        k(  165) = (   0.1250001  -0.3608436   0.1692594), wk =   0.0039062
        k(  166) = (   0.1250001  -0.3608436   0.2115743), wk =   0.0039062
        k(  167) = (   0.1250001  -0.3608435   0.2538893), wk =   0.0039062
        k(  168) = (   0.1250002  -0.3608434   0.2962043), wk =   0.0039062
        k(  169) = (   0.1250002  -0.3608433   0.3385193), wk =   0.0039062
        k(  170) = (   0.1250002  -0.3608433   0.3808343), wk =   0.0039062
        k(  171) = (   0.1250003  -0.3608432   0.4231493), wk =   0.0039062
        k(  172) = (   0.1250003  -0.3608431   0.4654642), wk =   0.0039062
        k(  173) = (   0.1250004  -0.3608430   0.5077792), wk =   0.0039062
        k(  174) = (   0.1250004  -0.3608430   0.5500942), wk =   0.0039062
        k(  175) = (   0.1250004  -0.3608429   0.5924092), wk =   0.0039062
        k(  176) = (   0.1250005  -0.3608428   0.6347242), wk =   0.0039062
        k(  177) = (   0.1249999  -0.2165064  -0.0000003), wk =   0.0039062
        k(  178) = (   0.1250000  -0.2165063   0.0423147), wk =   0.0039062
        k(  179) = (   0.1250000  -0.2165062   0.0846297), wk =   0.0039062
        k(  180) = (   0.1250001  -0.2165061   0.1269447), wk =   0.0039062
        k(  181) = (   0.1250001  -0.2165060   0.1692596), wk =   0.0039062
        k(  182) = (   0.1250001  -0.2165060   0.2115746), wk =   0.0039062
        k(  183) = (   0.1250002  -0.2165059   0.2538896), wk =   0.0039062
        k(  184) = (   0.1250002  -0.2165058   0.2962046), wk =   0.0039062
        k(  185) = (   0.1250002  -0.2165057   0.3385196), wk =   0.0039062
        k(  186) = (   0.1250003  -0.2165057   0.3808346), wk =   0.0039062
        k(  187) = (   0.1250003  -0.2165056   0.4231495), wk =   0.0039062
        k(  188) = (   0.1250004  -0.2165055   0.4654645), wk =   0.0039062
        k(  189) = (   0.1250004  -0.2165054   0.5077795), wk =   0.0039062
        k(  190) = (   0.1250004  -0.2165054   0.5500945), wk =   0.0039062
        k(  191) = (   0.1250005  -0.2165053   0.5924095), wk =   0.0039062
        k(  192) = (   0.1250005  -0.2165052   0.6347244), wk =   0.0039062
        k(  193) = (   0.1250000  -0.0721688  -0.0000000), wk =   0.0039062
        k(  194) = (   0.1250000  -0.0721687   0.0423150), wk =   0.0039062
        k(  195) = (   0.1250001  -0.0721686   0.0846299), wk =   0.0039062
        k(  196) = (   0.1250001  -0.0721685   0.1269449), wk =   0.0039062
        k(  197) = (   0.1250001  -0.0721685   0.1692599), wk =   0.0039062
        k(  198) = (   0.1250002  -0.0721684   0.2115749), wk =   0.0039062
        k(  199) = (   0.1250002  -0.0721683   0.2538899), wk =   0.0039062
        k(  200) = (   0.1250002  -0.0721682   0.2962049), wk =   0.0039062
        k(  201) = (   0.1250003  -0.0721682   0.3385198), wk =   0.0039062
        k(  202) = (   0.1250003  -0.0721681   0.3808348), wk =   0.0039062
        k(  203) = (   0.1250004  -0.0721680   0.4231498), wk =   0.0039062
        k(  204) = (   0.1250004  -0.0721679   0.4654648), wk =   0.0039062
        k(  205) = (   0.1250004  -0.0721678   0.5077798), wk =   0.0039062
        k(  206) = (   0.1250005  -0.0721678   0.5500948), wk =   0.0039062
        k(  207) = (   0.1250005  -0.0721677   0.5924097), wk =   0.0039062
        k(  208) = (   0.1250006  -0.0721676   0.6347247), wk =   0.0039062
        k(  209) = (   0.2500000   0.1443377   0.0000005), wk =   0.0039062
        k(  210) = (   0.2500001   0.1443377   0.0423155), wk =   0.0039062
        k(  211) = (   0.2500001   0.1443378   0.0846305), wk =   0.0039062
        k(  212) = (   0.2500002   0.1443379   0.1269455), wk =   0.0039062
        k(  213) = (   0.2500002   0.1443380   0.1692604), wk =   0.0039062
        k(  214) = (   0.2500002   0.1443380   0.2115754), wk =   0.0039062
        k(  215) = (   0.2500003   0.1443381   0.2538904), wk =   0.0039062
        k(  216) = (   0.2500003   0.1443382   0.2962054), wk =   0.0039062
        k(  217) = (   0.2500003   0.1443383   0.3385204), wk =   0.0039062
        k(  218) = (   0.2500004   0.1443384   0.3808354), wk =   0.0039062
        k(  219) = (   0.2500004   0.1443384   0.4231503), wk =   0.0039062
        k(  220) = (   0.2500005   0.1443385   0.4654653), wk =   0.0039062
        k(  221) = (   0.2500005   0.1443386   0.5077803), wk =   0.0039062
        k(  222) = (   0.2500005   0.1443387   0.5500953), wk =   0.0039062
        k(  223) = (   0.2500006   0.1443387   0.5924103), wk =   0.0039062
        k(  224) = (   0.2500006   0.1443388   0.6347253), wk =   0.0039062
        k(  225) = (   0.2500001   0.2886753   0.0000008), wk =   0.0039062
        k(  226) = (   0.2500001   0.2886753   0.0423158), wk =   0.0039062
        k(  227) = (   0.2500002   0.2886754   0.0846308), wk =   0.0039062
        k(  228) = (   0.2500002   0.2886755   0.1269457), wk =   0.0039062
        k(  229) = (   0.2500002   0.2886756   0.1692607), wk =   0.0039062
        k(  230) = (   0.2500003   0.2886756   0.2115757), wk =   0.0039062
        k(  231) = (   0.2500003   0.2886757   0.2538907), wk =   0.0039062
        k(  232) = (   0.2500004   0.2886758   0.2962057), wk =   0.0039062
        k(  233) = (   0.2500004   0.2886759   0.3385206), wk =   0.0039062
        k(  234) = (   0.2500004   0.2886759   0.3808356), wk =   0.0039062
        k(  235) = (   0.2500005   0.2886760   0.4231506), wk =   0.0039062
        k(  236) = (   0.2500005   0.2886761   0.4654656), wk =   0.0039062
        k(  237) = (   0.2500005   0.2886762   0.5077806), wk =   0.0039062
        k(  238) = (   0.2500006   0.2886762   0.5500956), wk =   0.0039062
        k(  239) = (   0.2500006   0.2886763   0.5924105), wk =   0.0039062
        k(  240) = (   0.2500007   0.2886764   0.6347255), wk =   0.0039062
        k(  241) = (   0.2500001   0.4330128   0.0000011), wk =   0.0039062
        k(  242) = (   0.2500002   0.4330129   0.0423160), wk =   0.0039062
        k(  243) = (   0.2500002   0.4330130   0.0846310), wk =   0.0039062
        k(  244) = (   0.2500002   0.4330131   0.1269460), wk =   0.0039062
        k(  245) = (   0.2500003   0.4330132   0.1692610), wk =   0.0039062
        k(  246) = (   0.2500003   0.4330132   0.2115760), wk =   0.0039062
        k(  247) = (   0.2500004   0.4330133   0.2538910), wk =   0.0039062
        k(  248) = (   0.2500004   0.4330134   0.2962059), wk =   0.0039062
        k(  249) = (   0.2500004   0.4330135   0.3385209), wk =   0.0039062
        k(  250) = (   0.2500005   0.4330135   0.3808359), wk =   0.0039062
        k(  251) = (   0.2500005   0.4330136   0.4231509), wk =   0.0039062
        k(  252) = (   0.2500005   0.4330137   0.4654659), wk =   0.0039062
        k(  253) = (   0.2500006   0.4330138   0.5077809), wk =   0.0039062
        k(  254) = (   0.2500006   0.4330138   0.5500958), wk =   0.0039062
        k(  255) = (   0.2500007   0.4330139   0.5924108), wk =   0.0039062
        k(  256) = (   0.2500007   0.4330140   0.6347258), wk =   0.0039062
        k(  257) = (   0.2500002   0.5773504   0.0000013), wk =   0.0039062
        k(  258) = (   0.2500002   0.5773505   0.0423163), wk =   0.0039062
        k(  259) = (   0.2500002   0.5773506   0.0846313), wk =   0.0039062
        k(  260) = (   0.2500003   0.5773507   0.1269463), wk =   0.0039062
        k(  261) = (   0.2500003   0.5773507   0.1692613), wk =   0.0039062
        k(  262) = (   0.2500004   0.5773508   0.2115763), wk =   0.0039062
        k(  263) = (   0.2500004   0.5773509   0.2538912), wk =   0.0039062
        k(  264) = (   0.2500004   0.5773510   0.2962062), wk =   0.0039062
        k(  265) = (   0.2500005   0.5773511   0.3385212), wk =   0.0039062
        k(  266) = (   0.2500005   0.5773511   0.3808362), wk =   0.0039062
        k(  267) = (   0.2500005   0.5773512   0.4231512), wk =   0.0039062
        k(  268) = (   0.2500006   0.5773513   0.4654661), wk =   0.0039062
        k(  269) = (   0.2500006   0.5773514   0.5077811), wk =   0.0039062
        k(  270) = (   0.2500007   0.5773514   0.5500961), wk =   0.0039062
        k(  271) = (   0.2500007   0.5773515   0.5924111), wk =   0.0039062
        k(  272) = (   0.2500007   0.5773516   0.6347261), wk =   0.0039062
        k(  273) = (   0.2499999  -0.4330127  -0.0000006), wk =   0.0039062
        k(  274) = (   0.2499999  -0.4330126   0.0423144), wk =   0.0039062
        k(  275) = (   0.2500000  -0.4330126   0.0846294), wk =   0.0039062
        k(  276) = (   0.2500000  -0.4330125   0.1269444), wk =   0.0039062
        k(  277) = (   0.2500000  -0.4330124   0.1692593), wk =   0.0039062
        k(  278) = (   0.2500001  -0.4330123   0.2115743), wk =   0.0039062
        k(  279) = (   0.2500001  -0.4330122   0.2538893), wk =   0.0039062
        k(  280) = (   0.2500001  -0.4330122   0.2962043), wk =   0.0039062
        k(  281) = (   0.2500002  -0.4330121   0.3385193), wk =   0.0039062
        k(  282) = (   0.2500002  -0.4330120   0.3808343), wk =   0.0039062
        k(  283) = (   0.2500003  -0.4330119   0.4231492), wk =   0.0039062
        k(  284) = (   0.2500003  -0.4330119   0.4654642), wk =   0.0039062
        k(  285) = (   0.2500003  -0.4330118   0.5077792), wk =   0.0039062
        k(  286) = (   0.2500004  -0.4330117   0.5500942), wk =   0.0039062
        k(  287) = (   0.2500004  -0.4330116   0.5924092), wk =   0.0039062
        k(  288) = (   0.2500005  -0.4330116   0.6347242), wk =   0.0039062
        k(  289) = (   0.2499999  -0.2886751  -0.0000003), wk =   0.0039062
        k(  290) = (   0.2500000  -0.2886750   0.0423147), wk =   0.0039062
        k(  291) = (   0.2500000  -0.2886750   0.0846297), wk =   0.0039062
        k(  292) = (   0.2500000  -0.2886749   0.1269446), wk =   0.0039062
        k(  293) = (   0.2500001  -0.2886748   0.1692596), wk =   0.0039062
        k(  294) = (   0.2500001  -0.2886747   0.2115746), wk =   0.0039062
        k(  295) = (   0.2500001  -0.2886747   0.2538896), wk =   0.0039062
        k(  296) = (   0.2500002  -0.2886746   0.2962046), wk =   0.0039062
        k(  297) = (   0.2500002  -0.2886745   0.3385196), wk =   0.0039062
        k(  298) = (   0.2500003  -0.2886744   0.3808345), wk =   0.0039062
        k(  299) = (   0.2500003  -0.2886744   0.4231495), wk =   0.0039062
        k(  300) = (   0.2500003  -0.2886743   0.4654645), wk =   0.0039062
        k(  301) = (   0.2500004  -0.2886742   0.5077795), wk =   0.0039062
        k(  302) = (   0.2500004  -0.2886741   0.5500945), wk =   0.0039062
        k(  303) = (   0.2500005  -0.2886740   0.5924094), wk =   0.0039062
        k(  304) = (   0.2500005  -0.2886740   0.6347244), wk =   0.0039062
        k(  305) = (   0.2500000  -0.1443375  -0.0000000), wk =   0.0039062
        k(  306) = (   0.2500000  -0.1443374   0.0423150), wk =   0.0039062
        k(  307) = (   0.2500000  -0.1443374   0.0846299), wk =   0.0039062
        k(  308) = (   0.2500001  -0.1443373   0.1269449), wk =   0.0039062
        k(  309) = (   0.2500001  -0.1443372   0.1692599), wk =   0.0039062
        k(  310) = (   0.2500002  -0.1443371   0.2115749), wk =   0.0039062
        k(  311) = (   0.2500002  -0.1443371   0.2538899), wk =   0.0039062
        k(  312) = (   0.2500002  -0.1443370   0.2962048), wk =   0.0039062
        k(  313) = (   0.2500003  -0.1443369   0.3385198), wk =   0.0039062
        k(  314) = (   0.2500003  -0.1443368   0.3808348), wk =   0.0039062
        k(  315) = (   0.2500003  -0.1443368   0.4231498), wk =   0.0039062
        k(  316) = (   0.2500004  -0.1443367   0.4654648), wk =   0.0039062
        k(  317) = (   0.2500004  -0.1443366   0.5077798), wk =   0.0039062
        k(  318) = (   0.2500005  -0.1443365   0.5500947), wk =   0.0039062
        k(  319) = (   0.2500005  -0.1443365   0.5924097), wk =   0.0039062
        k(  320) = (   0.2500005  -0.1443364   0.6347247), wk =   0.0039062
        k(  321) = (   0.2500000   0.0000001   0.0000002), wk =   0.0039062
        k(  322) = (   0.2500000   0.0000001   0.0423152), wk =   0.0039062
        k(  323) = (   0.2500001   0.0000002   0.0846302), wk =   0.0039062
        k(  324) = (   0.2500001   0.0000003   0.1269452), wk =   0.0039062
        k(  325) = (   0.2500002   0.0000004   0.1692602), wk =   0.0039062
        k(  326) = (   0.2500002   0.0000005   0.2115752), wk =   0.0039062
        k(  327) = (   0.2500002   0.0000005   0.2538901), wk =   0.0039062
        k(  328) = (   0.2500003   0.0000006   0.2962051), wk =   0.0039062
        k(  329) = (   0.2500003   0.0000007   0.3385201), wk =   0.0039062
        k(  330) = (   0.2500003   0.0000008   0.3808351), wk =   0.0039062
        k(  331) = (   0.2500004   0.0000008   0.4231501), wk =   0.0039062
        k(  332) = (   0.2500004   0.0000009   0.4654650), wk =   0.0039062
        k(  333) = (   0.2500005   0.0000010   0.5077800), wk =   0.0039062
        k(  334) = (   0.2500005   0.0000011   0.5500950), wk =   0.0039062
        k(  335) = (   0.2500005   0.0000011   0.5924100), wk =   0.0039062
        k(  336) = (   0.2500006   0.0000012   0.6347250), wk =   0.0039062
        k(  337) = (   0.3750001   0.2165065   0.0000008), wk =   0.0039062
        k(  338) = (   0.3750001   0.2165066   0.0423158), wk =   0.0039062
        k(  339) = (   0.3750001   0.2165066   0.0846307), wk =   0.0039062
        k(  340) = (   0.3750002   0.2165067   0.1269457), wk =   0.0039062
        k(  341) = (   0.3750002   0.2165068   0.1692607), wk =   0.0039062
        k(  342) = (   0.3750003   0.2165069   0.2115757), wk =   0.0039062
        k(  343) = (   0.3750003   0.2165070   0.2538907), wk =   0.0039062
        k(  344) = (   0.3750003   0.2165070   0.2962057), wk =   0.0039062
        k(  345) = (   0.3750004   0.2165071   0.3385206), wk =   0.0039062
        k(  346) = (   0.3750004   0.2165072   0.3808356), wk =   0.0039062
        k(  347) = (   0.3750004   0.2165073   0.4231506), wk =   0.0039062
        k(  348) = (   0.3750005   0.2165073   0.4654656), wk =   0.0039062
        k(  349) = (   0.3750005   0.2165074   0.5077806), wk =   0.0039062
        k(  350) = (   0.3750006   0.2165075   0.5500955), wk =   0.0039062
        k(  351) = (   0.3750006   0.2165076   0.5924105), wk =   0.0039062
        k(  352) = (   0.3750006   0.2165076   0.6347255), wk =   0.0039062
        k(  353) = (   0.3750001   0.3608441   0.0000010), wk =   0.0039062
        k(  354) = (   0.3750001   0.3608442   0.0423160), wk =   0.0039062
        k(  355) = (   0.3750002   0.3608442   0.0846310), wk =   0.0039062
        k(  356) = (   0.3750002   0.3608443   0.1269460), wk =   0.0039062
        k(  357) = (   0.3750003   0.3608444   0.1692610), wk =   0.0039062
        k(  358) = (   0.3750003   0.3608445   0.2115760), wk =   0.0039062
        k(  359) = (   0.3750003   0.3608445   0.2538909), wk =   0.0039062
        k(  360) = (   0.3750004   0.3608446   0.2962059), wk =   0.0039062
        k(  361) = (   0.3750004   0.3608447   0.3385209), wk =   0.0039062
        k(  362) = (   0.3750004   0.3608448   0.3808359), wk =   0.0039062
        k(  363) = (   0.3750005   0.3608449   0.4231509), wk =   0.0039062
        k(  364) = (   0.3750005   0.3608449   0.4654659), wk =   0.0039062
        k(  365) = (   0.3750006   0.3608450   0.5077808), wk =   0.0039062
        k(  366) = (   0.3750006   0.3608451   0.5500958), wk =   0.0039062
        k(  367) = (   0.3750006   0.3608452   0.5924108), wk =   0.0039062
        k(  368) = (   0.3750007   0.3608452   0.6347258), wk =   0.0039062
        k(  369) = (   0.3750001   0.5051817   0.0000013), wk =   0.0039062
        k(  370) = (   0.3750002   0.5051818   0.0423163), wk =   0.0039062
        k(  371) = (   0.3750002   0.5051818   0.0846313), wk =   0.0039062
        k(  372) = (   0.3750003   0.5051819   0.1269463), wk =   0.0039062
        k(  373) = (   0.3750003   0.5051820   0.1692613), wk =   0.0039062
        k(  374) = (   0.3750003   0.5051821   0.2115762), wk =   0.0039062
        k(  375) = (   0.3750004   0.5051821   0.2538912), wk =   0.0039062
        k(  376) = (   0.3750004   0.5051822   0.2962062), wk =   0.0039062
        k(  377) = (   0.3750004   0.5051823   0.3385212), wk =   0.0039062
        k(  378) = (   0.3750005   0.5051824   0.3808362), wk =   0.0039062
        k(  379) = (   0.3750005   0.5051824   0.4231511), wk =   0.0039062
        k(  380) = (   0.3750006   0.5051825   0.4654661), wk =   0.0039062
        k(  381) = (   0.3750006   0.5051826   0.5077811), wk =   0.0039062
        k(  382) = (   0.3750006   0.5051827   0.5500961), wk =   0.0039062
        k(  383) = (   0.3750007   0.5051827   0.5924111), wk =   0.0039062
        k(  384) = (   0.3750007   0.5051828   0.6347261), wk =   0.0039062
        k(  385) = (   0.3750002   0.6495193   0.0000016), wk =   0.0039062
        k(  386) = (   0.3750002   0.6495193   0.0423166), wk =   0.0039062
        k(  387) = (   0.3750003   0.6495194   0.0846316), wk =   0.0039062
        k(  388) = (   0.3750003   0.6495195   0.1269465), wk =   0.0039062
        k(  389) = (   0.3750003   0.6495196   0.1692615), wk =   0.0039062
        k(  390) = (   0.3750004   0.6495197   0.2115765), wk =   0.0039062
        k(  391) = (   0.3750004   0.6495197   0.2538915), wk =   0.0039062
        k(  392) = (   0.3750005   0.6495198   0.2962065), wk =   0.0039062
        k(  393) = (   0.3750005   0.6495199   0.3385215), wk =   0.0039062
        k(  394) = (   0.3750005   0.6495200   0.3808364), wk =   0.0039062
        k(  395) = (   0.3750006   0.6495200   0.4231514), wk =   0.0039062
        k(  396) = (   0.3750006   0.6495201   0.4654664), wk =   0.0039062
        k(  397) = (   0.3750006   0.6495202   0.5077814), wk =   0.0039062
        k(  398) = (   0.3750007   0.6495203   0.5500964), wk =   0.0039062
        k(  399) = (   0.3750007   0.6495203   0.5924113), wk =   0.0039062
        k(  400) = (   0.3750008   0.6495204   0.6347263), wk =   0.0039062
        k(  401) = (   0.3749999  -0.3608439  -0.0000003), wk =   0.0039062
        k(  402) = (   0.3749999  -0.3608438   0.0423147), wk =   0.0039062
        k(  403) = (   0.3750000  -0.3608437   0.0846296), wk =   0.0039062
        k(  404) = (   0.3750000  -0.3608436   0.1269446), wk =   0.0039062
        k(  405) = (   0.3750001  -0.3608436   0.1692596), wk =   0.0039062
        k(  406) = (   0.3750001  -0.3608435   0.2115746), wk =   0.0039062
        k(  407) = (   0.3750001  -0.3608434   0.2538896), wk =   0.0039062
        k(  408) = (   0.3750002  -0.3608433   0.2962046), wk =   0.0039062
        k(  409) = (   0.3750002  -0.3608433   0.3385195), wk =   0.0039062
        k(  410) = (   0.3750002  -0.3608432   0.3808345), wk =   0.0039062
        k(  411) = (   0.3750003  -0.3608431   0.4231495), wk =   0.0039062
        k(  412) = (   0.3750003  -0.3608430   0.4654645), wk =   0.0039062
        k(  413) = (   0.3750004  -0.3608430   0.5077795), wk =   0.0039062
        k(  414) = (   0.3750004  -0.3608429   0.5500944), wk =   0.0039062
        k(  415) = (   0.3750004  -0.3608428   0.5924094), wk =   0.0039062
        k(  416) = (   0.3750005  -0.3608427   0.6347244), wk =   0.0039062
        k(  417) = (   0.3749999  -0.2165063  -0.0000000), wk =   0.0039062
        k(  418) = (   0.3750000  -0.2165062   0.0423149), wk =   0.0039062
        k(  419) = (   0.3750000  -0.2165061   0.0846299), wk =   0.0039062
        k(  420) = (   0.3750001  -0.2165061   0.1269449), wk =   0.0039062
        k(  421) = (   0.3750001  -0.2165060   0.1692599), wk =   0.0039062
        k(  422) = (   0.3750001  -0.2165059   0.2115749), wk =   0.0039062
        k(  423) = (   0.3750002  -0.2165058   0.2538898), wk =   0.0039062
        k(  424) = (   0.3750002  -0.2165057   0.2962048), wk =   0.0039062
        k(  425) = (   0.3750002  -0.2165057   0.3385198), wk =   0.0039062
        k(  426) = (   0.3750003  -0.2165056   0.3808348), wk =   0.0039062
        k(  427) = (   0.3750003  -0.2165055   0.4231498), wk =   0.0039062
        k(  428) = (   0.3750004  -0.2165054   0.4654648), wk =   0.0039062
        k(  429) = (   0.3750004  -0.2165054   0.5077797), wk =   0.0039062
        k(  430) = (   0.3750004  -0.2165053   0.5500947), wk =   0.0039062
        k(  431) = (   0.3750005  -0.2165052   0.5924097), wk =   0.0039062
        k(  432) = (   0.3750005  -0.2165051   0.6347247), wk =   0.0039062
        k(  433) = (   0.3750000  -0.0721687   0.0000002), wk =   0.0039062
        k(  434) = (   0.3750000  -0.0721686   0.0423152), wk =   0.0039062
        k(  435) = (   0.3750001  -0.0721685   0.0846302), wk =   0.0039062
        k(  436) = (   0.3750001  -0.0721685   0.1269452), wk =   0.0039062
        k(  437) = (   0.3750001  -0.0721684   0.1692602), wk =   0.0039062
        k(  438) = (   0.3750002  -0.0721683   0.2115751), wk =   0.0039062
        k(  439) = (   0.3750002  -0.0721682   0.2538901), wk =   0.0039062
        k(  440) = (   0.3750002  -0.0721682   0.2962051), wk =   0.0039062
        k(  441) = (   0.3750003  -0.0721681   0.3385201), wk =   0.0039062
        k(  442) = (   0.3750003  -0.0721680   0.3808351), wk =   0.0039062
        k(  443) = (   0.3750004  -0.0721679   0.4231500), wk =   0.0039062
        k(  444) = (   0.3750004  -0.0721679   0.4654650), wk =   0.0039062
        k(  445) = (   0.3750004  -0.0721678   0.5077800), wk =   0.0039062
        k(  446) = (   0.3750005  -0.0721677   0.5500950), wk =   0.0039062
        k(  447) = (   0.3750005  -0.0721676   0.5924100), wk =   0.0039062
        k(  448) = (   0.3750006  -0.0721675   0.6347250), wk =   0.0039062
        k(  449) = (   0.3750000   0.0721689   0.0000005), wk =   0.0039062
        k(  450) = (   0.3750001   0.0721690   0.0423155), wk =   0.0039062
        k(  451) = (   0.3750001   0.0721691   0.0846305), wk =   0.0039062
        k(  452) = (   0.3750001   0.0721691   0.1269454), wk =   0.0039062
        k(  453) = (   0.3750002   0.0721692   0.1692604), wk =   0.0039062
        k(  454) = (   0.3750002   0.0721693   0.2115754), wk =   0.0039062
        k(  455) = (   0.3750003   0.0721694   0.2538904), wk =   0.0039062
        k(  456) = (   0.3750003   0.0721694   0.2962054), wk =   0.0039062
        k(  457) = (   0.3750003   0.0721695   0.3385204), wk =   0.0039062
        k(  458) = (   0.3750004   0.0721696   0.3808353), wk =   0.0039062
        k(  459) = (   0.3750004   0.0721697   0.4231503), wk =   0.0039062
        k(  460) = (   0.3750004   0.0721697   0.4654653), wk =   0.0039062
        k(  461) = (   0.3750005   0.0721698   0.5077803), wk =   0.0039062
        k(  462) = (   0.3750005   0.0721699   0.5500953), wk =   0.0039062
        k(  463) = (   0.3750006   0.0721700   0.5924103), wk =   0.0039062
        k(  464) = (   0.3750006   0.0721700   0.6347252), wk =   0.0039062
        k(  465) = (  -0.5000001  -0.2886753  -0.0000010), wk =   0.0019531
        k(  466) = (  -0.5000000  -0.2886753   0.0423139), wk =   0.0019531
        k(  467) = (  -0.5000000  -0.2886752   0.0846289), wk =   0.0019531
        k(  468) = (  -0.5000000  -0.2886751   0.1269439), wk =   0.0019531
        k(  469) = (  -0.4999999  -0.2886750   0.1692589), wk =   0.0019531
        k(  470) = (  -0.4999999  -0.2886749   0.2115739), wk =   0.0019531
        k(  471) = (  -0.4999999  -0.2886749   0.2538889), wk =   0.0019531
        k(  472) = (  -0.4999998  -0.2886748   0.2962038), wk =   0.0019531
        k(  473) = (  -0.4999998  -0.2886747   0.3385188), wk =   0.0019531
        k(  474) = (  -0.4999997  -0.2886746   0.3808338), wk =   0.0019531
        k(  475) = (  -0.4999997  -0.2886746   0.4231488), wk =   0.0019531
        k(  476) = (  -0.4999997  -0.2886745   0.4654638), wk =   0.0019531
        k(  477) = (  -0.4999996  -0.2886744   0.5077788), wk =   0.0019531
        k(  478) = (  -0.4999996  -0.2886743   0.5500937), wk =   0.0019531
        k(  479) = (  -0.4999995  -0.2886743   0.5924087), wk =   0.0019531
        k(  480) = (  -0.4999995  -0.2886742   0.6347237), wk =   0.0019531
        k(  481) = (  -0.5000000  -0.1443377  -0.0000008), wk =   0.0039062
        k(  482) = (  -0.5000000  -0.1443377   0.0423142), wk =   0.0039062
        k(  483) = (  -0.5000000  -0.1443376   0.0846292), wk =   0.0039062
        k(  484) = (  -0.4999999  -0.1443375   0.1269442), wk =   0.0039062
        k(  485) = (  -0.4999999  -0.1443374   0.1692592), wk =   0.0039062
        k(  486) = (  -0.4999998  -0.1443374   0.2115742), wk =   0.0039062
        k(  487) = (  -0.4999998  -0.1443373   0.2538891), wk =   0.0039062
        k(  488) = (  -0.4999998  -0.1443372   0.2962041), wk =   0.0039062
        k(  489) = (  -0.4999997  -0.1443371   0.3385191), wk =   0.0039062
        k(  490) = (  -0.4999997  -0.1443370   0.3808341), wk =   0.0039062
        k(  491) = (  -0.4999997  -0.1443370   0.4231491), wk =   0.0039062
        k(  492) = (  -0.4999996  -0.1443369   0.4654640), wk =   0.0039062
        k(  493) = (  -0.4999996  -0.1443368   0.5077790), wk =   0.0039062
        k(  494) = (  -0.4999995  -0.1443367   0.5500940), wk =   0.0039062
        k(  495) = (  -0.4999995  -0.1443367   0.5924090), wk =   0.0039062
        k(  496) = (  -0.4999995  -0.1443366   0.6347240), wk =   0.0039062
        k(  497) = (  -0.5000000  -0.0000001  -0.0000005), wk =   0.0039062
        k(  498) = (  -0.5000000  -0.0000001   0.0423145), wk =   0.0039062
        k(  499) = (  -0.4999999   0.0000000   0.0846295), wk =   0.0039062
        k(  500) = (  -0.4999999   0.0000001   0.1269445), wk =   0.0039062
        k(  501) = (  -0.4999998   0.0000002   0.1692594), wk =   0.0039062
        k(  502) = (  -0.4999998   0.0000002   0.2115744), wk =   0.0039062
        k(  503) = (  -0.4999998   0.0000003   0.2538894), wk =   0.0039062
        k(  504) = (  -0.4999997   0.0000004   0.2962044), wk =   0.0039062
        k(  505) = (  -0.4999997   0.0000005   0.3385194), wk =   0.0039062
        k(  506) = (  -0.4999997   0.0000005   0.3808344), wk =   0.0039062
        k(  507) = (  -0.4999996   0.0000006   0.4231493), wk =   0.0039062
        k(  508) = (  -0.4999996   0.0000007   0.4654643), wk =   0.0039062
        k(  509) = (  -0.4999995   0.0000008   0.5077793), wk =   0.0039062
        k(  510) = (  -0.4999995   0.0000009   0.5500943), wk =   0.0039062
        k(  511) = (  -0.4999995   0.0000009   0.5924093), wk =   0.0039062
        k(  512) = (  -0.4999994   0.0000010   0.6347242), wk =   0.0039062
        k(  513) = (  -0.5000000   0.1443375  -0.0000002), wk =   0.0039062
        k(  514) = (  -0.4999999   0.1443375   0.0423148), wk =   0.0039062
        k(  515) = (  -0.4999999   0.1443376   0.0846298), wk =   0.0039062
        k(  516) = (  -0.4999998   0.1443377   0.1269447), wk =   0.0039062
        k(  517) = (  -0.4999998   0.1443378   0.1692597), wk =   0.0039062
        k(  518) = (  -0.4999998   0.1443378   0.2115747), wk =   0.0039062
        k(  519) = (  -0.4999997   0.1443379   0.2538897), wk =   0.0039062
        k(  520) = (  -0.4999997   0.1443380   0.2962047), wk =   0.0039062
        k(  521) = (  -0.4999997   0.1443381   0.3385196), wk =   0.0039062
        k(  522) = (  -0.4999996   0.1443381   0.3808346), wk =   0.0039062
        k(  523) = (  -0.4999996   0.1443382   0.4231496), wk =   0.0039062
        k(  524) = (  -0.4999995   0.1443383   0.4654646), wk =   0.0039062
        k(  525) = (  -0.4999995   0.1443384   0.5077796), wk =   0.0039062
        k(  526) = (  -0.4999995   0.1443384   0.5500946), wk =   0.0039062
        k(  527) = (  -0.4999994   0.1443385   0.5924095), wk =   0.0039062
        k(  528) = (  -0.4999994   0.1443386   0.6347245), wk =   0.0039062
        k(  529) = (  -0.5000002  -0.8660257  -0.0000021), wk =   0.0019531
        k(  530) = (  -0.5000002  -0.8660256   0.0423129), wk =   0.0019531
        k(  531) = (  -0.5000002  -0.8660255   0.0846278), wk =   0.0019531
        k(  532) = (  -0.5000001  -0.8660255   0.1269428), wk =   0.0019531
        k(  533) = (  -0.5000001  -0.8660254   0.1692578), wk =   0.0019531
        k(  534) = (  -0.5000001  -0.8660253   0.2115728), wk =   0.0019531
        k(  535) = (  -0.5000000  -0.8660252   0.2538878), wk =   0.0019531
        k(  536) = (  -0.5000000  -0.8660252   0.2962027), wk =   0.0019531
        k(  537) = (  -0.4999999  -0.8660251   0.3385177), wk =   0.0019531
        k(  538) = (  -0.4999999  -0.8660250   0.3808327), wk =   0.0019531
        k(  539) = (  -0.4999999  -0.8660249   0.4231477), wk =   0.0019531
        k(  540) = (  -0.4999998  -0.8660249   0.4654627), wk =   0.0019531
        k(  541) = (  -0.4999998  -0.8660248   0.5077777), wk =   0.0019531
        k(  542) = (  -0.4999997  -0.8660247   0.5500926), wk =   0.0019531
        k(  543) = (  -0.4999997  -0.8660246   0.5924076), wk =   0.0019531
        k(  544) = (  -0.4999997  -0.8660246   0.6347226), wk =   0.0019531

                       cryst. coord.
        k(    1) = (   0.0000000   0.0000000   0.0000000), wk =   0.0019531
        k(    2) = (   0.0000000  -0.0000000   0.0666667), wk =   0.0019531
        k(    3) = (   0.0000000  -0.0000000   0.1333333), wk =   0.0019531
        k(    4) = (   0.0000000  -0.0000000   0.2000000), wk =   0.0019531
        k(    5) = (   0.0000000  -0.0000000   0.2666667), wk =   0.0019531
        k(    6) = (   0.0000000   0.0000000   0.3333333), wk =   0.0019531
        k(    7) = (   0.0000000  -0.0000000   0.4000000), wk =   0.0019531
        k(    8) = (   0.0000000  -0.0000000   0.4666667), wk =   0.0019531
        k(    9) = (   0.0000000  -0.0000000   0.5333333), wk =   0.0019531
        k(   10) = (   0.0000000   0.0000000   0.6000000), wk =   0.0019531
        k(   11) = (   0.0000000   0.0000000   0.6666667), wk =   0.0019531
        k(   12) = (   0.0000000   0.0000000   0.7333333), wk =   0.0019531
        k(   13) = (   0.0000000  -0.0000000   0.8000000), wk =   0.0019531
        k(   14) = (   0.0000000   0.0000000   0.8666667), wk =   0.0019531
        k(   15) = (   0.0000000  -0.0000000   0.9333333), wk =   0.0019531
        k(   16) = (   0.0000000   0.0000000   1.0000000), wk =   0.0019531
        k(   17) = (   0.0000000   0.1250000   0.0000000), wk =   0.0039062
        k(   18) = (   0.0000000   0.1250000   0.0666667), wk =   0.0039062
        k(   19) = (   0.0000000   0.1250000   0.1333333), wk =   0.0039062
        k(   20) = (   0.0000000   0.1250000   0.2000000), wk =   0.0039062
        k(   21) = (   0.0000000   0.1250000   0.2666667), wk =   0.0039062
        k(   22) = (   0.0000000   0.1250000   0.3333333), wk =   0.0039062
        k(   23) = (   0.0000000   0.1250000   0.4000000), wk =   0.0039062
        k(   24) = (   0.0000000   0.1250000   0.4666667), wk =   0.0039062
        k(   25) = (   0.0000000   0.1250000   0.5333333), wk =   0.0039062
        k(   26) = (   0.0000000   0.1250000   0.6000000), wk =   0.0039062
        k(   27) = (   0.0000000   0.1250000   0.6666667), wk =   0.0039062
        k(   28) = (   0.0000000   0.1250000   0.7333333), wk =   0.0039062
        k(   29) = (   0.0000000   0.1250000   0.8000000), wk =   0.0039062
        k(   30) = (   0.0000000   0.1250000   0.8666667), wk =   0.0039062
        k(   31) = (   0.0000000   0.1250000   0.9333333), wk =   0.0039062
        k(   32) = (   0.0000000   0.1250000   1.0000000), wk =   0.0039062
        k(   33) = (   0.0000000   0.2500000   0.0000000), wk =   0.0039062
        k(   34) = (   0.0000000   0.2500000   0.0666667), wk =   0.0039062
        k(   35) = (   0.0000000   0.2500000   0.1333333), wk =   0.0039062
        k(   36) = (   0.0000000   0.2500000   0.2000000), wk =   0.0039062
        k(   37) = (   0.0000000   0.2500000   0.2666667), wk =   0.0039062
        k(   38) = (   0.0000000   0.2500000   0.3333333), wk =   0.0039062
        k(   39) = (   0.0000000   0.2500000   0.4000000), wk =   0.0039062
        k(   40) = (   0.0000000   0.2500000   0.4666667), wk =   0.0039062
        k(   41) = (   0.0000000   0.2500000   0.5333333), wk =   0.0039062
        k(   42) = (   0.0000000   0.2500000   0.6000000), wk =   0.0039062
        k(   43) = (   0.0000000   0.2500000   0.6666667), wk =   0.0039062
        k(   44) = (   0.0000000   0.2500000   0.7333333), wk =   0.0039062
        k(   45) = (   0.0000000   0.2500000   0.8000000), wk =   0.0039062
        k(   46) = (   0.0000000   0.2500000   0.8666667), wk =   0.0039062
        k(   47) = (   0.0000000   0.2500000   0.9333333), wk =   0.0039062
        k(   48) = (   0.0000000   0.2500000   1.0000000), wk =   0.0039062
        k(   49) = (  -0.0000000   0.3750000   0.0000000), wk =   0.0039062
        k(   50) = (  -0.0000000   0.3750000   0.0666667), wk =   0.0039062
        k(   51) = (   0.0000000   0.3750000   0.1333333), wk =   0.0039062
        k(   52) = (   0.0000000   0.3750000   0.2000000), wk =   0.0039062
        k(   53) = (   0.0000000   0.3750000   0.2666667), wk =   0.0039062
        k(   54) = (   0.0000000   0.3750000   0.3333333), wk =   0.0039062
        k(   55) = (   0.0000000   0.3750000   0.4000000), wk =   0.0039062
        k(   56) = (   0.0000000   0.3750000   0.4666667), wk =   0.0039062
        k(   57) = (   0.0000000   0.3750000   0.5333333), wk =   0.0039062
        k(   58) = (   0.0000000   0.3750000   0.6000000), wk =   0.0039062
        k(   59) = (   0.0000000   0.3750000   0.6666667), wk =   0.0039062
        k(   60) = (   0.0000000   0.3750000   0.7333333), wk =   0.0039062
        k(   61) = (   0.0000000   0.3750000   0.8000000), wk =   0.0039062
        k(   62) = (   0.0000000   0.3750000   0.8666667), wk =   0.0039062
        k(   63) = (   0.0000000   0.3750000   0.9333333), wk =   0.0039062
        k(   64) = (   0.0000000   0.3750000   1.0000000), wk =   0.0039062
        k(   65) = (  -0.0000000  -0.5000000  -0.0000000), wk =   0.0019531
        k(   66) = (   0.0000000  -0.5000000   0.0666667), wk =   0.0019531
        k(   67) = (  -0.0000000  -0.5000000   0.1333333), wk =   0.0019531
        k(   68) = (   0.0000000  -0.5000000   0.2000000), wk =   0.0019531
        k(   69) = (   0.0000000  -0.5000000   0.2666667), wk =   0.0019531
        k(   70) = (   0.0000000  -0.5000000   0.3333333), wk =   0.0019531
        k(   71) = (   0.0000000  -0.5000000   0.4000000), wk =   0.0019531
        k(   72) = (   0.0000000  -0.5000000   0.4666667), wk =   0.0019531
        k(   73) = (   0.0000000  -0.5000000   0.5333333), wk =   0.0019531
        k(   74) = (   0.0000000  -0.5000000   0.6000000), wk =   0.0019531
        k(   75) = (   0.0000000  -0.5000000   0.6666667), wk =   0.0019531
        k(   76) = (   0.0000000  -0.5000000   0.7333333), wk =   0.0019531
        k(   77) = (   0.0000000  -0.5000000   0.8000000), wk =   0.0019531
        k(   78) = (   0.0000000  -0.5000000   0.8666667), wk =   0.0019531
        k(   79) = (   0.0000000  -0.5000000   0.9333333), wk =   0.0019531
        k(   80) = (   0.0000000  -0.5000000   1.0000000), wk =   0.0019531
        k(   81) = (   0.1250000   0.0000000   0.0000000), wk =   0.0039062
        k(   82) = (   0.1250000  -0.0000000   0.0666667), wk =   0.0039062
        k(   83) = (   0.1250000   0.0000000   0.1333333), wk =   0.0039062
        k(   84) = (   0.1250000   0.0000000   0.2000000), wk =   0.0039062
        k(   85) = (   0.1250000   0.0000000   0.2666667), wk =   0.0039062
        k(   86) = (   0.1250000  -0.0000000   0.3333333), wk =   0.0039062
        k(   87) = (   0.1250000   0.0000000   0.4000000), wk =   0.0039062
        k(   88) = (   0.1250000  -0.0000000   0.4666667), wk =   0.0039062
        k(   89) = (   0.1250000   0.0000000   0.5333333), wk =   0.0039062
        k(   90) = (   0.1250000   0.0000000   0.6000000), wk =   0.0039062
        k(   91) = (   0.1250000   0.0000000   0.6666667), wk =   0.0039062
        k(   92) = (   0.1250000   0.0000000   0.7333333), wk =   0.0039062
        k(   93) = (   0.1250000   0.0000000   0.8000000), wk =   0.0039062
        k(   94) = (   0.1250000   0.0000000   0.8666667), wk =   0.0039062
        k(   95) = (   0.1250000   0.0000000   0.9333333), wk =   0.0039062
        k(   96) = (   0.1250000   0.0000000   1.0000000), wk =   0.0039062
        k(   97) = (   0.1250000   0.1250000   0.0000000), wk =   0.0039062
        k(   98) = (   0.1250000   0.1250000   0.0666667), wk =   0.0039062
        k(   99) = (   0.1250000   0.1250000   0.1333333), wk =   0.0039062
        k(  100) = (   0.1250000   0.1250000   0.2000000), wk =   0.0039062
        k(  101) = (   0.1250000   0.1250000   0.2666667), wk =   0.0039062
        k(  102) = (   0.1250000   0.1250000   0.3333333), wk =   0.0039062
        k(  103) = (   0.1250000   0.1250000   0.4000000), wk =   0.0039062
        k(  104) = (   0.1250000   0.1250000   0.4666667), wk =   0.0039062
        k(  105) = (   0.1250000   0.1250000   0.5333333), wk =   0.0039062
        k(  106) = (   0.1250000   0.1250000   0.6000000), wk =   0.0039062
        k(  107) = (   0.1250000   0.1250000   0.6666667), wk =   0.0039062
        k(  108) = (   0.1250000   0.1250000   0.7333333), wk =   0.0039062
        k(  109) = (   0.1250000   0.1250000   0.8000000), wk =   0.0039062
        k(  110) = (   0.1250000   0.1250000   0.8666667), wk =   0.0039062
        k(  111) = (   0.1250000   0.1250000   0.9333333), wk =   0.0039062
        k(  112) = (   0.1250000   0.1250000   1.0000000), wk =   0.0039062
        k(  113) = (   0.1250000   0.2500000   0.0000000), wk =   0.0039062
        k(  114) = (   0.1250000   0.2500000   0.0666667), wk =   0.0039062
        k(  115) = (   0.1250000   0.2500000   0.1333333), wk =   0.0039062
        k(  116) = (   0.1250000   0.2500000   0.2000000), wk =   0.0039062
        k(  117) = (   0.1250000   0.2500000   0.2666667), wk =   0.0039062
        k(  118) = (   0.1250000   0.2500000   0.3333333), wk =   0.0039062
        k(  119) = (   0.1250000   0.2500000   0.4000000), wk =   0.0039062
        k(  120) = (   0.1250000   0.2500000   0.4666667), wk =   0.0039062
        k(  121) = (   0.1250000   0.2500000   0.5333333), wk =   0.0039062
        k(  122) = (   0.1250000   0.2500000   0.6000000), wk =   0.0039062
        k(  123) = (   0.1250000   0.2500000   0.6666667), wk =   0.0039062
        k(  124) = (   0.1250000   0.2500000   0.7333333), wk =   0.0039062
        k(  125) = (   0.1250000   0.2500000   0.8000000), wk =   0.0039062
        k(  126) = (   0.1250000   0.2500000   0.8666667), wk =   0.0039062
        k(  127) = (   0.1250000   0.2500000   0.9333333), wk =   0.0039062
        k(  128) = (   0.1250000   0.2500000   1.0000000), wk =   0.0039062
        k(  129) = (   0.1250000   0.3750000   0.0000000), wk =   0.0039062
        k(  130) = (   0.1250000   0.3750000   0.0666667), wk =   0.0039062
        k(  131) = (   0.1250000   0.3750000   0.1333333), wk =   0.0039062
        k(  132) = (   0.1250000   0.3750000   0.2000000), wk =   0.0039062
        k(  133) = (   0.1250000   0.3750000   0.2666667), wk =   0.0039062
        k(  134) = (   0.1250000   0.3750000   0.3333333), wk =   0.0039062
        k(  135) = (   0.1250000   0.3750000   0.4000000), wk =   0.0039062
        k(  136) = (   0.1250000   0.3750000   0.4666667), wk =   0.0039062
        k(  137) = (   0.1250000   0.3750000   0.5333333), wk =   0.0039062
        k(  138) = (   0.1250000   0.3750000   0.6000000), wk =   0.0039062
        k(  139) = (   0.1250000   0.3750000   0.6666667), wk =   0.0039062
        k(  140) = (   0.1250000   0.3750000   0.7333333), wk =   0.0039062
        k(  141) = (   0.1250000   0.3750000   0.8000000), wk =   0.0039062
        k(  142) = (   0.1250000   0.3750000   0.8666667), wk =   0.0039062
        k(  143) = (   0.1250000   0.3750000   0.9333333), wk =   0.0039062
        k(  144) = (   0.1250000   0.3750000   1.0000000), wk =   0.0039062
        k(  145) = (   0.1250000  -0.5000000   0.0000000), wk =   0.0039062
        k(  146) = (   0.1250000  -0.5000000   0.0666667), wk =   0.0039062
        k(  147) = (   0.1250000  -0.5000000   0.1333333), wk =   0.0039062
        k(  148) = (   0.1250000  -0.5000000   0.2000000), wk =   0.0039062
        k(  149) = (   0.1250000  -0.5000000   0.2666667), wk =   0.0039062
        k(  150) = (   0.1250000  -0.5000000   0.3333333), wk =   0.0039062
        k(  151) = (   0.1250000  -0.5000000   0.4000000), wk =   0.0039062
        k(  152) = (   0.1250000  -0.5000000   0.4666667), wk =   0.0039062
        k(  153) = (   0.1250000  -0.5000000   0.5333333), wk =   0.0039062
        k(  154) = (   0.1250000  -0.5000000   0.6000000), wk =   0.0039062
        k(  155) = (   0.1250000  -0.5000000   0.6666667), wk =   0.0039062
        k(  156) = (   0.1250000  -0.5000000   0.7333333), wk =   0.0039062
        k(  157) = (   0.1250000  -0.5000000   0.8000000), wk =   0.0039062
        k(  158) = (   0.1250000  -0.5000000   0.8666667), wk =   0.0039062
        k(  159) = (   0.1250000  -0.5000000   0.9333333), wk =   0.0039062
        k(  160) = (   0.1250000  -0.5000000   1.0000000), wk =   0.0039062
        k(  161) = (   0.1250000  -0.3750000   0.0000000), wk =   0.0039062
        k(  162) = (   0.1250000  -0.3750000   0.0666667), wk =   0.0039062
        k(  163) = (   0.1250000  -0.3750000   0.1333333), wk =   0.0039062
        k(  164) = (   0.1250000  -0.3750000   0.2000000), wk =   0.0039062
        k(  165) = (   0.1250000  -0.3750000   0.2666667), wk =   0.0039062
        k(  166) = (   0.1250000  -0.3750000   0.3333333), wk =   0.0039062
        k(  167) = (   0.1250000  -0.3750000   0.4000000), wk =   0.0039062
        k(  168) = (   0.1250000  -0.3750000   0.4666667), wk =   0.0039062
        k(  169) = (   0.1250000  -0.3750000   0.5333333), wk =   0.0039062
        k(  170) = (   0.1250000  -0.3750000   0.6000000), wk =   0.0039062
        k(  171) = (   0.1250000  -0.3750000   0.6666667), wk =   0.0039062
        k(  172) = (   0.1250000  -0.3750000   0.7333333), wk =   0.0039062
        k(  173) = (   0.1250000  -0.3750000   0.8000000), wk =   0.0039062
        k(  174) = (   0.1250000  -0.3750000   0.8666667), wk =   0.0039062
        k(  175) = (   0.1250000  -0.3750000   0.9333333), wk =   0.0039062
        k(  176) = (   0.1250000  -0.3750000   1.0000000), wk =   0.0039062
        k(  177) = (   0.1250000  -0.2500000   0.0000000), wk =   0.0039062
        k(  178) = (   0.1250000  -0.2500000   0.0666667), wk =   0.0039062
        k(  179) = (   0.1250000  -0.2500000   0.1333333), wk =   0.0039062
        k(  180) = (   0.1250000  -0.2500000   0.2000000), wk =   0.0039062
        k(  181) = (   0.1250000  -0.2500000   0.2666667), wk =   0.0039062
        k(  182) = (   0.1250000  -0.2500000   0.3333333), wk =   0.0039062
        k(  183) = (   0.1250000  -0.2500000   0.4000000), wk =   0.0039062
        k(  184) = (   0.1250000  -0.2500000   0.4666667), wk =   0.0039062
        k(  185) = (   0.1250000  -0.2500000   0.5333333), wk =   0.0039062
        k(  186) = (   0.1250000  -0.2500000   0.6000000), wk =   0.0039062
        k(  187) = (   0.1250000  -0.2500000   0.6666667), wk =   0.0039062
        k(  188) = (   0.1250000  -0.2500000   0.7333333), wk =   0.0039062
        k(  189) = (   0.1250000  -0.2500000   0.8000000), wk =   0.0039062
        k(  190) = (   0.1250000  -0.2500000   0.8666667), wk =   0.0039062
        k(  191) = (   0.1250000  -0.2500000   0.9333333), wk =   0.0039062
        k(  192) = (   0.1250000  -0.2500000   1.0000000), wk =   0.0039062
        k(  193) = (   0.1250000  -0.1250000   0.0000000), wk =   0.0039062
        k(  194) = (   0.1250000  -0.1250000   0.0666667), wk =   0.0039062
        k(  195) = (   0.1250000  -0.1250000   0.1333333), wk =   0.0039062
        k(  196) = (   0.1250000  -0.1250000   0.2000000), wk =   0.0039062
        k(  197) = (   0.1250000  -0.1250000   0.2666667), wk =   0.0039062
        k(  198) = (   0.1250000  -0.1250000   0.3333333), wk =   0.0039062
        k(  199) = (   0.1250000  -0.1250000   0.4000000), wk =   0.0039062
        k(  200) = (   0.1250000  -0.1250000   0.4666667), wk =   0.0039062
        k(  201) = (   0.1250000  -0.1250000   0.5333333), wk =   0.0039062
        k(  202) = (   0.1250000  -0.1250000   0.6000000), wk =   0.0039062
        k(  203) = (   0.1250000  -0.1250000   0.6666667), wk =   0.0039062
        k(  204) = (   0.1250000  -0.1250000   0.7333333), wk =   0.0039062
        k(  205) = (   0.1250000  -0.1250000   0.8000000), wk =   0.0039062
        k(  206) = (   0.1250000  -0.1250000   0.8666667), wk =   0.0039062
        k(  207) = (   0.1250000  -0.1250000   0.9333333), wk =   0.0039062
        k(  208) = (   0.1250000  -0.1250000   1.0000000), wk =   0.0039062
        k(  209) = (   0.2500000   0.0000000   0.0000000), wk =   0.0039062
        k(  210) = (   0.2500000   0.0000000   0.0666667), wk =   0.0039062
        k(  211) = (   0.2500000  -0.0000000   0.1333333), wk =   0.0039062
        k(  212) = (   0.2500000   0.0000000   0.2000000), wk =   0.0039062
        k(  213) = (   0.2500000   0.0000000   0.2666667), wk =   0.0039062
        k(  214) = (   0.2500000   0.0000000   0.3333333), wk =   0.0039062
        k(  215) = (   0.2500000   0.0000000   0.4000000), wk =   0.0039062
        k(  216) = (   0.2500000   0.0000000   0.4666667), wk =   0.0039062
        k(  217) = (   0.2500000   0.0000000   0.5333333), wk =   0.0039062
        k(  218) = (   0.2500000   0.0000000   0.6000000), wk =   0.0039062
        k(  219) = (   0.2500000  -0.0000000   0.6666667), wk =   0.0039062
        k(  220) = (   0.2500000  -0.0000000   0.7333333), wk =   0.0039062
        k(  221) = (   0.2500000   0.0000000   0.8000000), wk =   0.0039062
        k(  222) = (   0.2500000  -0.0000000   0.8666667), wk =   0.0039062
        k(  223) = (   0.2500000  -0.0000000   0.9333333), wk =   0.0039062
        k(  224) = (   0.2500000   0.0000000   1.0000000), wk =   0.0039062
        k(  225) = (   0.2500000   0.1250000   0.0000000), wk =   0.0039062
        k(  226) = (   0.2500000   0.1250000   0.0666667), wk =   0.0039062
        k(  227) = (   0.2500000   0.1250000   0.1333333), wk =   0.0039062
        k(  228) = (   0.2500000   0.1250000   0.2000000), wk =   0.0039062
        k(  229) = (   0.2500000   0.1250000   0.2666667), wk =   0.0039062
        k(  230) = (   0.2500000   0.1250000   0.3333333), wk =   0.0039062
        k(  231) = (   0.2500000   0.1250000   0.4000000), wk =   0.0039062
        k(  232) = (   0.2500000   0.1250000   0.4666667), wk =   0.0039062
        k(  233) = (   0.2500000   0.1250000   0.5333333), wk =   0.0039062
        k(  234) = (   0.2500000   0.1250000   0.6000000), wk =   0.0039062
        k(  235) = (   0.2500000   0.1250000   0.6666667), wk =   0.0039062
        k(  236) = (   0.2500000   0.1250000   0.7333333), wk =   0.0039062
        k(  237) = (   0.2500000   0.1250000   0.8000000), wk =   0.0039062
        k(  238) = (   0.2500000   0.1250000   0.8666667), wk =   0.0039062
        k(  239) = (   0.2500000   0.1250000   0.9333333), wk =   0.0039062
        k(  240) = (   0.2500000   0.1250000   1.0000000), wk =   0.0039062
        k(  241) = (   0.2500000   0.2500000   0.0000000), wk =   0.0039062
        k(  242) = (   0.2500000   0.2500000   0.0666667), wk =   0.0039062
        k(  243) = (   0.2500000   0.2500000   0.1333333), wk =   0.0039062
        k(  244) = (   0.2500000   0.2500000   0.2000000), wk =   0.0039062
        k(  245) = (   0.2500000   0.2500000   0.2666667), wk =   0.0039062
        k(  246) = (   0.2500000   0.2500000   0.3333333), wk =   0.0039062
        k(  247) = (   0.2500000   0.2500000   0.4000000), wk =   0.0039062
        k(  248) = (   0.2500000   0.2500000   0.4666667), wk =   0.0039062
        k(  249) = (   0.2500000   0.2500000   0.5333333), wk =   0.0039062
        k(  250) = (   0.2500000   0.2500000   0.6000000), wk =   0.0039062
        k(  251) = (   0.2500000   0.2500000   0.6666667), wk =   0.0039062
        k(  252) = (   0.2500000   0.2500000   0.7333333), wk =   0.0039062
        k(  253) = (   0.2500000   0.2500000   0.8000000), wk =   0.0039062
        k(  254) = (   0.2500000   0.2500000   0.8666667), wk =   0.0039062
        k(  255) = (   0.2500000   0.2500000   0.9333333), wk =   0.0039062
        k(  256) = (   0.2500000   0.2500000   1.0000000), wk =   0.0039062
        k(  257) = (   0.2500000   0.3750000   0.0000000), wk =   0.0039062
        k(  258) = (   0.2500000   0.3750000   0.0666667), wk =   0.0039062
        k(  259) = (   0.2500000   0.3750000   0.1333333), wk =   0.0039062
        k(  260) = (   0.2500000   0.3750000   0.2000000), wk =   0.0039062
        k(  261) = (   0.2500000   0.3750000   0.2666667), wk =   0.0039062
        k(  262) = (   0.2500000   0.3750000   0.3333333), wk =   0.0039062
        k(  263) = (   0.2500000   0.3750000   0.4000000), wk =   0.0039062
        k(  264) = (   0.2500000   0.3750000   0.4666667), wk =   0.0039062
        k(  265) = (   0.2500000   0.3750000   0.5333333), wk =   0.0039062
        k(  266) = (   0.2500000   0.3750000   0.6000000), wk =   0.0039062
        k(  267) = (   0.2500000   0.3750000   0.6666667), wk =   0.0039062
        k(  268) = (   0.2500000   0.3750000   0.7333333), wk =   0.0039062
        k(  269) = (   0.2500000   0.3750000   0.8000000), wk =   0.0039062
        k(  270) = (   0.2500000   0.3750000   0.8666667), wk =   0.0039062
        k(  271) = (   0.2500000   0.3750000   0.9333333), wk =   0.0039062
        k(  272) = (   0.2500000   0.3750000   1.0000000), wk =   0.0039062
        k(  273) = (   0.2500000  -0.5000000   0.0000000), wk =   0.0039062
        k(  274) = (   0.2500000  -0.5000000   0.0666667), wk =   0.0039062
        k(  275) = (   0.2500000  -0.5000000   0.1333333), wk =   0.0039062
        k(  276) = (   0.2500000  -0.5000000   0.2000000), wk =   0.0039062
        k(  277) = (   0.2500000  -0.5000000   0.2666667), wk =   0.0039062
        k(  278) = (   0.2500000  -0.5000000   0.3333333), wk =   0.0039062
        k(  279) = (   0.2500000  -0.5000000   0.4000000), wk =   0.0039062
        k(  280) = (   0.2500000  -0.5000000   0.4666667), wk =   0.0039062
        k(  281) = (   0.2500000  -0.5000000   0.5333333), wk =   0.0039062
        k(  282) = (   0.2500000  -0.5000000   0.6000000), wk =   0.0039062
        k(  283) = (   0.2500000  -0.5000000   0.6666667), wk =   0.0039062
        k(  284) = (   0.2500000  -0.5000000   0.7333333), wk =   0.0039062
        k(  285) = (   0.2500000  -0.5000000   0.8000000), wk =   0.0039062
        k(  286) = (   0.2500000  -0.5000000   0.8666667), wk =   0.0039062
        k(  287) = (   0.2500000  -0.5000000   0.9333333), wk =   0.0039062
        k(  288) = (   0.2500000  -0.5000000   1.0000000), wk =   0.0039062
        k(  289) = (   0.2500000  -0.3750000   0.0000000), wk =   0.0039062
        k(  290) = (   0.2500000  -0.3750000   0.0666667), wk =   0.0039062
        k(  291) = (   0.2500000  -0.3750000   0.1333333), wk =   0.0039062
        k(  292) = (   0.2500000  -0.3750000   0.2000000), wk =   0.0039062
        k(  293) = (   0.2500000  -0.3750000   0.2666667), wk =   0.0039062
        k(  294) = (   0.2500000  -0.3750000   0.3333333), wk =   0.0039062
        k(  295) = (   0.2500000  -0.3750000   0.4000000), wk =   0.0039062
        k(  296) = (   0.2500000  -0.3750000   0.4666667), wk =   0.0039062
        k(  297) = (   0.2500000  -0.3750000   0.5333333), wk =   0.0039062
        k(  298) = (   0.2500000  -0.3750000   0.6000000), wk =   0.0039062
        k(  299) = (   0.2500000  -0.3750000   0.6666667), wk =   0.0039062
        k(  300) = (   0.2500000  -0.3750000   0.7333333), wk =   0.0039062
        k(  301) = (   0.2500000  -0.3750000   0.8000000), wk =   0.0039062
        k(  302) = (   0.2500000  -0.3750000   0.8666667), wk =   0.0039062
        k(  303) = (   0.2500000  -0.3750000   0.9333333), wk =   0.0039062
        k(  304) = (   0.2500000  -0.3750000   1.0000000), wk =   0.0039062
        k(  305) = (   0.2500000  -0.2500000   0.0000000), wk =   0.0039062
        k(  306) = (   0.2500000  -0.2500000   0.0666667), wk =   0.0039062
        k(  307) = (   0.2500000  -0.2500000   0.1333333), wk =   0.0039062
        k(  308) = (   0.2500000  -0.2500000   0.2000000), wk =   0.0039062
        k(  309) = (   0.2500000  -0.2500000   0.2666667), wk =   0.0039062
        k(  310) = (   0.2500000  -0.2500000   0.3333333), wk =   0.0039062
        k(  311) = (   0.2500000  -0.2500000   0.4000000), wk =   0.0039062
        k(  312) = (   0.2500000  -0.2500000   0.4666667), wk =   0.0039062
        k(  313) = (   0.2500000  -0.2500000   0.5333333), wk =   0.0039062
        k(  314) = (   0.2500000  -0.2500000   0.6000000), wk =   0.0039062
        k(  315) = (   0.2500000  -0.2500000   0.6666667), wk =   0.0039062
        k(  316) = (   0.2500000  -0.2500000   0.7333333), wk =   0.0039062
        k(  317) = (   0.2500000  -0.2500000   0.8000000), wk =   0.0039062
        k(  318) = (   0.2500000  -0.2500000   0.8666667), wk =   0.0039062
        k(  319) = (   0.2500000  -0.2500000   0.9333333), wk =   0.0039062
        k(  320) = (   0.2500000  -0.2500000   1.0000000), wk =   0.0039062
        k(  321) = (   0.2500000  -0.1250000   0.0000000), wk =   0.0039062
        k(  322) = (   0.2500000  -0.1250000   0.0666667), wk =   0.0039062
        k(  323) = (   0.2500000  -0.1250000   0.1333333), wk =   0.0039062
        k(  324) = (   0.2500000  -0.1250000   0.2000000), wk =   0.0039062
        k(  325) = (   0.2500000  -0.1250000   0.2666667), wk =   0.0039062
        k(  326) = (   0.2500000  -0.1250000   0.3333333), wk =   0.0039062
        k(  327) = (   0.2500000  -0.1250000   0.4000000), wk =   0.0039062
        k(  328) = (   0.2500000  -0.1250000   0.4666667), wk =   0.0039062
        k(  329) = (   0.2500000  -0.1250000   0.5333333), wk =   0.0039062
        k(  330) = (   0.2500000  -0.1250000   0.6000000), wk =   0.0039062
        k(  331) = (   0.2500000  -0.1250000   0.6666667), wk =   0.0039062
        k(  332) = (   0.2500000  -0.1250000   0.7333333), wk =   0.0039062
        k(  333) = (   0.2500000  -0.1250000   0.8000000), wk =   0.0039062
        k(  334) = (   0.2500000  -0.1250000   0.8666667), wk =   0.0039062
        k(  335) = (   0.2500000  -0.1250000   0.9333333), wk =   0.0039062
        k(  336) = (   0.2500000  -0.1250000   1.0000000), wk =   0.0039062
        k(  337) = (   0.3750000   0.0000000   0.0000000), wk =   0.0039062
        k(  338) = (   0.3750000   0.0000000   0.0666667), wk =   0.0039062
        k(  339) = (   0.3750000  -0.0000000   0.1333333), wk =   0.0039062
        k(  340) = (   0.3750000   0.0000000   0.2000000), wk =   0.0039062
        k(  341) = (   0.3750000   0.0000000   0.2666667), wk =   0.0039062
        k(  342) = (   0.3750000  -0.0000000   0.3333333), wk =   0.0039062
        k(  343) = (   0.3750000   0.0000000   0.4000000), wk =   0.0039062
        k(  344) = (   0.3750000   0.0000000   0.4666667), wk =   0.0039062
        k(  345) = (   0.3750000   0.0000000   0.5333333), wk =   0.0039062
        k(  346) = (   0.3750000   0.0000000   0.6000000), wk =   0.0039062
        k(  347) = (   0.3750000  -0.0000000   0.6666667), wk =   0.0039062
        k(  348) = (   0.3750000  -0.0000000   0.7333333), wk =   0.0039062
        k(  349) = (   0.3750000   0.0000000   0.8000000), wk =   0.0039062
        k(  350) = (   0.3750000  -0.0000000   0.8666667), wk =   0.0039062
        k(  351) = (   0.3750000  -0.0000000   0.9333333), wk =   0.0039062
        k(  352) = (   0.3750000   0.0000000   1.0000000), wk =   0.0039062
        k(  353) = (   0.3750000   0.1250000   0.0000000), wk =   0.0039062
        k(  354) = (   0.3750000   0.1250000   0.0666667), wk =   0.0039062
        k(  355) = (   0.3750000   0.1250000   0.1333333), wk =   0.0039062
        k(  356) = (   0.3750000   0.1250000   0.2000000), wk =   0.0039062
        k(  357) = (   0.3750000   0.1250000   0.2666667), wk =   0.0039062
        k(  358) = (   0.3750000   0.1250000   0.3333333), wk =   0.0039062
        k(  359) = (   0.3750000   0.1250000   0.4000000), wk =   0.0039062
        k(  360) = (   0.3750000   0.1250000   0.4666667), wk =   0.0039062
        k(  361) = (   0.3750000   0.1250000   0.5333333), wk =   0.0039062
        k(  362) = (   0.3750000   0.1250000   0.6000000), wk =   0.0039062
        k(  363) = (   0.3750000   0.1250000   0.6666667), wk =   0.0039062
        k(  364) = (   0.3750000   0.1250000   0.7333333), wk =   0.0039062
        k(  365) = (   0.3750000   0.1250000   0.8000000), wk =   0.0039062
        k(  366) = (   0.3750000   0.1250000   0.8666667), wk =   0.0039062
        k(  367) = (   0.3750000   0.1250000   0.9333333), wk =   0.0039062
        k(  368) = (   0.3750000   0.1250000   1.0000000), wk =   0.0039062
        k(  369) = (   0.3750000   0.2500000   0.0000000), wk =   0.0039062
        k(  370) = (   0.3750000   0.2500000   0.0666667), wk =   0.0039062
        k(  371) = (   0.3750000   0.2500000   0.1333333), wk =   0.0039062
        k(  372) = (   0.3750000   0.2500000   0.2000000), wk =   0.0039062
        k(  373) = (   0.3750000   0.2500000   0.2666667), wk =   0.0039062
        k(  374) = (   0.3750000   0.2500000   0.3333333), wk =   0.0039062
        k(  375) = (   0.3750000   0.2500000   0.4000000), wk =   0.0039062
        k(  376) = (   0.3750000   0.2500000   0.4666667), wk =   0.0039062
        k(  377) = (   0.3750000   0.2500000   0.5333333), wk =   0.0039062
        k(  378) = (   0.3750000   0.2500000   0.6000000), wk =   0.0039062
        k(  379) = (   0.3750000   0.2500000   0.6666667), wk =   0.0039062
        k(  380) = (   0.3750000   0.2500000   0.7333333), wk =   0.0039062
        k(  381) = (   0.3750000   0.2500000   0.8000000), wk =   0.0039062
        k(  382) = (   0.3750000   0.2500000   0.8666667), wk =   0.0039062
        k(  383) = (   0.3750000   0.2500000   0.9333333), wk =   0.0039062
        k(  384) = (   0.3750000   0.2500000   1.0000000), wk =   0.0039062
        k(  385) = (   0.3750000   0.3750000  -0.0000000), wk =   0.0039062
        k(  386) = (   0.3750000   0.3750000   0.0666667), wk =   0.0039062
        k(  387) = (   0.3750000   0.3750000   0.1333333), wk =   0.0039062
        k(  388) = (   0.3750000   0.3750000   0.2000000), wk =   0.0039062
        k(  389) = (   0.3750000   0.3750000   0.2666667), wk =   0.0039062
        k(  390) = (   0.3750000   0.3750000   0.3333333), wk =   0.0039062
        k(  391) = (   0.3750000   0.3750000   0.4000000), wk =   0.0039062
        k(  392) = (   0.3750000   0.3750000   0.4666667), wk =   0.0039062
        k(  393) = (   0.3750000   0.3750000   0.5333333), wk =   0.0039062
        k(  394) = (   0.3750000   0.3750000   0.6000000), wk =   0.0039062
        k(  395) = (   0.3750000   0.3750000   0.6666667), wk =   0.0039062
        k(  396) = (   0.3750000   0.3750000   0.7333333), wk =   0.0039062
        k(  397) = (   0.3750000   0.3750000   0.8000000), wk =   0.0039062
        k(  398) = (   0.3750000   0.3750000   0.8666667), wk =   0.0039062
        k(  399) = (   0.3750000   0.3750000   0.9333333), wk =   0.0039062
        k(  400) = (   0.3750000   0.3750000   1.0000000), wk =   0.0039062
        k(  401) = (   0.3750000  -0.5000000   0.0000000), wk =   0.0039062
        k(  402) = (   0.3750000  -0.5000000   0.0666667), wk =   0.0039062
        k(  403) = (   0.3750000  -0.5000000   0.1333333), wk =   0.0039062
        k(  404) = (   0.3750000  -0.5000000   0.2000000), wk =   0.0039062
        k(  405) = (   0.3750000  -0.5000000   0.2666667), wk =   0.0039062
        k(  406) = (   0.3750000  -0.5000000   0.3333333), wk =   0.0039062
        k(  407) = (   0.3750000  -0.5000000   0.4000000), wk =   0.0039062
        k(  408) = (   0.3750000  -0.5000000   0.4666667), wk =   0.0039062
        k(  409) = (   0.3750000  -0.5000000   0.5333333), wk =   0.0039062
        k(  410) = (   0.3750000  -0.5000000   0.6000000), wk =   0.0039062
        k(  411) = (   0.3750000  -0.5000000   0.6666667), wk =   0.0039062
        k(  412) = (   0.3750000  -0.5000000   0.7333333), wk =   0.0039062
        k(  413) = (   0.3750000  -0.5000000   0.8000000), wk =   0.0039062
        k(  414) = (   0.3750000  -0.5000000   0.8666667), wk =   0.0039062
        k(  415) = (   0.3750000  -0.5000000   0.9333333), wk =   0.0039062
        k(  416) = (   0.3750000  -0.5000000   1.0000000), wk =   0.0039062
        k(  417) = (   0.3750000  -0.3750000   0.0000000), wk =   0.0039062
        k(  418) = (   0.3750000  -0.3750000   0.0666667), wk =   0.0039062
        k(  419) = (   0.3750000  -0.3750000   0.1333333), wk =   0.0039062
        k(  420) = (   0.3750000  -0.3750000   0.2000000), wk =   0.0039062
        k(  421) = (   0.3750000  -0.3750000   0.2666667), wk =   0.0039062
        k(  422) = (   0.3750000  -0.3750000   0.3333333), wk =   0.0039062
        k(  423) = (   0.3750000  -0.3750000   0.4000000), wk =   0.0039062
        k(  424) = (   0.3750000  -0.3750000   0.4666667), wk =   0.0039062
        k(  425) = (   0.3750000  -0.3750000   0.5333333), wk =   0.0039062
        k(  426) = (   0.3750000  -0.3750000   0.6000000), wk =   0.0039062
        k(  427) = (   0.3750000  -0.3750000   0.6666667), wk =   0.0039062
        k(  428) = (   0.3750000  -0.3750000   0.7333333), wk =   0.0039062
        k(  429) = (   0.3750000  -0.3750000   0.8000000), wk =   0.0039062
        k(  430) = (   0.3750000  -0.3750000   0.8666667), wk =   0.0039062
        k(  431) = (   0.3750000  -0.3750000   0.9333333), wk =   0.0039062
[...]

  -114.3358-114.3353 -68.7060 -68.7049 -68.6902 -68.6896 -68.6888 -68.6878
    -8.5377  -8.3143   2.7412   2.8436   3.3151   3.5962   3.7334   3.7931
     4.3164   4.3664   4.4720   4.5396   5.0124   5.0274   6.1671   6.4950
     7.5944   7.7527

     occupation numbers 
     1.0000   1.0000   1.0000   1.0000   1.0000   1.0000   1.0000   1.0000
     1.0000   1.0000   1.0000   1.0000   1.0000   1.0000   1.0000   1.0000
     1.0000   1.0000   1.0000   1.0000   1.0000   1.0000   1.0000   1.0000
     1.0000   1.0000

          k =-0.5000-0.8660 0.1269 (  3858 PWs)   bands (ev):

  -114.3358-114.3353 -68.7060 -68.7049 -68.6901 -68.6895 -68.6888 -68.6879
    -8.5230  -8.3250   2.7020   2.7782   3.3337   3.5711   3.7030   3.7500
     4.3559   4.3698   4.4597   4.5397   4.9986   5.0041   6.3879   6.5778
     7.6591   7.6869

     occupation numbers 
     1.0000   1.0000   1.0000   1.0000   1.0000   1.0000   1.0000   1.0000
     1.0000   1.0000   1.0000   1.0000   1.0000   1.0000   1.0000   1.0000
     1.0000   1.0000   1.0000   1.0000   1.0000   1.0000   1.0000   1.0000
     1.0000   1.0000

          k =-0.5000-0.8660 0.1693 (  3858 PWs)   bands (ev):

  -114.3358-114.3353 -68.7059 -68.7050 -68.6901 -68.6896 -68.6887 -68.6879
    -8.5036  -8.3396   2.6560   2.7057   3.3593   3.5538   3.6637   3.7027
     4.3744   4.3957   4.4457   4.5376   4.9770   4.9944   6.6452   6.6852
     7.5982   7.7109

     occupation numbers 
     1.0000   1.0000   1.0000   1.0000   1.0000   1.0000   1.0000   1.0000
     1.0000   1.0000   1.0000   1.0000   1.0000   1.0000   1.0000   1.0000
     1.0000   1.0000   1.0000   1.0000   1.0000   1.0000   1.0000   1.0000
     1.0000   1.0000

          k =-0.5000-0.8660 0.2116 (  3858 PWs)   bands (ev):

  -114.3358-114.3353 -68.7059 -68.7051 -68.6901 -68.6896 -68.6887 -68.6880
    -8.4807  -8.3580   2.6113   2.6394   3.3917   3.5470   3.6183   3.6575
     4.3803   4.4316   4.4319   4.5321   4.9644   4.9843   6.8105   6.9135
     7.4899   7.7240

     occupation numbers 
     1.0000   1.0000   1.0000   1.0000   1.0000   1.0000   1.0000   1.0000
     1.0000   1.0000   1.0000   1.0000   1.0000   1.0000   1.0000   1.0000
     1.0000   1.0000   1.0000   1.0000   1.0000   1.0000   1.0000   1.0000
     1.0000   1.0000

          k =-0.5000-0.8660 0.2539 (  3860 PWs)   bands (ev):

  -114.3358-114.3353 -68.7058 -68.7052 -68.6900 -68.6896 -68.6886 -68.6880
    -8.4555  -8.3796   2.5762   2.5894   3.4301   3.5506   3.5697   3.6181
     4.3877   4.4185   4.4629   4.5224   4.9595   4.9746   6.9474   7.1701
     7.3659   7.6793

     occupation numbers 
     1.0000   1.0000   1.0000   1.0000   1.0000   1.0000   1.0000   1.0000
     1.0000   1.0000   1.0000   1.0000   1.0000   1.0000   1.0000   1.0000
     1.0000   1.0000   1.0000   1.0000   1.0000   1.0000   1.0000   1.0000
     1.0000   1.0000

          k =-0.5000-0.8660 0.2962 (  3854 PWs)   bands (ev):

  -114.3358-114.3353 -68.7058 -68.7053 -68.6900 -68.6896 -68.6885 -68.6881
    -8.4294  -8.4037   2.5580   2.5617   3.4735   3.5207   3.5640   3.5867
     4.3964   4.4067   4.4882   4.5080   4.9608   4.9664   7.0894   7.2307
     7.3944   7.5683

     occupation numbers 
     1.0000   1.0000   1.0000   1.0000   1.0000   1.0000   1.0000   1.0000
     1.0000   1.0000   1.0000   1.0000   1.0000   1.0000   1.0000   1.0000
     1.0000   1.0000   1.0000   1.0000   1.0000   1.0000   1.0000   1.0000
     1.0000   1.0000

          k =-0.5000-0.8660 0.3385 (  3854 PWs)   bands (ev):

  -114.3358-114.3353 -68.7058 -68.7053 -68.6900 -68.6896 -68.6885 -68.6881
    -8.4294  -8.4037   2.5580   2.5617   3.4735   3.5207   3.5640   3.5867
     4.3964   4.4067   4.4882   4.5080   4.9608   4.9664   7.0894   7.2307
     7.3944   7.5683

     occupation numbers 
     1.0000   1.0000   1.0000   1.0000   1.0000   1.0000   1.0000   1.0000
     1.0000   1.0000   1.0000   1.0000   1.0000   1.0000   1.0000   1.0000
     1.0000   1.0000   1.0000   1.0000   1.0000   1.0000   1.0000   1.0000
     1.0000   1.0000

          k =-0.5000-0.8660 0.3808 (  3860 PWs)   bands (ev):

  -114.3358-114.3353 -68.7058 -68.7052 -68.6900 -68.6896 -68.6886 -68.6880
    -8.4555  -8.3796   2.5762   2.5894   3.4301   3.5506   3.5697   3.6181
     4.3877   4.4185   4.4629   4.5224   4.9595   4.9746   6.9474   7.1701
     7.3659   7.6793

     occupation numbers 
     1.0000   1.0000   1.0000   1.0000   1.0000   1.0000   1.0000   1.0000
     1.0000   1.0000   1.0000   1.0000   1.0000   1.0000   1.0000   1.0000
     1.0000   1.0000   1.0000   1.0000   1.0000   1.0000   1.0000   1.0000
     1.0000   1.0000

          k =-0.5000-0.8660 0.4231 (  3858 PWs)   bands (ev):

  -114.3358-114.3353 -68.7059 -68.7051 -68.6901 -68.6896 -68.6887 -68.6880
    -8.4807  -8.3580   2.6113   2.6394   3.3917   3.5470   3.6183   3.6575
     4.3803   4.4316   4.4319   4.5321   4.9644   4.9843   6.8105   6.9135
     7.4899   7.7240

     occupation numbers 
     1.0000   1.0000   1.0000   1.0000   1.0000   1.0000   1.0000   1.0000
     1.0000   1.0000   1.0000   1.0000   1.0000   1.0000   1.0000   1.0000
     1.0000   1.0000   1.0000   1.0000   1.0000   1.0000   1.0000   1.0000
     1.0000   1.0000

          k =-0.5000-0.8660 0.4655 (  3858 PWs)   bands (ev):

  -114.3358-114.3353 -68.7059 -68.7050 -68.6901 -68.6896 -68.6887 -68.6879
    -8.5036  -8.3396   2.6560   2.7057   3.3593   3.5538   3.6637   3.7027
     4.3744   4.3957   4.4457   4.5376   4.9770   4.9944   6.6452   6.6852
     7.5982   7.7109

     occupation numbers 
     1.0000   1.0000   1.0000   1.0000   1.0000   1.0000   1.0000   1.0000
     1.0000   1.0000   1.0000   1.0000   1.0000   1.0000   1.0000   1.0000
     1.0000   1.0000   1.0000   1.0000   1.0000   1.0000   1.0000   1.0000
     1.0000   1.0000

          k =-0.5000-0.8660 0.5078 (  3858 PWs)   bands (ev):

  -114.3358-114.3353 -68.7060 -68.7049 -68.6901 -68.6895 -68.6888 -68.6879
    -8.5230  -8.3250   2.7020   2.7782   3.3337   3.5711   3.7030   3.7500
     4.3559   4.3698   4.4597   4.5397   4.9986   5.0041   6.3879   6.5778
     7.6591   7.6869

     occupation numbers 
     1.0000   1.0000   1.0000   1.0000   1.0000   1.0000   1.0000   1.0000
     1.0000   1.0000   1.0000   1.0000   1.0000   1.0000   1.0000   1.0000
     1.0000   1.0000   1.0000   1.0000   1.0000   1.0000   1.0000   1.0000
     1.0000   1.0000

          k =-0.5000-0.8660 0.5501 (  3866 PWs)   bands (ev):

  -114.3358-114.3353 -68.7060 -68.7049 -68.6902 -68.6896 -68.6888 -68.6878
    -8.5377  -8.3143   2.7412   2.8436   3.3151   3.5962   3.7334   3.7931
     4.3164   4.3664   4.4720   4.5396   5.0124   5.0274   6.1671   6.4950
     7.5944   7.7527

     occupation numbers 
     1.0000   1.0000   1.0000   1.0000   1.0000   1.0000   1.0000   1.0000
     1.0000   1.0000   1.0000   1.0000   1.0000   1.0000   1.0000   1.0000
     1.0000   1.0000   1.0000   1.0000   1.0000   1.0000   1.0000   1.0000
     1.0000   1.0000

          k =-0.5000-0.8660 0.5924 (  3876 PWs)   bands (ev):

  -114.3358-114.3353 -68.7061 -68.7049 -68.6902 -68.6896 -68.6888 -68.6878
    -8.5469  -8.3079   2.7672   2.8889   3.3039   3.6207   3.7526   3.8238
     4.2850   4.3644   4.4805   4.5387   5.0181   5.0557   6.0126   6.4424
     7.5428   7.7932

     occupation numbers 
     1.0000   1.0000   1.0000   1.0000   1.0000   1.0000   1.0000   1.0000
     1.0000   1.0000   1.0000   1.0000   1.0000   1.0000   1.0000   1.0000
     1.0000   1.0000   1.0000   1.0000   1.0000   1.0000   1.0000   1.0000
     1.0000   1.0000

          k =-0.5000-0.8660 0.6347 (  3868 PWs)   bands (ev):

  -114.3358-114.3353 -68.7060 -68.7048 -68.6902 -68.6896 -68.6888 -68.6878
    -8.5501  -8.3058   2.7764   2.9049   3.3002   3.6313   3.7592   3.8351
     4.2726   4.3638   4.4836   4.5382   5.0202   5.0682   5.9559   6.4244
     7.5232   7.8069

     occupation numbers 
     1.0000   1.0000   1.0000   1.0000   1.0000   1.0000   1.0000   1.0000
     1.0000   1.0000   1.0000   1.0000   1.0000   1.0000   1.0000   1.0000
     1.0000   1.0000   1.0000   1.0000   1.0000   1.0000   1.0000   1.0000
     1.0000   1.0000

     highest occupied level (ev):     8.7688



               ==================================================
                            POLARIZATION CALCULATION
                         !!! NOT THOROUGHLY TESTED !!!
               --------------------------------------------------


                     K-POINTS STRINGS USED IN CALCULATIONS
                     ~~~~~~~~~~~~~~~~~~~~~~~~~~~~~~~~~~~~~

       G-vector along string (2 pi/a):  0.00000  0.00000  0.63472
       Modulus of the vector (1/bohr):  0.64737
       Number of k-points per string:  16
       Number of different strings  :  34


                               IONIC POLARIZATION
                               ~~~~~~~~~~~~~~~~~~

        Note: (mod 1) means that the phases (angles ranging from
        -pi to pi) have been mapped to the interval [-1/2,+1/2) by
        dividing by 2*pi; (mod 2) refers to the interval [-1,+1)

  ============================================================================
    Ion    Species    Charge              Position                Phase
  ----------------------------------------------------------------------------
     1        O        6.000       0.5000  0.2887  0.0116     0.04408 (mod 2)
     2        O        6.000      -0.0000  0.5773  0.7993    -0.95593 (mod 2)
     3        Zn      20.000       0.5000  0.2887  0.9711     0.32708 (mod 2)
     4        Zn      20.000      -0.0000  0.5773  1.7588     0.32708 (mod 2)
  ----------------------------------------------------------------------------
                                               IONIC PHASE:  -0.25768 (mod 2)
  ============================================================================


                            ELECTRONIC POLARIZATION
                            ~~~~~~~~~~~~~~~~~~~~~~~

        Note: (mod 1) means that the phases (angles ranging from
        -pi to pi) have been mapped to the interval [-1/2,+1/2) by
        dividing by 2*pi; (mod 2) refers to the interval [-1,+1)

  ============================================================================
   Spin    String     Weight      First k-point in string         Phase
  ----------------------------------------------------------------------------
    up        1      0.015625      0.0000  0.0000  0.0000     0.33385 (mod 1)
    up        2      0.031250      0.0000  0.1443  0.0000     0.35160 (mod 1)
    up        3      0.031250      0.0000  0.2887  0.0000     0.35253 (mod 1)
    up        4      0.031250      0.0000  0.4330  0.0000     0.34907 (mod 1)
    up        5      0.015625     -0.0000 -0.5774 -0.0000     0.34756 (mod 1)
    up        6      0.031250      0.1250  0.0722  0.0000     0.35160 (mod 1)
    up        7      0.031250      0.1250  0.2165  0.0000     0.35341 (mod 1)
    up        8      0.031250      0.1250  0.3608  0.0000     0.34970 (mod 1)
    up        9      0.031250      0.1250  0.5052  0.0000     0.34603 (mod 1)
    up       10      0.031250      0.1250 -0.5052 -0.0000     0.34603 (mod 1)
    up       11      0.031250      0.1250 -0.3608 -0.0000     0.34970 (mod 1)
    up       12      0.031250      0.1250 -0.2165 -0.0000     0.35341 (mod 1)
    up       13      0.031250      0.1250 -0.0722 -0.0000     0.35160 (mod 1)
    up       14      0.031250      0.2500  0.1443  0.0000     0.35253 (mod 1)
    up       15      0.031250      0.2500  0.2887  0.0000     0.34970 (mod 1)
    up       16      0.031250      0.2500  0.4330  0.0000     0.34452 (mod 1)
    up       17      0.031250      0.2500  0.5774  0.0000     0.34181 (mod 1)
    up       18      0.031250      0.2500 -0.4330 -0.0000     0.34452 (mod 1)
    up       19      0.031250      0.2500 -0.2887 -0.0000     0.34970 (mod 1)
    up       20      0.031250      0.2500 -0.1443 -0.0000     0.35253 (mod 1)
    up       21      0.031250      0.2500  0.0000  0.0000     0.35341 (mod 1)
    up       22      0.031250      0.3750  0.2165  0.0000     0.34907 (mod 1)
    up       23      0.031250      0.3750  0.3608  0.0000     0.34603 (mod 1)
    up       24      0.031250      0.3750  0.5052  0.0000     0.34181 (mod 1)
    up       25      0.031250      0.3750  0.6495  0.0000     0.34181 (mod 1)
    up       26      0.031250      0.3750 -0.3608 -0.0000     0.34603 (mod 1)
    up       27      0.031250      0.3750 -0.2165 -0.0000     0.34907 (mod 1)
    up       28      0.031250      0.3750 -0.0722  0.0000     0.34970 (mod 1)
    up       29      0.031250      0.3750  0.0722  0.0000     0.34970 (mod 1)
    up       30      0.015625     -0.5000 -0.2887 -0.0000     0.34756 (mod 1)
    up       31      0.031250     -0.5000 -0.1443 -0.0000     0.34603 (mod 1)
    up       32      0.031250     -0.5000 -0.0000 -0.0000     0.34452 (mod 1)
    up       33      0.031250     -0.5000  0.1443 -0.0000     0.34603 (mod 1)
    up       34      0.015625     -0.5000 -0.8660 -0.0000     0.34756 (mod 1)
  ----------------------------------------------------------------------------
   down       1      0.015625      0.0000  0.0000  0.0000     0.33385 (mod 1)
   down       2      0.031250      0.0000  0.1443  0.0000     0.35160 (mod 1)
   down       3      0.031250      0.0000  0.2887  0.0000     0.35253 (mod 1)
   down       4      0.031250      0.0000  0.4330  0.0000     0.34907 (mod 1)
   down       5      0.015625     -0.0000 -0.5774 -0.0000     0.34756 (mod 1)
   down       6      0.031250      0.1250  0.0722  0.0000     0.35160 (mod 1)
   down       7      0.031250      0.1250  0.2165  0.0000     0.35341 (mod 1)
   down       8      0.031250      0.1250  0.3608  0.0000     0.34970 (mod 1)
   down       9      0.031250      0.1250  0.5052  0.0000     0.34603 (mod 1)
   down      10      0.031250      0.1250 -0.5052 -0.0000     0.34603 (mod 1)
   down      11      0.031250      0.1250 -0.3608 -0.0000     0.34970 (mod 1)
   down      12      0.031250      0.1250 -0.2165 -0.0000     0.35341 (mod 1)
   down      13      0.031250      0.1250 -0.0722 -0.0000     0.35160 (mod 1)
   down      14      0.031250      0.2500  0.1443  0.0000     0.35253 (mod 1)
   down      15      0.031250      0.2500  0.2887  0.0000     0.34970 (mod 1)
   down      16      0.031250      0.2500  0.4330  0.0000     0.34452 (mod 1)
   down      17      0.031250      0.2500  0.5774  0.0000     0.34181 (mod 1)
   down      18      0.031250      0.2500 -0.4330 -0.0000     0.34452 (mod 1)
   down      19      0.031250      0.2500 -0.2887 -0.0000     0.34970 (mod 1)
   down      20      0.031250      0.2500 -0.1443 -0.0000     0.35253 (mod 1)
   down      21      0.031250      0.2500  0.0000  0.0000     0.35341 (mod 1)
   down      22      0.031250      0.3750  0.2165  0.0000     0.34907 (mod 1)
   down      23      0.031250      0.3750  0.3608  0.0000     0.34603 (mod 1)
   down      24      0.031250      0.3750  0.5052  0.0000     0.34181 (mod 1)
   down      25      0.031250      0.3750  0.6495  0.0000     0.34181 (mod 1)
   down      26      0.031250      0.3750 -0.3608 -0.0000     0.34603 (mod 1)
   down      27      0.031250      0.3750 -0.2165 -0.0000     0.34907 (mod 1)
   down      28      0.031250      0.3750 -0.0722  0.0000     0.34970 (mod 1)
   down      29      0.031250      0.3750  0.0722  0.0000     0.34970 (mod 1)
   down      30      0.015625     -0.5000 -0.2887 -0.0000     0.34756 (mod 1)
   down      31      0.031250     -0.5000 -0.1443 -0.0000     0.34603 (mod 1)
   down      32      0.031250     -0.5000 -0.0000 -0.0000     0.34452 (mod 1)
   down      33      0.031250     -0.5000  0.1443 -0.0000     0.34603 (mod 1)
   down      34      0.015625     -0.5000 -0.8660 -0.0000     0.34756 (mod 1)
  ----------------------------------------------------------------------------
                                        Average phase (up):   0.34817 (mod 1)
                                      Average phase (down):   0.34817 (mod 1)
                                          ELECTRONIC PHASE:   0.69635 (mod 2)
  ============================================================================


                               SUMMARY OF PHASES
                               ~~~~~~~~~~~~~~~~~

                          Ionic Phase: -0.25768 (mod 2)
                     Electronic Phase:  0.69635 (mod 2)
                          TOTAL PHASE:  0.43866 (mod 2)


                             VALUES OF POLARIZATION
                             ~~~~~~~~~~~~~~~~~~~~~~

        The calculation of phases done along the direction of vector 3
        of the reciprocal lattice gives the following contribution to
        the polarization vector (in different units, and being Omega
        the volume of the unit cell):

           P =   4.2575602  (mod  19.4115202)  (e/Omega).bohr

           P =   0.0133466  (mod   0.0608512)  e/bohr^2

           P =   0.7630483  (mod   3.4789707)  C/m^2

        The polarization direction is:  (-0.00000 ,-0.00000 , 1.00000 )


               ==================================================



     Writing output data file ZnO.save/
 
     init_run     :      0.08s CPU      0.65s WALL (       1 calls)
     electrons    :     46.65s CPU     49.95s WALL (       1 calls)

     Called by init_run:
     wfcinit      :      0.00s CPU      0.01s WALL (       1 calls)
     wfcinit:atom :      0.01s CPU      0.01s WALL (     544 calls)
     wfcinit:wfcr :      4.09s CPU      5.10s WALL (     544 calls)
     potinit      :      0.01s CPU      0.14s WALL (       1 calls)
     hinit0       :      0.03s CPU      0.32s WALL (       1 calls)

     Called by electrons:
     c_bands      :     45.45s CPU     48.51s WALL (       1 calls)
     v_of_rho     :      0.01s CPU      0.06s WALL (       1 calls)
     v_h          :      0.00s CPU      0.00s WALL (       1 calls)
     v_xc         :      0.01s CPU      0.05s WALL (       1 calls)
     newd         :      0.00s CPU      0.03s WALL (       1 calls)

     Called by c_bands:
     init_us_2    :      0.04s CPU      0.04s WALL (    1564 calls)
     cegterg      :     41.17s CPU     43.10s WALL (     544 calls)

     Called by sum_band:

     Called by *egterg:
     h_psi        :     10.42s CPU     10.84s WALL (    5239 calls)
     s_psi        :      0.17s CPU      0.18s WALL (    5239 calls)
     g_psi        :      0.01s CPU      0.01s WALL (    4151 calls)
     cdiaghg      :     13.18s CPU     14.52s WALL (    4695 calls)
     cegterg:over :      2.74s CPU      3.38s WALL (    4151 calls)
     cegterg:upda :      7.94s CPU      8.19s WALL (    4151 calls)
     cegterg:last :      8.76s CPU      8.99s WALL (    1629 calls)
     cdiaghg:chol :      0.53s CPU      0.91s WALL (    4695 calls)
     cdiaghg:inve :      0.12s CPU      0.26s WALL (    4695 calls)
     cdiaghg:para :      1.12s CPU      1.16s WALL (    9390 calls)

     Called by h_psi:
     h_psi:pot    :     10.41s CPU     10.83s WALL (    5239 calls)
     h_psi:calbec :      0.68s CPU      0.72s WALL (    5239 calls)
     vloc_psi     :      9.54s CPU      9.92s WALL (    5239 calls)
     add_vuspsi   :      0.18s CPU      0.18s WALL (    5239 calls)

     General routines
     calbec       :      0.83s CPU      0.87s WALL (    6259 calls)
     fft          :      0.00s CPU      0.07s WALL (      13 calls)
     ffts         :      0.00s CPU      0.01s WALL (       1 calls)
     fftw         :      9.28s CPU      9.65s WALL (  243030 calls)
     interpolate  :      0.00s CPU      0.01s WALL (       1 calls)
 
     Parallel routines
     fft_scatt_xy :      0.44s CPU      0.45s WALL (  243044 calls)
     fft_scatt_yz :      7.49s CPU      7.81s WALL (  243044 calls)
 
     PWSCF        :     54.09s CPU   1m 0.94s WALL

 
   This run was terminated on:  22:22:33  15Jun2022            

=------------------------------------------------------------------------------=
   JOB DONE.
=------------------------------------------------------------------------------=
