
     Program PWSCF v.6.4.1 starts on 15Jul2022 at  2:10:43 

     This program is part of the open-source Quantum ESPRESSO suite
     for quantum simulation of materials; please cite
         "P. Giannozzi et al., J. Phys.:Condens. Matter 21 395502 (2009);
         "P. Giannozzi et al., J. Phys.:Condens. Matter 29 465901 (2017);
          URL http://www.quantum-espresso.org", 
     in publications or presentations arising from this work. More details at
     http://www.quantum-espresso.org/quote

     Parallel version (MPI), running on   128 processors

     MPI processes distributed on     2 nodes
     R & G space division:  proc/nbgrp/npool/nimage =     128
     Waiting for input...
     Reading input from standard input
Warning: card &IONS ignored
Warning: card   UPSCALE           = 100.D0, ignored
Warning: card / ignored
Warning: card &CELL ignored
Warning: card   CELL_DYNAMICS     = 'BFGS' ignored
Warning: card   PRESS_CONV_THR    = 0.5D0 ignored
Warning: card   CELL_DOFREE = 'ALL' ignored
Warning: card / ignored

     Current dimensions of program PWSCF are:
     Max number of different atomic species (ntypx) = 10
     Max number of k-points (npk) =  40000
     Max angular momentum in pseudopotentials (lmaxx) =  3

     Atomic positions and unit cell read from directory:
     ./temp/ZnO.save/
 

     Subspace diagonalization in iterative solution of the eigenvalue problem:
     one sub-group per band group will be used
     scalapack distributed-memory algorithm (size of sub-group:  8*  8 procs)

 
     Parallelization info
     --------------------
     sticks:   dense  smooth     PW     G-vecs:    dense   smooth      PW
     Min          91      43     12                 8449     2805     416
     Max          92      44     13                 8456     2814     423
     Sum       11705    5617   1573              1081841   359777   53655
 


     bravais-lattice index     =            0
     lattice parameter (alat)  =      18.4226  a.u.
     unit-cell volume          =    5728.8410 (a.u.)^3
     number of atoms/cell      =           72
     number of atomic types    =            3
     number of electrons       =       816.00
     number of Kohn-Sham states=          408
     kinetic-energy cutoff     =      60.0000  Ry
     charge density cutoff     =     500.0000  Ry
     Exchange-correlation      = SLA  PW   PSX  PSC ( 1  4 10  8 0 0)
     Using LIBXC version       =    4   3   4

     celldm(1)=  18.422634  celldm(2)=   0.000000  celldm(3)=   0.000000
     celldm(4)=   0.000000  celldm(5)=   0.000000  celldm(6)=   0.000000

     crystal axes: (cart. coord. in units of alat)
               a(1) = (   1.000000  -0.000928  -0.000030 )  
               a(2) = (  -0.500802   0.866030   0.000259 )  
               a(3) = (  -0.000032   0.000301   1.058552 )  

     reciprocal axes: (cart. coord. in units 2 pi/alat)
               b(1) = (  1.000537  0.578584 -0.000134 )  
               b(2) = (  0.001072  1.155315 -0.000329 )  
               b(3) = (  0.000028 -0.000266  0.944687 )  


     PseudoPot. # 1 for Zn read from file:
     ./GBRV_PBEsol/zn_pbesol_v1.uspp.F.UPF
     MD5 check sum: 7d8615e52efe7c1e2b1899de8658bae2
     Pseudo is Ultrasoft, Zval = 20.0
     Generated by new atomic code, or converted to UPF format
     Using radial grid of  943 points,  6 beta functions with: 
                l(1) =   0
                l(2) =   0
                l(3) =   1
                l(4) =   1
                l(5) =   2
                l(6) =   2
     Q(r) pseudized with  8 coefficients,  rinner =    1.100   1.100   1.100
                                                       1.100   1.100

     PseudoPot. # 2 for O  read from file:
     ./GBRV_PBEsol/o_pbesol_v1.2.uspp.F.UPF
     MD5 check sum: 501638753501ef6325af9037351f7734
     Pseudo is Ultrasoft + core correction, Zval =  6.0
     Generated by new atomic code, or converted to UPF format
     Using radial grid of  737 points,  5 beta functions with: 
                l(1) =   0
                l(2) =   0
                l(3) =   1
                l(4) =   1
                l(5) =   2
     Q(r) pseudized with  8 coefficients,  rinner =    0.900   0.900   0.900
                                                       0.900   0.900

     PseudoPot. # 3 for Mg read from file:
     ./GBRV_PBEsol/mg_pbesol_v1.4.uspp.F.UPF
     MD5 check sum: 4059f37963cf5867752dbf5ab2400678
     Pseudo is Ultrasoft, Zval = 10.0
     Generated by new atomic code, or converted to UPF format
     Using radial grid of  821 points,  7 beta functions with: 
                l(1) =   0
                l(2) =   0
                l(3) =   0
                l(4) =   1
                l(5) =   1
                l(6) =   2
                l(7) =   2
     Q(r) pseudized with  8 coefficients,  rinner =    1.200   1.200   1.200
                                                       1.200   1.200

     atomic species   valence    mass     pseudopotential
        Zn            20.00    65.38000     Zn( 1.00)
        O              6.00    15.99900     O ( 1.00)
        Mg            10.00    24.30500     Mg( 1.00)

     No symmetry found


                                    s                        frac. trans.

      isym =  1     identity                                     

 cryst.   s( 1) = (     1          0          0      )
                  (     0          1          0      )
                  (     0          0          1      )

 cart.    s( 1) = (  1.0000000  0.0000000 -0.0000000 )
                  (  0.0000000  1.0000000  0.0000000 )
                  (  0.0000000 -0.0000000  1.0000000 )


   Cartesian axes

     site n.     atom                  positions (alat units)
         1           Zn  tau(   1) = (   0.1665782   0.0963963   0.2063895  )
         2           Zn  tau(   2) = (   0.1668732   0.0959665   0.7349641  )
         3           Zn  tau(   3) = (   0.0009512   0.3842426   0.2055995  )
         4           Zn  tau(   4) = (  -0.0012324   0.3860801   0.7351203  )
         5           Zn  tau(   5) = (  -0.1666999   0.6766862   0.2051618  )
         6           Zn  tau(   6) = (  -0.1681826   0.6717785   0.7345261  )
         7           Zn  tau(   7) = (   0.4991504   0.0949259   0.2068892  )
         8           Zn  tau(   8) = (   0.5001759   0.0965776   0.7363596  )
         9           Zn  tau(   9) = (   0.3329240   0.3842664   0.2043651  )
        10           Mg  tau(  10) = (   0.3334331   0.3827568   0.7364896  )
        11           Mg  tau(  11) = (   0.1644999   0.6754591   0.2061182  )
        12           Zn  tau(  12) = (   0.1670393   0.6718018   0.7329226  )
        13           Zn  tau(  13) = (   0.8334668   0.0950380   0.2050798  )
        14           Mg  tau(  14) = (   0.8319995   0.0946389   0.7372724  )
        15           Zn  tau(  15) = (   0.6647916   0.3833201   0.2051261  )
        16           Mg  tau(  16) = (   0.6664312   0.3844256   0.7362316  )
        17           Mg  tau(  17) = (   0.4991625   0.6729465   0.2047595  )
        18           Mg  tau(  18) = (   0.4979733   0.6714723   0.7348728  )
        19           Zn  tau(  19) = (  -0.0014577   0.1926390   0.4718923  )
        20           Zn  tau(  20) = (   0.0011638   0.1944231   0.9999335  )
        21           Zn  tau(  21) = (  -0.1676651   0.4815598   0.4689971  )
        22           Mg  tau(  22) = (  -0.1658724   0.4813407   1.0027464  )
        23           Mg  tau(  23) = (  -0.3341635   0.7699521   0.4703235  )
        24           Mg  tau(  24) = (  -0.3326666   0.7719689   0.9987826  )
        25           Zn  tau(  25) = (   0.3338010   0.1937891   0.4715975  )
        26           Zn  tau(  26) = (   0.3337474   0.1919342   1.0010450  )
        27           Mg  tau(  27) = (   0.1672133   0.4788865   0.4696311  )
        28           Mg  tau(  28) = (   0.1662509   0.4814035   0.9992890  )
        29           Mg  tau(  29) = (  -0.0008876   0.7706306   0.4737941  )
        30           Zn  tau(  30) = (   0.0002063   0.7688912   0.9985049  )
        31           Zn  tau(  31) = (   0.6670821   0.1928319   0.4704278  )
        32           Zn  tau(  32) = (   0.6653207   0.1917119   0.9997163  )
        33           Zn  tau(  33) = (   0.4991099   0.4793790   0.4700145  )
        34           Zn  tau(  34) = (   0.4999369   0.4811885   0.9980057  )
        35           Zn  tau(  35) = (   0.3327413   0.7694323   0.4693531  )
        36           Zn  tau(  36) = (   0.3316869   0.7677159   0.9989545  )
        37           O   tau(  37) = (   0.1665706   0.0965786   0.0034246  )
        38           O   tau(  38) = (   0.1664922   0.0963300   0.5315291  )
        39           O   tau(  39) = (   0.0006478   0.3856641   0.0028161  )
        40           O   tau(  40) = (  -0.0008291   0.3855971   0.5315934  )
        41           O   tau(  41) = (  -0.1674082   0.6740724   0.0019744  )
        42           O   tau(  42) = (  -0.1678967   0.6739782   0.5315273  )
        43           O   tau(  43) = (   0.4998870   0.0944852   0.0036949  )
        44           O   tau(  44) = (   0.5000643   0.0969332   0.5328581  )
        45           O   tau(  45) = (   0.3330194   0.3850129   0.0007906  )
        46           O   tau(  46) = (   0.3326549   0.3848557   0.5344409  )
        47           O   tau(  47) = (   0.1656054   0.6723493   0.0041591  )
        48           O   tau(  48) = (   0.1656532   0.6718574   0.5291533  )
        49           O   tau(  49) = (   0.8335917   0.0952285   0.0011108  )
        50           O   tau(  50) = (   0.8325705   0.0950880   0.5344793  )
        51           O   tau(  51) = (   0.6663790   0.3842654   0.0016471  )
        52           O   tau(  52) = (   0.6665849   0.3847903   0.5335027  )
        53           O   tau(  53) = (   0.5008546   0.6736741   0.0020172  )
        54           O   tau(  54) = (   0.4995741   0.6729810   0.5318567  )
        55           O   tau(  55) = (  -0.0004740   0.1924041   0.2683446  )
        56           O   tau(  56) = (  -0.0005453   0.1923940   0.7962992  )
        57           O   tau(  57) = (  -0.1672662   0.4817207   0.2649379  )
        58           O   tau(  58) = (  -0.1676238   0.4806152   0.8000549  )
        59           O   tau(  59) = (  -0.3349645   0.7696482   0.2676558  )
        60           O   tau(  60) = (  -0.3353279   0.7688924   0.7961569  )
        61           O   tau(  61) = (   0.3331989   0.1927040   0.2679754  )
        62           O   tau(  62) = (   0.3331336   0.1911132   0.7979089  )
        63           O   tau(  63) = (   0.1669451   0.4823375   0.2669564  )
        64           O   tau(  64) = (   0.1671445   0.4799023   0.7967123  )
        65           O   tau(  65) = (  -0.0007218   0.7698680   0.2713032  )
        66           O   tau(  66) = (  -0.0002399   0.7685498   0.7946225  )
        67           O   tau(  67) = (   0.6667770   0.1913780   0.2673277  )
        68           O   tau(  68) = (   0.6668333   0.1924513   0.7967982  )
        69           O   tau(  69) = (   0.4992555   0.4808192   0.2668711  )
        70           O   tau(  70) = (   0.4995547   0.4798594   0.7949615  )
        71           O   tau(  71) = (   0.3327682   0.7687001   0.2660370  )
        72           O   tau(  72) = (   0.3326713   0.7683885   0.7960091  )

   Crystallographic axes

     site n.     atom                  positions (cryst. coord.)
         1           Zn  tau(   1) = (  0.2224133  0.1114787  0.1949525  )
         2           Zn  tau(   2) = (  0.2223888  0.1108086  0.6942902  )
         3           Zn  tau(   3) = (  0.2232407  0.4438545  0.1941250  )
         4           Zn  tau(   4) = (  0.2220480  0.4458008  0.6943559  )
         5           Zn  tau(   5) = (  0.2247027  0.7815391  0.1936291  )
         6           Zn  tau(   6) = (  0.2203086  0.7756935  0.6937139  )
         7           Zn  tau(   7) = (  0.5543135  0.1101365  0.1954341  )
         8           Zn  tau(   8) = (  0.5562241  0.1118716  0.6956176  )
         9           Zn  tau(   9) = (  0.5554058  0.4442384  0.1929681  )
        10           Mg  tau(  10) = (  0.5549703  0.4423197  0.6956597  )
        11           Mg  tau(  11) = (  0.5553703  0.7804763  0.1945421  )
        12           Zn  tau(  12) = (  0.5557244  0.7760804  0.6922084  )
        13           Zn  tau(  13) = (  0.8888746  0.1106250  0.1937341  )
        14           Mg  tau(  14) = (  0.8871042  0.1099873  0.6964897  )
        15           Zn  tau(  15) = (  0.8869042  0.4435007  0.1936964  )
        16           Mg  tau(  16) = (  0.8891130  0.4446048  0.6954247  )
        17           Mg  tau(  17) = (  0.8887592  0.7779327  0.1932685  )
        18           Mg  tau(  18) = (  0.8866454  0.7760539  0.6940600  )
        19           Zn  tau(  19) = (  0.1099360  0.2224018  0.4457393  )
        20           Zn  tau(  20) = (  0.1135202  0.2242921  0.9445726  )
        21           Zn  tau(  21) = (  0.1108046  0.5560189  0.4429228  )
        22           Mg  tau(  22) = (  0.1123999  0.5555922  0.9471489  )
        23           Mg  tau(  23) = (  0.1110757  0.8890239  0.4440944  )
        24           Mg  tau(  24) = (  0.1136693  0.8911816  0.9433224  )
        25           Zn  tau(  25) = (  0.4460403  0.2240901  0.4454698  )
        26           Zn  tau(  26) = (  0.4448423  0.2217728  0.9456325  )
        27           Mg  tau(  27) = (  0.4443161  0.5532893  0.4435317  )
        28           Mg  tau(  28) = (  0.4447384  0.5560220  0.9438920  )
        29           Mg  tau(  29) = (  0.4449228  0.8901640  0.4473821  )
        30           Zn  tau(  30) = (  0.4449404  0.8879829  0.9430701  )
        31           Zn  tau(  31) = (  0.7789469  0.2233420  0.4443743  )
        32           Zn  tau(  32) = (  0.7764654  0.2218720  0.9443866  )
        33           Zn  tau(  33) = (  0.7766760  0.5542140  0.4439030  )
        34           Zn  tau(  34) = (  0.7784795  0.5561318  0.9426889  )
        35           Zn  tau(  35) = (  0.7780382  0.8891387  0.4431963  )
        36           Zn  tau(  36) = (  0.7759191  0.8869803  0.9435043  )
        37           O   tau(  37) = (  0.2225385  0.1117561  0.0032141  )
        38           O   tau(  38) = (  0.2222453  0.1112951  0.5021077  )
        39           O   tau(  39) = (  0.2237868  0.4455632  0.0025578  )
        40           O   tau(  40) = (  0.2221993  0.4453101  0.5020868  )
        41           O   tau(  41) = (  0.2225090  0.7785855  0.0016812  )
        42           O   tau(  42) = (  0.2218946  0.7783019  0.5019430  )
        43           O   tau(  43) = (  0.5548228  0.1096950  0.0034793  )
        44           O   tau(  44) = (  0.5563455  0.1123493  0.5033723  )
        45           O   tau(  45) = (  0.5559606  0.4451678  0.0006537  )
        46           O   tau(  46) = (  0.5554332  0.4448103  0.5047863  )
        47           O   tau(  47) = (  0.5547043  0.7769511  0.0037547  )
        48           O   tau(  48) = (  0.5543971  0.7762101  0.4997102  )
        49           O   tau(  49) = (  0.8891372  0.1109123  0.0010472  )
        50           O   tau(  50) = (  0.8879625  0.1105735  0.5049135  )
        51           O   tau(  51) = (  0.8890667  0.4446614  0.0014722  )
        52           O   tau(  52) = (  0.8895050  0.4450930  0.5039093  )
        53           O   tau(  53) = (  0.8909006  0.7788419  0.0017402  )
        54           O   tau(  54) = (  0.8891471  0.7778654  0.5022730  )
        55           O   tau(  55) = (  0.1108117  0.2221984  0.2534505  )
        56           O   tau(  56) = (  0.1106636  0.2220130  0.7522024  )
        57           O   tau(  57) = (  0.1113241  0.5562724  0.2501507  )
        58           O   tau(  58) = (  0.1102549  0.5548188  0.7556690  )
        59           O   tau(  59) = (  0.1101257  0.8887386  0.2526369  )
        60           O   tau(  60) = (  0.1092538  0.8876911  0.7519053  )
        61           O   tau(  61) = (  0.4448374  0.2229028  0.2531109  )
        62           O   tau(  62) = (  0.4437806  0.2208905  0.7537327  )
        63           O   tau(  63) = (  0.4460717  0.5573427  0.2520666  )
        64           O   tau(  64) = (  0.4447911  0.5543552  0.7525208  )
        65           O   tau(  65) = (  0.4446746  0.8893497  0.2560917  )
        66           O   tau(  66) = (  0.4443239  0.8876551  0.7504651  )
        67           O   tau(  67) = (  0.7778277  0.2217287  0.2525086  )
        68           O   tau(  68) = (  0.7784339  0.2227946  0.7526923  )
        69           O   tau(  69) = (  0.7776822  0.5559449  0.2519956  )
        70           O   tau(  70) = (  0.7773554  0.5546627  0.7508760  )
        71           O   tau(  71) = (  0.7776688  0.8883597  0.2511265  )
        72           O   tau(  72) = (  0.7773204  0.8878253  0.7517844  )

     number of k points=    80
                       cart. coord. in units 2pi/alat
        k(    1) = (   0.0000000   0.0000000   0.0000000), wk =   0.0156250
        k(    2) = (   0.0000040  -0.0000380   0.1349553), wk =   0.0156250
        k(    3) = (   0.0000079  -0.0000760   0.2699106), wk =   0.0156250
        k(    4) = (   0.0000119  -0.0001140   0.4048659), wk =   0.0156250
        k(    5) = (   0.0000158  -0.0001520   0.5398212), wk =   0.0156250
        k(    6) = (   0.0000198  -0.0001901   0.6747765), wk =   0.0156250
        k(    7) = (   0.0000238  -0.0002281   0.8097318), wk =   0.0156250
        k(    8) = (   0.0000277  -0.0002661   0.9446871), wk =   0.0156250
        k(    9) = (   0.0002681   0.2888286  -0.0000823), wk =   0.0312500
        k(   10) = (   0.0002720   0.2887906   0.1348730), wk =   0.0312500
        k(   11) = (   0.0002760   0.2887526   0.2698284), wk =   0.0312500
        k(   12) = (   0.0002799   0.2887146   0.4047837), wk =   0.0312500
        k(   13) = (   0.0002839   0.2886766   0.5397390), wk =   0.0312500
        k(   14) = (   0.0002879   0.2886386   0.6746943), wk =   0.0312500
        k(   15) = (   0.0002918   0.2886006   0.8096496), wk =   0.0312500
        k(   16) = (   0.0002958   0.2885626   0.9446049), wk =   0.0312500
        k(   17) = (  -0.0005361  -0.5776573   0.0001645), wk =   0.0156250
        k(   18) = (  -0.0005322  -0.5776953   0.1351198), wk =   0.0156250
        k(   19) = (  -0.0005282  -0.5777333   0.2700751), wk =   0.0156250
        k(   20) = (  -0.0005242  -0.5777713   0.4050304), wk =   0.0156250
        k(   21) = (  -0.0005203  -0.5778093   0.5399857), wk =   0.0156250
        k(   22) = (  -0.0005163  -0.5778473   0.6749410), wk =   0.0156250
        k(   23) = (  -0.0005123  -0.5778854   0.8098963), wk =   0.0156250
        k(   24) = (  -0.0005084  -0.5779234   0.9448516), wk =   0.0156250
        k(   25) = (   0.2501344   0.1446460  -0.0000336), wk =   0.0312500
        k(   26) = (   0.2501383   0.1446080   0.1349217), wk =   0.0312500
        k(   27) = (   0.2501423   0.1445700   0.2698770), wk =   0.0312500
        k(   28) = (   0.2501462   0.1445319   0.4048323), wk =   0.0312500
        k(   29) = (   0.2501502   0.1444939   0.5397876), wk =   0.0312500
        k(   30) = (   0.2501542   0.1444559   0.6747429), wk =   0.0312500
        k(   31) = (   0.2501581   0.1444179   0.8096982), wk =   0.0312500
        k(   32) = (   0.2501621   0.1443799   0.9446535), wk =   0.0312500
        k(   33) = (   0.2504024   0.4334746  -0.0001158), wk =   0.0312500
        k(   34) = (   0.2504064   0.4334366   0.1348395), wk =   0.0312500
        k(   35) = (   0.2504103   0.4333986   0.2697948), wk =   0.0312500
        k(   36) = (   0.2504143   0.4333606   0.4047501), wk =   0.0312500
        k(   37) = (   0.2504183   0.4333226   0.5397054), wk =   0.0312500
        k(   38) = (   0.2504222   0.4332846   0.6746607), wk =   0.0312500
        k(   39) = (   0.2504262   0.4332466   0.8096160), wk =   0.0312500
        k(   40) = (   0.2504301   0.4332085   0.9445713), wk =   0.0312500
        k(   41) = (   0.2495982  -0.4330113   0.0001309), wk =   0.0312500
        k(   42) = (   0.2496022  -0.4330493   0.1350862), wk =   0.0312500
        k(   43) = (   0.2496062  -0.4330873   0.2700415), wk =   0.0312500
        k(   44) = (   0.2496101  -0.4331253   0.4049968), wk =   0.0312500
        k(   45) = (   0.2496141  -0.4331634   0.5399521), wk =   0.0312500
        k(   46) = (   0.2496180  -0.4332014   0.6749075), wk =   0.0312500
        k(   47) = (   0.2496220  -0.4332394   0.8098628), wk =   0.0312500
        k(   48) = (   0.2496260  -0.4332774   0.9448181), wk =   0.0312500
        k(   49) = (   0.2498663  -0.1441827   0.0000487), wk =   0.0312500
        k(   50) = (   0.2498703  -0.1442207   0.1350040), wk =   0.0312500
        k(   51) = (   0.2498742  -0.1442587   0.2699593), wk =   0.0312500
        k(   52) = (   0.2498782  -0.1442967   0.4049146), wk =   0.0312500
        k(   53) = (   0.2498821  -0.1443347   0.5398699), wk =   0.0312500
        k(   54) = (   0.2498861  -0.1443727   0.6748252), wk =   0.0312500
        k(   55) = (   0.2498901  -0.1444107   0.8097805), wk =   0.0312500
        k(   56) = (   0.2498940  -0.1444487   0.9447358), wk =   0.0312500
        k(   57) = (  -0.5002687  -0.2892920   0.0000671), wk =   0.0156250
        k(   58) = (  -0.5002647  -0.2893300   0.1350224), wk =   0.0156250
        k(   59) = (  -0.5002608  -0.2893680   0.2699777), wk =   0.0156250
        k(   60) = (  -0.5002568  -0.2894060   0.4049330), wk =   0.0156250
        k(   61) = (  -0.5002529  -0.2894440   0.5398884), wk =   0.0156250
        k(   62) = (  -0.5002489  -0.2894820   0.6748437), wk =   0.0156250
        k(   63) = (  -0.5002449  -0.2895200   0.8097990), wk =   0.0156250
        k(   64) = (  -0.5002410  -0.2895580   0.9447543), wk =   0.0156250
        k(   65) = (  -0.5000006  -0.0004633  -0.0000151), wk =   0.0312500
        k(   66) = (  -0.4999967  -0.0005013   0.1349402), wk =   0.0312500
        k(   67) = (  -0.4999927  -0.0005393   0.2698955), wk =   0.0312500
        k(   68) = (  -0.4999888  -0.0005774   0.4048508), wk =   0.0312500
        k(   69) = (  -0.4999848  -0.0006154   0.5398061), wk =   0.0312500
        k(   70) = (  -0.4999808  -0.0006534   0.6747614), wk =   0.0312500
        k(   71) = (  -0.4999769  -0.0006914   0.8097167), wk =   0.0312500
        k(   72) = (  -0.4999729  -0.0007294   0.9446720), wk =   0.0312500
        k(   73) = (  -0.5008048  -0.8669493   0.0002316), wk =   0.0156250
        k(   74) = (  -0.5008009  -0.8669873   0.1351870), wk =   0.0156250
        k(   75) = (  -0.5007969  -0.8670253   0.2701423), wk =   0.0156250
        k(   76) = (  -0.5007929  -0.8670633   0.4050976), wk =   0.0156250
        k(   77) = (  -0.5007890  -0.8671013   0.5400529), wk =   0.0156250
        k(   78) = (  -0.5007850  -0.8671393   0.6750082), wk =   0.0156250
        k(   79) = (  -0.5007811  -0.8671773   0.8099635), wk =   0.0156250
        k(   80) = (  -0.5007771  -0.8672153   0.9449188), wk =   0.0156250

                       cryst. coord.
        k(    1) = (   0.0000000   0.0000000   0.0000000), wk =   0.0156250
        k(    2) = (   0.0000000  -0.0000000   0.1428571), wk =   0.0156250
        k(    3) = (   0.0000000  -0.0000000   0.2857143), wk =   0.0156250
        k(    4) = (   0.0000000  -0.0000000   0.4285714), wk =   0.0156250
        k(    5) = (   0.0000000  -0.0000000   0.5714286), wk =   0.0156250
        k(    6) = (   0.0000000  -0.0000000   0.7142857), wk =   0.0156250
        k(    7) = (   0.0000000  -0.0000000   0.8571429), wk =   0.0156250
        k(    8) = (   0.0000000  -0.0000000   1.0000000), wk =   0.0156250
        k(    9) = (   0.0000000   0.2500000   0.0000000), wk =   0.0312500
        k(   10) = (   0.0000000   0.2500000   0.1428571), wk =   0.0312500
        k(   11) = (   0.0000000   0.2500000   0.2857143), wk =   0.0312500
        k(   12) = (  -0.0000000   0.2500000   0.4285714), wk =   0.0312500
        k(   13) = (   0.0000000   0.2500000   0.5714286), wk =   0.0312500
        k(   14) = (   0.0000000   0.2500000   0.7142857), wk =   0.0312500
        k(   15) = (   0.0000000   0.2500000   0.8571429), wk =   0.0312500
        k(   16) = (   0.0000000   0.2500000   1.0000000), wk =   0.0312500
        k(   17) = (  -0.0000000  -0.5000000  -0.0000000), wk =   0.0156250
        k(   18) = (  -0.0000000  -0.5000000   0.1428571), wk =   0.0156250
        k(   19) = (  -0.0000000  -0.5000000   0.2857143), wk =   0.0156250
        k(   20) = (  -0.0000000  -0.5000000   0.4285714), wk =   0.0156250
        k(   21) = (   0.0000000  -0.5000000   0.5714286), wk =   0.0156250
        k(   22) = (   0.0000000  -0.5000000   0.7142857), wk =   0.0156250
        k(   23) = (  -0.0000000  -0.5000000   0.8571429), wk =   0.0156250
        k(   24) = (  -0.0000000  -0.5000000   1.0000000), wk =   0.0156250
        k(   25) = (   0.2500000   0.0000000   0.0000000), wk =   0.0312500
        k(   26) = (   0.2500000  -0.0000000   0.1428571), wk =   0.0312500
        k(   27) = (   0.2500000   0.0000000   0.2857143), wk =   0.0312500
        k(   28) = (   0.2500000   0.0000000   0.4285714), wk =   0.0312500
        k(   29) = (   0.2500000   0.0000000   0.5714286), wk =   0.0312500
        k(   30) = (   0.2500000   0.0000000   0.7142857), wk =   0.0312500
        k(   31) = (   0.2500000   0.0000000   0.8571429), wk =   0.0312500
        k(   32) = (   0.2500000   0.0000000   1.0000000), wk =   0.0312500
        k(   33) = (   0.2500000   0.2500000  -0.0000000), wk =   0.0312500
        k(   34) = (   0.2500000   0.2500000   0.1428571), wk =   0.0312500
        k(   35) = (   0.2500000   0.2500000   0.2857143), wk =   0.0312500
        k(   36) = (   0.2500000   0.2500000   0.4285714), wk =   0.0312500
        k(   37) = (   0.2500000   0.2500000   0.5714286), wk =   0.0312500
        k(   38) = (   0.2500000   0.2500000   0.7142857), wk =   0.0312500
        k(   39) = (   0.2500000   0.2500000   0.8571429), wk =   0.0312500
        k(   40) = (   0.2500000   0.2500000   1.0000000), wk =   0.0312500
        k(   41) = (   0.2500000  -0.5000000  -0.0000000), wk =   0.0312500
        k(   42) = (   0.2500000  -0.5000000   0.1428571), wk =   0.0312500
        k(   43) = (   0.2500000  -0.5000000   0.2857143), wk =   0.0312500
        k(   44) = (   0.2500000  -0.5000000   0.4285714), wk =   0.0312500
        k(   45) = (   0.2500000  -0.5000000   0.5714286), wk =   0.0312500
        k(   46) = (   0.2500000  -0.5000000   0.7142857), wk =   0.0312500
        k(   47) = (   0.2500000  -0.5000000   0.8571429), wk =   0.0312500
        k(   48) = (   0.2500000  -0.5000000   1.0000000), wk =   0.0312500
        k(   49) = (   0.2500000  -0.2500000  -0.0000000), wk =   0.0312500
        k(   50) = (   0.2500000  -0.2500000   0.1428571), wk =   0.0312500
        k(   51) = (   0.2500000  -0.2500000   0.2857143), wk =   0.0312500
        k(   52) = (   0.2500000  -0.2500000   0.4285714), wk =   0.0312500
        k(   53) = (   0.2500000  -0.2500000   0.5714286), wk =   0.0312500
        k(   54) = (   0.2500000  -0.2500000   0.7142857), wk =   0.0312500
        k(   55) = (   0.2500000  -0.2500000   0.8571429), wk =   0.0312500
        k(   56) = (   0.2500000  -0.2500000   1.0000000), wk =   0.0312500
        k(   57) = (  -0.5000000  -0.0000000  -0.0000000), wk =   0.0156250
        k(   58) = (  -0.5000000   0.0000000   0.1428571), wk =   0.0156250
        k(   59) = (  -0.5000000  -0.0000000   0.2857143), wk =   0.0156250
        k(   60) = (  -0.5000000   0.0000000   0.4285714), wk =   0.0156250
        k(   61) = (  -0.5000000  -0.0000000   0.5714286), wk =   0.0156250
        k(   62) = (  -0.5000000   0.0000000   0.7142857), wk =   0.0156250
        k(   63) = (  -0.5000000  -0.0000000   0.8571429), wk =   0.0156250
        k(   64) = (  -0.5000000   0.0000000   1.0000000), wk =   0.0156250
        k(   65) = (  -0.5000000   0.2500000   0.0000000), wk =   0.0312500
        k(   66) = (  -0.5000000   0.2500000   0.1428571), wk =   0.0312500
        k(   67) = (  -0.5000000   0.2500000   0.2857143), wk =   0.0312500
        k(   68) = (  -0.5000000   0.2500000   0.4285714), wk =   0.0312500
        k(   69) = (  -0.5000000   0.2500000   0.5714286), wk =   0.0312500
        k(   70) = (  -0.5000000   0.2500000   0.7142857), wk =   0.0312500
        k(   71) = (  -0.5000000   0.2500000   0.8571429), wk =   0.0312500
        k(   72) = (  -0.5000000   0.2500000   1.0000000), wk =   0.0312500
        k(   73) = (  -0.5000000  -0.5000000   0.0000000), wk =   0.0156250
        k(   74) = (  -0.5000000  -0.5000000   0.1428571), wk =   0.0156250
        k(   75) = (  -0.5000000  -0.5000000   0.2857143), wk =   0.0156250
        k(   76) = (  -0.5000000  -0.5000000   0.4285714), wk =   0.0156250
        k(   77) = (  -0.5000000  -0.5000000   0.5714286), wk =   0.0156250
        k(   78) = (  -0.5000000  -0.5000000   0.7142857), wk =   0.0156250
        k(   79) = (  -0.5000000  -0.5000000   0.8571429), wk =   0.0156250
        k(   80) = (  -0.5000000  -0.5000000   1.0000000), wk =   0.0156250

     Dense  grid:  1081841 G-vectors     FFT dimensions: ( 135, 135, 144)

     Smooth grid:   359777 G-vectors     FFT dimensions: (  96,  96, 100)

     Dynamical RAM for                 wfc:       2.19 MB

     Dynamical RAM for     wfc (w. buffer):     177.00 MB

     Dynamical RAM for           str. fact:       0.39 MB

     Dynamical RAM for           local pot:       0.00 MB

     Dynamical RAM for          nlocal pot:       6.04 MB

     Dynamical RAM for                qrad:      21.02 MB

     Dynamical RAM for          rho,v,vnew:       1.22 MB

     Dynamical RAM for           G-vectors:       0.51 MB

     Dynamical RAM for          h,s,v(r/c):       1.91 MB

     Dynamical RAM for          <psi|beta>:       7.02 MB

     Dynamical RAM for                 psi:       8.74 MB

     Dynamical RAM for                hpsi:       8.74 MB

     Dynamical RAM for                spsi:       8.74 MB

     Dynamical RAM for      wfcinit/wfcrot:      11.63 MB

     Dynamical RAM for           addusdens:      31.08 MB

     Estimated static dynamical RAM per process >     208.08 MB

     Estimated max dynamical RAM per process >     243.23 MB

     Estimated total dynamical RAM >      30.40 GB

     Check: negative core charge=   -0.000002

     The potential is recalculated from file :
     ./temp/ZnO.save/charge-density

     Starting wfcs are  516 randomized atomic wfcs

     Band Structure Calculation
     Davidson diagonalization with overlap

     Computing kpt #:     1
     total cpu time spent up to now is       22.8 secs

     Computing kpt #:     2
     total cpu time spent up to now is       39.4 secs

     Computing kpt #:     3
     total cpu time spent up to now is       55.8 secs

     Computing kpt #:     4
     total cpu time spent up to now is       72.3 secs

     Computing kpt #:     5
     total cpu time spent up to now is       88.8 secs

     Computing kpt #:     6
     total cpu time spent up to now is      105.3 secs

     Computing kpt #:     7
     total cpu time spent up to now is      121.9 secs

     Computing kpt #:     8
     total cpu time spent up to now is      138.3 secs

     Computing kpt #:     9
     total cpu time spent up to now is      154.8 secs

     Computing kpt #:    10
     total cpu time spent up to now is      171.3 secs

     Computing kpt #:    11
     total cpu time spent up to now is      187.7 secs

     Computing kpt #:    12
     total cpu time spent up to now is      204.2 secs

     Computing kpt #:    13
     total cpu time spent up to now is      220.7 secs

     Computing kpt #:    14
     total cpu time spent up to now is      237.2 secs

     Computing kpt #:    15
     total cpu time spent up to now is      253.7 secs

     Computing kpt #:    16
     total cpu time spent up to now is      270.4 secs

     Computing kpt #:    17
     total cpu time spent up to now is      286.9 secs

     Computing kpt #:    18
     total cpu time spent up to now is      303.4 secs

     Computing kpt #:    19
     total cpu time spent up to now is      319.8 secs

     Computing kpt #:    20
     total cpu time spent up to now is      336.5 secs

     Computing kpt #:    21
     total cpu time spent up to now is      353.0 secs

     Computing kpt #:    22
     total cpu time spent up to now is      369.5 secs

     Computing kpt #:    23
     total cpu time spent up to now is      386.0 secs

     Computing kpt #:    24
     total cpu time spent up to now is      402.5 secs

     Computing kpt #:    25
     total cpu time spent up to now is      419.1 secs

     Computing kpt #:    26
     total cpu time spent up to now is      435.6 secs

     Computing kpt #:    27
     total cpu time spent up to now is      452.2 secs

     Computing kpt #:    28
     total cpu time spent up to now is      468.8 secs

     Computing kpt #:    29
     total cpu time spent up to now is      485.3 secs

     Computing kpt #:    30
     total cpu time spent up to now is      501.8 secs

     Computing kpt #:    31
     total cpu time spent up to now is      518.5 secs

     Computing kpt #:    32
     total cpu time spent up to now is      535.0 secs

     Computing kpt #:    33
     total cpu time spent up to now is      551.4 secs

     Computing kpt #:    34
     total cpu time spent up to now is      567.9 secs

     Computing kpt #:    35
     total cpu time spent up to now is      584.6 secs

     Computing kpt #:    36
     total cpu time spent up to now is      601.1 secs

     Computing kpt #:    37
     total cpu time spent up to now is      617.5 secs

     Computing kpt #:    38
     total cpu time spent up to now is      634.1 secs

     Computing kpt #:    39
     total cpu time spent up to now is      650.5 secs

     Computing kpt #:    40
     total cpu time spent up to now is      667.0 secs

     Computing kpt #:    41
     total cpu time spent up to now is      683.3 secs

     Computing kpt #:    42
     total cpu time spent up to now is      700.0 secs

     Computing kpt #:    43
     total cpu time spent up to now is      716.5 secs

     Computing kpt #:    44
     total cpu time spent up to now is      732.9 secs

     Computing kpt #:    45
     total cpu time spent up to now is      749.4 secs

     Computing kpt #:    46
     total cpu time spent up to now is      765.9 secs

     Computing kpt #:    47
     total cpu time spent up to now is      782.4 secs

     Computing kpt #:    48
     total cpu time spent up to now is      798.9 secs

     Computing kpt #:    49
     total cpu time spent up to now is      815.6 secs

     Computing kpt #:    50
     total cpu time spent up to now is      832.1 secs

     Computing kpt #:    51
     total cpu time spent up to now is      848.7 secs

     Computing kpt #:    52
     total cpu time spent up to now is      865.1 secs

     Computing kpt #:    53
     total cpu time spent up to now is      881.8 secs

     Computing kpt #:    54
     total cpu time spent up to now is      898.3 secs

     Computing kpt #:    55
     total cpu time spent up to now is      914.8 secs

     Computing kpt #:    56
     total cpu time spent up to now is      931.4 secs

     Computing kpt #:    57
     total cpu time spent up to now is      947.9 secs

     Computing kpt #:    58
     total cpu time spent up to now is      964.4 secs

     Computing kpt #:    59
     total cpu time spent up to now is      980.9 secs

     Computing kpt #:    60
     total cpu time spent up to now is      997.4 secs

     Computing kpt #:    61
     total cpu time spent up to now is     1014.0 secs

     Computing kpt #:    62
     total cpu time spent up to now is     1030.5 secs

     Computing kpt #:    63
     total cpu time spent up to now is     1046.9 secs

     Computing kpt #:    64
     total cpu time spent up to now is     1063.4 secs

     Computing kpt #:    65
     total cpu time spent up to now is     1079.8 secs

     Computing kpt #:    66
     total cpu time spent up to now is     1096.2 secs

     Computing kpt #:    67
     total cpu time spent up to now is     1112.8 secs

     Computing kpt #:    68
     total cpu time spent up to now is     1129.2 secs

     Computing kpt #:    69
     total cpu time spent up to now is     1145.7 secs

     Computing kpt #:    70
     total cpu time spent up to now is     1162.1 secs

     Computing kpt #:    71
     total cpu time spent up to now is     1178.6 secs

     Computing kpt #:    72
     total cpu time spent up to now is     1195.1 secs

     Computing kpt #:    73
     total cpu time spent up to now is     1211.6 secs

     Computing kpt #:    74
     total cpu time spent up to now is     1228.1 secs

     Computing kpt #:    75
     total cpu time spent up to now is     1244.7 secs

     Computing kpt #:    76
     total cpu time spent up to now is     1261.0 secs

     Computing kpt #:    77
     total cpu time spent up to now is     1277.4 secs

     Computing kpt #:    78
     total cpu time spent up to now is     1294.0 secs

     Computing kpt #:    79
     total cpu time spent up to now is     1310.5 secs

     Computing kpt #:    80
     total cpu time spent up to now is     1327.0 secs

     ethr =  1.23E-12,  avg # of iterations = 12.2

     total cpu time spent up to now is     1327.0 secs

     End of band structure calculation

          k = 0.0000 0.0000 0.0000 ( 44897 PWs)   bands (ev):

  -115.3318-115.3273-115.3254-115.3233-115.3216-115.3193-115.3165-115.3156
  -115.3134-115.3131-115.3075-115.3069-115.3044-115.3036-115.3033-115.3020
  -115.3005-115.3003-115.2994-115.2983-115.2983-115.2971-115.2969-115.2910
   -69.6922 -69.6889 -69.6878 -69.6858 -69.6858 -69.6836 -69.6833 -69.6829
   -69.6822 -69.6815 -69.6804 -69.6786 -69.6783 -69.6777 -69.6775 -69.6767
   -69.6757 -69.6748 -69.6748 -69.6736 -69.6735 -69.6720 -69.6714 -69.6701
   -69.6691 -69.6688 -69.6686 -69.6684 -69.6675 -69.6671 -69.6669 -69.6665
   -69.6656 -69.6655 -69.6654 -69.6641 -69.6638 -69.6635 -69.6631 -69.6617
   -69.6613 -69.6609 -69.6605 -69.6604 -69.6603 -69.6601 -69.6597 -69.6589
   -69.6582 -69.6579 -69.6575 -69.6570 -69.6569 -69.6562 -69.6560 -69.6556
   -69.6553 -69.6544 -69.6542 -69.6539 -69.6537 -69.6534 -69.6532 -69.6530
   -69.6529 -69.6518 -69.6515 -69.6507 -69.6500 -69.6494 -69.6462 -69.6433
   -64.7710 -64.7667 -64.7636 -64.7606 -64.7560 -64.7470 -64.7460 -64.7369
   -64.7327 -64.7320 -64.7289 -64.7280 -31.7664 -31.7596 -31.7578 -31.7574
   -31.7568 -31.7543 -31.7534 -31.7516 -31.7514 -31.7494 -31.7486 -31.7460
   -31.7455 -31.7426 -31.7404 -31.7390 -31.7371 -31.7348 -31.7332 -31.7320
   -31.7314 -31.7298 -31.7257 -31.7244 -31.7233 -31.7226 -31.7198 -31.7193
   -31.7187 -31.7179 -31.7166 -31.7165 -31.7153 -31.7115 -31.7079 -31.7060
   -10.0284  -9.6903  -9.6568  -9.6089  -9.5941  -9.5575  -9.5117  -9.4627
    -9.4108  -9.3950  -9.3818  -9.3534  -9.3383  -9.3223  -9.3058  -9.2718
    -9.2390  -9.2275  -9.2202  -9.1810  -9.1784  -9.1575  -9.1483  -9.1097
    -9.0797  -9.0740  -9.0681  -9.0421  -9.0308  -9.0197  -8.9932  -8.9865
    -8.9759  -8.9419  -8.9323  -8.8434   1.7630   1.7903   1.8032   1.8073
     1.8423   1.8471   1.8921   1.9164   1.9403   1.9518   1.9720   1.9828
     1.9879   2.0483   2.0547   2.0755   2.0951   2.1283   2.1466   2.1608
     2.1762   2.1975   2.2137   2.2272   2.2491   2.2558   2.2753   2.2823
     2.3073   2.3129   2.3271   2.3330   2.3512   2.3601   2.3730   2.3891
     2.3944   2.3954   2.4159   2.4276   2.4378   2.4397   2.4486   2.4624
     2.4660   2.4782   2.4876   2.4947   2.5043   2.5136   2.5191   2.5369
     2.5539   2.5642   2.5750   2.5898   2.6253   2.6427   2.6570   2.6779
     2.7019   2.7162   2.7259   2.7421   2.7662   2.7782   2.7873   2.8154
     2.8327   2.8498   2.8571   2.8882   2.9065   2.9210   2.9233   2.9566
     2.9713   2.9849   2.9953   3.0055   3.0161   3.0333   3.0689   3.0782
     3.0913   3.1002   3.1166   3.1432   3.1575   3.1580   3.1698   3.1958
     3.2089   3.2176   3.2333   3.2484   3.2628   3.2704   3.2863   3.3022
     3.3109   3.3249   3.3323   3.3377   3.3476   3.3591   3.3714   3.3720
     3.3756   3.3877   3.3993   3.4047   3.4339   3.4374   3.4503   3.4542
     3.4790   3.5047   3.5174   3.5590   3.5904   3.6698   3.7180   3.7389
     3.7601   3.8177   3.8326   3.8408   3.9104   3.9201   3.9468   3.9628
     4.0176   4.0219   4.0394   4.0757   4.1134   4.1560   4.2225   4.3084
     4.3139   4.3485   4.3737   4.3985   4.4275   4.5115   4.5208   4.5611
     4.5821   4.6198   4.6924   4.7263   4.7448   4.7962   4.8184   4.9135
     4.9566   4.9780   5.0162   5.0993   5.1292   5.2234   5.2506   5.2740
     5.3563   5.4053   5.5172   5.5853   5.6494   5.6555   5.6774   5.6873
     5.7450   5.8026   5.8259   5.8453   5.8748   5.8811   5.8912   5.9094
     5.9739   5.9930   6.0740   6.1045   6.1236   6.1340   6.1963   6.2054
     6.2568   6.2728   6.3048   6.3354   6.3659   6.3683   6.4063   6.4320
     6.4496   6.4608   6.4725   6.5003   6.5122   6.5163   6.5308   6.5401
     6.5821   6.5978   6.6078   6.6246   6.6873   6.7231   6.7706   6.7918
     6.8039   6.8384   6.8405   6.8777   6.8899   6.9458   6.9927   7.0186
     7.0844   7.1378   7.1466   7.1727   7.1922   7.4492   7.4660   7.5199

     occupation numbers 
     1.0000   1.0000   1.0000   1.0000   1.0000   1.0000   1.0000   1.0000
     1.0000   1.0000   1.0000   1.0000   1.0000   1.0000   1.0000   1.0000
     1.0000   1.0000   1.0000   1.0000   1.0000   1.0000   1.0000   1.0000
     1.0000   1.0000   1.0000   1.0000   1.0000   1.0000   1.0000   1.0000
     1.0000   1.0000   1.0000   1.0000   1.0000   1.0000   1.0000   1.0000
     1.0000   1.0000   1.0000   1.0000   1.0000   1.0000   1.0000   1.0000
     1.0000   1.0000   1.0000   1.0000   1.0000   1.0000   1.0000   1.0000
     1.0000   1.0000   1.0000   1.0000   1.0000   1.0000   1.0000   1.0000
     1.0000   1.0000   1.0000   1.0000   1.0000   1.0000   1.0000   1.0000
     1.0000   1.0000   1.0000   1.0000   1.0000   1.0000   1.0000   1.0000
     1.0000   1.0000   1.0000   1.0000   1.0000   1.0000   1.0000   1.0000
     1.0000   1.0000   1.0000   1.0000   1.0000   1.0000   1.0000   1.0000
     1.0000   1.0000   1.0000   1.0000   1.0000   1.0000   1.0000   1.0000
     1.0000   1.0000   1.0000   1.0000   1.0000   1.0000   1.0000   1.0000
     1.0000   1.0000   1.0000   1.0000   1.0000   1.0000   1.0000   1.0000
     1.0000   1.0000   1.0000   1.0000   1.0000   1.0000   1.0000   1.0000
     1.0000   1.0000   1.0000   1.0000   1.0000   1.0000   1.0000   1.0000
     1.0000   1.0000   1.0000   1.0000   1.0000   1.0000   1.0000   1.0000
     1.0000   1.0000   1.0000   1.0000   1.0000   1.0000   1.0000   1.0000
     1.0000   1.0000   1.0000   1.0000   1.0000   1.0000   1.0000   1.0000
     1.0000   1.0000   1.0000   1.0000   1.0000   1.0000   1.0000   1.0000
     1.0000   1.0000   1.0000   1.0000   1.0000   1.0000   1.0000   1.0000
     1.0000   1.0000   1.0000   1.0000   1.0000   1.0000   1.0000   1.0000
     1.0000   1.0000   1.0000   1.0000   1.0000   1.0000   1.0000   1.0000
     1.0000   1.0000   1.0000   1.0000   1.0000   1.0000   1.0000   1.0000
     1.0000   1.0000   1.0000   1.0000   1.0000   1.0000   1.0000   1.0000
     1.0000   1.0000   1.0000   1.0000   1.0000   1.0000   1.0000   1.0000
     1.0000   1.0000   1.0000   1.0000   1.0000   1.0000   1.0000   1.0000
     1.0000   1.0000   1.0000   1.0000   1.0000   1.0000   1.0000   1.0000
     1.0000   1.0000   1.0000   1.0000   1.0000   1.0000   1.0000   1.0000
     1.0000   1.0000   1.0000   1.0000   1.0000   1.0000   1.0000   1.0000
     1.0000   1.0000   1.0000   1.0000   1.0000   1.0000   1.0000   1.0000
     1.0000   1.0000   1.0000   1.0000   1.0000   1.0000   1.0000   1.0000
     1.0000   1.0000   1.0000   1.0000   1.0000   1.0000   1.0000   1.0000
     1.0000   1.0000   1.0000   1.0000   1.0000   1.0000   1.0000   1.0000
     1.0000   1.0000   1.0000   1.0000   1.0000   1.0000   1.0000   1.0000
     1.0000   1.0000   1.0000   1.0000   1.0000   1.0000   1.0000   1.0000
     1.0000   1.0000   1.0000   1.0000   1.0000   1.0000   1.0000   1.0000
     1.0000   1.0000   1.0000   1.0000   1.0000   1.0000   1.0000   1.0000
     1.0000   1.0000   1.0000   1.0000   1.0000   1.0000   1.0000   1.0000
     1.0000   1.0000   1.0000   1.0000   1.0000   1.0000   1.0000   1.0000
     1.0000   1.0000   1.0000   1.0000   1.0000   1.0000   1.0000   1.0000
     1.0000   1.0000   1.0000   1.0000   1.0000   1.0000   1.0000   1.0000
     1.0000   1.0000   1.0000   1.0000   1.0000   1.0000   1.0000   1.0000
     1.0000   1.0000   1.0000   1.0000   1.0000   1.0000   1.0000   1.0000
     1.0000   1.0000   1.0000   1.0000   1.0000   1.0000   1.0000   1.0000
     1.0000   1.0000   1.0000   1.0000   1.0000   1.0000   1.0000   1.0000
     1.0000   1.0000   1.0000   1.0000   1.0000   1.0000   1.0000   1.0000
     1.0000   1.0000   1.0000   1.0000   1.0000   1.0000   1.0000   1.0000
     1.0000   1.0000   1.0000   1.0000   1.0000   1.0000   1.0000   1.0000
     1.0000   1.0000   1.0000   1.0000   1.0000   1.0000   1.0000   1.0000

          k = 0.0000-0.0000 0.1350 ( 44951 PWs)   bands (ev):

  -115.3318-115.3273-115.3254-115.3233-115.3216-115.3193-115.3165-115.3156
  -115.3134-115.3131-115.3075-115.3069-115.3044-115.3036-115.3033-115.3020
  -115.3005-115.3003-115.2994-115.2983-115.2983-115.2971-115.2969-115.2910
   -69.6922 -69.6889 -69.6878 -69.6858 -69.6858 -69.6836 -69.6833 -69.6829
   -69.6822 -69.6815 -69.6804 -69.6786 -69.6783 -69.6777 -69.6775 -69.6767
   -69.6757 -69.6748 -69.6748 -69.6736 -69.6735 -69.6720 -69.6714 -69.6701
   -69.6691 -69.6688 -69.6686 -69.6684 -69.6675 -69.6671 -69.6669 -69.6665
   -69.6656 -69.6655 -69.6654 -69.6641 -69.6638 -69.6635 -69.6631 -69.6617
   -69.6613 -69.6609 -69.6605 -69.6604 -69.6602 -69.6601 -69.6597 -69.6589
   -69.6582 -69.6579 -69.6575 -69.6570 -69.6569 -69.6562 -69.6560 -69.6556
   -69.6553 -69.6544 -69.6542 -69.6539 -69.6537 -69.6534 -69.6532 -69.6530
   -69.6529 -69.6518 -69.6515 -69.6507 -69.6500 -69.6494 -69.6462 -69.6433
   -64.7710 -64.7667 -64.7636 -64.7606 -64.7560 -64.7470 -64.7460 -64.7369
   -64.7327 -64.7320 -64.7289 -64.7280 -31.7664 -31.7596 -31.7578 -31.7574
   -31.7568 -31.7543 -31.7534 -31.7516 -31.7514 -31.7494 -31.7486 -31.7460
   -31.7455 -31.7426 -31.7404 -31.7390 -31.7371 -31.7348 -31.7332 -31.7320
   -31.7314 -31.7298 -31.7257 -31.7244 -31.7232 -31.7226 -31.7198 -31.7193
   -31.7187 -31.7179 -31.7166 -31.7165 -31.7153 -31.7115 -31.7079 -31.7060
   -10.0202  -9.7447  -9.6261  -9.5957  -9.5855  -9.5517  -9.5078  -9.4607
    -9.4198  -9.4015  -9.3790  -9.3694  -9.3464  -9.3220  -9.2903  -9.2719
    -9.2522  -9.2332  -9.2166  -9.1935  -9.1648  -9.1521  -9.1316  -9.1080
    -9.0765  -9.0707  -9.0676  -9.0436  -9.0300  -9.0172  -8.9943  -8.9890
    -8.9777  -8.9459  -8.9368  -8.8446   1.7694   1.7972   1.8091   1.8168
     1.8466   1.8541   1.8971   1.9237   1.9412   1.9555   1.9771   1.9858
     1.9935   2.0484   2.0577   2.0785   2.0933   2.1362   2.1486   2.1619
     2.1781   2.2003   2.2138   2.2275   2.2452   2.2538   2.2720   2.2765
     2.3034   2.3121   2.3245   2.3326   2.3503   2.3580   2.3703   2.3867
     2.3907   2.3993   2.4137   2.4190   2.4299   2.4403   2.4513   2.4625
     2.4713   2.4778   2.4905   2.4966   2.5105   2.5109   2.5173   2.5381
     2.5507   2.5616   2.5791   2.5875   2.6187   2.6369   2.6596   2.6735
     2.6965   2.7131   2.7166   2.7394   2.7487   2.7709   2.7780   2.8072
     2.8214   2.8430   2.8539   2.8724   2.8960   2.9131   2.9210   2.9472
     2.9588   2.9689   2.9893   2.9938   3.0126   3.0194   3.0486   3.0643
     3.0787   3.1076   3.1163   3.1396   3.1535   3.1617   3.1655   3.1928
     3.2061   3.2174   3.2320   3.2576   3.2701   3.2743   3.2894   3.2960
     3.3074   3.3182   3.3370   3.3416   3.3514   3.3610   3.3692   3.3754
     3.3838   3.3881   3.4010   3.4122   3.4302   3.4358   3.4531   3.4641
     3.4792   3.4991   3.5103   3.5470   3.6101   3.6858   3.7230   3.7688
     3.7829   3.8182   3.8453   3.8788   3.9102   3.9390   3.9572   3.9846
     4.0197   4.0309   4.0548   4.0773   4.1196   4.1563   4.2302   4.3182
     4.3244   4.3551   4.3783   4.4121   4.4444   4.5106   4.5297   4.5678
     4.5825   4.6206   4.6847   4.7095   4.7357   4.7678   4.8159   4.8653
     4.9229   4.9859   5.0902   5.1170   5.1764   5.2251   5.2502   5.3024
     5.3784   5.4231   5.5136   5.5907   5.6505   5.6644   5.6817   5.7064
     5.7517   5.7986   5.8116   5.8393   5.8551   5.8782   5.8861   5.9109
     5.9244   5.9534   5.9891   6.0338   6.0543   6.1083   6.1649   6.1889
     6.2055   6.2595   6.2775   6.3053   6.3272   6.3487   6.4033   6.4360
     6.4470   6.4751   6.4887   6.5102   6.5368   6.5572   6.5752   6.5900
     6.6074   6.6231   6.6619   6.6727   6.7094   6.7379   6.7822   6.7922
     6.8139   6.8455   6.8546   6.8914   6.9046   6.9398   6.9852   7.0095
     7.0748   7.0901   7.1241   7.2043   7.2369   7.3632   7.4608   7.5137

     occupation numbers 
     1.0000   1.0000   1.0000   1.0000   1.0000   1.0000   1.0000   1.0000
     1.0000   1.0000   1.0000   1.0000   1.0000   1.0000   1.0000   1.0000
     1.0000   1.0000   1.0000   1.0000   1.0000   1.0000   1.0000   1.0000
     1.0000   1.0000   1.0000   1.0000   1.0000   1.0000   1.0000   1.0000
     1.0000   1.0000   1.0000   1.0000   1.0000   1.0000   1.0000   1.0000
     1.0000   1.0000   1.0000   1.0000   1.0000   1.0000   1.0000   1.0000
     1.0000   1.0000   1.0000   1.0000   1.0000   1.0000   1.0000   1.0000
     1.0000   1.0000   1.0000   1.0000   1.0000   1.0000   1.0000   1.0000
     1.0000   1.0000   1.0000   1.0000   1.0000   1.0000   1.0000   1.0000
     1.0000   1.0000   1.0000   1.0000   1.0000   1.0000   1.0000   1.0000
     1.0000   1.0000   1.0000   1.0000   1.0000   1.0000   1.0000   1.0000
     1.0000   1.0000   1.0000   1.0000   1.0000   1.0000   1.0000   1.0000
     1.0000   1.0000   1.0000   1.0000   1.0000   1.0000   1.0000   1.0000
     1.0000   1.0000   1.0000   1.0000   1.0000   1.0000   1.0000   1.0000
     1.0000   1.0000   1.0000   1.0000   1.0000   1.0000   1.0000   1.0000
     1.0000   1.0000   1.0000   1.0000   1.0000   1.0000   1.0000   1.0000
     1.0000   1.0000   1.0000   1.0000   1.0000   1.0000   1.0000   1.0000
     1.0000   1.0000   1.0000   1.0000   1.0000   1.0000   1.0000   1.0000
     1.0000   1.0000   1.0000   1.0000   1.0000   1.0000   1.0000   1.0000
     1.0000   1.0000   1.0000   1.0000   1.0000   1.0000   1.0000   1.0000
     1.0000   1.0000   1.0000   1.0000   1.0000   1.0000   1.0000   1.0000
     1.0000   1.0000   1.0000   1.0000   1.0000   1.0000   1.0000   1.0000
     1.0000   1.0000   1.0000   1.0000   1.0000   1.0000   1.0000   1.0000
     1.0000   1.0000   1.0000   1.0000   1.0000   1.0000   1.0000   1.0000
     1.0000   1.0000   1.0000   1.0000   1.0000   1.0000   1.0000   1.0000
     1.0000   1.0000   1.0000   1.0000   1.0000   1.0000   1.0000   1.0000
     1.0000   1.0000   1.0000   1.0000   1.0000   1.0000   1.0000   1.0000
     1.0000   1.0000   1.0000   1.0000   1.0000   1.0000   1.0000   1.0000
     1.0000   1.0000   1.0000   1.0000   1.0000   1.0000   1.0000   1.0000
     1.0000   1.0000   1.0000   1.0000   1.0000   1.0000   1.0000   1.0000
     1.0000   1.0000   1.0000   1.0000   1.0000   1.0000   1.0000   1.0000
     1.0000   1.0000   1.0000   1.0000   1.0000   1.0000   1.0000   1.0000
     1.0000   1.0000   1.0000   1.0000   1.0000   1.0000   1.0000   1.0000
     1.0000   1.0000   1.0000   1.0000   1.0000   1.0000   1.0000   1.0000
     1.0000   1.0000   1.0000   1.0000   1.0000   1.0000   1.0000   1.0000
     1.0000   1.0000   1.0000   1.0000   1.0000   1.0000   1.0000   1.0000
     1.0000   1.0000   1.0000   1.0000   1.0000   1.0000   1.0000   1.0000
     1.0000   1.0000   1.0000   1.0000   1.0000   1.0000   1.0000   1.0000
     1.0000   1.0000   1.0000   1.0000   1.0000   1.0000   1.0000   1.0000
     1.0000   1.0000   1.0000   1.0000   1.0000   1.0000   1.0000   1.0000
     1.0000   1.0000   1.0000   1.0000   1.0000   1.0000   1.0000   1.0000
     1.0000   1.0000   1.0000   1.0000   1.0000   1.0000   1.0000   1.0000
     1.0000   1.0000   1.0000   1.0000   1.0000   1.0000   1.0000   1.0000
     1.0000   1.0000   1.0000   1.0000   1.0000   1.0000   1.0000   1.0000
     1.0000   1.0000   1.0000   1.0000   1.0000   1.0000   1.0000   1.0000
     1.0000   1.0000   1.0000   1.0000   1.0000   1.0000   1.0000   1.0000
     1.0000   1.0000   1.0000   1.0000   1.0000   1.0000   1.0000   1.0000
     1.0000   1.0000   1.0000   1.0000   1.0000   1.0000   1.0000   1.0000
     1.0000   1.0000   1.0000   1.0000   1.0000   1.0000   1.0000   1.0000
     1.0000   1.0000   1.0000   1.0000   1.0000   1.0000   1.0000   1.0000
     1.0000   1.0000   1.0000   1.0000   1.0000   1.0000   1.0000   1.0000

          k = 0.0000-0.0001 0.2699 ( 44995 PWs)   bands (ev):

  -115.3318-115.3273-115.3254-115.3233-115.3216-115.3193-115.3165-115.3156
  -115.3134-115.3131-115.3075-115.3069-115.3044-115.3036-115.3033-115.3020
  -115.3005-115.3003-115.2994-115.2983-115.2983-115.2971-115.2969-115.2910
   -69.6922 -69.6889 -69.6878 -69.6858 -69.6858 -69.6836 -69.6833 -69.6829
   -69.6822 -69.6815 -69.6804 -69.6786 -69.6783 -69.6777 -69.6775 -69.6767
   -69.6757 -69.6748 -69.6748 -69.6736 -69.6735 -69.6720 -69.6714 -69.6701
   -69.6691 -69.6688 -69.6686 -69.6684 -69.6675 -69.6671 -69.6669 -69.6665
   -69.6656 -69.6655 -69.6654 -69.6641 -69.6638 -69.6635 -69.6631 -69.6617
   -69.6613 -69.6609 -69.6606 -69.6604 -69.6602 -69.6601 -69.6597 -69.6589
   -69.6582 -69.6579 -69.6575 -69.6570 -69.6569 -69.6562 -69.6560 -69.6556
   -69.6553 -69.6544 -69.6542 -69.6539 -69.6537 -69.6534 -69.6532 -69.6530
   -69.6529 -69.6518 -69.6515 -69.6507 -69.6500 -69.6494 -69.6462 -69.6433
   -64.7710 -64.7667 -64.7636 -64.7606 -64.7560 -64.7470 -64.7460 -64.7369
   -64.7327 -64.7320 -64.7289 -64.7280 -31.7664 -31.7596 -31.7578 -31.7573
   -31.7568 -31.7544 -31.7534 -31.7516 -31.7515 -31.7494 -31.7486 -31.7460
   -31.7455 -31.7426 -31.7404 -31.7390 -31.7370 -31.7348 -31.7332 -31.7320
   -31.7315 -31.7298 -31.7257 -31.7244 -31.7232 -31.7227 -31.7198 -31.7193
   -31.7187 -31.7179 -31.7166 -31.7165 -31.7153 -31.7115 -31.7079 -31.7060
    -9.9969  -9.8131  -9.6082  -9.5827  -9.5612  -9.5382  -9.4975  -9.4596
    -9.4373  -9.4100  -9.3817  -9.3724  -9.3694  -9.3181  -9.2926  -9.2785
    -9.2628  -9.2426  -9.2117  -9.1875  -9.1579  -9.1377  -9.1162  -9.0989
    -9.0717  -9.0665  -9.0585  -9.0447  -9.0270  -9.0093  -8.9997  -8.9944
    -8.9803  -8.9569  -8.9496  -8.8473   1.7841   1.8099   1.8260   1.8406
     1.8562   1.8726   1.9058   1.9291   1.9538   1.9666   1.9757   1.9977
     2.0222   2.0478   2.0667   2.0875   2.0972   2.1479   2.1518   2.1676
     2.1816   2.1949   2.2157   2.2274   2.2322   2.2461   2.2606   2.2637
     2.2911   2.3076   2.3174   2.3356   2.3463   2.3492   2.3601   2.3793
     2.3889   2.3992   2.4089   2.4159   2.4313   2.4395   2.4517   2.4614
     2.4759   2.4862   2.4911   2.5032   2.5076   2.5147   2.5295   2.5394
     2.5502   2.5626   2.5804   2.5824   2.6014   2.6236   2.6480   2.6688
     2.6831   2.6875   2.6998   2.7089   2.7309   2.7359   2.7548   2.7940
     2.7976   2.8178   2.8379   2.8528   2.8789   2.8926   2.9111   2.9202
     2.9393   2.9538   2.9676   2.9741   3.0004   3.0058   3.0323   3.0524
     3.0725   3.0929   3.1083   3.1325   3.1434   3.1620   3.1642   3.1892
     3.2022   3.2124   3.2428   3.2561   3.2688   3.2861   3.2902   3.3011
     3.3116   3.3313   3.3415   3.3478   3.3538   3.3588   3.3750   3.3778
     3.3846   3.3961   3.4031   3.4171   3.4296   3.4423   3.4562   3.4660
     3.4784   3.4921   3.5090   3.5383   3.6641   3.6941   3.7400   3.7949
     3.8172   3.8659   3.8810   3.9054   3.9324   3.9642   3.9971   4.0242
     4.0294   4.0460   4.0788   4.1045   4.1308   4.1615   4.2414   4.3122
     4.3210   4.3429   4.3806   4.4428   4.4641   4.4989   4.5240   4.5879
     4.6087   4.6364   4.6570   4.7162   4.7450   4.7945   4.8412   4.8678
     4.9023   4.9632   5.1503   5.1910   5.2274   5.2605   5.2863   5.3406
     5.3795   5.4432   5.5132   5.5530   5.5981   5.6268   5.6599   5.7044
     5.7184   5.7333   5.7530   5.8004   5.8325   5.8631   5.8709   5.9085
     5.9133   5.9451   5.9565   5.9652   5.9997   6.0539   6.1101   6.1229
     6.1439   6.1776   6.2038   6.2557   6.2835   6.3402   6.3665   6.4331
     6.4598   6.5134   6.5277   6.5412   6.5678   6.5910   6.6196   6.6331
     6.6652   6.6815   6.7102   6.7377   6.7635   6.7914   6.7992   6.8079
     6.8447   6.8807   6.8880   6.9091   6.9281   6.9476   6.9684   6.9904
     7.0408   7.0541   7.0822   7.1725   7.2578   7.2886   7.4474   7.4978

     occupation numbers 
     1.0000   1.0000   1.0000   1.0000   1.0000   1.0000   1.0000   1.0000
     1.0000   1.0000   1.0000   1.0000   1.0000   1.0000   1.0000   1.0000
     1.0000   1.0000   1.0000   1.0000   1.0000   1.0000   1.0000   1.0000
     1.0000   1.0000   1.0000   1.0000   1.0000   1.0000   1.0000   1.0000
     1.0000   1.0000   1.0000   1.0000   1.0000   1.0000   1.0000   1.0000
     1.0000   1.0000   1.0000   1.0000   1.0000   1.0000   1.0000   1.0000
     1.0000   1.0000   1.0000   1.0000   1.0000   1.0000   1.0000   1.0000
     1.0000   1.0000   1.0000   1.0000   1.0000   1.0000   1.0000   1.0000
     1.0000   1.0000   1.0000   1.0000   1.0000   1.0000   1.0000   1.0000
     1.0000   1.0000   1.0000   1.0000   1.0000   1.0000   1.0000   1.0000
     1.0000   1.0000   1.0000   1.0000   1.0000   1.0000   1.0000   1.0000
     1.0000   1.0000   1.0000   1.0000   1.0000   1.0000   1.0000   1.0000
     1.0000   1.0000   1.0000   1.0000   1.0000   1.0000   1.0000   1.0000
     1.0000   1.0000   1.0000   1.0000   1.0000   1.0000   1.0000   1.0000
     1.0000   1.0000   1.0000   1.0000   1.0000   1.0000   1.0000   1.0000
     1.0000   1.0000   1.0000   1.0000   1.0000   1.0000   1.0000   1.0000
     1.0000   1.0000   1.0000   1.0000   1.0000   1.0000   1.0000   1.0000
     1.0000   1.0000   1.0000   1.0000   1.0000   1.0000   1.0000   1.0000
     1.0000   1.0000   1.0000   1.0000   1.0000   1.0000   1.0000   1.0000
     1.0000   1.0000   1.0000   1.0000   1.0000   1.0000   1.0000   1.0000
     1.0000   1.0000   1.0000   1.0000   1.0000   1.0000   1.0000   1.0000
     1.0000   1.0000   1.0000   1.0000   1.0000   1.0000   1.0000   1.0000
     1.0000   1.0000   1.0000   1.0000   1.0000   1.0000   1.0000   1.0000
     1.0000   1.0000   1.0000   1.0000   1.0000   1.0000   1.0000   1.0000
     1.0000   1.0000   1.0000   1.0000   1.0000   1.0000   1.0000   1.0000
     1.0000   1.0000   1.0000   1.0000   1.0000   1.0000   1.0000   1.0000
     1.0000   1.0000   1.0000   1.0000   1.0000   1.0000   1.0000   1.0000
     1.0000   1.0000   1.0000   1.0000   1.0000   1.0000   1.0000   1.0000
     1.0000   1.0000   1.0000   1.0000   1.0000   1.0000   1.0000   1.0000
     1.0000   1.0000   1.0000   1.0000   1.0000   1.0000   1.0000   1.0000
     1.0000   1.0000   1.0000   1.0000   1.0000   1.0000   1.0000   1.0000
     1.0000   1.0000   1.0000   1.0000   1.0000   1.0000   1.0000   1.0000
     1.0000   1.0000   1.0000   1.0000   1.0000   1.0000   1.0000   1.0000
     1.0000   1.0000   1.0000   1.0000   1.0000   1.0000   1.0000   1.0000
     1.0000   1.0000   1.0000   1.0000   1.0000   1.0000   1.0000   1.0000
     1.0000   1.0000   1.0000   1.0000   1.0000   1.0000   1.0000   1.0000
     1.0000   1.0000   1.0000   1.0000   1.0000   1.0000   1.0000   1.0000
     1.0000   1.0000   1.0000   1.0000   1.0000   1.0000   1.0000   1.0000
     1.0000   1.0000   1.0000   1.0000   1.0000   1.0000   1.0000   1.0000
     1.0000   1.0000   1.0000   1.0000   1.0000   1.0000   1.0000   1.0000
     1.0000   1.0000   1.0000   1.0000   1.0000   1.0000   1.0000   1.0000
     1.0000   1.0000   1.0000   1.0000   1.0000   1.0000   1.0000   1.0000
     1.0000   1.0000   1.0000   1.0000   1.0000   1.0000   1.0000   1.0000
     1.0000   1.0000   1.0000   1.0000   1.0000   1.0000   1.0000   1.0000
     1.0000   1.0000   1.0000   1.0000   1.0000   1.0000   1.0000   1.0000
     1.0000   1.0000   1.0000   1.0000   1.0000   1.0000   1.0000   1.0000
     1.0000   1.0000   1.0000   1.0000   1.0000   1.0000   1.0000   1.0000
     1.0000   1.0000   1.0000   1.0000   1.0000   1.0000   1.0000   1.0000
     1.0000   1.0000   1.0000   1.0000   1.0000   1.0000   1.0000   1.0000
     1.0000   1.0000   1.0000   1.0000   1.0000   1.0000   1.0000   1.0000
     1.0000   1.0000   1.0000   1.0000   1.0000   1.0000   1.0000   1.0000

          k = 0.0000-0.0001 0.4049 ( 45006 PWs)   bands (ev):

  -115.3318-115.3273-115.3254-115.3233-115.3216-115.3193-115.3165-115.3156
  -115.3134-115.3131-115.3075-115.3069-115.3044-115.3036-115.3033-115.3020
  -115.3005-115.3003-115.2994-115.2983-115.2983-115.2971-115.2969-115.2910
   -69.6922 -69.6889 -69.6878 -69.6858 -69.6858 -69.6836 -69.6833 -69.6829
   -69.6822 -69.6815 -69.6804 -69.6786 -69.6783 -69.6777 -69.6775 -69.6767
   -69.6757 -69.6748 -69.6748 -69.6736 -69.6735 -69.6720 -69.6714 -69.6701
   -69.6691 -69.6688 -69.6686 -69.6684 -69.6675 -69.6671 -69.6669 -69.6665
   -69.6656 -69.6655 -69.6654 -69.6641 -69.6638 -69.6635 -69.6631 -69.6617
   -69.6613 -69.6609 -69.6606 -69.6604 -69.6602 -69.6601 -69.6597 -69.6589
   -69.6582 -69.6579 -69.6575 -69.6570 -69.6569 -69.6562 -69.6560 -69.6556
   -69.6553 -69.6544 -69.6542 -69.6539 -69.6537 -69.6534 -69.6532 -69.6530
   -69.6529 -69.6518 -69.6515 -69.6507 -69.6500 -69.6494 -69.6462 -69.6433
   -64.7710 -64.7667 -64.7636 -64.7606 -64.7560 -64.7470 -64.7460 -64.7369
   -64.7327 -64.7320 -64.7289 -64.7280 -31.7664 -31.7596 -31.7578 -31.7572
   -31.7568 -31.7545 -31.7534 -31.7516 -31.7515 -31.7494 -31.7486 -31.7460
   -31.7455 -31.7426 -31.7404 -31.7390 -31.7369 -31.7348 -31.7332 -31.7320
   -31.7315 -31.7298 -31.7257 -31.7244 -31.7232 -31.7227 -31.7198 -31.7193
   -31.7187 -31.7179 -31.7166 -31.7165 -31.7153 -31.7115 -31.7079 -31.7060
    -9.9662  -9.8679  -9.5942  -9.5709  -9.5501  -9.5383  -9.4871  -9.4614
    -9.4446  -9.4244  -9.3932  -9.3645  -9.3509  -9.3292  -9.3110  -9.2975
    -9.2624  -9.2445  -9.1973  -9.1864  -9.1474  -9.1351  -9.1137  -9.0853
    -9.0723  -9.0633  -9.0466  -9.0409  -9.0269  -9.0053  -8.9980  -8.9919
    -8.9816  -8.9713  -8.9672  -8.8496   1.7959   1.8193   1.8415   1.8596
     1.8711   1.8895   1.9116   1.9246   1.9505   1.9658   2.0038   2.0236
     2.0413   2.0522   2.0823   2.0954   2.1091   2.1456   2.1596   2.1667
     2.1731   2.1821   2.2002   2.2233   2.2326   2.2372   2.2452   2.2571
     2.2844   2.2963   2.3134   2.3259   2.3442   2.3524   2.3569   2.3739
     2.3860   2.3996   2.4092   2.4180   2.4332   2.4391   2.4508   2.4612
     2.4757   2.4875   2.4978   2.5090   2.5127   2.5255   2.5379   2.5487
     2.5582   2.5687   2.5737   2.5834   2.5873   2.6144   2.6275   2.6389
     2.6468   2.6654   2.6724   2.6841   2.7074   2.7202   2.7385   2.7802
     2.7901   2.7996   2.8202   2.8489   2.8672   2.8818   2.9014   2.9097
     2.9273   2.9372   2.9523   2.9744   2.9906   3.0034   3.0236   3.0502
     3.0671   3.0753   3.1051   3.1154   3.1413   3.1582   3.1639   3.1834
     3.2053   3.2169   3.2400   3.2631   3.2704   3.2900   3.2966   3.3098
     3.3128   3.3339   3.3422   3.3494   3.3565   3.3612   3.3764   3.3796
     3.3890   3.4000   3.4125   3.4154   3.4302   3.4437   3.4530   3.4670
     3.4734   3.4885   3.5154   3.5354   3.6840   3.7424   3.7550   3.7952
     3.8494   3.8871   3.9207   3.9338   3.9427   3.9719   3.9952   4.0402
     4.0597   4.0751   4.1159   4.1375   4.1544   4.1818   4.2307   4.2614
     4.2891   4.3190   4.3527   4.3977   4.4126   4.5173   4.5576   4.5706
     4.6106   4.6928   4.7177   4.7986   4.8306   4.8508   4.8684   4.8998
     4.9255   4.9671   5.1837   5.2265   5.2489   5.2760   5.3094   5.3717
     5.3998   5.4205   5.4651   5.4818   5.5240   5.5342   5.5534   5.5736
     5.6303   5.6661   5.7188   5.8377   5.8401   5.8707   5.8970   5.9201
     5.9586   5.9786   5.9897   6.0106   6.0390   6.0527   6.0719   6.0890
     6.1075   6.1165   6.1407   6.1891   6.2047   6.2322   6.4155   6.4466
     6.4709   6.5170   6.5382   6.5689   6.5937   6.6053   6.6434   6.6674
     6.6968   6.7083   6.7375   6.7654   6.7915   6.8155   6.8271   6.8353
     6.8741   6.8818   6.9051   6.9243   6.9525   6.9611   6.9733   6.9838
     7.0031   7.0212   7.0298   7.0628   7.2918   7.3235   7.4330   7.4814

     occupation numbers 
     1.0000   1.0000   1.0000   1.0000   1.0000   1.0000   1.0000   1.0000
     1.0000   1.0000   1.0000   1.0000   1.0000   1.0000   1.0000   1.0000
     1.0000   1.0000   1.0000   1.0000   1.0000   1.0000   1.0000   1.0000
     1.0000   1.0000   1.0000   1.0000   1.0000   1.0000   1.0000   1.0000
     1.0000   1.0000   1.0000   1.0000   1.0000   1.0000   1.0000   1.0000
     1.0000   1.0000   1.0000   1.0000   1.0000   1.0000   1.0000   1.0000
     1.0000   1.0000   1.0000   1.0000   1.0000   1.0000   1.0000   1.0000
     1.0000   1.0000   1.0000   1.0000   1.0000   1.0000   1.0000   1.0000
     1.0000   1.0000   1.0000   1.0000   1.0000   1.0000   1.0000   1.0000
     1.0000   1.0000   1.0000   1.0000   1.0000   1.0000   1.0000   1.0000
     1.0000   1.0000   1.0000   1.0000   1.0000   1.0000   1.0000   1.0000
     1.0000   1.0000   1.0000   1.0000   1.0000   1.0000   1.0000   1.0000
     1.0000   1.0000   1.0000   1.0000   1.0000   1.0000   1.0000   1.0000
     1.0000   1.0000   1.0000   1.0000   1.0000   1.0000   1.0000   1.0000
     1.0000   1.0000   1.0000   1.0000   1.0000   1.0000   1.0000   1.0000
     1.0000   1.0000   1.0000   1.0000   1.0000   1.0000   1.0000   1.0000
     1.0000   1.0000   1.0000   1.0000   1.0000   1.0000   1.0000   1.0000
     1.0000   1.0000   1.0000   1.0000   1.0000   1.0000   1.0000   1.0000
     1.0000   1.0000   1.0000   1.0000   1.0000   1.0000   1.0000   1.0000
     1.0000   1.0000   1.0000   1.0000   1.0000   1.0000   1.0000   1.0000
     1.0000   1.0000   1.0000   1.0000   1.0000   1.0000   1.0000   1.0000
     1.0000   1.0000   1.0000   1.0000   1.0000   1.0000   1.0000   1.0000
     1.0000   1.0000   1.0000   1.0000   1.0000   1.0000   1.0000   1.0000
     1.0000   1.0000   1.0000   1.0000   1.0000   1.0000   1.0000   1.0000
     1.0000   1.0000   1.0000   1.0000   1.0000   1.0000   1.0000   1.0000
     1.0000   1.0000   1.0000   1.0000   1.0000   1.0000   1.0000   1.0000
     1.0000   1.0000   1.0000   1.0000   1.0000   1.0000   1.0000   1.0000
     1.0000   1.0000   1.0000   1.0000   1.0000   1.0000   1.0000   1.0000
     1.0000   1.0000   1.0000   1.0000   1.0000   1.0000   1.0000   1.0000
     1.0000   1.0000   1.0000   1.0000   1.0000   1.0000   1.0000   1.0000
     1.0000   1.0000   1.0000   1.0000   1.0000   1.0000   1.0000   1.0000
     1.0000   1.0000   1.0000   1.0000   1.0000   1.0000   1.0000   1.0000
     1.0000   1.0000   1.0000   1.0000   1.0000   1.0000   1.0000   1.0000
     1.0000   1.0000   1.0000   1.0000   1.0000   1.0000   1.0000   1.0000
     1.0000   1.0000   1.0000   1.0000   1.0000   1.0000   1.0000   1.0000
     1.0000   1.0000   1.0000   1.0000   1.0000   1.0000   1.0000   1.0000
     1.0000   1.0000   1.0000   1.0000   1.0000   1.0000   1.0000   1.0000
     1.0000   1.0000   1.0000   1.0000   1.0000   1.0000   1.0000   1.0000
     1.0000   1.0000   1.0000   1.0000   1.0000   1.0000   1.0000   1.0000
     1.0000   1.0000   1.0000   1.0000   1.0000   1.0000   1.0000   1.0000
     1.0000   1.0000   1.0000   1.0000   1.0000   1.0000   1.0000   1.0000
     1.0000   1.0000   1.0000   1.0000   1.0000   1.0000   1.0000   1.0000
     1.0000   1.0000   1.0000   1.0000   1.0000   1.0000   1.0000   1.0000
     1.0000   1.0000   1.0000   1.0000   1.0000   1.0000   1.0000   1.0000
     1.0000   1.0000   1.0000   1.0000   1.0000   1.0000   1.0000   1.0000
     1.0000   1.0000   1.0000   1.0000   1.0000   1.0000   1.0000   1.0000
     1.0000   1.0000   1.0000   1.0000   1.0000   1.0000   1.0000   1.0000
     1.0000   1.0000   1.0000   1.0000   1.0000   1.0000   1.0000   1.0000
     1.0000   1.0000   1.0000   1.0000   1.0000   1.0000   1.0000   1.0000
     1.0000   1.0000   1.0000   1.0000   1.0000   1.0000   1.0000   1.0000
     1.0000   1.0000   1.0000   1.0000   1.0000   1.0000   1.0000   1.0000

          k = 0.0000-0.0002 0.5398 ( 45006 PWs)   bands (ev):

  -115.3318-115.3273-115.3254-115.3233-115.3216-115.3193-115.3165-115.3156
  -115.3134-115.3131-115.3075-115.3069-115.3044-115.3036-115.3033-115.3020
  -115.3005-115.3003-115.2994-115.2983-115.2983-115.2971-115.2969-115.2910
   -69.6922 -69.6889 -69.6878 -69.6858 -69.6858 -69.6836 -69.6833 -69.6829
   -69.6822 -69.6815 -69.6804 -69.6786 -69.6783 -69.6777 -69.6775 -69.6767
   -69.6757 -69.6748 -69.6748 -69.6736 -69.6735 -69.6720 -69.6714 -69.6701
   -69.6691 -69.6688 -69.6686 -69.6684 -69.6675 -69.6671 -69.6669 -69.6665
   -69.6656 -69.6655 -69.6654 -69.6641 -69.6638 -69.6635 -69.6631 -69.6617
   -69.6613 -69.6609 -69.6606 -69.6604 -69.6602 -69.6601 -69.6597 -69.6589
   -69.6582 -69.6579 -69.6575 -69.6570 -69.6569 -69.6562 -69.6560 -69.6556
   -69.6553 -69.6544 -69.6542 -69.6539 -69.6537 -69.6534 -69.6532 -69.6530
   -69.6529 -69.6518 -69.6515 -69.6507 -69.6500 -69.6494 -69.6462 -69.6433
   -64.7710 -64.7667 -64.7636 -64.7606 -64.7560 -64.7470 -64.7460 -64.7369
   -64.7327 -64.7320 -64.7289 -64.7280 -31.7664 -31.7596 -31.7578 -31.7572
   -31.7568 -31.7545 -31.7534 -31.7516 -31.7515 -31.7494 -31.7486 -31.7460
   -31.7455 -31.7426 -31.7404 -31.7390 -31.7369 -31.7348 -31.7332 -31.7320
   -31.7315 -31.7298 -31.7257 -31.7244 -31.7232 -31.7227 -31.7198 -31.7193
   -31.7187 -31.7179 -31.7166 -31.7165 -31.7153 -31.7115 -31.7079 -31.7060
    -9.9662  -9.8679  -9.5942  -9.5709  -9.5501  -9.5383  -9.4871  -9.4614
    -9.4446  -9.4244  -9.3932  -9.3645  -9.3509  -9.3292  -9.3110  -9.2975
    -9.2624  -9.2445  -9.1973  -9.1864  -9.1474  -9.1351  -9.1137  -9.0853
    -9.0723  -9.0633  -9.0466  -9.0409  -9.0269  -9.0053  -8.9980  -8.9919
    -8.9816  -8.9713  -8.9672  -8.8496   1.7959   1.8193   1.8415   1.8596
     1.8711   1.8895   1.9116   1.9246   1.9505   1.9658   2.0038   2.0236
     2.0413   2.0522   2.0823   2.0954   2.1091   2.1456   2.1596   2.1667
     2.1731   2.1821   2.2002   2.2233   2.2326   2.2372   2.2452   2.2571
     2.2844   2.2963   2.3134   2.3259   2.3442   2.3524   2.3569   2.3739
     2.3860   2.3996   2.4092   2.4180   2.4332   2.4391   2.4508   2.4612
     2.4757   2.4875   2.4978   2.5090   2.5127   2.5255   2.5379   2.5487
     2.5582   2.5687   2.5737   2.5834   2.5873   2.6144   2.6275   2.6389
     2.6468   2.6654   2.6724   2.6841   2.7074   2.7202   2.7385   2.7802
     2.7901   2.7996   2.8202   2.8489   2.8672   2.8818   2.9014   2.9097
     2.9273   2.9372   2.9523   2.9744   2.9906   3.0034   3.0236   3.0502
     3.0671   3.0753   3.1051   3.1154   3.1413   3.1582   3.1639   3.1834
     3.2053   3.2169   3.2400   3.2631   3.2704   3.2900   3.2966   3.3098
     3.3128   3.3339   3.3422   3.3494   3.3565   3.3612   3.3764   3.3796
     3.3890   3.4000   3.4125   3.4154   3.4302   3.4437   3.4530   3.4670
     3.4734   3.4885   3.5154   3.5354   3.6840   3.7424   3.7550   3.7952
     3.8494   3.8871   3.9207   3.9338   3.9427   3.9719   3.9952   4.0402
     4.0597   4.0751   4.1159   4.1375   4.1544   4.1818   4.2307   4.2614
     4.2891   4.3190   4.3527   4.3977   4.4126   4.5173   4.5576   4.5706
     4.6106   4.6928   4.7177   4.7986   4.8306   4.8508   4.8684   4.8998
     4.9255   4.9671   5.1837   5.2265   5.2489   5.2760   5.3094   5.3717
     5.3998   5.4205   5.4651   5.4818   5.5240   5.5342   5.5534   5.5736
     5.6303   5.6661   5.7188   5.8377   5.8401   5.8707   5.8970   5.9201
     5.9586   5.9786   5.9897   6.0106   6.0390   6.0527   6.0719   6.0890
     6.1075   6.1165   6.1407   6.1891   6.2047   6.2322   6.4155   6.4466
     6.4709   6.5170   6.5382   6.5689   6.5937   6.6053   6.6434   6.6674
     6.6968   6.7083   6.7375   6.7654   6.7915   6.8155   6.8271   6.8353
     6.8741   6.8818   6.9051   6.9243   6.9525   6.9611   6.9733   6.9838
     7.0031   7.0212   7.0298   7.0628   7.2918   7.3235   7.4330   7.4814

     occupation numbers 
     1.0000   1.0000   1.0000   1.0000   1.0000   1.0000   1.0000   1.0000
     1.0000   1.0000   1.0000   1.0000   1.0000   1.0000   1.0000   1.0000
     1.0000   1.0000   1.0000   1.0000   1.0000   1.0000   1.0000   1.0000
     1.0000   1.0000   1.0000   1.0000   1.0000   1.0000   1.0000   1.0000
     1.0000   1.0000   1.0000   1.0000   1.0000   1.0000   1.0000   1.0000
     1.0000   1.0000   1.0000   1.0000   1.0000   1.0000   1.0000   1.0000
     1.0000   1.0000   1.0000   1.0000   1.0000   1.0000   1.0000   1.0000
     1.0000   1.0000   1.0000   1.0000   1.0000   1.0000   1.0000   1.0000
     1.0000   1.0000   1.0000   1.0000   1.0000   1.0000   1.0000   1.0000
     1.0000   1.0000   1.0000   1.0000   1.0000   1.0000   1.0000   1.0000
     1.0000   1.0000   1.0000   1.0000   1.0000   1.0000   1.0000   1.0000
     1.0000   1.0000   1.0000   1.0000   1.0000   1.0000   1.0000   1.0000
     1.0000   1.0000   1.0000   1.0000   1.0000   1.0000   1.0000   1.0000
     1.0000   1.0000   1.0000   1.0000   1.0000   1.0000   1.0000   1.0000
     1.0000   1.0000   1.0000   1.0000   1.0000   1.0000   1.0000   1.0000
     1.0000   1.0000   1.0000   1.0000   1.0000   1.0000   1.0000   1.0000
     1.0000   1.0000   1.0000   1.0000   1.0000   1.0000   1.0000   1.0000
     1.0000   1.0000   1.0000   1.0000   1.0000   1.0000   1.0000   1.0000
     1.0000   1.0000   1.0000   1.0000   1.0000   1.0000   1.0000   1.0000
     1.0000   1.0000   1.0000   1.0000   1.0000   1.0000   1.0000   1.0000
     1.0000   1.0000   1.0000   1.0000   1.0000   1.0000   1.0000   1.0000
     1.0000   1.0000   1.0000   1.0000   1.0000   1.0000   1.0000   1.0000
     1.0000   1.0000   1.0000   1.0000   1.0000   1.0000   1.0000   1.0000
     1.0000   1.0000   1.0000   1.0000   1.0000   1.0000   1.0000   1.0000
     1.0000   1.0000   1.0000   1.0000   1.0000   1.0000   1.0000   1.0000
     1.0000   1.0000   1.0000   1.0000   1.0000   1.0000   1.0000   1.0000
     1.0000   1.0000   1.0000   1.0000   1.0000   1.0000   1.0000   1.0000
     1.0000   1.0000   1.0000   1.0000   1.0000   1.0000   1.0000   1.0000
     1.0000   1.0000   1.0000   1.0000   1.0000   1.0000   1.0000   1.0000
     1.0000   1.0000   1.0000   1.0000   1.0000   1.0000   1.0000   1.0000
     1.0000   1.0000   1.0000   1.0000   1.0000   1.0000   1.0000   1.0000
     1.0000   1.0000   1.0000   1.0000   1.0000   1.0000   1.0000   1.0000
     1.0000   1.0000   1.0000   1.0000   1.0000   1.0000   1.0000   1.0000
     1.0000   1.0000   1.0000   1.0000   1.0000   1.0000   1.0000   1.0000
     1.0000   1.0000   1.0000   1.0000   1.0000   1.0000   1.0000   1.0000
     1.0000   1.0000   1.0000   1.0000   1.0000   1.0000   1.0000   1.0000
     1.0000   1.0000   1.0000   1.0000   1.0000   1.0000   1.0000   1.0000
     1.0000   1.0000   1.0000   1.0000   1.0000   1.0000   1.0000   1.0000
     1.0000   1.0000   1.0000   1.0000   1.0000   1.0000   1.0000   1.0000
     1.0000   1.0000   1.0000   1.0000   1.0000   1.0000   1.0000   1.0000
     1.0000   1.0000   1.0000   1.0000   1.0000   1.0000   1.0000   1.0000
     1.0000   1.0000   1.0000   1.0000   1.0000   1.0000   1.0000   1.0000
     1.0000   1.0000   1.0000   1.0000   1.0000   1.0000   1.0000   1.0000
     1.0000   1.0000   1.0000   1.0000   1.0000   1.0000   1.0000   1.0000
     1.0000   1.0000   1.0000   1.0000   1.0000   1.0000   1.0000   1.0000
     1.0000   1.0000   1.0000   1.0000   1.0000   1.0000   1.0000   1.0000
     1.0000   1.0000   1.0000   1.0000   1.0000   1.0000   1.0000   1.0000
     1.0000   1.0000   1.0000   1.0000   1.0000   1.0000   1.0000   1.0000
     1.0000   1.0000   1.0000   1.0000   1.0000   1.0000   1.0000   1.0000
     1.0000   1.0000   1.0000   1.0000   1.0000   1.0000   1.0000   1.0000
     1.0000   1.0000   1.0000   1.0000   1.0000   1.0000   1.0000   1.0000

          k = 0.0000-0.0002 0.6748 ( 44995 PWs)   bands (ev):

  -115.3318-115.3273-115.3254-115.3233-115.3216-115.3193-115.3165-115.3156
  -115.3134-115.3131-115.3075-115.3069-115.3044-115.3036-115.3033-115.3020
  -115.3005-115.3003-115.2994-115.2983-115.2983-115.2971-115.2969-115.2910
   -69.6922 -69.6889 -69.6878 -69.6858 -69.6858 -69.6836 -69.6833 -69.6829
   -69.6822 -69.6815 -69.6804 -69.6786 -69.6783 -69.6777 -69.6775 -69.6767
   -69.6757 -69.6748 -69.6748 -69.6736 -69.6735 -69.6720 -69.6714 -69.6701
   -69.6691 -69.6688 -69.6686 -69.6684 -69.6675 -69.6671 -69.6669 -69.6665
   -69.6656 -69.6655 -69.6654 -69.6641 -69.6638 -69.6635 -69.6631 -69.6617
   -69.6613 -69.6609 -69.6606 -69.6604 -69.6602 -69.6601 -69.6597 -69.6589
   -69.6582 -69.6579 -69.6575 -69.6570 -69.6569 -69.6562 -69.6560 -69.6556
   -69.6553 -69.6544 -69.6542 -69.6539 -69.6537 -69.6534 -69.6532 -69.6530
   -69.6529 -69.6518 -69.6515 -69.6507 -69.6500 -69.6494 -69.6462 -69.6433
   -64.7710 -64.7667 -64.7636 -64.7606 -64.7560 -64.7470 -64.7460 -64.7369
   -64.7327 -64.7320 -64.7289 -64.7280 -31.7664 -31.7596 -31.7578 -31.7573
   -31.7568 -31.7544 -31.7534 -31.7516 -31.7515 -31.7494 -31.7486 -31.7460
   -31.7455 -31.7426 -31.7404 -31.7390 -31.7370 -31.7348 -31.7332 -31.7320
   -31.7315 -31.7298 -31.7257 -31.7244 -31.7232 -31.7227 -31.7198 -31.7193
   -31.7187 -31.7179 -31.7166 -31.7165 -31.7153 -31.7115 -31.7079 -31.7060
    -9.9969  -9.8131  -9.6082  -9.5827  -9.5612  -9.5382  -9.4975  -9.4596
    -9.4373  -9.4100  -9.3817  -9.3724  -9.3694  -9.3181  -9.2926  -9.2785
    -9.2628  -9.2426  -9.2117  -9.1875  -9.1579  -9.1377  -9.1162  -9.0989
    -9.0717  -9.0665  -9.0585  -9.0447  -9.0270  -9.0093  -8.9997  -8.9944
    -8.9803  -8.9569  -8.9496  -8.8473   1.7841   1.8099   1.8260   1.8406
     1.8562   1.8726   1.9058   1.9291   1.9538   1.9666   1.9757   1.9977
     2.0222   2.0478   2.0667   2.0875   2.0972   2.1479   2.1518   2.1676
     2.1816   2.1949   2.2157   2.2274   2.2322   2.2461   2.2606   2.2637
     2.2911   2.3076   2.3174   2.3356   2.3463   2.3492   2.3601   2.3793
     2.3889   2.3992   2.4089   2.4159   2.4313   2.4395   2.4517   2.4614
     2.4759   2.4862   2.4911   2.5032   2.5076   2.5147   2.5295   2.5394
     2.5502   2.5626   2.5804   2.5824   2.6014   2.6236   2.6480   2.6688
     2.6831   2.6875   2.6998   2.7089   2.7309   2.7359   2.7548   2.7940
     2.7976   2.8178   2.8379   2.8528   2.8789   2.8926   2.9111   2.9202
     2.9393   2.9538   2.9676   2.9741   3.0004   3.0058   3.0323   3.0524
     3.0725   3.0929   3.1083   3.1325   3.1434   3.1620   3.1642   3.1892
     3.2022   3.2124   3.2428   3.2561   3.2688   3.2861   3.2902   3.3011
     3.3116   3.3313   3.3415   3.3478   3.3538   3.3588   3.3750   3.3778
     3.3846   3.3961   3.4031   3.4171   3.4296   3.4423   3.4562   3.4660
     3.4784   3.4921   3.5090   3.5383   3.6641   3.6941   3.7400   3.7949
     3.8172   3.8659   3.8810   3.9054   3.9324   3.9642   3.9971   4.0242
     4.0294   4.0460   4.0788   4.1045   4.1308   4.1615   4.2414   4.3122
     4.3210   4.3429   4.3806   4.4428   4.4641   4.4989   4.5240   4.5879
     4.6087   4.6364   4.6570   4.7162   4.7450   4.7945   4.8412   4.8678
     4.9023   4.9632   5.1503   5.1910   5.2274   5.2605   5.2863   5.3406
     5.3795   5.4432   5.5132   5.5530   5.5981   5.6268   5.6599   5.7044
     5.7184   5.7333   5.7530   5.8004   5.8325   5.8631   5.8709   5.9085
     5.9133   5.9451   5.9565   5.9652   5.9997   6.0539   6.1101   6.1229
     6.1439   6.1776   6.2038   6.2557   6.2835   6.3402   6.3665   6.4331
     6.4598   6.5134   6.5277   6.5412   6.5678   6.5910   6.6196   6.6331
     6.6652   6.6815   6.7102   6.7377   6.7635   6.7914   6.7992   6.8079
     6.8447   6.8807   6.8880   6.9091   6.9281   6.9476   6.9684   6.9904
[...]
   -31.7455 -31.7427 -31.7404 -31.7390 -31.7371 -31.7366 -31.7332 -31.7321
   -31.7314 -31.7297 -31.7246 -31.7239 -31.7231 -31.7225 -31.7196 -31.7196
   -31.7184 -31.7177 -31.7165 -31.7154 -31.7145 -31.7120 -31.7083 -31.7074
    -9.9112  -9.8615  -9.6616  -9.6230  -9.5621  -9.5358  -9.5201  -9.5095
    -9.4238  -9.4054  -9.3806  -9.3479  -9.3274  -9.3008  -9.2717  -9.2571
    -9.2555  -9.2234  -9.2121  -9.1926  -9.1456  -9.1410  -9.1275  -9.1215
    -9.0948  -9.0779  -9.0652  -9.0502  -9.0344  -9.0161  -9.0034  -8.9893
    -8.9644  -8.9506  -8.9327  -8.8383   1.7941   1.8067   1.8587   1.8690
     1.8905   1.9062   1.9210   1.9354   1.9585   1.9785   2.0039   2.0224
     2.0324   2.0529   2.0625   2.0724   2.0953   2.1123   2.1277   2.1511
     2.1662   2.1915   2.2121   2.2257   2.2487   2.2576   2.2736   2.2835
     2.2946   2.2973   2.3151   2.3300   2.3344   2.3425   2.3485   2.3621
     2.3777   2.3786   2.3873   2.4043   2.4165   2.4321   2.4413   2.4425
     2.4593   2.4660   2.4759   2.4837   2.4904   2.5051   2.5127   2.5160
     2.5313   2.5453   2.5815   2.5913   2.6000   2.6029   2.6093   2.6254
     2.6361   2.6619   2.6810   2.6980   2.7112   2.7241   2.7552   2.7798
     2.7994   2.8200   2.8275   2.8547   2.8946   2.9112   2.9170   2.9309
     2.9493   2.9569   2.9622   2.9876   3.0023   3.0206   3.0378   3.0637
     3.0808   3.0996   3.1121   3.1352   3.1433   3.1699   3.1766   3.1925
     3.2043   3.2214   3.2477   3.2563   3.2792   3.2830   3.2966   3.3133
     3.3265   3.3404   3.3479   3.3543   3.3676   3.3736   3.3768   3.3928
     3.4047   3.4177   3.4261   3.4333   3.4382   3.4555   3.4623   3.4690
     3.4765   3.5071   3.5125   3.5196   3.5430   3.5537   3.6657   3.6778
     3.7314   3.7753   3.7889   3.8030   3.8427   3.8742   3.9070   3.9575
     3.9750   4.0181   4.0581   4.0918   4.1312   4.2116   4.2500   4.2772
     4.3488   4.3846   4.4179   4.4590   4.6428   4.6459   4.7263   4.7989
     4.8084   4.8539   4.8911   4.9614   4.9866   4.9942   5.0306   5.0637
     5.0926   5.1153   5.1577   5.1598   5.2072   5.2367   5.2934   5.3421
     5.3565   5.3811   5.4284   5.4965   5.5289   5.5424   5.5736   5.6382
     5.6537   5.7065   5.7275   5.8408   5.8945   5.8982   5.9296   5.9875
     6.0513   6.0918   6.0984   6.1126   6.1359   6.1415   6.1791   6.2127
     6.2347   6.2399   6.2811   6.3063   6.3340   6.3638   6.3783   6.3884
     6.4163   6.4189   6.4399   6.4593   6.4683   6.4992   6.5101   6.5216
     6.5502   6.5586   6.5806   6.5974   6.6062   6.6272   6.6575   6.6896
     6.6925   6.7241   6.7368   6.7647   6.8435   6.8803   6.9076   6.9260
     6.9364   6.9681   6.9933   7.0121   7.2367   7.2701   7.3374   7.3578

     occupation numbers 
     1.0000   1.0000   1.0000   1.0000   1.0000   1.0000   1.0000   1.0000
     1.0000   1.0000   1.0000   1.0000   1.0000   1.0000   1.0000   1.0000
     1.0000   1.0000   1.0000   1.0000   1.0000   1.0000   1.0000   1.0000
     1.0000   1.0000   1.0000   1.0000   1.0000   1.0000   1.0000   1.0000
     1.0000   1.0000   1.0000   1.0000   1.0000   1.0000   1.0000   1.0000
     1.0000   1.0000   1.0000   1.0000   1.0000   1.0000   1.0000   1.0000
     1.0000   1.0000   1.0000   1.0000   1.0000   1.0000   1.0000   1.0000
     1.0000   1.0000   1.0000   1.0000   1.0000   1.0000   1.0000   1.0000
     1.0000   1.0000   1.0000   1.0000   1.0000   1.0000   1.0000   1.0000
     1.0000   1.0000   1.0000   1.0000   1.0000   1.0000   1.0000   1.0000
     1.0000   1.0000   1.0000   1.0000   1.0000   1.0000   1.0000   1.0000
     1.0000   1.0000   1.0000   1.0000   1.0000   1.0000   1.0000   1.0000
     1.0000   1.0000   1.0000   1.0000   1.0000   1.0000   1.0000   1.0000
     1.0000   1.0000   1.0000   1.0000   1.0000   1.0000   1.0000   1.0000
     1.0000   1.0000   1.0000   1.0000   1.0000   1.0000   1.0000   1.0000
     1.0000   1.0000   1.0000   1.0000   1.0000   1.0000   1.0000   1.0000
     1.0000   1.0000   1.0000   1.0000   1.0000   1.0000   1.0000   1.0000
     1.0000   1.0000   1.0000   1.0000   1.0000   1.0000   1.0000   1.0000
     1.0000   1.0000   1.0000   1.0000   1.0000   1.0000   1.0000   1.0000
     1.0000   1.0000   1.0000   1.0000   1.0000   1.0000   1.0000   1.0000
     1.0000   1.0000   1.0000   1.0000   1.0000   1.0000   1.0000   1.0000
     1.0000   1.0000   1.0000   1.0000   1.0000   1.0000   1.0000   1.0000
     1.0000   1.0000   1.0000   1.0000   1.0000   1.0000   1.0000   1.0000
     1.0000   1.0000   1.0000   1.0000   1.0000   1.0000   1.0000   1.0000
     1.0000   1.0000   1.0000   1.0000   1.0000   1.0000   1.0000   1.0000
     1.0000   1.0000   1.0000   1.0000   1.0000   1.0000   1.0000   1.0000
     1.0000   1.0000   1.0000   1.0000   1.0000   1.0000   1.0000   1.0000
     1.0000   1.0000   1.0000   1.0000   1.0000   1.0000   1.0000   1.0000
     1.0000   1.0000   1.0000   1.0000   1.0000   1.0000   1.0000   1.0000
     1.0000   1.0000   1.0000   1.0000   1.0000   1.0000   1.0000   1.0000
     1.0000   1.0000   1.0000   1.0000   1.0000   1.0000   1.0000   1.0000
     1.0000   1.0000   1.0000   1.0000   1.0000   1.0000   1.0000   1.0000
     1.0000   1.0000   1.0000   1.0000   1.0000   1.0000   1.0000   1.0000
     1.0000   1.0000   1.0000   1.0000   1.0000   1.0000   1.0000   1.0000
     1.0000   1.0000   1.0000   1.0000   1.0000   1.0000   1.0000   1.0000
     1.0000   1.0000   1.0000   1.0000   1.0000   1.0000   1.0000   1.0000
     1.0000   1.0000   1.0000   1.0000   1.0000   1.0000   1.0000   1.0000
     1.0000   1.0000   1.0000   1.0000   1.0000   1.0000   1.0000   1.0000
     1.0000   1.0000   1.0000   1.0000   1.0000   1.0000   1.0000   1.0000
     1.0000   1.0000   1.0000   1.0000   1.0000   1.0000   1.0000   1.0000
     1.0000   1.0000   1.0000   1.0000   1.0000   1.0000   1.0000   1.0000
     1.0000   1.0000   1.0000   1.0000   1.0000   1.0000   1.0000   1.0000
     1.0000   1.0000   1.0000   1.0000   1.0000   1.0000   1.0000   1.0000
     1.0000   1.0000   1.0000   1.0000   1.0000   1.0000   1.0000   1.0000
     1.0000   1.0000   1.0000   1.0000   1.0000   1.0000   1.0000   1.0000
     1.0000   1.0000   1.0000   1.0000   1.0000   1.0000   1.0000   1.0000
     1.0000   1.0000   1.0000   1.0000   1.0000   1.0000   1.0000   1.0000
     1.0000   1.0000   1.0000   1.0000   1.0000   1.0000   1.0000   1.0000
     1.0000   1.0000   1.0000   1.0000   1.0000   1.0000   1.0000   1.0000
     1.0000   1.0000   1.0000   1.0000   1.0000   1.0000   1.0000   1.0000
     1.0000   1.0000   1.0000   1.0000   1.0000   1.0000   1.0000   1.0000

     highest occupied level (ev):     7.5199



               ==================================================
                            POLARIZATION CALCULATION
                         !!! NOT THOROUGHLY TESTED !!!
               --------------------------------------------------


                     K-POINTS STRINGS USED IN CALCULATIONS
                     ~~~~~~~~~~~~~~~~~~~~~~~~~~~~~~~~~~~~~

       G-vector along string (2 pi/a):  0.00003 -0.00027  0.94469
       Modulus of the vector (1/bohr):  0.32219
       Number of k-points per string:   8
       Number of different strings  :  10


                               IONIC POLARIZATION
                               ~~~~~~~~~~~~~~~~~~

        Note: (mod 1) means that the phases (angles ranging from
        -pi to pi) have been mapped to the interval [-1/2,+1/2) by
        dividing by 2*pi; (mod 2) refers to the interval [-1,+1)

  ============================================================================
    Ion    Species    Charge              Position                Phase
  ----------------------------------------------------------------------------
     1        Zn      20.000       0.1666  0.0964  0.2064    -0.10095 (mod 2)
     2        Zn      20.000       0.1669  0.0960  0.7350    -0.11420 (mod 2)
     3        Zn      20.000       0.0010  0.3842  0.2056    -0.11750 (mod 2)
     4        Zn      20.000      -0.0012  0.3861  0.7351    -0.11288 (mod 2)
     5        Zn      20.000      -0.1667  0.6767  0.2052    -0.12742 (mod 2)
     6        Zn      20.000      -0.1682  0.6718  0.7345    -0.12572 (mod 2)
     7        Zn      20.000       0.4992  0.0949  0.2069    -0.09132 (mod 2)
     8        Zn      20.000       0.5002  0.0966  0.7364    -0.08765 (mod 2)
     9        Zn      20.000       0.3329  0.3843  0.2044    -0.14064 (mod 2)
    10        Mg      10.000       0.3334  0.3828  0.7365     0.95660 (mod 2)
    11        Mg      10.000       0.1645  0.6755  0.2061    -0.05458 (mod 2)
    12        Zn      20.000       0.1670  0.6718  0.7329    -0.15583 (mod 2)
    13        Zn      20.000       0.8335  0.0950  0.2051    -0.12532 (mod 2)
    14        Mg      10.000       0.8320  0.0946  0.7373     0.96490 (mod 2)
    15        Zn      20.000       0.6648  0.3833  0.2051    -0.12607 (mod 2)
    16        Mg      10.000       0.6664  0.3844  0.7362     0.95425 (mod 2)
    17        Mg      10.000       0.4992  0.6729  0.2048    -0.06732 (mod 2)
    18        Mg      10.000       0.4980  0.6715  0.7349     0.94060 (mod 2)
    19        Zn      20.000      -0.0015  0.1926  0.4719     0.91479 (mod 2)
    20        Zn      20.000       0.0012  0.1944  0.9999     0.89145 (mod 2)
    21        Zn      20.000      -0.1677  0.4816  0.4690     0.85846 (mod 2)
    22        Mg      10.000      -0.1659  0.4813  1.0027    -0.52851 (mod 2)
    23        Mg      10.000      -0.3342  0.7700  0.4703     0.44094 (mod 2)
    24        Mg      10.000      -0.3327  0.7720  0.9988    -0.56678 (mod 2)
    25        Zn      20.000       0.3338  0.1938  0.4716     0.90940 (mod 2)
    26        Zn      20.000       0.3337  0.1919  1.0010     0.91265 (mod 2)
    27        Mg      10.000       0.1672  0.4789  0.4696     0.43532 (mod 2)
    28        Mg      10.000       0.1663  0.4814  0.9993    -0.56108 (mod 2)
    29        Mg      10.000      -0.0009  0.7706  0.4738     0.47382 (mod 2)
    30        Zn      20.000       0.0002  0.7689  0.9985     0.86140 (mod 2)
    31        Zn      20.000       0.6671  0.1928  0.4704     0.88749 (mod 2)
    32        Zn      20.000       0.6653  0.1917  0.9997     0.88773 (mod 2)
    33        Zn      20.000       0.4991  0.4794  0.4700     0.87806 (mod 2)
    34        Zn      20.000       0.4999  0.4812  0.9980     0.85378 (mod 2)
    35        Zn      20.000       0.3327  0.7694  0.4694     0.86393 (mod 2)
    36        Zn      20.000       0.3317  0.7677  0.9990     0.87009 (mod 2)
    37        O        6.000       0.1666  0.0966  0.0034     0.01928 (mod 2)
    38        O        6.000       0.1665  0.0963  0.5315    -0.98735 (mod 2)
    39        O        6.000       0.0006  0.3857  0.0028     0.01535 (mod 2)
    40        O        6.000      -0.0008  0.3856  0.5316    -0.98748 (mod 2)
    41        O        6.000      -0.1674  0.6741  0.0020     0.01009 (mod 2)
    42        O        6.000      -0.1679  0.6740  0.5315    -0.98834 (mod 2)
    43        O        6.000       0.4999  0.0945  0.0037     0.02088 (mod 2)
    44        O        6.000       0.5001  0.0969  0.5329    -0.97977 (mod 2)
    45        O        6.000       0.3330  0.3850  0.0008     0.00392 (mod 2)
    46        O        6.000       0.3327  0.3849  0.5344    -0.97128 (mod 2)
    47        O        6.000       0.1656  0.6723  0.0042     0.02253 (mod 2)
    48        O        6.000       0.1657  0.6719  0.5292     0.99826 (mod 2)
    49        O        6.000       0.8336  0.0952  0.0011     0.00628 (mod 2)
    50        O        6.000       0.8326  0.0951  0.5345    -0.97052 (mod 2)
    51        O        6.000       0.6664  0.3843  0.0016     0.00883 (mod 2)
    52        O        6.000       0.6666  0.3848  0.5335    -0.97654 (mod 2)
    53        O        6.000       0.5009  0.6737  0.0020     0.01044 (mod 2)
    54        O        6.000       0.4996  0.6730  0.5319    -0.98636 (mod 2)
    55        O        6.000      -0.0005  0.1924  0.2683    -0.47930 (mod 2)
    56        O        6.000      -0.0005  0.1924  0.7963     0.51321 (mod 2)
    57        O        6.000      -0.1673  0.4817  0.2649    -0.49910 (mod 2)
    58        O        6.000      -0.1676  0.4806  0.8001     0.53401 (mod 2)
    59        O        6.000      -0.3350  0.7696  0.2677    -0.48418 (mod 2)
    60        O        6.000      -0.3353  0.7689  0.7962     0.51143 (mod 2)
    61        O        6.000       0.3332  0.1927  0.2680    -0.48133 (mod 2)
    62        O        6.000       0.3331  0.1911  0.7979     0.52240 (mod 2)
    63        O        6.000       0.1669  0.4823  0.2670    -0.48760 (mod 2)
    64        O        6.000       0.1671  0.4799  0.7967     0.51512 (mod 2)
    65        O        6.000      -0.0007  0.7699  0.2713    -0.46345 (mod 2)
    66        O        6.000      -0.0002  0.7685  0.7946     0.50279 (mod 2)
    67        O        6.000       0.6668  0.1914  0.2673    -0.48495 (mod 2)
    68        O        6.000       0.6668  0.1925  0.7968     0.51615 (mod 2)
    69        O        6.000       0.4993  0.4808  0.2669    -0.48803 (mod 2)
    70        O        6.000       0.4996  0.4799  0.7950     0.50526 (mod 2)
    71        O        6.000       0.3328  0.7687  0.2660    -0.49324 (mod 2)
    72        O        6.000       0.3327  0.7684  0.7960     0.51071 (mod 2)
  ----------------------------------------------------------------------------
                                               IONIC PHASE:   0.09001 (mod 2)
  ============================================================================


                            ELECTRONIC POLARIZATION
                            ~~~~~~~~~~~~~~~~~~~~~~~

        Note: (mod 1) means that the phases (angles ranging from
        -pi to pi) have been mapped to the interval [-1/2,+1/2) by
        dividing by 2*pi; (mod 2) refers to the interval [-1,+1)

  ============================================================================
   Spin    String     Weight      First k-point in string         Phase
  ----------------------------------------------------------------------------
    up        1      0.062500      0.0000  0.0000  0.0000    -0.13310 (mod 1)
    up        2      0.125000      0.0003  0.2888 -0.0001    -0.13744 (mod 1)
    up        3      0.062500     -0.0005 -0.5777  0.0002    -0.14041 (mod 1)
    up        4      0.125000      0.2501  0.1446 -0.0000    -0.13751 (mod 1)
    up        5      0.125000      0.2504  0.4335 -0.0001    -0.14048 (mod 1)
    up        6      0.125000      0.2496 -0.4330  0.0001    -0.14052 (mod 1)
    up        7      0.125000      0.2499 -0.1442  0.0000    -0.13759 (mod 1)
    up        8      0.062500     -0.5003 -0.2893  0.0001    -0.14051 (mod 1)
    up        9      0.125000     -0.5000 -0.0005 -0.0000    -0.14057 (mod 1)
    up       10      0.062500     -0.5008 -0.8669  0.0002    -0.14059 (mod 1)
  ----------------------------------------------------------------------------
   down       1      0.062500      0.0000  0.0000  0.0000    -0.13310 (mod 1)
   down       2      0.125000      0.0003  0.2888 -0.0001    -0.13744 (mod 1)
   down       3      0.062500     -0.0005 -0.5777  0.0002    -0.14041 (mod 1)
   down       4      0.125000      0.2501  0.1446 -0.0000    -0.13751 (mod 1)
   down       5      0.125000      0.2504  0.4335 -0.0001    -0.14048 (mod 1)
   down       6      0.125000      0.2496 -0.4330  0.0001    -0.14052 (mod 1)
   down       7      0.125000      0.2499 -0.1442  0.0000    -0.13759 (mod 1)
   down       8      0.062500     -0.5003 -0.2893  0.0001    -0.14051 (mod 1)
   down       9      0.125000     -0.5000 -0.0005 -0.0000    -0.14057 (mod 1)
   down      10      0.062500     -0.5008 -0.8669  0.0002    -0.14059 (mod 1)
  ----------------------------------------------------------------------------
                                        Average phase (up):  -0.13893 (mod 1)
                                      Average phase (down):  -0.13893 (mod 1)
                                          ELECTRONIC PHASE:  -0.27786 (mod 2)
  ============================================================================


                               SUMMARY OF PHASES
                               ~~~~~~~~~~~~~~~~~

                          Ionic Phase:  0.09001 (mod 2)
                     Electronic Phase: -0.27786 (mod 2)
                          TOTAL PHASE: -0.18785 (mod 2)


                             VALUES OF POLARIZATION
                             ~~~~~~~~~~~~~~~~~~~~~~

        The calculation of phases done along the direction of vector 3
        of the reciprocal lattice gives the following contribution to
        the polarization vector (in different units, and being Omega
        the volume of the unit cell):

           P =  -3.6633309  (mod  39.0026196)  (e/Omega).bohr

           P =  -0.0006395  (mod   0.0068081)  e/bohr^2

           P =  -0.0365587  (mod   0.3892318)  C/m^2

        The polarization direction is:  (-0.00003 , 0.00028 , 1.00000 )


               ==================================================



     Writing output data file ZnO.save/
 
     init_run     :      2.36s CPU      5.19s WALL (       1 calls)
     electrons    :   1722.35s CPU   1752.83s WALL (       1 calls)

     Called by init_run:
     wfcinit      :      0.00s CPU      0.00s WALL (       1 calls)
     wfcinit:atom :      0.15s CPU      0.16s WALL (      80 calls)
     wfcinit:wfcr :     66.14s CPU     67.50s WALL (      80 calls)
     potinit      :      0.19s CPU      0.25s WALL (       1 calls)
     hinit0       :      1.41s CPU      3.95s WALL (       1 calls)

     Called by electrons:
     c_bands      :   1292.17s CPU   1321.01s WALL (       1 calls)
     v_of_rho     :      0.14s CPU      0.16s WALL (       1 calls)
     v_h          :      0.01s CPU      0.01s WALL (       1 calls)
     v_xc         :      0.14s CPU      0.15s WALL (       1 calls)
     newd         :      0.08s CPU      0.12s WALL (       1 calls)

     Called by c_bands:
     init_us_2    :      0.68s CPU      0.70s WALL (     220 calls)
     cegterg      :   1223.41s CPU   1250.79s WALL (      80 calls)

     Called by sum_band:

     Called by *egterg:
     h_psi        :    424.16s CPU    434.30s WALL (    1140 calls)
     s_psi        :     36.83s CPU     36.87s WALL (    1140 calls)
     g_psi        :      0.33s CPU      0.33s WALL (     980 calls)
     cdiaghg      :    540.31s CPU    548.28s WALL (    1060 calls)
     cegterg:over :     92.99s CPU    102.97s WALL (     980 calls)
     cegterg:upda :     92.60s CPU     92.89s WALL (     980 calls)
     cegterg:last :     86.37s CPU     86.58s WALL (     320 calls)
     cdiaghg:chol :     39.04s CPU     39.38s WALL (    1060 calls)
     cdiaghg:inve :     14.94s CPU     14.98s WALL (    1060 calls)
     cdiaghg:para :    157.76s CPU    162.81s WALL (    2120 calls)

     Called by h_psi:
     h_psi:pot    :    423.17s CPU    433.28s WALL (    1140 calls)
     h_psi:calbec :     52.90s CPU     60.21s WALL (    1140 calls)
     vloc_psi     :    332.98s CPU    335.66s WALL (    1140 calls)
     add_vuspsi   :     37.27s CPU     37.40s WALL (    1140 calls)

     General routines
     calbec       :     64.11s CPU     72.54s WALL (    1280 calls)
     fft          :      1.27s CPU      3.73s WALL (      13 calls)
     ffts         :      0.01s CPU      0.01s WALL (       1 calls)
     fftw         :    329.16s CPU    331.82s WALL (  743572 calls)
     interpolate  :      0.02s CPU      0.02s WALL (       1 calls)
 
     Parallel routines
     fft_scatt_xy :      9.68s CPU      9.75s WALL (  743586 calls)
     fft_scatt_yz :    282.09s CPU    286.85s WALL (  743586 calls)
 
     PWSCF        :  29m52.37s CPU  30m46.50s WALL

 
   This run was terminated on:   2:41:30  15Jul2022            

=------------------------------------------------------------------------------=
   JOB DONE.
=------------------------------------------------------------------------------=
