
     Program PWSCF v.6.4.1 starts on 15Jul2022 at  2:10:27 

     This program is part of the open-source Quantum ESPRESSO suite
     for quantum simulation of materials; please cite
         "P. Giannozzi et al., J. Phys.:Condens. Matter 21 395502 (2009);
         "P. Giannozzi et al., J. Phys.:Condens. Matter 29 465901 (2017);
          URL http://www.quantum-espresso.org", 
     in publications or presentations arising from this work. More details at
     http://www.quantum-espresso.org/quote

     Parallel version (MPI), running on   128 processors

     MPI processes distributed on     2 nodes
     R & G space division:  proc/nbgrp/npool/nimage =     128
     Waiting for input...
     Reading input from standard input
Warning: card &IONS ignored
Warning: card   UPSCALE           = 100.D0, ignored
Warning: card / ignored
Warning: card &CELL ignored
Warning: card   CELL_DYNAMICS     = 'BFGS' ignored
Warning: card   PRESS_CONV_THR    = 0.5D0 ignored
Warning: card   CELL_DOFREE = 'ALL' ignored
Warning: card / ignored

     Current dimensions of program PWSCF are:
     Max number of different atomic species (ntypx) = 10
     Max number of k-points (npk) =  40000
     Max angular momentum in pseudopotentials (lmaxx) =  3

     Atomic positions and unit cell read from directory:
     ./temp/ZnO.save/
 

     Subspace diagonalization in iterative solution of the eigenvalue problem:
     one sub-group per band group will be used
     scalapack distributed-memory algorithm (size of sub-group:  8*  8 procs)

 
     Parallelization info
     --------------------
     sticks:   dense  smooth     PW     G-vecs:    dense   smooth      PW
     Min          91      43     12                 8578     2848     422
     Max          92      44     13                 8585     2857     429
     Sum       11705    5623   1573              1098355   365309   54335
 


     bravais-lattice index     =            0
     lattice parameter (alat)  =      18.4233  a.u.
     unit-cell volume          =    5816.5298 (a.u.)^3
     number of atoms/cell      =           72
     number of atomic types    =            3
     number of electrons       =       796.00
     number of Kohn-Sham states=          398
     kinetic-energy cutoff     =      60.0000  Ry
     charge density cutoff     =     500.0000  Ry
     Exchange-correlation      = SLA  PW   PSX  PSC ( 1  4 10  8 0 0)
     Using LIBXC version       =    4   3   4

     celldm(1)=  18.423338  celldm(2)=   0.000000  celldm(3)=   0.000000
     celldm(4)=   0.000000  celldm(5)=   0.000000  celldm(6)=   0.000000

     crystal axes: (cart. coord. in units of alat)
               a(1) = (   1.000000   0.000410  -0.000414 )  
               a(2) = (  -0.499644   0.866141   0.000428 )  
               a(3) = (  -0.000442   0.000273   1.073662 )  

     reciprocal axes: (cart. coord. in units 2 pi/alat)
               b(1) = (  0.999764  0.576725  0.000265 )  
               b(2) = ( -0.000473  1.154273 -0.000293 )  
               b(3) = (  0.000386 -0.000238  0.931392 )  


     PseudoPot. # 1 for Zn read from file:
     ./GBRV_PBEsol/zn_pbesol_v1.uspp.F.UPF
     MD5 check sum: 7d8615e52efe7c1e2b1899de8658bae2
     Pseudo is Ultrasoft, Zval = 20.0
     Generated by new atomic code, or converted to UPF format
     Using radial grid of  943 points,  6 beta functions with: 
                l(1) =   0
                l(2) =   0
                l(3) =   1
                l(4) =   1
                l(5) =   2
                l(6) =   2
     Q(r) pseudized with  8 coefficients,  rinner =    1.100   1.100   1.100
                                                       1.100   1.100

     PseudoPot. # 2 for O  read from file:
     ./GBRV_PBEsol/o_pbesol_v1.2.uspp.F.UPF
     MD5 check sum: 501638753501ef6325af9037351f7734
     Pseudo is Ultrasoft + core correction, Zval =  6.0
     Generated by new atomic code, or converted to UPF format
     Using radial grid of  737 points,  5 beta functions with: 
                l(1) =   0
                l(2) =   0
                l(3) =   1
                l(4) =   1
                l(5) =   2
     Q(r) pseudized with  8 coefficients,  rinner =    0.900   0.900   0.900
                                                       0.900   0.900

     PseudoPot. # 3 for Mg read from file:
     ./GBRV_PBEsol/mg_pbesol_v1.4.uspp.F.UPF
     MD5 check sum: 4059f37963cf5867752dbf5ab2400678
     Pseudo is Ultrasoft, Zval = 10.0
     Generated by new atomic code, or converted to UPF format
     Using radial grid of  821 points,  7 beta functions with: 
                l(1) =   0
                l(2) =   0
                l(3) =   0
                l(4) =   1
                l(5) =   1
                l(6) =   2
                l(7) =   2
     Q(r) pseudized with  8 coefficients,  rinner =    1.200   1.200   1.200
                                                       1.200   1.200

     atomic species   valence    mass     pseudopotential
        Zn            20.00    65.38000     Zn( 1.00)
        O              6.00    15.99900     O ( 1.00)
        Mg            10.00    24.30500     Mg( 1.00)

     No symmetry found


                                    s                        frac. trans.

      isym =  1     identity                                     

 cryst.   s( 1) = (     1          0          0      )
                  (     0          1          0      )
                  (     0          0          1      )

 cart.    s( 1) = (  1.0000000 -0.0000000 -0.0000000 )
                  (  0.0000000  1.0000000  0.0000000 )
                  ( -0.0000000  0.0000000  1.0000000 )


   Cartesian axes

     site n.     atom                  positions (alat units)
         1           Zn  tau(   1) = (   0.1664390   0.0971190   0.2081270  )
         2           Zn  tau(   2) = (   0.1675304   0.0961331   0.7454806  )
         3           Zn  tau(   3) = (   0.0017892   0.3861658   0.2086708  )
         4           Zn  tau(   4) = (  -0.0008998   0.3854395   0.7448641  )
         5           Zn  tau(   5) = (  -0.1663634   0.6733279   0.2066056  )
         6           Mg  tau(   6) = (  -0.1655758   0.6764252   0.7459885  )
         7           Zn  tau(   7) = (   0.5007639   0.0965169   0.2079532  )
         8           Zn  tau(   8) = (   0.4995231   0.0972512   0.7452417  )
         9           Mg  tau(   9) = (   0.3330142   0.3858436   0.2079230  )
        10           Mg  tau(  10) = (   0.3333152   0.3850904   0.7442554  )
        11           Mg  tau(  11) = (   0.1650918   0.6728529   0.2088017  )
        12           Zn  tau(  12) = (   0.1670526   0.6753302   0.7418738  )
        13           Mg  tau(  13) = (   0.8338830   0.0980314   0.2056835  )
        14           Mg  tau(  14) = (   0.8343118   0.0965176   0.7433242  )
        15           Zn  tau(  15) = (   0.6668490   0.3855689   0.2057221  )
        16           Mg  tau(  16) = (   0.6659130   0.3867011   0.7471564  )
        17           Zn  tau(  17) = (   0.4980916   0.6739591   0.2082591  )
        18           Zn  tau(  18) = (   0.5013832   0.6742515   0.7446325  )
        19           Zn  tau(  19) = (  -0.0016974   0.1929043   0.4772369  )
        20           Zn  tau(  20) = (   0.0003269   0.1923125   1.0132025  )
        21           Mg  tau(  21) = (  -0.1687843   0.4818761   0.4763857  )
        22           Zn  tau(  22) = (  -0.1651520   0.4811756   1.0119562  )
        23           Zn  tau(  23) = (  -0.3317759   0.7696731   0.4760957  )
        24           Mg  tau(  24) = (  -0.3349488   0.7694066   1.0159795  )
        25           Zn  tau(  25) = (   0.3328030   0.1920601   0.4754733  )
        26           Mg  tau(  26) = (   0.3330441   0.1924393   1.0138775  )
        27           Mg  tau(  27) = (   0.1653562   0.4794953   0.4772803  )
        28           Zn  tau(  28) = (   0.1661532   0.4823979   1.0112177  )
        29           Zn  tau(  29) = (  -0.0017318   0.7704703   0.4769966  )
        30           Zn  tau(  30) = (   0.0019919   0.7695015   1.0136618  )
        31           Mg  tau(  31) = (   0.6647005   0.1943345   0.4761018  )
        32           Zn  tau(  32) = (   0.6672411   0.1914985   1.0109060  )
        33           Zn  tau(  33) = (   0.5018150   0.4803514   0.4768709  )
        34           Zn  tau(  34) = (   0.4981890   0.4826880   1.0130498  )
        35           Mg  tau(  35) = (   0.3350929   0.7707826   0.4755342  )
        36           Mg  tau(  36) = (   0.3318386   0.7680723   1.0113026  )
        37           O   tau(  37) = (   0.1673438   0.0955993   0.0039629  )
        38           O   tau(  38) = (   0.1658736   0.0962575   0.5408142  )
        39           O   tau(  39) = (   0.0008664   0.3845958   0.0040857  )
        40           O   tau(  40) = (  -0.0019185   0.3856384   0.5403486  )
        41           O   tau(  41) = (  -0.1660838   0.6737527   0.0023771  )
        42           O   tau(  42) = (  -0.1666821   0.6732902   0.5426778  )
        43           O   tau(  43) = (   0.5006951   0.0962261   0.0035240  )
        44           O   tau(  44) = (   0.4992844   0.0966201   0.5406659  )
        45           O   tau(  45) = (   0.3328414   0.3844755   0.0039623  )
        46           O   tau(  46) = (   0.3330566   0.3850631   0.5405024  )
        47           O   tau(  47) = (   0.1673914   0.6729729   0.0054715  )
        48           O   tau(  48) = (   0.1674820   0.6735592   0.5373672  )
        49           O   tau(  49) = (   0.8339240   0.0944659   0.0018659  )
        50           O   tau(  50) = (   0.8312503   0.0965305   0.5395831  )
        51           O   tau(  51) = (   0.6670671   0.3849259   0.0011896  )
        52           O   tau(  52) = (   0.6672273   0.3850311   0.5432428  )
        53           O   tau(  53) = (   0.4989450   0.6740995   0.0039386  )
        54           O   tau(  54) = (   0.5009218   0.6738997   0.5401215  )
        55           O   tau(  55) = (  -0.0001974   0.1931349   0.2724494  )
        56           O   tau(  56) = (   0.0001811   0.1928590   0.8088505  )
        57           O   tau(  57) = (  -0.1666077   0.4811886   0.2726670  )
        58           O   tau(  58) = (  -0.1671269   0.4832363   0.8077578  )
        59           O   tau(  59) = (  -0.3336152   0.7696761   0.2714162  )
        60           O   tau(  60) = (  -0.3326590   0.7702422   0.8120946  )
        61           O   tau(  61) = (   0.3336585   0.1932357   0.2709165  )
        62           O   tau(  62) = (   0.3333647   0.1935993   0.8105655  )
        63           O   tau(  63) = (   0.1677528   0.4817598   0.2740896  )
        64           O   tau(  64) = (   0.1666592   0.4821801   0.8067363  )
        65           O   tau(  65) = (  -0.0006459   0.7701412   0.2725097  )
        66           O   tau(  66) = (   0.0013575   0.7710535   0.8094387  )
        67           O   tau(  67) = (   0.6674436   0.1932839   0.2724509  )
        68           O   tau(  68) = (   0.6677153   0.1933384   0.8065288  )
        69           O   tau(  69) = (   0.5001615   0.4812500   0.2721039  )
        70           O   tau(  70) = (   0.4989520   0.4816788   0.8089126  )
        71           O   tau(  71) = (   0.3314262   0.7716152   0.2714341  )
        72           O   tau(  72) = (   0.3338921   0.7706956   0.8077863  )

   Crystallographic axes

     site n.     atom                  positions (cryst. coord.)
         1           Zn  tau(   1) = (  0.2224658  0.1119620  0.1938888  )
         2           Zn  tau(   2) = (  0.2231306  0.1106659  0.6943762  )
         3           Zn  tau(   3) = (  0.2245555  0.4456788  0.1942631  )
         4           Zn  tau(   4) = (  0.2215903  0.4446843  0.6936683  )
         5           Zn  tau(   5) = (  0.2220556  0.7772223  0.1922066  )
         6           Mg  tau(   6) = (  0.2247722  0.7806389  0.6945829  )
         7           Zn  tau(   7) = (  0.5563646  0.1111090  0.1938559  )
         8           Zn  tau(   8) = (  0.5556898  0.1117995  0.6942814  )
         9           Mg  tau(   9) = (  0.5555163  0.4451503  0.1936944  )
        10           Mg  tau(  10) = (  0.5555248  0.4441234  0.6932303  )
        11           Mg  tau(  11) = (  0.5531593  0.7765166  0.1943799  )
        12           Zn  tau(  12) = (  0.5566894  0.7792188  0.6908790  )
        13           Mg  tau(  13) = (  0.8902778  0.1127002  0.1918701  )
        14           Mg  tau(  14) = (  0.8899759  0.1107950  0.6926247  )
        15           Zn  tau(  15) = (  0.8891134  0.4446760  0.1917733  )
        16           Mg  tau(  16) = (  0.8889739  0.4458245  0.6960600  )
        17           Zn  tau(  17) = (  0.8867183  0.7776362  0.1940026  )
        18           Zn  tau(  18) = (  0.8903198  0.7778148  0.6935776  )
        19           Zn  tau(  19) = (  0.1096822  0.2225251  0.4444480  )
        20           Zn  tau(  20) = (  0.1115066  0.2216838  0.9436429  )
        21           Mg  tau(  21) = (  0.1092917  0.5561567  0.4435221  )
        22           Zn  tau(  22) = (  0.1126610  0.5551893  0.9423496  )
        23           Zn  tau(  23) = (  0.1123182  0.8884302  0.4431208  )
        24           Mg  tau(  24) = (  0.1091354  0.8879657  0.9459629  )
        25           Zn  tau(  25) = (  0.4436162  0.2213929  0.4429345  )
        26           Mg  tau(  26) = (  0.4442185  0.2216726  0.9443998  )
        27           Mg  tau(  27) = (  0.4419805  0.5532503  0.4444847  )
        28           Zn  tau(  28) = (  0.4445927  0.5564437  0.9417892  )
        29           Zn  tau(  29) = (  0.4427444  0.8891940  0.4440869  )
        30           Zn  tau(  30) = (  0.4460507  0.8879166  0.9439341  )
        31           Mg  tau(  31) = (  0.7767473  0.2238610  0.4436473  )
        32           Zn  tau(  32) = (  0.7777933  0.2204294  0.9417612  )
        33           Zn  tau(  33) = (  0.7788536  0.5540795  0.4442329  )
        34           Zn  tau(  34) = (  0.7767179  0.5566209  0.9436235  )
        35           Mg  tau(  35) = (  0.7796693  0.8893956  0.4428546  )
        36           Mg  tau(  36) = (  0.7749947  0.8861116  0.9418643  )
        37           O   tau(  37) = (  0.2224399  0.1102674  0.0037328  )
        38           O   tau(  38) = (  0.2214918  0.1108704  0.5037510  )
        39           O   tau(  39) = (  0.2226734  0.4439270  0.0037143  )
        40           O   tau(  40) = (  0.2206323  0.4449744  0.5031838  )
        41           O   tau(  41) = (  0.2225261  0.7777724  0.0019898  )
        42           O   tau(  42) = (  0.2218042  0.7770804  0.5052213  )
        43           O   tau(  43) = (  0.5560738  0.1108333  0.0034524  )
        44           O   tau(  44) = (  0.5550329  0.1111312  0.5037412  )
        45           O   tau(  45) = (  0.5545005  0.4436310  0.0037274  )
        46           O   tau(  46) = (  0.5551966  0.4441518  0.5034563  )
        47           O   tau(  47) = (  0.5554737  0.7767137  0.0050006  )
        48           O   tau(  48) = (  0.5560432  0.7772343  0.5004038  )
        49           O   tau(  49) = (  0.8882085  0.1086444  0.0020369  )
        50           O   tau(  50) = (  0.8868685  0.1108710  0.5028608  )
        51           O   tau(  51) = (  0.8889064  0.4439937  0.0012736  )
        52           O   tau(  52) = (  0.8892708  0.4439560  0.5061375  )
        53           O   tau(  53) = (  0.8875984  0.7778577  0.0037005  )
        54           O   tau(  54) = (  0.8896014  0.7774689  0.5030976  )
        55           O   tau(  55) = (  0.1112605  0.2228506  0.2537111  )
        56           O   tau(  56) = (  0.1116219  0.2223747  0.7533109  )
        57           O   tau(  57) = (  0.1110174  0.5554219  0.2537812  )
        58           O   tau(  58) = (  0.1118209  0.5576287  0.7521596  )
        59           O   tau(  59) = (  0.1104268  0.8884946  0.2524832  )
        60           O   tau(  60) = (  0.1118525  0.8889889  0.7560669  )
        61           O   tau(  61) = (  0.4450954  0.2228095  0.2524121  )
        62           O   tau(  62) = (  0.4451542  0.2230710  0.7550365  )
        63           O   tau(  63) = (  0.4456288  0.5559226  0.2552349  )
        64           O   tau(  64) = (  0.4449188  0.5562521  0.7513371  )
        65           O   tau(  65) = (  0.4435861  0.8888736  0.2536299  )
        66           O   tau(  66) = (  0.4462574  0.8897681  0.7537218  )
        67           O   tau(  67) = (  0.7788299  0.2227067  0.2539699  )
        68           O   tau(  68) = (  0.7792744  0.2226129  0.7514057  )
        69           O   tau(  69) = (  0.7776644  0.5551775  0.2535137  )
        70           O   tau(  70) = (  0.7768447  0.5555155  0.7534924  )
        71           O   tau(  71) = (  0.7764296  0.8904182  0.2527558  )
        72           O   tau(  72) = (  0.7785066  0.8891982  0.7523110  )

     number of k points=    80
                       cart. coord. in units 2pi/alat
        k(    1) = (   0.0000000   0.0000000   0.0000000), wk =   0.0156250
        k(    2) = (   0.0000551  -0.0000340   0.1330560), wk =   0.0156250
        k(    3) = (   0.0001101  -0.0000679   0.2661119), wk =   0.0156250
        k(    4) = (   0.0001652  -0.0001019   0.3991679), wk =   0.0156250
        k(    5) = (   0.0002203  -0.0001358   0.5322238), wk =   0.0156250
        k(    6) = (   0.0002754  -0.0001698   0.6652798), wk =   0.0156250
        k(    7) = (   0.0003304  -0.0002037   0.7983358), wk =   0.0156250
        k(    8) = (   0.0003855  -0.0002377   0.9313917), wk =   0.0156250
        k(    9) = (  -0.0001183   0.2885683  -0.0000733), wk =   0.0312500
        k(   10) = (  -0.0000632   0.2885343   0.1329826), wk =   0.0312500
        k(   11) = (  -0.0000081   0.2885003   0.2660386), wk =   0.0312500
        k(   12) = (   0.0000470   0.2884664   0.3990946), wk =   0.0312500
        k(   13) = (   0.0001020   0.2884324   0.5321505), wk =   0.0312500
        k(   14) = (   0.0001571   0.2883985   0.6652065), wk =   0.0312500
        k(   15) = (   0.0002122   0.2883645   0.7982624), wk =   0.0312500
        k(   16) = (   0.0002672   0.2883306   0.9313184), wk =   0.0312500
        k(   17) = (   0.0002365  -0.5771365   0.0001467), wk =   0.0156250
        k(   18) = (   0.0002916  -0.5771705   0.1332026), wk =   0.0156250
        k(   19) = (   0.0003467  -0.5772044   0.2662586), wk =   0.0156250
        k(   20) = (   0.0004017  -0.5772384   0.3993145), wk =   0.0156250
        k(   21) = (   0.0004568  -0.5772724   0.5323705), wk =   0.0156250
        k(   22) = (   0.0005119  -0.5773063   0.6654265), wk =   0.0156250
        k(   23) = (   0.0005669  -0.5773403   0.7984824), wk =   0.0156250
        k(   24) = (   0.0006220  -0.5773742   0.9315384), wk =   0.0156250
        k(   25) = (   0.2499410   0.1441813   0.0000662), wk =   0.0312500
        k(   26) = (   0.2499961   0.1441473   0.1331222), wk =   0.0312500
        k(   27) = (   0.2500511   0.1441133   0.2661781), wk =   0.0312500
        k(   28) = (   0.2501062   0.1440794   0.3992341), wk =   0.0312500
        k(   29) = (   0.2501613   0.1440454   0.5322901), wk =   0.0312500
        k(   30) = (   0.2502164   0.1440115   0.6653460), wk =   0.0312500
        k(   31) = (   0.2502714   0.1439775   0.7984020), wk =   0.0312500
        k(   32) = (   0.2503265   0.1439436   0.9314579), wk =   0.0312500
        k(   33) = (   0.2498227   0.4327495  -0.0000071), wk =   0.0312500
        k(   34) = (   0.2498778   0.4327156   0.1330488), wk =   0.0312500
        k(   35) = (   0.2499329   0.4326816   0.2661048), wk =   0.0312500
        k(   36) = (   0.2499880   0.4326476   0.3991608), wk =   0.0312500
        k(   37) = (   0.2500430   0.4326137   0.5322167), wk =   0.0312500
        k(   38) = (   0.2500981   0.4325797   0.6652727), wk =   0.0312500
        k(   39) = (   0.2501532   0.4325458   0.7983286), wk =   0.0312500
        k(   40) = (   0.2502082   0.4325118   0.9313846), wk =   0.0312500
        k(   41) = (   0.2501775  -0.4329553   0.0002129), wk =   0.0312500
        k(   42) = (   0.2502326  -0.4329892   0.1332688), wk =   0.0312500
        k(   43) = (   0.2502877  -0.4330232   0.2663248), wk =   0.0312500
        k(   44) = (   0.2503427  -0.4330571   0.3993807), wk =   0.0312500
        k(   45) = (   0.2503978  -0.4330911   0.5324367), wk =   0.0312500
        k(   46) = (   0.2504529  -0.4331251   0.6654927), wk =   0.0312500
        k(   47) = (   0.2505079  -0.4331590   0.7985486), wk =   0.0312500
        k(   48) = (   0.2505630  -0.4331930   0.9316046), wk =   0.0312500
        k(   49) = (   0.2500593  -0.1443870   0.0001395), wk =   0.0312500
        k(   50) = (   0.2501143  -0.1444210   0.1331955), wk =   0.0312500
        k(   51) = (   0.2501694  -0.1444549   0.2662515), wk =   0.0312500
        k(   52) = (   0.2502245  -0.1444889   0.3993074), wk =   0.0312500
        k(   53) = (   0.2502795  -0.1445228   0.5323634), wk =   0.0312500
        k(   54) = (   0.2503346  -0.1445568   0.6654193), wk =   0.0312500
        k(   55) = (   0.2503897  -0.1445908   0.7984753), wk =   0.0312500
        k(   56) = (   0.2504448  -0.1446247   0.9315313), wk =   0.0312500
        k(   57) = (  -0.4998820  -0.2883625  -0.0001324), wk =   0.0156250
        k(   58) = (  -0.4998269  -0.2883965   0.1329236), wk =   0.0156250
        k(   59) = (  -0.4997719  -0.2884304   0.2659795), wk =   0.0156250
        k(   60) = (  -0.4997168  -0.2884644   0.3990355), wk =   0.0156250
        k(   61) = (  -0.4996617  -0.2884984   0.5320914), wk =   0.0156250
        k(   62) = (  -0.4996066  -0.2885323   0.6651474), wk =   0.0156250
        k(   63) = (  -0.4995516  -0.2885663   0.7982034), wk =   0.0156250
        k(   64) = (  -0.4994965  -0.2886002   0.9312593), wk =   0.0156250
        k(   65) = (  -0.5000003   0.0002057  -0.0002057), wk =   0.0312500
        k(   66) = (  -0.4999452   0.0001718   0.1328502), wk =   0.0312500
        k(   67) = (  -0.4998901   0.0001378   0.2659062), wk =   0.0312500
        k(   68) = (  -0.4998350   0.0001039   0.3989621), wk =   0.0312500
        k(   69) = (  -0.4997800   0.0000699   0.5320181), wk =   0.0312500
        k(   70) = (  -0.4997249   0.0000360   0.6650741), wk =   0.0312500
        k(   71) = (  -0.4996698   0.0000020   0.7981300), wk =   0.0312500
        k(   72) = (  -0.4996148  -0.0000320   0.9311860), wk =   0.0312500
        k(   73) = (  -0.4996455  -0.8654990   0.0000143), wk =   0.0156250
        k(   74) = (  -0.4995904  -0.8655330   0.1330702), wk =   0.0156250
        k(   75) = (  -0.4995353  -0.8655670   0.2661262), wk =   0.0156250
        k(   76) = (  -0.4994803  -0.8656009   0.3991821), wk =   0.0156250
        k(   77) = (  -0.4994252  -0.8656349   0.5322381), wk =   0.0156250
        k(   78) = (  -0.4993701  -0.8656688   0.6652941), wk =   0.0156250
        k(   79) = (  -0.4993150  -0.8657028   0.7983500), wk =   0.0156250
        k(   80) = (  -0.4992600  -0.8657367   0.9314060), wk =   0.0156250

                       cryst. coord.
        k(    1) = (   0.0000000   0.0000000   0.0000000), wk =   0.0156250
        k(    2) = (  -0.0000000  -0.0000000   0.1428571), wk =   0.0156250
        k(    3) = (  -0.0000000  -0.0000000   0.2857143), wk =   0.0156250
        k(    4) = (  -0.0000000  -0.0000000   0.4285714), wk =   0.0156250
        k(    5) = (  -0.0000000  -0.0000000   0.5714286), wk =   0.0156250
        k(    6) = (  -0.0000000   0.0000000   0.7142857), wk =   0.0156250
        k(    7) = (  -0.0000000  -0.0000000   0.8571429), wk =   0.0156250
        k(    8) = (  -0.0000000  -0.0000000   1.0000000), wk =   0.0156250
        k(    9) = (   0.0000000   0.2500000   0.0000000), wk =   0.0312500
        k(   10) = (   0.0000000   0.2500000   0.1428571), wk =   0.0312500
        k(   11) = (   0.0000000   0.2500000   0.2857143), wk =   0.0312500
        k(   12) = (   0.0000000   0.2500000   0.4285714), wk =   0.0312500
        k(   13) = (   0.0000000   0.2500000   0.5714286), wk =   0.0312500
        k(   14) = (  -0.0000000   0.2500000   0.7142857), wk =   0.0312500
        k(   15) = (  -0.0000000   0.2500000   0.8571429), wk =   0.0312500
        k(   16) = (  -0.0000000   0.2500000   1.0000000), wk =   0.0312500
        k(   17) = (  -0.0000000  -0.5000000  -0.0000000), wk =   0.0156250
        k(   18) = (  -0.0000000  -0.5000000   0.1428571), wk =   0.0156250
        k(   19) = (  -0.0000000  -0.5000000   0.2857143), wk =   0.0156250
        k(   20) = (  -0.0000000  -0.5000000   0.4285714), wk =   0.0156250
        k(   21) = (  -0.0000000  -0.5000000   0.5714286), wk =   0.0156250
        k(   22) = (  -0.0000000  -0.5000000   0.7142857), wk =   0.0156250
        k(   23) = (  -0.0000000  -0.5000000   0.8571429), wk =   0.0156250
        k(   24) = (  -0.0000000  -0.5000000   1.0000000), wk =   0.0156250
        k(   25) = (   0.2500000  -0.0000000  -0.0000000), wk =   0.0312500
        k(   26) = (   0.2500000  -0.0000000   0.1428571), wk =   0.0312500
        k(   27) = (   0.2500000   0.0000000   0.2857143), wk =   0.0312500
        k(   28) = (   0.2500000  -0.0000000   0.4285714), wk =   0.0312500
        k(   29) = (   0.2500000  -0.0000000   0.5714286), wk =   0.0312500
        k(   30) = (   0.2500000  -0.0000000   0.7142857), wk =   0.0312500
        k(   31) = (   0.2500000   0.0000000   0.8571429), wk =   0.0312500
        k(   32) = (   0.2500000  -0.0000000   1.0000000), wk =   0.0312500
        k(   33) = (   0.2500000   0.2500000   0.0000000), wk =   0.0312500
        k(   34) = (   0.2500000   0.2500000   0.1428571), wk =   0.0312500
        k(   35) = (   0.2500000   0.2500000   0.2857143), wk =   0.0312500
        k(   36) = (   0.2500000   0.2500000   0.4285714), wk =   0.0312500
        k(   37) = (   0.2500000   0.2500000   0.5714286), wk =   0.0312500
        k(   38) = (   0.2500000   0.2500000   0.7142857), wk =   0.0312500
        k(   39) = (   0.2500000   0.2500000   0.8571429), wk =   0.0312500
        k(   40) = (   0.2500000   0.2500000   1.0000000), wk =   0.0312500
        k(   41) = (   0.2500000  -0.5000000  -0.0000000), wk =   0.0312500
        k(   42) = (   0.2500000  -0.5000000   0.1428571), wk =   0.0312500
        k(   43) = (   0.2500000  -0.5000000   0.2857143), wk =   0.0312500
        k(   44) = (   0.2500000  -0.5000000   0.4285714), wk =   0.0312500
        k(   45) = (   0.2500000  -0.5000000   0.5714286), wk =   0.0312500
        k(   46) = (   0.2500000  -0.5000000   0.7142857), wk =   0.0312500
        k(   47) = (   0.2500000  -0.5000000   0.8571429), wk =   0.0312500
        k(   48) = (   0.2500000  -0.5000000   1.0000000), wk =   0.0312500
        k(   49) = (   0.2500000  -0.2500000  -0.0000000), wk =   0.0312500
        k(   50) = (   0.2500000  -0.2500000   0.1428571), wk =   0.0312500
        k(   51) = (   0.2500000  -0.2500000   0.2857143), wk =   0.0312500
        k(   52) = (   0.2500000  -0.2500000   0.4285714), wk =   0.0312500
        k(   53) = (   0.2500000  -0.2500000   0.5714286), wk =   0.0312500
        k(   54) = (   0.2500000  -0.2500000   0.7142857), wk =   0.0312500
        k(   55) = (   0.2500000  -0.2500000   0.8571429), wk =   0.0312500
        k(   56) = (   0.2500000  -0.2500000   1.0000000), wk =   0.0312500
        k(   57) = (  -0.5000000   0.0000000   0.0000000), wk =   0.0156250
        k(   58) = (  -0.5000000   0.0000000   0.1428571), wk =   0.0156250
        k(   59) = (  -0.5000000   0.0000000   0.2857143), wk =   0.0156250
        k(   60) = (  -0.5000000  -0.0000000   0.4285714), wk =   0.0156250
        k(   61) = (  -0.5000000   0.0000000   0.5714286), wk =   0.0156250
        k(   62) = (  -0.5000000   0.0000000   0.7142857), wk =   0.0156250
        k(   63) = (  -0.5000000   0.0000000   0.8571429), wk =   0.0156250
        k(   64) = (  -0.5000000   0.0000000   1.0000000), wk =   0.0156250
        k(   65) = (  -0.5000000   0.2500000   0.0000000), wk =   0.0312500
        k(   66) = (  -0.5000000   0.2500000   0.1428571), wk =   0.0312500
        k(   67) = (  -0.5000000   0.2500000   0.2857143), wk =   0.0312500
        k(   68) = (  -0.5000000   0.2500000   0.4285714), wk =   0.0312500
        k(   69) = (  -0.5000000   0.2500000   0.5714286), wk =   0.0312500
        k(   70) = (  -0.5000000   0.2500000   0.7142857), wk =   0.0312500
        k(   71) = (  -0.5000000   0.2500000   0.8571429), wk =   0.0312500
        k(   72) = (  -0.5000000   0.2500000   1.0000000), wk =   0.0312500
        k(   73) = (  -0.5000000  -0.5000000  -0.0000000), wk =   0.0156250
        k(   74) = (  -0.5000000  -0.5000000   0.1428571), wk =   0.0156250
        k(   75) = (  -0.5000000  -0.5000000   0.2857143), wk =   0.0156250
        k(   76) = (  -0.5000000  -0.5000000   0.4285714), wk =   0.0156250
        k(   77) = (  -0.5000000  -0.5000000   0.5714286), wk =   0.0156250
        k(   78) = (  -0.5000000  -0.5000000   0.7142857), wk =   0.0156250
        k(   79) = (  -0.5000000  -0.5000000   0.8571429), wk =   0.0156250
        k(   80) = (  -0.5000000  -0.5000000   1.0000000), wk =   0.0156250

     Dense  grid:  1098355 G-vectors     FFT dimensions: ( 135, 135, 144)

     Smooth grid:   365309 G-vectors     FFT dimensions: (  96,  96, 100)

     Dynamical RAM for                 wfc:       2.16 MB

     Dynamical RAM for     wfc (w. buffer):     175.12 MB

     Dynamical RAM for           str. fact:       0.39 MB

     Dynamical RAM for           local pot:       0.00 MB

     Dynamical RAM for          nlocal pot:       6.14 MB

     Dynamical RAM for                qrad:      21.02 MB

     Dynamical RAM for          rho,v,vnew:       1.23 MB

     Dynamical RAM for           G-vectors:       0.51 MB

     Dynamical RAM for          h,s,v(r/c):       1.81 MB

     Dynamical RAM for          <psi|beta>:       6.86 MB

     Dynamical RAM for                 psi:       8.65 MB

     Dynamical RAM for                hpsi:       8.65 MB

     Dynamical RAM for                spsi:       8.65 MB

     Dynamical RAM for      wfcinit/wfcrot:      11.16 MB

     Dynamical RAM for           addusdens:      31.55 MB

     Estimated static dynamical RAM per process >     206.33 MB

     Estimated max dynamical RAM per process >     240.95 MB

     Estimated total dynamical RAM >      30.12 GB

     Check: negative core charge=   -0.000002

     The potential is recalculated from file :
     ./temp/ZnO.save/charge-density

     Starting wfcs are  500 randomized atomic wfcs

     Band Structure Calculation
     Davidson diagonalization with overlap

     Computing kpt #:     1
     total cpu time spent up to now is       21.2 secs

     Computing kpt #:     2
     total cpu time spent up to now is       34.5 secs

     Computing kpt #:     3
     total cpu time spent up to now is       47.7 secs

     Computing kpt #:     4
     total cpu time spent up to now is       61.0 secs

     Computing kpt #:     5
     total cpu time spent up to now is       74.2 secs

     Computing kpt #:     6
     total cpu time spent up to now is       87.4 secs

     Computing kpt #:     7
     total cpu time spent up to now is      100.5 secs

     Computing kpt #:     8
     total cpu time spent up to now is      113.7 secs

     Computing kpt #:     9
     total cpu time spent up to now is      127.0 secs

     Computing kpt #:    10
     total cpu time spent up to now is      140.1 secs

     Computing kpt #:    11
     total cpu time spent up to now is      153.2 secs

     Computing kpt #:    12
     total cpu time spent up to now is      166.4 secs

     Computing kpt #:    13
     total cpu time spent up to now is      179.5 secs

     Computing kpt #:    14
     total cpu time spent up to now is      192.5 secs

     Computing kpt #:    15
     total cpu time spent up to now is      205.6 secs

     Computing kpt #:    16
     total cpu time spent up to now is      218.7 secs

     Computing kpt #:    17
     total cpu time spent up to now is      231.8 secs

     Computing kpt #:    18
     total cpu time spent up to now is      244.8 secs

     Computing kpt #:    19
     total cpu time spent up to now is      257.9 secs

     Computing kpt #:    20
     total cpu time spent up to now is      270.9 secs

     Computing kpt #:    21
     total cpu time spent up to now is      283.9 secs

     Computing kpt #:    22
     total cpu time spent up to now is      297.0 secs

     Computing kpt #:    23
     total cpu time spent up to now is      309.9 secs

     Computing kpt #:    24
     total cpu time spent up to now is      322.9 secs

     Computing kpt #:    25
     total cpu time spent up to now is      336.1 secs

     Computing kpt #:    26
     total cpu time spent up to now is      349.1 secs

     Computing kpt #:    27
     total cpu time spent up to now is      362.2 secs

     Computing kpt #:    28
     total cpu time spent up to now is      375.3 secs

     Computing kpt #:    29
     total cpu time spent up to now is      388.3 secs

     Computing kpt #:    30
     total cpu time spent up to now is      401.4 secs

     Computing kpt #:    31
     total cpu time spent up to now is      414.4 secs

     Computing kpt #:    32
     total cpu time spent up to now is      427.5 secs

     Computing kpt #:    33
     total cpu time spent up to now is      440.4 secs

     Computing kpt #:    34
     total cpu time spent up to now is      453.5 secs

     Computing kpt #:    35
     total cpu time spent up to now is      466.5 secs

     Computing kpt #:    36
     total cpu time spent up to now is      479.5 secs

     Computing kpt #:    37
     total cpu time spent up to now is      492.6 secs

     Computing kpt #:    38
     total cpu time spent up to now is      505.5 secs

     Computing kpt #:    39
     total cpu time spent up to now is      518.5 secs

     Computing kpt #:    40
     total cpu time spent up to now is      531.6 secs

     Computing kpt #:    41
     total cpu time spent up to now is      544.6 secs

     Computing kpt #:    42
     total cpu time spent up to now is      557.5 secs

     Computing kpt #:    43
     total cpu time spent up to now is      570.5 secs

     Computing kpt #:    44
     total cpu time spent up to now is      583.5 secs

     Computing kpt #:    45
     total cpu time spent up to now is      596.4 secs

     Computing kpt #:    46
     total cpu time spent up to now is      609.4 secs

     Computing kpt #:    47
     total cpu time spent up to now is      622.5 secs

     Computing kpt #:    48
     total cpu time spent up to now is      635.5 secs

     Computing kpt #:    49
     total cpu time spent up to now is      648.6 secs

     Computing kpt #:    50
     total cpu time spent up to now is      661.6 secs

     Computing kpt #:    51
     total cpu time spent up to now is      674.6 secs

     Computing kpt #:    52
     total cpu time spent up to now is      687.6 secs

     Computing kpt #:    53
     total cpu time spent up to now is      700.6 secs

     Computing kpt #:    54
     total cpu time spent up to now is      713.6 secs

     Computing kpt #:    55
     total cpu time spent up to now is      726.7 secs

     Computing kpt #:    56
     total cpu time spent up to now is      739.7 secs

     Computing kpt #:    57
     total cpu time spent up to now is      752.7 secs

     Computing kpt #:    58
     total cpu time spent up to now is      765.7 secs

     Computing kpt #:    59
     total cpu time spent up to now is      778.7 secs

     Computing kpt #:    60
     total cpu time spent up to now is      791.7 secs

     Computing kpt #:    61
     total cpu time spent up to now is      804.5 secs

     Computing kpt #:    62
     total cpu time spent up to now is      817.6 secs

     Computing kpt #:    63
     total cpu time spent up to now is      830.6 secs

     Computing kpt #:    64
     total cpu time spent up to now is      843.8 secs

     Computing kpt #:    65
     total cpu time spent up to now is      856.8 secs

     Computing kpt #:    66
     total cpu time spent up to now is      869.7 secs

     Computing kpt #:    67
     total cpu time spent up to now is      882.8 secs

     Computing kpt #:    68
     total cpu time spent up to now is      895.8 secs

     Computing kpt #:    69
     total cpu time spent up to now is      908.7 secs

     Computing kpt #:    70
     total cpu time spent up to now is      921.6 secs

     Computing kpt #:    71
     total cpu time spent up to now is      934.6 secs

     Computing kpt #:    72
     total cpu time spent up to now is      947.7 secs

     Computing kpt #:    73
     total cpu time spent up to now is      960.7 secs

     Computing kpt #:    74
     total cpu time spent up to now is      973.8 secs

     Computing kpt #:    75
     total cpu time spent up to now is      986.6 secs

     Computing kpt #:    76
     total cpu time spent up to now is      999.6 secs

     Computing kpt #:    77
     total cpu time spent up to now is     1012.5 secs

     Computing kpt #:    78
     total cpu time spent up to now is     1025.5 secs

     Computing kpt #:    79
     total cpu time spent up to now is     1038.5 secs

     Computing kpt #:    80
     total cpu time spent up to now is     1051.5 secs

     ethr =  1.26E-12,  avg # of iterations = 12.2

     total cpu time spent up to now is     1051.5 secs

     End of band structure calculation

          k = 0.0000 0.0000 0.0000 ( 45663 PWs)   bands (ev):

  -115.7039-115.7031-115.6949-115.6941-115.6907-115.6905-115.6876-115.6873
  -115.6868-115.6867-115.6863-115.6858-115.6850-115.6847-115.6823-115.6820
  -115.6817-115.6808-115.6804-115.6802-115.6795-115.6689 -70.0624 -70.0603
   -70.0593 -70.0582 -70.0576 -70.0572 -70.0528 -70.0528 -70.0523 -70.0503
   -70.0497 -70.0495 -70.0476 -70.0474 -70.0468 -70.0465 -70.0464 -70.0460
   -70.0457 -70.0455 -70.0450 -70.0445 -70.0444 -70.0438 -70.0437 -70.0437
   -70.0429 -70.0429 -70.0428 -70.0428 -70.0425 -70.0425 -70.0421 -70.0419
   -70.0417 -70.0410 -70.0406 -70.0404 -70.0402 -70.0402 -70.0396 -70.0396
   -70.0392 -70.0391 -70.0388 -70.0385 -70.0380 -70.0378 -70.0372 -70.0371
   -70.0369 -70.0364 -70.0360 -70.0358 -70.0357 -70.0356 -70.0347 -70.0339
   -70.0331 -70.0329 -70.0328 -70.0324 -70.0278 -70.0276 -70.0252 -70.0219
   -65.1746 -65.1740 -65.1724 -65.1668 -65.1627 -65.1620 -65.1610 -65.1538
   -65.1521 -65.1514 -65.1416 -65.1347 -65.1278 -65.1190 -32.1649 -32.1644
   -32.1625 -32.1617 -32.1613 -32.1594 -32.1592 -32.1567 -32.1560 -32.1554
   -32.1553 -32.1527 -32.1519 -32.1501 -32.1487 -32.1482 -32.1477 -32.1471
   -32.1451 -32.1445 -32.1442 -32.1408 -32.1400 -32.1391 -32.1386 -32.1383
   -32.1366 -32.1363 -32.1337 -32.1316 -32.1276 -32.1252 -32.1232 -32.1226
   -32.1202 -32.1176 -32.1133 -32.1110 -32.1091 -32.1056 -32.1035 -32.1024
   -10.2590  -9.9677  -9.9186  -9.8572  -9.8105  -9.7925  -9.7645  -9.7391
    -9.6738  -9.6410  -9.6331  -9.6198  -9.6089  -9.5718  -9.5683  -9.5442
    -9.5191  -9.4925  -9.4809  -9.4562  -9.4538  -9.4205  -9.4041  -9.3772
    -9.3572  -9.3460  -9.3330  -9.3170  -9.3100  -9.2970  -9.2907  -9.2700
    -9.1960  -9.1837  -9.1536  -9.1123   1.5510   1.5582   1.5764   1.5941
     1.6011   1.6180   1.6368   1.6469   1.6809   1.6859   1.7044   1.7306
     1.7428   1.7658   1.7988   1.8163   1.8291   1.8437   1.8663   1.8798
     1.9044   1.9173   1.9383   1.9657   1.9701   1.9762   1.9967   2.0032
     2.0146   2.0297   2.0518   2.0555   2.0696   2.0791   2.0946   2.0992
     2.1071   2.1224   2.1244   2.1398   2.1435   2.1660   2.1667   2.1860
     2.1934   2.2116   2.2153   2.2269   2.2322   2.2479   2.2576   2.2731
     2.2807   2.3124   2.3360   2.3588   2.3913   2.4081   2.4107   2.4313
     2.4448   2.4838   2.4940   2.4978   2.5223   2.5429   2.5515   2.5648
     2.5876   2.6004   2.6089   2.6143   2.6354   2.6430   2.6461   2.6582
     2.6821   2.6972   2.6994   2.7176   2.7300   2.7456   2.7527   2.7789
     2.8080   2.8162   2.8212   2.8395   2.8598   2.8744   2.8907   2.8999
     2.9235   2.9293   2.9508   2.9516   2.9579   2.9712   2.9770   2.9884
     2.9979   3.0026   3.0251   3.0348   3.0446   3.0581   3.0644   3.1062
     3.1259   3.1346   3.1826   3.2454   3.3249   3.3851   3.4286   3.4483
     3.5066   3.5290   3.5418   3.5814   3.5908   3.6285   3.6523   3.6775
     3.7014   3.7318   3.7775   3.7968   3.8092   3.8544   3.9259   3.9632
     4.0063   4.0138   4.0491   4.0763   4.1249   4.1941   4.3041   4.3083
     4.3538   4.3705   4.4290   4.4555   4.4958   4.5587   4.5610   4.5799
     4.6073   4.6781   4.7399   4.7586   4.7906   4.9241   4.9490   5.1290
     5.1499   5.2043   5.2367   5.2602   5.2879   5.3606   5.4128   5.4232
     5.4660   5.4775   5.5113   5.5184   5.5327   5.5467   5.5766   5.5903
     5.5974   5.6852   5.7102   5.7577   5.8006   5.8185   5.8435   5.8740
     5.8895   5.9032   5.9549   6.0144   6.0154   6.0356   6.0683   6.0771
     6.0867   6.1016   6.1114   6.1326   6.1405   6.1527   6.1612   6.1703
     6.1924   6.2019   6.3141   6.3236   6.3639   6.3905   6.4078   6.4422
     6.4550   6.4634   6.5037   6.5152   6.5694   6.5926   6.6423   6.7374
     6.7387   6.7812   6.8546   7.0044   7.0281   7.0503

     occupation numbers 
     1.0000   1.0000   1.0000   1.0000   1.0000   1.0000   1.0000   1.0000
     1.0000   1.0000   1.0000   1.0000   1.0000   1.0000   1.0000   1.0000
     1.0000   1.0000   1.0000   1.0000   1.0000   1.0000   1.0000   1.0000
     1.0000   1.0000   1.0000   1.0000   1.0000   1.0000   1.0000   1.0000
     1.0000   1.0000   1.0000   1.0000   1.0000   1.0000   1.0000   1.0000
     1.0000   1.0000   1.0000   1.0000   1.0000   1.0000   1.0000   1.0000
     1.0000   1.0000   1.0000   1.0000   1.0000   1.0000   1.0000   1.0000
     1.0000   1.0000   1.0000   1.0000   1.0000   1.0000   1.0000   1.0000
     1.0000   1.0000   1.0000   1.0000   1.0000   1.0000   1.0000   1.0000
     1.0000   1.0000   1.0000   1.0000   1.0000   1.0000   1.0000   1.0000
     1.0000   1.0000   1.0000   1.0000   1.0000   1.0000   1.0000   1.0000
     1.0000   1.0000   1.0000   1.0000   1.0000   1.0000   1.0000   1.0000
     1.0000   1.0000   1.0000   1.0000   1.0000   1.0000   1.0000   1.0000
     1.0000   1.0000   1.0000   1.0000   1.0000   1.0000   1.0000   1.0000
     1.0000   1.0000   1.0000   1.0000   1.0000   1.0000   1.0000   1.0000
     1.0000   1.0000   1.0000   1.0000   1.0000   1.0000   1.0000   1.0000
     1.0000   1.0000   1.0000   1.0000   1.0000   1.0000   1.0000   1.0000
     1.0000   1.0000   1.0000   1.0000   1.0000   1.0000   1.0000   1.0000
     1.0000   1.0000   1.0000   1.0000   1.0000   1.0000   1.0000   1.0000
     1.0000   1.0000   1.0000   1.0000   1.0000   1.0000   1.0000   1.0000
     1.0000   1.0000   1.0000   1.0000   1.0000   1.0000   1.0000   1.0000
     1.0000   1.0000   1.0000   1.0000   1.0000   1.0000   1.0000   1.0000
     1.0000   1.0000   1.0000   1.0000   1.0000   1.0000   1.0000   1.0000
     1.0000   1.0000   1.0000   1.0000   1.0000   1.0000   1.0000   1.0000
     1.0000   1.0000   1.0000   1.0000   1.0000   1.0000   1.0000   1.0000
     1.0000   1.0000   1.0000   1.0000   1.0000   1.0000   1.0000   1.0000
     1.0000   1.0000   1.0000   1.0000   1.0000   1.0000   1.0000   1.0000
     1.0000   1.0000   1.0000   1.0000   1.0000   1.0000   1.0000   1.0000
     1.0000   1.0000   1.0000   1.0000   1.0000   1.0000   1.0000   1.0000
     1.0000   1.0000   1.0000   1.0000   1.0000   1.0000   1.0000   1.0000
     1.0000   1.0000   1.0000   1.0000   1.0000   1.0000   1.0000   1.0000
     1.0000   1.0000   1.0000   1.0000   1.0000   1.0000   1.0000   1.0000
     1.0000   1.0000   1.0000   1.0000   1.0000   1.0000   1.0000   1.0000
     1.0000   1.0000   1.0000   1.0000   1.0000   1.0000   1.0000   1.0000
     1.0000   1.0000   1.0000   1.0000   1.0000   1.0000   1.0000   1.0000
     1.0000   1.0000   1.0000   1.0000   1.0000   1.0000   1.0000   1.0000
     1.0000   1.0000   1.0000   1.0000   1.0000   1.0000   1.0000   1.0000
     1.0000   1.0000   1.0000   1.0000   1.0000   1.0000   1.0000   1.0000
     1.0000   1.0000   1.0000   1.0000   1.0000   1.0000   1.0000   1.0000
     1.0000   1.0000   1.0000   1.0000   1.0000   1.0000   1.0000   1.0000
     1.0000   1.0000   1.0000   1.0000   1.0000   1.0000   1.0000   1.0000
     1.0000   1.0000   1.0000   1.0000   1.0000   1.0000   1.0000   1.0000
     1.0000   1.0000   1.0000   1.0000   1.0000   1.0000   1.0000   1.0000
     1.0000   1.0000   1.0000   1.0000   1.0000   1.0000   1.0000   1.0000
     1.0000   1.0000   1.0000   1.0000   1.0000   1.0000   1.0000   1.0000
     1.0000   1.0000   1.0000   1.0000   1.0000   1.0000   1.0000   1.0000
     1.0000   1.0000   1.0000   1.0000   1.0000   1.0000   1.0000   1.0000
     1.0000   1.0000   1.0000   1.0000   1.0000   1.0000   1.0000   1.0000
     1.0000   1.0000   1.0000   1.0000   1.0000   1.0000   1.0000   1.0000
     1.0000   1.0000   1.0000   1.0000   1.0000   1.0000

          k = 0.0001-0.0000 0.1331 ( 45678 PWs)   bands (ev):

  -115.7039-115.7031-115.6949-115.6941-115.6907-115.6905-115.6876-115.6873
  -115.6868-115.6867-115.6863-115.6858-115.6850-115.6847-115.6823-115.6820
  -115.6817-115.6808-115.6804-115.6802-115.6795-115.6689 -70.0624 -70.0603
   -70.0593 -70.0582 -70.0576 -70.0572 -70.0528 -70.0528 -70.0523 -70.0503
   -70.0497 -70.0495 -70.0476 -70.0474 -70.0468 -70.0465 -70.0464 -70.0460
   -70.0457 -70.0455 -70.0450 -70.0445 -70.0444 -70.0438 -70.0437 -70.0437
   -70.0429 -70.0429 -70.0428 -70.0428 -70.0425 -70.0425 -70.0421 -70.0419
   -70.0417 -70.0410 -70.0406 -70.0404 -70.0402 -70.0402 -70.0396 -70.0396
   -70.0392 -70.0391 -70.0388 -70.0385 -70.0380 -70.0378 -70.0372 -70.0371
   -70.0369 -70.0364 -70.0360 -70.0358 -70.0357 -70.0356 -70.0347 -70.0339
   -70.0331 -70.0329 -70.0328 -70.0324 -70.0278 -70.0276 -70.0252 -70.0219
   -65.1746 -65.1740 -65.1724 -65.1668 -65.1627 -65.1620 -65.1610 -65.1538
   -65.1521 -65.1514 -65.1416 -65.1347 -65.1278 -65.1190 -32.1649 -32.1644
   -32.1626 -32.1617 -32.1613 -32.1593 -32.1592 -32.1567 -32.1560 -32.1554
   -32.1553 -32.1527 -32.1520 -32.1501 -32.1487 -32.1482 -32.1477 -32.1471
   -32.1451 -32.1445 -32.1442 -32.1408 -32.1399 -32.1391 -32.1386 -32.1383
   -32.1366 -32.1363 -32.1337 -32.1316 -32.1276 -32.1252 -32.1232 -32.1226
   -32.1202 -32.1176 -32.1133 -32.1110 -32.1091 -32.1056 -32.1035 -32.1024
   -10.2510 -10.0091  -9.8898  -9.8533  -9.8074  -9.7917  -9.7544  -9.7329
    -9.6756  -9.6617  -9.6466  -9.6194  -9.6029  -9.5848  -9.5582  -9.5487
    -9.5114  -9.4934  -9.4743  -9.4632  -9.4471  -9.4131  -9.4020  -9.3765
    -9.3552  -9.3469  -9.3326  -9.3159  -9.3109  -9.2971  -9.2902  -9.2729
    -9.1977  -9.1848  -9.1544  -9.1138   1.5516   1.5653   1.5804   1.5950
     1.6143   1.6213   1.6459   1.6509   1.6819   1.6892   1.7070   1.7300
     1.7500   1.7696   1.8019   1.8231   1.8342   1.8469   1.8680   1.8811
     1.9065   1.9175   1.9351   1.9635   1.9662   1.9822   1.9894   2.0026
     2.0141   2.0294   2.0437   2.0509   2.0670   2.0754   2.0867   2.0974
     2.1069   2.1210   2.1281   2.1379   2.1506   2.1594   2.1760   2.1861
     2.1897   2.2065   2.2171   2.2260   2.2358   2.2488   2.2516   2.2733
     2.2816   2.3069   2.3308   2.3583   2.3823   2.4029   2.4103   2.4253
     2.4405   2.4763   2.4804   2.4933   2.5168   2.5367   2.5413   2.5562
     2.5640   2.5903   2.6003   2.6124   2.6230   2.6370   2.6478   2.6609
     2.6783   2.6833   2.6939   2.7149   2.7287   2.7479   2.7537   2.7680
     2.7999   2.8099   2.8230   2.8394   2.8613   2.8699   2.8831   2.8928
     2.9270   2.9372   2.9442   2.9491   2.9662   2.9739   2.9800   2.9909
     3.0005   3.0076   3.0270   3.0318   3.0416   3.0569   3.0725   3.0931
     3.1190   3.1316   3.1815   3.2838   3.3666   3.3874   3.4494   3.4664
     3.5057   3.5328   3.5462   3.5765   3.5972   3.6369   3.6648   3.6869
     3.7032   3.7395   3.7946   3.8033   3.8296   3.8732   3.9277   3.9787
     4.0115   4.0328   4.0645   4.1076   4.1295   4.2104   4.2895   4.3192
     4.3355   4.3613   4.4011   4.4260   4.4615   4.4824   4.5065   4.5571
     4.6396   4.7105   4.7579   4.8047   4.8839   4.9257   5.0235   5.1343
     5.1560   5.2064   5.2458   5.2609   5.2926   5.3511   5.3882   5.4053
     5.4403   5.4510   5.4819   5.4987   5.5279   5.5436   5.5548   5.5635
     5.5884   5.6144   5.6620   5.7491   5.7721   5.7895   5.8196   5.8479
     5.8916   5.8980   5.9390   5.9591   5.9972   6.0399   6.0462   6.0690
     6.0931   6.1212   6.1382   6.1501   6.1598   6.1959   6.2074   6.2341
     6.2502   6.2610   6.3215   6.3303   6.3710   6.3988   6.4201   6.4495
     6.4620   6.4737   6.5058   6.5151   6.5589   6.5885   6.6339   6.6954
     6.7320   6.8146   6.8673   6.9235   7.0234   7.0453

     occupation numbers 
     1.0000   1.0000   1.0000   1.0000   1.0000   1.0000   1.0000   1.0000
     1.0000   1.0000   1.0000   1.0000   1.0000   1.0000   1.0000   1.0000
     1.0000   1.0000   1.0000   1.0000   1.0000   1.0000   1.0000   1.0000
     1.0000   1.0000   1.0000   1.0000   1.0000   1.0000   1.0000   1.0000
     1.0000   1.0000   1.0000   1.0000   1.0000   1.0000   1.0000   1.0000
     1.0000   1.0000   1.0000   1.0000   1.0000   1.0000   1.0000   1.0000
     1.0000   1.0000   1.0000   1.0000   1.0000   1.0000   1.0000   1.0000
     1.0000   1.0000   1.0000   1.0000   1.0000   1.0000   1.0000   1.0000
     1.0000   1.0000   1.0000   1.0000   1.0000   1.0000   1.0000   1.0000
     1.0000   1.0000   1.0000   1.0000   1.0000   1.0000   1.0000   1.0000
     1.0000   1.0000   1.0000   1.0000   1.0000   1.0000   1.0000   1.0000
     1.0000   1.0000   1.0000   1.0000   1.0000   1.0000   1.0000   1.0000
     1.0000   1.0000   1.0000   1.0000   1.0000   1.0000   1.0000   1.0000
     1.0000   1.0000   1.0000   1.0000   1.0000   1.0000   1.0000   1.0000
     1.0000   1.0000   1.0000   1.0000   1.0000   1.0000   1.0000   1.0000
     1.0000   1.0000   1.0000   1.0000   1.0000   1.0000   1.0000   1.0000
     1.0000   1.0000   1.0000   1.0000   1.0000   1.0000   1.0000   1.0000
     1.0000   1.0000   1.0000   1.0000   1.0000   1.0000   1.0000   1.0000
     1.0000   1.0000   1.0000   1.0000   1.0000   1.0000   1.0000   1.0000
     1.0000   1.0000   1.0000   1.0000   1.0000   1.0000   1.0000   1.0000
     1.0000   1.0000   1.0000   1.0000   1.0000   1.0000   1.0000   1.0000
     1.0000   1.0000   1.0000   1.0000   1.0000   1.0000   1.0000   1.0000
     1.0000   1.0000   1.0000   1.0000   1.0000   1.0000   1.0000   1.0000
     1.0000   1.0000   1.0000   1.0000   1.0000   1.0000   1.0000   1.0000
     1.0000   1.0000   1.0000   1.0000   1.0000   1.0000   1.0000   1.0000
     1.0000   1.0000   1.0000   1.0000   1.0000   1.0000   1.0000   1.0000
     1.0000   1.0000   1.0000   1.0000   1.0000   1.0000   1.0000   1.0000
     1.0000   1.0000   1.0000   1.0000   1.0000   1.0000   1.0000   1.0000
     1.0000   1.0000   1.0000   1.0000   1.0000   1.0000   1.0000   1.0000
     1.0000   1.0000   1.0000   1.0000   1.0000   1.0000   1.0000   1.0000
     1.0000   1.0000   1.0000   1.0000   1.0000   1.0000   1.0000   1.0000
     1.0000   1.0000   1.0000   1.0000   1.0000   1.0000   1.0000   1.0000
     1.0000   1.0000   1.0000   1.0000   1.0000   1.0000   1.0000   1.0000
     1.0000   1.0000   1.0000   1.0000   1.0000   1.0000   1.0000   1.0000
     1.0000   1.0000   1.0000   1.0000   1.0000   1.0000   1.0000   1.0000
     1.0000   1.0000   1.0000   1.0000   1.0000   1.0000   1.0000   1.0000
     1.0000   1.0000   1.0000   1.0000   1.0000   1.0000   1.0000   1.0000
     1.0000   1.0000   1.0000   1.0000   1.0000   1.0000   1.0000   1.0000
     1.0000   1.0000   1.0000   1.0000   1.0000   1.0000   1.0000   1.0000
     1.0000   1.0000   1.0000   1.0000   1.0000   1.0000   1.0000   1.0000
     1.0000   1.0000   1.0000   1.0000   1.0000   1.0000   1.0000   1.0000
     1.0000   1.0000   1.0000   1.0000   1.0000   1.0000   1.0000   1.0000
     1.0000   1.0000   1.0000   1.0000   1.0000   1.0000   1.0000   1.0000
     1.0000   1.0000   1.0000   1.0000   1.0000   1.0000   1.0000   1.0000
     1.0000   1.0000   1.0000   1.0000   1.0000   1.0000   1.0000   1.0000
     1.0000   1.0000   1.0000   1.0000   1.0000   1.0000   1.0000   1.0000
     1.0000   1.0000   1.0000   1.0000   1.0000   1.0000   1.0000   1.0000
     1.0000   1.0000   1.0000   1.0000   1.0000   1.0000   1.0000   1.0000
     1.0000   1.0000   1.0000   1.0000   1.0000   1.0000   1.0000   1.0000
     1.0000   1.0000   1.0000   1.0000   1.0000   1.0000

          k = 0.0001-0.0001 0.2661 ( 45617 PWs)   bands (ev):

  -115.7039-115.7031-115.6949-115.6941-115.6907-115.6905-115.6876-115.6873
  -115.6868-115.6867-115.6863-115.6858-115.6850-115.6847-115.6823-115.6820
  -115.6817-115.6808-115.6804-115.6802-115.6795-115.6689 -70.0624 -70.0603
   -70.0593 -70.0582 -70.0576 -70.0572 -70.0528 -70.0528 -70.0523 -70.0503
   -70.0497 -70.0495 -70.0476 -70.0474 -70.0468 -70.0465 -70.0464 -70.0460
   -70.0457 -70.0455 -70.0450 -70.0445 -70.0444 -70.0438 -70.0437 -70.0437
   -70.0429 -70.0429 -70.0428 -70.0428 -70.0425 -70.0425 -70.0421 -70.0419
   -70.0417 -70.0410 -70.0406 -70.0404 -70.0402 -70.0402 -70.0396 -70.0396
   -70.0392 -70.0391 -70.0388 -70.0385 -70.0380 -70.0378 -70.0372 -70.0371
   -70.0369 -70.0364 -70.0360 -70.0358 -70.0357 -70.0356 -70.0347 -70.0339
   -70.0331 -70.0329 -70.0328 -70.0324 -70.0278 -70.0276 -70.0252 -70.0219
   -65.1746 -65.1740 -65.1724 -65.1668 -65.1627 -65.1620 -65.1610 -65.1538
   -65.1521 -65.1514 -65.1416 -65.1347 -65.1278 -65.1190 -32.1648 -32.1644
   -32.1627 -32.1617 -32.1613 -32.1593 -32.1592 -32.1567 -32.1560 -32.1555
   -32.1553 -32.1527 -32.1521 -32.1501 -32.1487 -32.1482 -32.1476 -32.1471
   -32.1451 -32.1445 -32.1442 -32.1408 -32.1399 -32.1391 -32.1387 -32.1382
   -32.1367 -32.1362 -32.1337 -32.1316 -32.1276 -32.1252 -32.1232 -32.1226
   -32.1202 -32.1176 -32.1133 -32.1110 -32.1091 -32.1056 -32.1035 -32.1024
   -10.2279 -10.0703  -9.8608  -9.8424  -9.7997  -9.7882  -9.7444  -9.7138
    -9.6931  -9.6783  -9.6594  -9.6332  -9.6110  -9.5826  -9.5690  -9.5448
    -9.5063  -9.4971  -9.4670  -9.4487  -9.4403  -9.4044  -9.3971  -9.3763
    -9.3516  -9.3482  -9.3302  -9.3167  -9.3087  -9.2966  -9.2888  -9.2804
    -9.2024  -9.1874  -9.1562  -9.1175   1.5578   1.5749   1.5896   1.6041
     1.6257   1.6386   1.6577   1.6689   1.6880   1.6983   1.7157   1.7324
     1.7667   1.7784   1.8123   1.8394   1.8492   1.8553   1.8682   1.8859
     1.9075   1.9187   1.9277   1.9562   1.9605   1.9727   1.9858   2.0015
     2.0139   2.0220   2.0261   2.0405   2.0584   2.0672   2.0769   2.0931
     2.1061   2.1234   2.1304   2.1390   2.1551   2.1680   2.1771   2.1859
     2.1920   2.1995   2.2150   2.2328   2.2363   2.2394   2.2554   2.2673
     2.2828   2.2976   2.3173   2.3484   2.3617   2.3799   2.3914   2.4093
     2.4302   2.4484   2.4600   2.4731   2.4935   2.5157   2.5272   2.5352
     2.5525   2.5727   2.5863   2.6013   2.6088   2.6224   2.6420   2.6525
     2.6635   2.6725   2.6868   2.7058   2.7246   2.7517   2.7568   2.7620
     2.7911   2.7978   2.8111   2.8411   2.8537   2.8625   2.8865   2.8917
     2.9261   2.9415   2.9476   2.9516   2.9689   2.9764   2.9874   2.9932
     3.0073   3.0187   3.0314   3.0338   3.0415   3.0511   3.0771   3.0863
     3.1007   3.1304   3.2466   3.3315   3.3887   3.4103   3.4666   3.4883
     3.5102   3.5304   3.5600   3.5856   3.6114   3.6507   3.6777   3.6983
     3.7368   3.7651   3.8133   3.8326   3.8668   3.8975   3.9363   3.9902
     4.0241   4.0778   4.0896   4.1627   4.1692   4.2249   4.2520   4.2867
     4.3129   4.3508   4.3592   4.3823   4.4224   4.4734   4.5348   4.5602
     4.6445   4.7168   4.8358   4.9025   4.9238   5.0006   5.0490   5.1199
     5.1366   5.1644   5.1964   5.2573   5.2720   5.3011   5.3203   5.3594
     5.3805   5.4236   5.4588   5.4747   5.5086   5.5325   5.5619   5.5735
     5.5904   5.6068   5.6262   5.6843   5.7148   5.7421   5.7783   5.7904
     5.8349   5.8624   5.8751   5.9564   5.9836   6.0301   6.0402   6.0902
     6.1044   6.1282   6.1506   6.1907   6.2115   6.2457   6.2575   6.3034
     6.3281   6.3470   6.3565   6.3717   6.3985   6.4274   6.4499   6.4645
     6.4842   6.4917   6.5042   6.5216   6.5481   6.5772   6.6083   6.6501
     6.6953   6.7461   6.8620   6.8940   7.0104   7.0321

     occupation numbers 
     1.0000   1.0000   1.0000   1.0000   1.0000   1.0000   1.0000   1.0000
     1.0000   1.0000   1.0000   1.0000   1.0000   1.0000   1.0000   1.0000
     1.0000   1.0000   1.0000   1.0000   1.0000   1.0000   1.0000   1.0000
     1.0000   1.0000   1.0000   1.0000   1.0000   1.0000   1.0000   1.0000
     1.0000   1.0000   1.0000   1.0000   1.0000   1.0000   1.0000   1.0000
     1.0000   1.0000   1.0000   1.0000   1.0000   1.0000   1.0000   1.0000
     1.0000   1.0000   1.0000   1.0000   1.0000   1.0000   1.0000   1.0000
     1.0000   1.0000   1.0000   1.0000   1.0000   1.0000   1.0000   1.0000
     1.0000   1.0000   1.0000   1.0000   1.0000   1.0000   1.0000   1.0000
     1.0000   1.0000   1.0000   1.0000   1.0000   1.0000   1.0000   1.0000
     1.0000   1.0000   1.0000   1.0000   1.0000   1.0000   1.0000   1.0000
     1.0000   1.0000   1.0000   1.0000   1.0000   1.0000   1.0000   1.0000
     1.0000   1.0000   1.0000   1.0000   1.0000   1.0000   1.0000   1.0000
     1.0000   1.0000   1.0000   1.0000   1.0000   1.0000   1.0000   1.0000
     1.0000   1.0000   1.0000   1.0000   1.0000   1.0000   1.0000   1.0000
     1.0000   1.0000   1.0000   1.0000   1.0000   1.0000   1.0000   1.0000
     1.0000   1.0000   1.0000   1.0000   1.0000   1.0000   1.0000   1.0000
     1.0000   1.0000   1.0000   1.0000   1.0000   1.0000   1.0000   1.0000
     1.0000   1.0000   1.0000   1.0000   1.0000   1.0000   1.0000   1.0000
     1.0000   1.0000   1.0000   1.0000   1.0000   1.0000   1.0000   1.0000
     1.0000   1.0000   1.0000   1.0000   1.0000   1.0000   1.0000   1.0000
     1.0000   1.0000   1.0000   1.0000   1.0000   1.0000   1.0000   1.0000
     1.0000   1.0000   1.0000   1.0000   1.0000   1.0000   1.0000   1.0000
     1.0000   1.0000   1.0000   1.0000   1.0000   1.0000   1.0000   1.0000
     1.0000   1.0000   1.0000   1.0000   1.0000   1.0000   1.0000   1.0000
     1.0000   1.0000   1.0000   1.0000   1.0000   1.0000   1.0000   1.0000
     1.0000   1.0000   1.0000   1.0000   1.0000   1.0000   1.0000   1.0000
     1.0000   1.0000   1.0000   1.0000   1.0000   1.0000   1.0000   1.0000
     1.0000   1.0000   1.0000   1.0000   1.0000   1.0000   1.0000   1.0000
     1.0000   1.0000   1.0000   1.0000   1.0000   1.0000   1.0000   1.0000
     1.0000   1.0000   1.0000   1.0000   1.0000   1.0000   1.0000   1.0000
     1.0000   1.0000   1.0000   1.0000   1.0000   1.0000   1.0000   1.0000
     1.0000   1.0000   1.0000   1.0000   1.0000   1.0000   1.0000   1.0000
     1.0000   1.0000   1.0000   1.0000   1.0000   1.0000   1.0000   1.0000
     1.0000   1.0000   1.0000   1.0000   1.0000   1.0000   1.0000   1.0000
     1.0000   1.0000   1.0000   1.0000   1.0000   1.0000   1.0000   1.0000
     1.0000   1.0000   1.0000   1.0000   1.0000   1.0000   1.0000   1.0000
     1.0000   1.0000   1.0000   1.0000   1.0000   1.0000   1.0000   1.0000
     1.0000   1.0000   1.0000   1.0000   1.0000   1.0000   1.0000   1.0000
     1.0000   1.0000   1.0000   1.0000   1.0000   1.0000   1.0000   1.0000
     1.0000   1.0000   1.0000   1.0000   1.0000   1.0000   1.0000   1.0000
     1.0000   1.0000   1.0000   1.0000   1.0000   1.0000   1.0000   1.0000
     1.0000   1.0000   1.0000   1.0000   1.0000   1.0000   1.0000   1.0000
     1.0000   1.0000   1.0000   1.0000   1.0000   1.0000   1.0000   1.0000
     1.0000   1.0000   1.0000   1.0000   1.0000   1.0000   1.0000   1.0000
     1.0000   1.0000   1.0000   1.0000   1.0000   1.0000   1.0000   1.0000
     1.0000   1.0000   1.0000   1.0000   1.0000   1.0000   1.0000   1.0000
     1.0000   1.0000   1.0000   1.0000   1.0000   1.0000   1.0000   1.0000
     1.0000   1.0000   1.0000   1.0000   1.0000   1.0000   1.0000   1.0000
     1.0000   1.0000   1.0000   1.0000   1.0000   1.0000

          k = 0.0002-0.0001 0.3992 ( 45632 PWs)   bands (ev):

  -115.7039-115.7031-115.6949-115.6941-115.6907-115.6905-115.6876-115.6873
  -115.6868-115.6867-115.6863-115.6858-115.6850-115.6847-115.6823-115.6820
  -115.6817-115.6808-115.6804-115.6802-115.6795-115.6689 -70.0624 -70.0603
   -70.0593 -70.0582 -70.0576 -70.0572 -70.0528 -70.0528 -70.0523 -70.0503
   -70.0497 -70.0495 -70.0476 -70.0474 -70.0468 -70.0465 -70.0464 -70.0460
   -70.0457 -70.0455 -70.0450 -70.0445 -70.0444 -70.0438 -70.0437 -70.0437
   -70.0429 -70.0429 -70.0428 -70.0428 -70.0425 -70.0425 -70.0421 -70.0419
   -70.0417 -70.0410 -70.0406 -70.0404 -70.0402 -70.0402 -70.0396 -70.0396
   -70.0392 -70.0391 -70.0388 -70.0385 -70.0380 -70.0378 -70.0372 -70.0371
   -70.0369 -70.0364 -70.0360 -70.0358 -70.0357 -70.0356 -70.0347 -70.0339
   -70.0331 -70.0329 -70.0328 -70.0324 -70.0278 -70.0276 -70.0252 -70.0219
   -65.1746 -65.1740 -65.1724 -65.1668 -65.1627 -65.1620 -65.1610 -65.1538
   -65.1521 -65.1514 -65.1416 -65.1347 -65.1278 -65.1190 -32.1647 -32.1644
   -32.1628 -32.1617 -32.1613 -32.1593 -32.1592 -32.1566 -32.1560 -32.1555
   -32.1553 -32.1527 -32.1522 -32.1501 -32.1487 -32.1481 -32.1476 -32.1471
   -32.1451 -32.1445 -32.1442 -32.1408 -32.1399 -32.1391 -32.1387 -32.1382
   -32.1367 -32.1362 -32.1337 -32.1316 -32.1276 -32.1252 -32.1232 -32.1226
   -32.1202 -32.1176 -32.1133 -32.1110 -32.1091 -32.1056 -32.1035 -32.1024
   -10.1945 -10.1247  -9.8453  -9.8293  -9.7961  -9.7825  -9.7423  -9.7160
    -9.7087  -9.6782  -9.6570  -9.6396  -9.6193  -9.5837  -9.5729  -9.5511
    -9.5164  -9.4912  -9.4545  -9.4418  -9.4289  -9.4035  -9.3911  -9.3765
    -9.3581  -9.3434  -9.3270  -9.3160  -9.3054  -9.2955  -9.2891  -9.2868
    -9.2068  -9.1894  -9.1575  -9.1206   1.5649   1.5776   1.6000   1.6127
     1.6372   1.6465   1.6661   1.6709   1.6881   1.7211   1.7325   1.7512
     1.7768   1.7870   1.8221   1.8515   1.8586   1.8659   1.8740   1.8893
     1.9013   1.9096   1.9277   1.9442   1.9572   1.9630   1.9820   1.9917
     2.0009   2.0103   2.0227   2.0448   2.0481   2.0661   2.0703   2.0932
     2.1023   2.1222   2.1318   2.1479   2.1556   2.1673   2.1817   2.1892
     2.1963   2.2057   2.2179   2.2243   2.2371   2.2433   2.2551   2.2706
     2.2835   2.2888   2.3055   2.3110   2.3240   2.3393   2.3793   2.3857
     2.4186   2.4353   2.4475   2.4655   2.4784   2.5002   2.5142   2.5347
     2.5501   2.5633   2.5734   2.5976   2.6044   2.6185   2.6221   2.6408
     2.6552   2.6711   2.6878   2.6983   2.7270   2.7378   2.7616   2.7684
     2.7794   2.7967   2.8089   2.8353   2.8463   2.8640   2.8860   2.8998
     2.9219   2.9349   2.9496   2.9637   2.9675   2.9855   2.9916   3.0005
     3.0050   3.0215   3.0342   3.0404   3.0426   3.0487   3.0702   3.0860
     3.0986   3.1289   3.3226   3.3643   3.3946   3.4352   3.4683   3.4933
     3.5142   3.5201   3.5610   3.5751   3.6325   3.6540   3.6813   3.7136
     3.7722   3.8099   3.8290   3.8690   3.8942   3.9149   3.9297   3.9744
     3.9987   4.0331   4.0925   4.1631   4.1840   4.2133   4.2288   4.3016
     4.3316   4.3596   4.3869   4.4492   4.4919   4.5150   4.5854   4.6073
     4.6782   4.7341   4.8193   4.8662   4.9331   4.9820   5.0375   5.0595
     5.0815   5.1126   5.1490   5.1759   5.1991   5.2297   5.2738   5.3052
     5.4261   5.4558   5.4872   5.5070   5.5263   5.5458   5.5854   5.5986
     5.6301   5.6405   5.6614   5.6844   5.6972   5.7110   5.7352   5.7410
     5.7672   5.7906   5.8036   5.8527   5.9931   6.0409   6.0616   6.0825
     6.1360   6.1541   6.1782   6.1958   6.2348   6.2564   6.2832   6.3470
     6.3577   6.3752   6.3871   6.4165   6.4350   6.4519   6.4612   6.4773
     6.4955   6.5067   6.5183   6.5361   6.5599   6.5666   6.5811   6.6055
     6.6178   6.6560   6.8969   6.9158   6.9953   7.0183

     occupation numbers 
     1.0000   1.0000   1.0000   1.0000   1.0000   1.0000   1.0000   1.0000
     1.0000   1.0000   1.0000   1.0000   1.0000   1.0000   1.0000   1.0000
     1.0000   1.0000   1.0000   1.0000   1.0000   1.0000   1.0000   1.0000
     1.0000   1.0000   1.0000   1.0000   1.0000   1.0000   1.0000   1.0000
     1.0000   1.0000   1.0000   1.0000   1.0000   1.0000   1.0000   1.0000
     1.0000   1.0000   1.0000   1.0000   1.0000   1.0000   1.0000   1.0000
     1.0000   1.0000   1.0000   1.0000   1.0000   1.0000   1.0000   1.0000
     1.0000   1.0000   1.0000   1.0000   1.0000   1.0000   1.0000   1.0000
     1.0000   1.0000   1.0000   1.0000   1.0000   1.0000   1.0000   1.0000
     1.0000   1.0000   1.0000   1.0000   1.0000   1.0000   1.0000   1.0000
     1.0000   1.0000   1.0000   1.0000   1.0000   1.0000   1.0000   1.0000
     1.0000   1.0000   1.0000   1.0000   1.0000   1.0000   1.0000   1.0000
     1.0000   1.0000   1.0000   1.0000   1.0000   1.0000   1.0000   1.0000
     1.0000   1.0000   1.0000   1.0000   1.0000   1.0000   1.0000   1.0000
     1.0000   1.0000   1.0000   1.0000   1.0000   1.0000   1.0000   1.0000
     1.0000   1.0000   1.0000   1.0000   1.0000   1.0000   1.0000   1.0000
     1.0000   1.0000   1.0000   1.0000   1.0000   1.0000   1.0000   1.0000
     1.0000   1.0000   1.0000   1.0000   1.0000   1.0000   1.0000   1.0000
     1.0000   1.0000   1.0000   1.0000   1.0000   1.0000   1.0000   1.0000
     1.0000   1.0000   1.0000   1.0000   1.0000   1.0000   1.0000   1.0000
     1.0000   1.0000   1.0000   1.0000   1.0000   1.0000   1.0000   1.0000
     1.0000   1.0000   1.0000   1.0000   1.0000   1.0000   1.0000   1.0000
     1.0000   1.0000   1.0000   1.0000   1.0000   1.0000   1.0000   1.0000
     1.0000   1.0000   1.0000   1.0000   1.0000   1.0000   1.0000   1.0000
     1.0000   1.0000   1.0000   1.0000   1.0000   1.0000   1.0000   1.0000
     1.0000   1.0000   1.0000   1.0000   1.0000   1.0000   1.0000   1.0000
     1.0000   1.0000   1.0000   1.0000   1.0000   1.0000   1.0000   1.0000
     1.0000   1.0000   1.0000   1.0000   1.0000   1.0000   1.0000   1.0000
     1.0000   1.0000   1.0000   1.0000   1.0000   1.0000   1.0000   1.0000
     1.0000   1.0000   1.0000   1.0000   1.0000   1.0000   1.0000   1.0000
     1.0000   1.0000   1.0000   1.0000   1.0000   1.0000   1.0000   1.0000
     1.0000   1.0000   1.0000   1.0000   1.0000   1.0000   1.0000   1.0000
     1.0000   1.0000   1.0000   1.0000   1.0000   1.0000   1.0000   1.0000
     1.0000   1.0000   1.0000   1.0000   1.0000   1.0000   1.0000   1.0000
     1.0000   1.0000   1.0000   1.0000   1.0000   1.0000   1.0000   1.0000
     1.0000   1.0000   1.0000   1.0000   1.0000   1.0000   1.0000   1.0000
     1.0000   1.0000   1.0000   1.0000   1.0000   1.0000   1.0000   1.0000
     1.0000   1.0000   1.0000   1.0000   1.0000   1.0000   1.0000   1.0000
     1.0000   1.0000   1.0000   1.0000   1.0000   1.0000   1.0000   1.0000
     1.0000   1.0000   1.0000   1.0000   1.0000   1.0000   1.0000   1.0000
     1.0000   1.0000   1.0000   1.0000   1.0000   1.0000   1.0000   1.0000
     1.0000   1.0000   1.0000   1.0000   1.0000   1.0000   1.0000   1.0000
     1.0000   1.0000   1.0000   1.0000   1.0000   1.0000   1.0000   1.0000
     1.0000   1.0000   1.0000   1.0000   1.0000   1.0000   1.0000   1.0000
     1.0000   1.0000   1.0000   1.0000   1.0000   1.0000   1.0000   1.0000
     1.0000   1.0000   1.0000   1.0000   1.0000   1.0000   1.0000   1.0000
     1.0000   1.0000   1.0000   1.0000   1.0000   1.0000   1.0000   1.0000
     1.0000   1.0000   1.0000   1.0000   1.0000   1.0000   1.0000   1.0000
     1.0000   1.0000   1.0000   1.0000   1.0000   1.0000   1.0000   1.0000
     1.0000   1.0000   1.0000   1.0000   1.0000   1.0000

          k = 0.0002-0.0001 0.5322 ( 45632 PWs)   bands (ev):

  -115.7039-115.7031-115.6949-115.6941-115.6907-115.6905-115.6876-115.6873
  -115.6868-115.6867-115.6863-115.6858-115.6850-115.6847-115.6823-115.6820
  -115.6817-115.6808-115.6804-115.6802-115.6795-115.6689 -70.0624 -70.0603
   -70.0593 -70.0582 -70.0576 -70.0572 -70.0528 -70.0528 -70.0523 -70.0503
   -70.0497 -70.0495 -70.0476 -70.0474 -70.0468 -70.0465 -70.0464 -70.0460
   -70.0457 -70.0455 -70.0450 -70.0445 -70.0444 -70.0438 -70.0437 -70.0437
   -70.0429 -70.0429 -70.0428 -70.0428 -70.0425 -70.0425 -70.0421 -70.0419
   -70.0417 -70.0410 -70.0406 -70.0404 -70.0402 -70.0402 -70.0396 -70.0396
   -70.0392 -70.0391 -70.0388 -70.0385 -70.0380 -70.0378 -70.0372 -70.0371
   -70.0369 -70.0364 -70.0360 -70.0358 -70.0357 -70.0356 -70.0347 -70.0339
   -70.0331 -70.0329 -70.0328 -70.0324 -70.0278 -70.0276 -70.0252 -70.0219
   -65.1746 -65.1740 -65.1724 -65.1668 -65.1627 -65.1620 -65.1610 -65.1538
   -65.1521 -65.1514 -65.1416 -65.1347 -65.1278 -65.1190 -32.1647 -32.1644
   -32.1628 -32.1617 -32.1613 -32.1593 -32.1592 -32.1566 -32.1560 -32.1555
   -32.1553 -32.1527 -32.1522 -32.1501 -32.1487 -32.1481 -32.1476 -32.1471
   -32.1451 -32.1445 -32.1442 -32.1408 -32.1399 -32.1391 -32.1387 -32.1382
   -32.1367 -32.1362 -32.1337 -32.1316 -32.1276 -32.1252 -32.1232 -32.1226
   -32.1202 -32.1176 -32.1133 -32.1110 -32.1091 -32.1056 -32.1035 -32.1024
   -10.1945 -10.1247  -9.8453  -9.8293  -9.7961  -9.7825  -9.7423  -9.7160
    -9.7087  -9.6782  -9.6570  -9.6396  -9.6193  -9.5837  -9.5729  -9.5511
    -9.5164  -9.4912  -9.4545  -9.4418  -9.4289  -9.4035  -9.3911  -9.3765
    -9.3581  -9.3434  -9.3270  -9.3160  -9.3054  -9.2955  -9.2891  -9.2868
    -9.2068  -9.1894  -9.1575  -9.1206   1.5649   1.5776   1.6000   1.6127
     1.6372   1.6465   1.6661   1.6709   1.6881   1.7211   1.7325   1.7512
     1.7768   1.7870   1.8221   1.8515   1.8586   1.8659   1.8740   1.8893
     1.9013   1.9096   1.9277   1.9442   1.9572   1.9630   1.9820   1.9917
     2.0009   2.0103   2.0227   2.0448   2.0481   2.0661   2.0703   2.0932
     2.1023   2.1222   2.1318   2.1479   2.1556   2.1673   2.1817   2.1892
     2.1963   2.2057   2.2179   2.2243   2.2371   2.2433   2.2551   2.2706
     2.2835   2.2888   2.3055   2.3110   2.3240   2.3393   2.3793   2.3857
     2.4186   2.4353   2.4475   2.4655   2.4784   2.5002   2.5142   2.5347
     2.5501   2.5633   2.5734   2.5976   2.6044   2.6185   2.6221   2.6408
     2.6552   2.6711   2.6878   2.6983   2.7270   2.7378   2.7616   2.7684
     2.7794   2.7967   2.8089   2.8353   2.8463   2.8640   2.8860   2.8998
     2.9219   2.9349   2.9496   2.9637   2.9675   2.9855   2.9916   3.0005
     3.0050   3.0215   3.0342   3.0404   3.0426   3.0487   3.0702   3.0860
     3.0986   3.1289   3.3226   3.3643   3.3946   3.4352   3.4683   3.4933
     3.5142   3.5201   3.5610   3.5751   3.6325   3.6540   3.6813   3.7136
     3.7722   3.8099   3.8290   3.8690   3.8942   3.9149   3.9297   3.9744
     3.9987   4.0331   4.0925   4.1631   4.1840   4.2133   4.2288   4.3016
     4.3316   4.3596   4.3869   4.4492   4.4919   4.5150   4.5854   4.6073
     4.6782   4.7341   4.8193   4.8662   4.9331   4.9820   5.0375   5.0595
     5.0815   5.1126   5.1490   5.1759   5.1991   5.2297   5.2738   5.3052
     5.4261   5.4558   5.4872   5.5070   5.5263   5.5458   5.5854   5.5986
     5.6301   5.6405   5.6614   5.6844   5.6972   5.7110   5.7352   5.7410
     5.7672   5.7906   5.8036   5.8527   5.9931   6.0409   6.0616   6.0825
     6.1360   6.1541   6.1782   6.1958   6.2348   6.2564   6.2832   6.3470
     6.3577   6.3752   6.3871   6.4165   6.4350   6.4519   6.4612   6.4773
     6.4955   6.5067   6.5183   6.5361   6.5599   6.5666   6.5811   6.6055
     6.6178   6.6560   6.8969   6.9158   6.9953   7.0183

     occupation numbers 
     1.0000   1.0000   1.0000   1.0000   1.0000   1.0000   1.0000   1.0000
     1.0000   1.0000   1.0000   1.0000   1.0000   1.0000   1.0000   1.0000
     1.0000   1.0000   1.0000   1.0000   1.0000   1.0000   1.0000   1.0000
     1.0000   1.0000   1.0000   1.0000   1.0000   1.0000   1.0000   1.0000
     1.0000   1.0000   1.0000   1.0000   1.0000   1.0000   1.0000   1.0000
     1.0000   1.0000   1.0000   1.0000   1.0000   1.0000   1.0000   1.0000
     1.0000   1.0000   1.0000   1.0000   1.0000   1.0000   1.0000   1.0000
     1.0000   1.0000   1.0000   1.0000   1.0000   1.0000   1.0000   1.0000
     1.0000   1.0000   1.0000   1.0000   1.0000   1.0000   1.0000   1.0000
     1.0000   1.0000   1.0000   1.0000   1.0000   1.0000   1.0000   1.0000
     1.0000   1.0000   1.0000   1.0000   1.0000   1.0000   1.0000   1.0000
     1.0000   1.0000   1.0000   1.0000   1.0000   1.0000   1.0000   1.0000
     1.0000   1.0000   1.0000   1.0000   1.0000   1.0000   1.0000   1.0000
     1.0000   1.0000   1.0000   1.0000   1.0000   1.0000   1.0000   1.0000
     1.0000   1.0000   1.0000   1.0000   1.0000   1.0000   1.0000   1.0000
     1.0000   1.0000   1.0000   1.0000   1.0000   1.0000   1.0000   1.0000
     1.0000   1.0000   1.0000   1.0000   1.0000   1.0000   1.0000   1.0000
     1.0000   1.0000   1.0000   1.0000   1.0000   1.0000   1.0000   1.0000
     1.0000   1.0000   1.0000   1.0000   1.0000   1.0000   1.0000   1.0000
     1.0000   1.0000   1.0000   1.0000   1.0000   1.0000   1.0000   1.0000
     1.0000   1.0000   1.0000   1.0000   1.0000   1.0000   1.0000   1.0000
     1.0000   1.0000   1.0000   1.0000   1.0000   1.0000   1.0000   1.0000
     1.0000   1.0000   1.0000   1.0000   1.0000   1.0000   1.0000   1.0000
     1.0000   1.0000   1.0000   1.0000   1.0000   1.0000   1.0000   1.0000
     1.0000   1.0000   1.0000   1.0000   1.0000   1.0000   1.0000   1.0000
     1.0000   1.0000   1.0000   1.0000   1.0000   1.0000   1.0000   1.0000
     1.0000   1.0000   1.0000   1.0000   1.0000   1.0000   1.0000   1.0000
     1.0000   1.0000   1.0000   1.0000   1.0000   1.0000   1.0000   1.0000
     1.0000   1.0000   1.0000   1.0000   1.0000   1.0000   1.0000   1.0000
     1.0000   1.0000   1.0000   1.0000   1.0000   1.0000   1.0000   1.0000
     1.0000   1.0000   1.0000   1.0000   1.0000   1.0000   1.0000   1.0000
     1.0000   1.0000   1.0000   1.0000   1.0000   1.0000   1.0000   1.0000
     1.0000   1.0000   1.0000   1.0000   1.0000   1.0000   1.0000   1.0000
     1.0000   1.0000   1.0000   1.0000   1.0000   1.0000   1.0000   1.0000
     1.0000   1.0000   1.0000   1.0000   1.0000   1.0000   1.0000   1.0000
     1.0000   1.0000   1.0000   1.0000   1.0000   1.0000   1.0000   1.0000
     1.0000   1.0000   1.0000   1.0000   1.0000   1.0000   1.0000   1.0000
     1.0000   1.0000   1.0000   1.0000   1.0000   1.0000   1.0000   1.0000
     1.0000   1.0000   1.0000   1.0000   1.0000   1.0000   1.0000   1.0000
     1.0000   1.0000   1.0000   1.0000   1.0000   1.0000   1.0000   1.0000
     1.0000   1.0000   1.0000   1.0000   1.0000   1.0000   1.0000   1.0000
     1.0000   1.0000   1.0000   1.0000   1.0000   1.0000   1.0000   1.0000
     1.0000   1.0000   1.0000   1.0000   1.0000   1.0000   1.0000   1.0000
     1.0000   1.0000   1.0000   1.0000   1.0000   1.0000   1.0000   1.0000
     1.0000   1.0000   1.0000   1.0000   1.0000   1.0000   1.0000   1.0000
     1.0000   1.0000   1.0000   1.0000   1.0000   1.0000   1.0000   1.0000
     1.0000   1.0000   1.0000   1.0000   1.0000   1.0000   1.0000   1.0000
     1.0000   1.0000   1.0000   1.0000   1.0000   1.0000   1.0000   1.0000
     1.0000   1.0000   1.0000   1.0000   1.0000   1.0000   1.0000   1.0000
     1.0000   1.0000   1.0000   1.0000   1.0000   1.0000

          k = 0.0003-0.0002 0.6653 ( 45617 PWs)   bands (ev):

  -115.7039-115.7031-115.6949-115.6941-115.6907-115.6905-115.6876-115.6873
  -115.6868-115.6867-115.6863-115.6858-115.6850-115.6847-115.6823-115.6820
  -115.6817-115.6808-115.6804-115.6802-115.6795-115.6689 -70.0624 -70.0603
   -70.0593 -70.0582 -70.0576 -70.0572 -70.0528 -70.0528 -70.0523 -70.0503
   -70.0497 -70.0495 -70.0476 -70.0474 -70.0468 -70.0465 -70.0464 -70.0460
   -70.0457 -70.0455 -70.0450 -70.0445 -70.0444 -70.0438 -70.0437 -70.0437
   -70.0429 -70.0429 -70.0428 -70.0428 -70.0425 -70.0425 -70.0421 -70.0419
   -70.0417 -70.0410 -70.0406 -70.0404 -70.0402 -70.0402 -70.0396 -70.0396
   -70.0392 -70.0391 -70.0388 -70.0385 -70.0380 -70.0378 -70.0372 -70.0371
   -70.0369 -70.0364 -70.0360 -70.0358 -70.0357 -70.0356 -70.0347 -70.0339
   -70.0331 -70.0329 -70.0328 -70.0324 -70.0278 -70.0276 -70.0252 -70.0219
   -65.1746 -65.1740 -65.1724 -65.1668 -65.1627 -65.1620 -65.1610 -65.1538
   -65.1521 -65.1514 -65.1416 -65.1347 -65.1278 -65.1190 -32.1648 -32.1644
   -32.1627 -32.1617 -32.1613 -32.1593 -32.1592 -32.1567 -32.1560 -32.1555
   -32.1553 -32.1527 -32.1521 -32.1501 -32.1487 -32.1482 -32.1476 -32.1471
   -32.1451 -32.1445 -32.1442 -32.1408 -32.1399 -32.1391 -32.1387 -32.1382
   -32.1367 -32.1362 -32.1337 -32.1316 -32.1276 -32.1252 -32.1232 -32.1226
   -32.1202 -32.1176 -32.1133 -32.1110 -32.1091 -32.1056 -32.1035 -32.1024
   -10.2279 -10.0703  -9.8608  -9.8424  -9.7997  -9.7882  -9.7444  -9.7138
    -9.6931  -9.6783  -9.6594  -9.6332  -9.6110  -9.5826  -9.5690  -9.5448
    -9.5063  -9.4971  -9.4670  -9.4487  -9.4403  -9.4044  -9.3971  -9.3763
    -9.3516  -9.3482  -9.3302  -9.3167  -9.3087  -9.2966  -9.2888  -9.2804
    -9.2024  -9.1874  -9.1562  -9.1175   1.5578   1.5749   1.5896   1.6041
     1.6257   1.6386   1.6577   1.6689   1.6880   1.6983   1.7157   1.7324
     1.7667   1.7784   1.8123   1.8394   1.8492   1.8553   1.8682   1.8859
     1.9075   1.9187   1.9277   1.9562   1.9605   1.9727   1.9858   2.0015
     2.0139   2.0220   2.0261   2.0405   2.0584   2.0672   2.0769   2.0931
     2.1061   2.1234   2.1304   2.1390   2.1551   2.1680   2.1771   2.1859
     2.1920   2.1995   2.2150   2.2328   2.2363   2.2394   2.2554   2.2673
     2.2828   2.2976   2.3173   2.3484   2.3617   2.3799   2.3914   2.4093
     2.4302   2.4484   2.4600   2.4731   2.4935   2.5157   2.5272   2.5352
     2.5525   2.5727   2.5863   2.6013   2.6088   2.6224   2.6420   2.6525
     2.6635   2.6725   2.6868   2.7058   2.7246   2.7517   2.7568   2.7620
     2.7911   2.7978   2.8111   2.8411   2.8537   2.8625   2.8865   2.8917
     2.9261   2.9415   2.9476   2.9516   2.9689   2.9764   2.9874   2.9932
     3.0073   3.0187   3.0314   3.0338   3.0415   3.0511   3.0771   3.0863
     3.1007   3.1304   3.2466   3.3315   3.3887   3.4103   3.4666   3.4883
     3.5102   3.5304   3.5600   3.5856   3.6114   3.6507   3.6777   3.6983
     3.7368   3.7651   3.8133   3.8326   3.8668   3.8975   3.9363   3.9902
     4.0241   4.0778   4.0896   4.1627   4.1692   4.2249   4.2520   4.2867
     4.3129   4.3508   4.3592   4.3823   4.4224   4.4734   4.5348   4.5602
     4.6445   4.7168   4.8358   4.9025   4.9238   5.0006   5.0490   5.1199
     5.1366   5.1644   5.1964   5.2573   5.2720   5.3011   5.3203   5.3594
     5.3805   5.4236   5.4588   5.4747   5.5086   5.5325   5.5619   5.5735
     5.5904   5.6068   5.6262   5.6843   5.7148   5.7421   5.7783   5.7904
     5.8349   5.8624   5.8751   5.9564   5.9836   6.0301   6.0402   6.0902
     6.1044   6.1282   6.1506   6.1907   6.2115   6.2457   6.2575   6.3034
     6.3281   6.3470   6.3565   6.3717   6.3985   6.4274   6.4499   6.4645
     6.4842   6.4917   6.5042   6.5216   6.5481   6.5772   6.6083   6.6501
     6.6953   6.7461   6.8620   6.8940   7.0104   7.0321

     occupation numbers 
     1.0000   1.0000   1.0000   1.0000   1.0000   1.0000   1.0000   1.0000
     1.0000   1.0000   1.0000   1.0000   1.0000   1.0000   1.0000   1.0000
     1.0000   1.0000   1.0000   1.0000   1.0000   1.0000   1.0000   1.0000
     1.0000   1.0000   1.0000   1.0000   1.0000   1.0000   1.0000   1.0000
     1.0000   1.0000   1.0000   1.0000   1.0000   1.0000   1.0000   1.0000
     1.0000   1.0000   1.0000   1.0000   1.0000   1.0000   1.0000   1.0000
     1.0000   1.0000   1.0000   1.0000   1.0000   1.0000   1.0000   1.0000
     1.0000   1.0000   1.0000   1.0000   1.0000   1.0000   1.0000   1.0000
     1.0000   1.0000   1.0000   1.0000   1.0000   1.0000   1.0000   1.0000
     1.0000   1.0000   1.0000   1.0000   1.0000   1.0000   1.0000   1.0000
     1.0000   1.0000   1.0000   1.0000   1.0000   1.0000   1.0000   1.0000
     1.0000   1.0000   1.0000   1.0000   1.0000   1.0000   1.0000   1.0000
[...]
   -32.1625 -32.1617 -32.1613 -32.1594 -32.1592 -32.1567 -32.1560 -32.1554
   -32.1553 -32.1527 -32.1519 -32.1502 -32.1487 -32.1482 -32.1477 -32.1471
   -32.1451 -32.1445 -32.1442 -32.1408 -32.1400 -32.1391 -32.1387 -32.1382
   -32.1367 -32.1363 -32.1337 -32.1316 -32.1276 -32.1252 -32.1232 -32.1226
   -32.1202 -32.1176 -32.1133 -32.1110 -32.1091 -32.1056 -32.1035 -32.1025
   -10.1428 -10.1045  -9.9100  -9.8758  -9.8325  -9.7877  -9.7703  -9.7629
    -9.6873  -9.6524  -9.6454  -9.6254  -9.5859  -9.5727  -9.5358  -9.5183
    -9.5014  -9.4946  -9.4563  -9.4400  -9.4214  -9.4148  -9.3951  -9.3861
    -9.3786  -9.3728  -9.3529  -9.3177  -9.3080  -9.3037  -9.2831  -9.2617
    -9.1887  -9.1829  -9.1559  -9.1127   1.5761   1.5910   1.6090   1.6200
     1.6344   1.6397   1.6469   1.6801   1.6872   1.7069   1.7326   1.7420
     1.7696   1.8064   1.8173   1.8302   1.8479   1.8605   1.8626   1.8889
     1.9029   1.9238   1.9314   1.9508   1.9570   1.9620   1.9714   2.0057
     2.0203   2.0256   2.0318   2.0498   2.0570   2.0655   2.0867   2.0941
     2.1081   2.1156   2.1188   2.1372   2.1383   2.1505   2.1558   2.1751
     2.1815   2.1870   2.1973   2.2185   2.2265   2.2378   2.2453   2.2515
     2.2636   2.2751   2.2899   2.3066   2.3319   2.3472   2.3665   2.3983
     2.4387   2.4415   2.4578   2.4670   2.4931   2.5038   2.5262   2.5450
     2.5596   2.5753   2.5859   2.5971   2.6175   2.6251   2.6515   2.6613
     2.6735   2.6852   2.7060   2.7244   2.7422   2.7599   2.7845   2.7915
     2.7983   2.8043   2.8464   2.8526   2.8578   2.8736   2.8812   2.8842
     2.9092   2.9206   2.9305   2.9486   2.9575   2.9654   2.9747   2.9945
     3.0056   3.0180   3.0254   3.0368   3.0384   3.0648   3.0789   3.0856
     3.1014   3.1344   3.1512   3.1693   3.2298   3.2777   3.3419   3.3791
     3.4292   3.4598   3.4929   3.5105   3.5468   3.5707   3.5873   3.6281
     3.6873   3.7131   3.7928   3.8362   3.8460   3.9464   3.9800   4.0268
     4.1274   4.1451   4.2224   4.3070   4.3868   4.4117   4.4727   4.4989
     4.5383   4.5684   4.5999   4.6182   4.6605   4.6874   4.7090   4.7297
     4.7586   4.7877   4.8135   4.8405   4.8469   4.9432   4.9596   5.1637
     5.1683   5.1913   5.2240   5.2452   5.2510   5.2874   5.3027   5.3413
     5.4213   5.4567   5.4831   5.5033   5.5608   5.5837   5.6220   5.6538
     5.6807   5.7126   5.7220   5.7504   5.7832   5.8136   5.8468   5.8567
     5.8788   5.9178   5.9314   5.9542   5.9700   5.9879   5.9998   6.0097
     6.0193   6.0396   6.0569   6.0837   6.0893   6.1286   6.1323   6.1447
     6.1605   6.1974   6.2041   6.2133   6.2466   6.2551   6.3005   6.3188
     6.3337   6.3465   6.4039   6.4167   6.4650   6.5029   6.5346   6.5979
     6.6221   6.6366   6.8283   6.8895   6.9080   6.9739

     occupation numbers 
     1.0000   1.0000   1.0000   1.0000   1.0000   1.0000   1.0000   1.0000
     1.0000   1.0000   1.0000   1.0000   1.0000   1.0000   1.0000   1.0000
     1.0000   1.0000   1.0000   1.0000   1.0000   1.0000   1.0000   1.0000
     1.0000   1.0000   1.0000   1.0000   1.0000   1.0000   1.0000   1.0000
     1.0000   1.0000   1.0000   1.0000   1.0000   1.0000   1.0000   1.0000
     1.0000   1.0000   1.0000   1.0000   1.0000   1.0000   1.0000   1.0000
     1.0000   1.0000   1.0000   1.0000   1.0000   1.0000   1.0000   1.0000
     1.0000   1.0000   1.0000   1.0000   1.0000   1.0000   1.0000   1.0000
     1.0000   1.0000   1.0000   1.0000   1.0000   1.0000   1.0000   1.0000
     1.0000   1.0000   1.0000   1.0000   1.0000   1.0000   1.0000   1.0000
     1.0000   1.0000   1.0000   1.0000   1.0000   1.0000   1.0000   1.0000
     1.0000   1.0000   1.0000   1.0000   1.0000   1.0000   1.0000   1.0000
     1.0000   1.0000   1.0000   1.0000   1.0000   1.0000   1.0000   1.0000
     1.0000   1.0000   1.0000   1.0000   1.0000   1.0000   1.0000   1.0000
     1.0000   1.0000   1.0000   1.0000   1.0000   1.0000   1.0000   1.0000
     1.0000   1.0000   1.0000   1.0000   1.0000   1.0000   1.0000   1.0000
     1.0000   1.0000   1.0000   1.0000   1.0000   1.0000   1.0000   1.0000
     1.0000   1.0000   1.0000   1.0000   1.0000   1.0000   1.0000   1.0000
     1.0000   1.0000   1.0000   1.0000   1.0000   1.0000   1.0000   1.0000
     1.0000   1.0000   1.0000   1.0000   1.0000   1.0000   1.0000   1.0000
     1.0000   1.0000   1.0000   1.0000   1.0000   1.0000   1.0000   1.0000
     1.0000   1.0000   1.0000   1.0000   1.0000   1.0000   1.0000   1.0000
     1.0000   1.0000   1.0000   1.0000   1.0000   1.0000   1.0000   1.0000
     1.0000   1.0000   1.0000   1.0000   1.0000   1.0000   1.0000   1.0000
     1.0000   1.0000   1.0000   1.0000   1.0000   1.0000   1.0000   1.0000
     1.0000   1.0000   1.0000   1.0000   1.0000   1.0000   1.0000   1.0000
     1.0000   1.0000   1.0000   1.0000   1.0000   1.0000   1.0000   1.0000
     1.0000   1.0000   1.0000   1.0000   1.0000   1.0000   1.0000   1.0000
     1.0000   1.0000   1.0000   1.0000   1.0000   1.0000   1.0000   1.0000
     1.0000   1.0000   1.0000   1.0000   1.0000   1.0000   1.0000   1.0000
     1.0000   1.0000   1.0000   1.0000   1.0000   1.0000   1.0000   1.0000
     1.0000   1.0000   1.0000   1.0000   1.0000   1.0000   1.0000   1.0000
     1.0000   1.0000   1.0000   1.0000   1.0000   1.0000   1.0000   1.0000
     1.0000   1.0000   1.0000   1.0000   1.0000   1.0000   1.0000   1.0000
     1.0000   1.0000   1.0000   1.0000   1.0000   1.0000   1.0000   1.0000
     1.0000   1.0000   1.0000   1.0000   1.0000   1.0000   1.0000   1.0000
     1.0000   1.0000   1.0000   1.0000   1.0000   1.0000   1.0000   1.0000
     1.0000   1.0000   1.0000   1.0000   1.0000   1.0000   1.0000   1.0000
     1.0000   1.0000   1.0000   1.0000   1.0000   1.0000   1.0000   1.0000
     1.0000   1.0000   1.0000   1.0000   1.0000   1.0000   1.0000   1.0000
     1.0000   1.0000   1.0000   1.0000   1.0000   1.0000   1.0000   1.0000
     1.0000   1.0000   1.0000   1.0000   1.0000   1.0000   1.0000   1.0000
     1.0000   1.0000   1.0000   1.0000   1.0000   1.0000   1.0000   1.0000
     1.0000   1.0000   1.0000   1.0000   1.0000   1.0000   1.0000   1.0000
     1.0000   1.0000   1.0000   1.0000   1.0000   1.0000   1.0000   1.0000
     1.0000   1.0000   1.0000   1.0000   1.0000   1.0000   1.0000   1.0000
     1.0000   1.0000   1.0000   1.0000   1.0000   1.0000   1.0000   1.0000
     1.0000   1.0000   1.0000   1.0000   1.0000   1.0000   1.0000   1.0000
     1.0000   1.0000   1.0000   1.0000   1.0000   1.0000   1.0000   1.0000
     1.0000   1.0000   1.0000   1.0000   1.0000   1.0000

     highest occupied level (ev):     7.0503



               ==================================================
                            POLARIZATION CALCULATION
                         !!! NOT THOROUGHLY TESTED !!!
               --------------------------------------------------


                     K-POINTS STRINGS USED IN CALCULATIONS
                     ~~~~~~~~~~~~~~~~~~~~~~~~~~~~~~~~~~~~~

       G-vector along string (2 pi/a):  0.00039 -0.00024  0.93139
       Modulus of the vector (1/bohr):  0.31765
       Number of k-points per string:   8
       Number of different strings  :  10


                               IONIC POLARIZATION
                               ~~~~~~~~~~~~~~~~~~

        Note: (mod 1) means that the phases (angles ranging from
        -pi to pi) have been mapped to the interval [-1/2,+1/2) by
        dividing by 2*pi; (mod 2) refers to the interval [-1,+1)

  ============================================================================
    Ion    Species    Charge              Position                Phase
  ----------------------------------------------------------------------------
     1        Zn      20.000       0.1664  0.0971  0.2081    -0.12222 (mod 2)
     2        Zn      20.000       0.1675  0.0961  0.7455    -0.11248 (mod 2)
     3        Zn      20.000       0.0018  0.3862  0.2087    -0.11474 (mod 2)
     4        Zn      20.000      -0.0009  0.3854  0.7449    -0.12663 (mod 2)
     5        Zn      20.000      -0.1664  0.6733  0.2066    -0.15587 (mod 2)
     6        Mg      10.000      -0.1656  0.6764  0.7460     0.94583 (mod 2)
     7        Zn      20.000       0.5008  0.0965  0.2080    -0.12288 (mod 2)
     8        Zn      20.000       0.4995  0.0973  0.7452    -0.11437 (mod 2)
     9        Mg      10.000       0.3330  0.3858  0.2079    -0.06306 (mod 2)
    10        Mg      10.000       0.3333  0.3851  0.7443     0.93230 (mod 2)
    11        Mg      10.000       0.1651  0.6729  0.2088    -0.05620 (mod 2)
    12        Zn      20.000       0.1671  0.6753  0.7419    -0.18242 (mod 2)
    13        Mg      10.000       0.8339  0.0980  0.2057    -0.08130 (mod 2)
    14        Mg      10.000       0.8343  0.0965  0.7433     0.92625 (mod 2)
    15        Zn      20.000       0.6668  0.3856  0.2057    -0.16453 (mod 2)
    16        Mg      10.000       0.6659  0.3867  0.7472     0.96060 (mod 2)
    17        Zn      20.000       0.4981  0.6740  0.2083    -0.11995 (mod 2)
    18        Zn      20.000       0.5014  0.6743  0.7446    -0.12845 (mod 2)
    19        Zn      20.000      -0.0017  0.1929  0.4772     0.88896 (mod 2)
    20        Zn      20.000       0.0003  0.1923  1.0132     0.87286 (mod 2)
    21        Mg      10.000      -0.1688  0.4819  0.4764     0.43522 (mod 2)
    22        Zn      20.000      -0.1652  0.4812  1.0120     0.84699 (mod 2)
    23        Zn      20.000      -0.3318  0.7697  0.4761     0.86242 (mod 2)
    24        Mg      10.000      -0.3349  0.7694  1.0160    -0.54037 (mod 2)
    25        Zn      20.000       0.3328  0.1921  0.4755     0.85869 (mod 2)
    26        Mg      10.000       0.3330  0.1924  1.0139    -0.55600 (mod 2)
    27        Mg      10.000       0.1654  0.4795  0.4773     0.44485 (mod 2)
    28        Zn      20.000       0.1662  0.4824  1.0112     0.83578 (mod 2)
    29        Zn      20.000      -0.0017  0.7705  0.4770     0.88174 (mod 2)
    30        Zn      20.000       0.0020  0.7695  1.0137     0.87868 (mod 2)
    31        Mg      10.000       0.6647  0.1943  0.4761     0.43647 (mod 2)
    32        Zn      20.000       0.6672  0.1915  1.0109     0.83522 (mod 2)
    33        Zn      20.000       0.5018  0.4804  0.4769     0.88466 (mod 2)
    34        Zn      20.000       0.4982  0.4827  1.0130     0.87247 (mod 2)
    35        Mg      10.000       0.3351  0.7708  0.4755     0.42855 (mod 2)
    36        Mg      10.000       0.3318  0.7681  1.0113    -0.58136 (mod 2)
    37        O        6.000       0.1673  0.0956  0.0040     0.02240 (mod 2)
    38        O        6.000       0.1659  0.0963  0.5408    -0.97749 (mod 2)
    39        O        6.000       0.0009  0.3846  0.0041     0.02229 (mod 2)
    40        O        6.000      -0.0019  0.3856  0.5403    -0.98090 (mod 2)
    41        O        6.000      -0.1661  0.6738  0.0024     0.01194 (mod 2)
    42        O        6.000      -0.1667  0.6733  0.5427    -0.96867 (mod 2)
    43        O        6.000       0.5007  0.0962  0.0035     0.02071 (mod 2)
    44        O        6.000       0.4993  0.0966  0.5407    -0.97755 (mod 2)
    45        O        6.000       0.3328  0.3845  0.0040     0.02236 (mod 2)
    46        O        6.000       0.3331  0.3851  0.5405    -0.97926 (mod 2)
    47        O        6.000       0.1674  0.6730  0.0055     0.03000 (mod 2)
    48        O        6.000       0.1675  0.6736  0.5374    -0.99758 (mod 2)
    49        O        6.000       0.8339  0.0945  0.0019     0.01222 (mod 2)
    50        O        6.000       0.8313  0.0965  0.5396    -0.98284 (mod 2)
    51        O        6.000       0.6671  0.3849  0.0012     0.00764 (mod 2)
    52        O        6.000       0.6672  0.3850  0.5432    -0.96317 (mod 2)
    53        O        6.000       0.4989  0.6741  0.0039     0.02220 (mod 2)
    54        O        6.000       0.5009  0.6739  0.5401    -0.98141 (mod 2)
    55        O        6.000      -0.0002  0.1931  0.2724    -0.47773 (mod 2)
    56        O        6.000       0.0002  0.1929  0.8089     0.51987 (mod 2)
    57        O        6.000      -0.1666  0.4812  0.2727    -0.47731 (mod 2)
    58        O        6.000      -0.1671  0.4832  0.8078     0.51296 (mod 2)
    59        O        6.000      -0.3336  0.7697  0.2714    -0.48510 (mod 2)
    60        O        6.000      -0.3327  0.7702  0.8121     0.53640 (mod 2)
    61        O        6.000       0.3337  0.1932  0.2709    -0.48553 (mod 2)
    62        O        6.000       0.3334  0.1936  0.8106     0.53022 (mod 2)
    63        O        6.000       0.1678  0.4818  0.2741    -0.46859 (mod 2)
    64        O        6.000       0.1667  0.4822  0.8067     0.50802 (mod 2)
    65        O        6.000      -0.0006  0.7701  0.2725    -0.47822 (mod 2)
    66        O        6.000       0.0014  0.7711  0.8094     0.52233 (mod 2)
    67        O        6.000       0.6674  0.1933  0.2725    -0.47618 (mod 2)
    68        O        6.000       0.6677  0.1933  0.8065     0.50843 (mod 2)
    69        O        6.000       0.5002  0.4813  0.2721    -0.47892 (mod 2)
    70        O        6.000       0.4990  0.4817  0.8089     0.52095 (mod 2)
    71        O        6.000       0.3314  0.7716  0.2714    -0.48347 (mod 2)
    72        O        6.000       0.3339  0.7707  0.8078     0.51387 (mod 2)
  ----------------------------------------------------------------------------
                                               IONIC PHASE:  -0.58940 (mod 2)
  ============================================================================


                            ELECTRONIC POLARIZATION
                            ~~~~~~~~~~~~~~~~~~~~~~~

        Note: (mod 1) means that the phases (angles ranging from
        -pi to pi) have been mapped to the interval [-1/2,+1/2) by
        dividing by 2*pi; (mod 2) refers to the interval [-1,+1)

  ============================================================================
   Spin    String     Weight      First k-point in string         Phase
  ----------------------------------------------------------------------------
    up        1      0.062500      0.0000  0.0000  0.0000     0.16115 (mod 1)
    up        2      0.125000     -0.0001  0.2886 -0.0001     0.15781 (mod 1)
    up        3      0.062500      0.0002 -0.5771  0.0001     0.15545 (mod 1)
    up        4      0.125000      0.2499  0.1442  0.0001     0.15782 (mod 1)
    up        5      0.125000      0.2498  0.4327 -0.0000     0.15545 (mod 1)
    up        6      0.125000      0.2502 -0.4330  0.0002     0.15543 (mod 1)
    up        7      0.125000      0.2501 -0.1444  0.0001     0.15782 (mod 1)
    up        8      0.062500     -0.4999 -0.2884 -0.0001     0.15547 (mod 1)
    up        9      0.125000     -0.5000  0.0002 -0.0002     0.15544 (mod 1)
    up       10      0.062500     -0.4996 -0.8655  0.0000     0.15543 (mod 1)
  ----------------------------------------------------------------------------
   down       1      0.062500      0.0000  0.0000  0.0000     0.16115 (mod 1)
   down       2      0.125000     -0.0001  0.2886 -0.0001     0.15781 (mod 1)
   down       3      0.062500      0.0002 -0.5771  0.0001     0.15545 (mod 1)
   down       4      0.125000      0.2499  0.1442  0.0001     0.15782 (mod 1)
   down       5      0.125000      0.2498  0.4327 -0.0000     0.15545 (mod 1)
   down       6      0.125000      0.2502 -0.4330  0.0002     0.15543 (mod 1)
   down       7      0.125000      0.2501 -0.1444  0.0001     0.15782 (mod 1)
   down       8      0.062500     -0.4999 -0.2884 -0.0001     0.15547 (mod 1)
   down       9      0.125000     -0.5000  0.0002 -0.0002     0.15544 (mod 1)
   down      10      0.062500     -0.4996 -0.8655  0.0000     0.15543 (mod 1)
  ----------------------------------------------------------------------------
                                        Average phase (up):   0.15669 (mod 1)
                                      Average phase (down):   0.15669 (mod 1)
                                          ELECTRONIC PHASE:   0.31338 (mod 2)
  ============================================================================


                               SUMMARY OF PHASES
                               ~~~~~~~~~~~~~~~~~

                          Ionic Phase: -0.58940 (mod 2)
                     Electronic Phase:  0.31338 (mod 2)
                          TOTAL PHASE: -0.27602 (mod 2)


                             VALUES OF POLARIZATION
                             ~~~~~~~~~~~~~~~~~~~~~~

        The calculation of phases done along the direction of vector 3
        of the reciprocal lattice gives the following contribution to
        the polarization vector (in different units, and being Omega
        the volume of the unit cell):

           P =  -5.4597777  (mod  39.5608925)  (e/Omega).bohr

           P =  -0.0009387  (mod   0.0068015)  e/bohr^2

           P =  -0.0536651  (mod   0.3888512)  C/m^2

        The polarization direction is:  (-0.00041 , 0.00025 , 1.00000 )


               ==================================================



     Writing output data file ZnO.save/
 
     init_run     :      2.78s CPU      5.93s WALL (       1 calls)
     electrons    :   1431.51s CPU   1460.15s WALL (       1 calls)

     Called by init_run:
     wfcinit      :      0.00s CPU      0.01s WALL (       1 calls)
     wfcinit:atom :      0.15s CPU      0.16s WALL (      80 calls)
     wfcinit:wfcr :     65.17s CPU     66.67s WALL (      80 calls)
     potinit      :      0.19s CPU      0.51s WALL (       1 calls)
     hinit0       :      1.67s CPU      4.15s WALL (       1 calls)

     Called by electrons:
     c_bands      :   1017.29s CPU   1043.98s WALL (       1 calls)
     v_of_rho     :      0.14s CPU      0.32s WALL (       1 calls)
     v_h          :      0.01s CPU      0.01s WALL (       1 calls)
     v_xc         :      0.13s CPU      0.30s WALL (       1 calls)
     newd         :      0.09s CPU      0.20s WALL (       1 calls)

     Called by c_bands:
     init_us_2    :      0.71s CPU      0.73s WALL (     220 calls)
     cegterg      :    949.46s CPU    974.57s WALL (      80 calls)

     Called by sum_band:

     Called by *egterg:
     h_psi        :    418.89s CPU    429.15s WALL (    1132 calls)
     s_psi        :     36.98s CPU     37.01s WALL (    1132 calls)
     g_psi        :      0.35s CPU      0.35s WALL (     972 calls)
     cdiaghg      :    294.36s CPU    300.22s WALL (    1052 calls)
     cegterg:over :     74.11s CPU     84.04s WALL (     972 calls)
     cegterg:upda :     90.58s CPU     90.83s WALL (     972 calls)
     cegterg:last :     83.70s CPU     83.87s WALL (     320 calls)
     cdiaghg:chol :     16.42s CPU     16.85s WALL (    1052 calls)
     cdiaghg:inve :     12.21s CPU     12.26s WALL (    1052 calls)
     cdiaghg:para :     45.95s CPU     49.46s WALL (    2104 calls)

     Called by h_psi:
     h_psi:pot    :    417.88s CPU    428.11s WALL (    1132 calls)
     h_psi:calbec :     54.12s CPU     61.59s WALL (    1132 calls)
     vloc_psi     :    326.20s CPU    328.86s WALL (    1132 calls)
     add_vuspsi   :     37.54s CPU     37.65s WALL (    1132 calls)

     General routines
     calbec       :     65.46s CPU     74.06s WALL (    1272 calls)
     fft          :      1.59s CPU      3.99s WALL (      13 calls)
     ffts         :      0.01s CPU      0.01s WALL (       1 calls)
     fftw         :    322.62s CPU    325.26s WALL (  725912 calls)
     interpolate  :      0.01s CPU      0.02s WALL (       1 calls)
 
     Parallel routines
     fft_scatt_xy :      9.25s CPU      9.31s WALL (  725926 calls)
     fft_scatt_yz :    278.13s CPU    282.53s WALL (  725926 calls)
 
     PWSCF        :  25m 3.20s CPU  25m57.51s WALL

 
   This run was terminated on:   2:36:25  15Jul2022            

=------------------------------------------------------------------------------=
   JOB DONE.
=------------------------------------------------------------------------------=
