
     Program PWSCF v.6.4.1 starts on 15Jul2022 at  2:12:46 

     This program is part of the open-source Quantum ESPRESSO suite
     for quantum simulation of materials; please cite
         "P. Giannozzi et al., J. Phys.:Condens. Matter 21 395502 (2009);
         "P. Giannozzi et al., J. Phys.:Condens. Matter 29 465901 (2017);
          URL http://www.quantum-espresso.org", 
     in publications or presentations arising from this work. More details at
     http://www.quantum-espresso.org/quote

     Parallel version (MPI), running on   128 processors

     MPI processes distributed on     2 nodes
     R & G space division:  proc/nbgrp/npool/nimage =     128
     Waiting for input...
     Reading input from standard input
Warning: card &IONS ignored
Warning: card   UPSCALE           = 100.D0, ignored
Warning: card / ignored
Warning: card &CELL ignored
Warning: card   CELL_DYNAMICS     = 'BFGS' ignored
Warning: card   PRESS_CONV_THR    = 0.5D0 ignored
Warning: card   CELL_DOFREE = 'ALL' ignored
Warning: card / ignored

     Current dimensions of program PWSCF are:
     Max number of different atomic species (ntypx) = 10
     Max number of k-points (npk) =  40000
     Max angular momentum in pseudopotentials (lmaxx) =  3

     Atomic positions and unit cell read from directory:
     ./temp/ZnO.save/
 

     Subspace diagonalization in iterative solution of the eigenvalue problem:
     one sub-group per band group will be used
     scalapack distributed-memory algorithm (size of sub-group:  8*  8 procs)

 
     Parallelization info
     --------------------
     sticks:   dense  smooth     PW     G-vecs:    dense   smooth      PW
     Min          91      44     12                 8449     2807     418
     Max          92      45     13                 8460     2813     423
     Sum       11725    5643   1585              1082167   359765   53629
 


     bravais-lattice index     =            0
     lattice parameter (alat)  =      18.4447  a.u.
     unit-cell volume          =    5731.4644 (a.u.)^3
     number of atoms/cell      =           72
     number of atomic types    =            3
     number of electrons       =       776.00
     number of Kohn-Sham states=          388
     kinetic-energy cutoff     =      60.0000  Ry
     charge density cutoff     =     500.0000  Ry
     Exchange-correlation      = SLA  PW   PSX  PSC ( 1  4 10  8 0 0)
     Using LIBXC version       =    4   3   4

     celldm(1)=  18.444651  celldm(2)=   0.000000  celldm(3)=   0.000000
     celldm(4)=   0.000000  celldm(5)=   0.000000  celldm(6)=   0.000000

     crystal axes: (cart. coord. in units of alat)
               a(1) = (   1.000000  -0.000668   0.000654 )  
               a(2) = (  -0.500577   0.867025  -0.000259 )  
               a(3) = (   0.000697   0.000083   1.053879 )  

     reciprocal axes: (cart. coord. in units 2 pi/alat)
               b(1) = (  1.000387  0.577573 -0.000707 )  
               b(2) = (  0.000771  1.153815 -0.000091 )  
               b(3) = ( -0.000620 -0.000075  0.948876 )  


     PseudoPot. # 1 for Zn read from file:
     ./GBRV_PBEsol/zn_pbesol_v1.uspp.F.UPF
     MD5 check sum: 7d8615e52efe7c1e2b1899de8658bae2
     Pseudo is Ultrasoft, Zval = 20.0
     Generated by new atomic code, or converted to UPF format
     Using radial grid of  943 points,  6 beta functions with: 
                l(1) =   0
                l(2) =   0
                l(3) =   1
                l(4) =   1
                l(5) =   2
                l(6) =   2
     Q(r) pseudized with  8 coefficients,  rinner =    1.100   1.100   1.100
                                                       1.100   1.100

     PseudoPot. # 2 for O  read from file:
     ./GBRV_PBEsol/o_pbesol_v1.2.uspp.F.UPF
     MD5 check sum: 501638753501ef6325af9037351f7734
     Pseudo is Ultrasoft + core correction, Zval =  6.0
     Generated by new atomic code, or converted to UPF format
     Using radial grid of  737 points,  5 beta functions with: 
                l(1) =   0
                l(2) =   0
                l(3) =   1
                l(4) =   1
                l(5) =   2
     Q(r) pseudized with  8 coefficients,  rinner =    0.900   0.900   0.900
                                                       0.900   0.900

     PseudoPot. # 3 for Mg read from file:
     ./GBRV_PBEsol/mg_pbesol_v1.4.uspp.F.UPF
     MD5 check sum: 4059f37963cf5867752dbf5ab2400678
     Pseudo is Ultrasoft, Zval = 10.0
     Generated by new atomic code, or converted to UPF format
     Using radial grid of  821 points,  7 beta functions with: 
                l(1) =   0
                l(2) =   0
                l(3) =   0
                l(4) =   1
                l(5) =   1
                l(6) =   2
                l(7) =   2
     Q(r) pseudized with  8 coefficients,  rinner =    1.200   1.200   1.200
                                                       1.200   1.200

     atomic species   valence    mass     pseudopotential
        Zn            20.00    65.38000     Zn( 1.00)
        O              6.00    15.99900     O ( 1.00)
        Mg            10.00    24.30500     Mg( 1.00)

     No symmetry found


                                    s                        frac. trans.

      isym =  1     identity                                     

 cryst.   s( 1) = (     1          0          0      )
                  (     0          1          0      )
                  (     0          0          1      )

 cart.    s( 1) = (  1.0000000  0.0000000  0.0000000 )
                  ( -0.0000000  1.0000000  0.0000000 )
                  (  0.0000000  0.0000000  1.0000000 )


   Cartesian axes

     site n.     atom                  positions (alat units)
         1           Zn  tau(   1) = (   0.1646614   0.0954262   0.2071038  )
         2           Zn  tau(   2) = (   0.3320518   0.3843906   0.2043266  )
         3           Zn  tau(   3) = (   0.6691702   0.3848469   0.2044931  )
         4           Zn  tau(   4) = (   0.1678726   0.0960985   0.7340249  )
         5           Zn  tau(   5) = (   0.5011934   0.0961634   0.7311122  )
         6           Zn  tau(   6) = (   0.8318748   0.0963217   0.7295974  )
         7           Zn  tau(   7) = (  -0.0001866   0.3867957   0.7307143  )
         8           Zn  tau(   8) = (   0.6661818   0.3851806   0.7320792  )
         9           Zn  tau(   9) = (   0.1653529   0.6739835   0.7315785  )
        10           Zn  tau(  10) = (   0.5001898   0.6716942   0.7293596  )
        11           Zn  tau(  11) = (   0.3319979   0.1938768   0.4696658  )
        12           Zn  tau(  12) = (   0.6671723   0.1931983   0.4672574  )
        13           Zn  tau(  13) = (   0.1670983   0.4804000   0.4681746  )
        14           Zn  tau(  14) = (   0.4994225   0.4798135   0.4666342  )
        15           Zn  tau(  15) = (  -0.0023845   0.7688990   0.4668756  )
        16           Zn  tau(  16) = (  -0.0007024   0.1924318   0.9951785  )
        17           Zn  tau(  17) = (   0.3339533   0.1902178   0.9967857  )
        18           Zn  tau(  18) = (   0.1654577   0.4819015   0.9963968  )
        19           Zn  tau(  19) = (  -0.3346611   0.7695923   0.9948994  )
        20           Zn  tau(  20) = (   0.0007608   0.7716497   0.9969886  )
        21           Mg  tau(  21) = (   0.4982065   0.0971134   0.2086268  )
        22           Mg  tau(  22) = (   0.8355445   0.0954276   0.2071731  )
        23           Mg  tau(  23) = (   0.0020210   0.3827191   0.2061733  )
        24           Mg  tau(  24) = (  -0.1676134   0.6757312   0.2038853  )
        25           Mg  tau(  25) = (   0.1668992   0.6743223   0.2068467  )
        26           Mg  tau(  26) = (   0.4998578   0.6754729   0.2073437  )
        27           Mg  tau(  27) = (   0.3337417   0.3851715   0.7339829  )
        28           Mg  tau(  28) = (  -0.1651365   0.6751550   0.7325141  )
        29           Mg  tau(  29) = (   0.0022741   0.1932535   0.4719013  )
        30           Mg  tau(  30) = (  -0.1668264   0.4822744   0.4679523  )
        31           Mg  tau(  31) = (  -0.3315848   0.7718304   0.4702924  )
        32           Mg  tau(  32) = (   0.3313252   0.7692822   0.4701229  )
        33           Mg  tau(  33) = (   0.6674914   0.1920437   0.9970915  )
        34           Mg  tau(  34) = (  -0.1649020   0.4804735   0.9945204  )
        35           Mg  tau(  35) = (   0.5022657   0.4821045   0.9982849  )
        36           Mg  tau(  36) = (   0.3349466   0.7708407   0.9933177  )
        37           O   tau(  37) = (   0.1654182   0.0952786   0.0029813  )
        38           O   tau(  38) = (   0.5004415   0.0965172   0.0060892  )
        39           O   tau(  39) = (   0.8325689   0.0947303   0.0043322  )
        40           O   tau(  40) = (  -0.0005484   0.3843948   0.0041109  )
        41           O   tau(  41) = (   0.3332940   0.3847991   0.0002274  )
        42           O   tau(  42) = (   0.6677683   0.3845910   0.0010214  )
        43           O   tau(  43) = (  -0.1673292   0.6731700   0.0009550  )
        44           O   tau(  44) = (   0.1676715   0.6748639   0.0038457  )
        45           O   tau(  45) = (   0.4983375   0.6738067   0.0049454  )
        46           O   tau(  46) = (   0.1671291   0.0960507   0.5310727  )
        47           O   tau(  47) = (   0.5001034   0.0959210   0.5273289  )
        48           O   tau(  48) = (   0.8340389   0.0956676   0.5268487  )
        49           O   tau(  49) = (  -0.0007846   0.3856694   0.5273793  )
        50           O   tau(  50) = (   0.3335188   0.3856294   0.5319413  )
        51           O   tau(  51) = (   0.6665755   0.3850883   0.5289604  )
        52           O   tau(  52) = (  -0.1677371   0.6733069   0.5304136  )
        53           O   tau(  53) = (   0.1649106   0.6734191   0.5281488  )
        54           O   tau(  54) = (   0.5000457   0.6738765   0.5258776  )
        55           O   tau(  55) = (  -0.0001870   0.1925247   0.2697368  )
        56           O   tau(  56) = (   0.3315780   0.1929106   0.2667534  )
        57           O   tau(  57) = (   0.6673487   0.1917437   0.2636308  )
        58           O   tau(  58) = (  -0.1641810   0.4828287   0.2650062  )
        59           O   tau(  59) = (   0.1667345   0.4818362   0.2652611  )
        60           O   tau(  60) = (   0.5004195   0.4809589   0.2629689  )
        61           O   tau(  61) = (  -0.3331219   0.7699955   0.2681624  )
        62           O   tau(  62) = (  -0.0006467   0.7706530   0.2639728  )
        63           O   tau(  63) = (   0.3329108   0.7703814   0.2673480  )
        64           O   tau(  64) = (  -0.0004328   0.1931460   0.7911397  )
        65           O   tau(  65) = (   0.3346044   0.1924203   0.7934518  )
        66           O   tau(  66) = (   0.6669265   0.1925607   0.7944622  )
        67           O   tau(  67) = (  -0.1665661   0.4826869   0.7921402  )
        68           O   tau(  68) = (   0.1667127   0.4816572   0.7929489  )
        69           O   tau(  69) = (   0.4998405   0.4811564   0.7956067  )
        70           O   tau(  70) = (  -0.3335330   0.7696673   0.7909983  )
        71           O   tau(  71) = (   0.0005090   0.7715224   0.7935071  )
        72           O   tau(  72) = (   0.3336434   0.7701229   0.7905103  )

   Crystallographic axes

     site n.     atom                  positions (cryst. coord.)
         1           Zn  tau(   1) = (  0.2196943  0.1102123  0.1964066  )
         2           Zn  tau(   2) = (  0.5540496  0.4437530  0.1936459  )
         3           Zn  tau(   3) = (  0.8915619  0.4445394  0.1935947  )
         4           Zn  tau(   4) = (  0.2229226  0.1109426  0.6963873  )
         5           Zn  tau(   5) = (  0.5564120  0.1112748  0.6934168  )
         6           Zn  tau(   6) = (  0.8873137  0.1117125  0.6917743  )
         7           Zn  tau(   7) = (  0.2226998  0.4462239  0.6933285  )
         8           Zn  tau(   8) = (  0.8883921  0.4448742  0.6942104  )
         9           Zn  tau(   9) = (  0.5541747  0.7777130  0.6940243  )
        10           Zn  tau(  10) = (  0.8878204  0.7753300  0.6917113  )
        11           Zn  tau(  11) = (  0.4437724  0.2239113  0.4454342  )
        12           Zn  tau(  12) = (  0.7786863  0.2233871  0.4429411  )
        13           Zn  tau(  13) = (  0.4442983  0.5543789  0.4441001  )
        14           Zn  tau(  14) = (  0.7764134  0.5539586  0.4424323  )
        15           Zn  tau(  15) = (  0.4413801  0.8871226  0.4429510  )
        16           Zn  tau(  16) = (  0.1097374  0.2219397  0.9442870  )
        17           Zn  tau(  17) = (  0.4432426  0.2196430  0.9456047  )
        18           Zn  tau(  18) = (  0.4431509  0.5560620  0.9453184  )
        19           Zn  tau(  19) = (  0.1090022  0.8876183  0.9441862  )
        20           Zn  tau(  20) = (  0.4457407  0.8902507  0.9459604  )
        21           Mg  tau(  21) = (  0.5543419  0.1124161  0.1976447  )
        22           Mg  tau(  22) = (  0.8908377  0.1107313  0.1960561  )
        23           Mg  tau(  23) = (  0.2229244  0.4415697  0.1956030  )
        24           Mg  tau(  24) = (  0.2224620  0.7795207  0.1935153  )
        25           Mg  tau(  25) = (  0.5562882  0.7781528  0.1961179  )
        26           Mg  tau(  26) = (  0.8900399  0.7797372  0.1963829  )
        27           Mg  tau(  27) = (  0.5558168  0.4446072  0.6962230  )
        28           Mg  tau(  28) = (  0.2242334  0.7788098  0.6951170  )
        29           Mg  tau(  29) = (  0.1135595  0.2229376  0.4477600  )
        30           Mg  tau(  30) = (  0.1113272  0.5562841  0.4440962  )
        31           Mg  tau(  31) = (  0.1137432  0.8902508  0.4463971  )
        32           Mg  tau(  32) = (  0.7754380  0.8878218  0.4458253  )
        33           Mg  tau(  33) = (  0.7779642  0.2220069  0.9456878  )
        34           Mg  tau(  34) = (  0.1118399  0.5541598  0.9437429  )
        35           Mg  tau(  35) = (  0.7802051  0.5565559  0.9469010  )
        36           Mg  tau(  36) = (  0.7795911  0.8895752  0.9422700  )
        37           O   tau(  37) = (  0.2205104  0.1100611  0.0027192  )
        38           O   tau(  38) = (  0.5563766  0.1117484  0.0054602  )
        39           O   tau(  39) = (  0.8876017  0.1099428  0.0035872  )
        40           O   tau(  40) = (  0.2214647  0.4435196  0.0038723  )
        41           O   tau(  41) = (  0.5556725  0.4442438 -0.0000198  )
        42           O   tau(  42) = (  0.8901555  0.4442616  0.0005262  )
        43           O   tau(  43) = (  0.2214105  0.7765842  0.0009596  )
        44           O   tau(  44) = (  0.5575171  0.7787968  0.0034946  )
        45           O   tau(  45) = (  0.8876996  0.7778318  0.0043331  )
        46           O   tau(  46) = (  0.2222947  0.1109053  0.5038113  )
        47           O   tau(  47) = (  0.5553256  0.1110128  0.5000524  )
        48           O   tau(  48) = (  0.8892442  0.1109780  0.4993896  )
        49           O   tau(  49) = (  0.2215947  0.4449424  0.5003892  )
        50           O   tau(  50) = (  0.5560012  0.4451537  0.5045106  )
        51           O   tau(  51) = (  0.8888762  0.4447865  0.5014756  )
        52           O   tau(  52) = (  0.2207072  0.7766938  0.5033504  )
        53           O   tau(  53) = (  0.5535500  0.7770799  0.5009950  )
        54           O   tau(  54) = (  0.8890806  0.7778664  0.4986320  )
        55           O   tau(  55) = (  0.1108194  0.2221132  0.2559325  )
        56           O   tau(  56) = (  0.4429378  0.2228145  0.2528958  )
        57           O   tau(  57) = (  0.7781666  0.2217274  0.2497247  )
        58           O   tau(  58) = (  0.1144372  0.5569441  0.2515237  )
        59           O   tau(  59) = (  0.4449072  0.5560541  0.2515604  )
        60           O   tau(  60) = (  0.7782163  0.5552994  0.2491785  )
        61           O   tau(  61) = (  0.1112886  0.8881508  0.2546019  )
        62           O   tau(  62) = (  0.4442751  0.8891663  0.2504202  )
        63           O   tau(  63) = (  0.7778024  0.8891097  0.2534160  )
        64           O   tau(  64) = (  0.1105638  0.2227824  0.7506793  )
        65           O   tau(  65) = (  0.4453098  0.2222033  0.7526655  )
        66           O   tau(  66) = (  0.7778409  0.2226215  0.7534181  )
        67           O   tau(  67) = (  0.1115966  0.5567308  0.7517101  )
        68           O   tau(  68) = (  0.4444091  0.5557997  0.7522708  )
        69           O   tau(  69) = (  0.7773747  0.5554785  0.7545861  )
        70           O   tau(  70) = (  0.1103182  0.8877242  0.7507086  )
        71           O   tau(  71) = (  0.4455592  0.8901221  0.7528819  )
        72           O   tau(  72) = (  0.7780162  0.8887645  0.7498317  )

     number of k points=    80
                       cart. coord. in units 2pi/alat
        k(    1) = (   0.0000000   0.0000000   0.0000000), wk =   0.0156250
        k(    2) = (  -0.0000886  -0.0000107   0.1355537), wk =   0.0156250
        k(    3) = (  -0.0001772  -0.0000214   0.2711074), wk =   0.0156250
        k(    4) = (  -0.0002658  -0.0000321   0.4066612), wk =   0.0156250
        k(    5) = (  -0.0003545  -0.0000428   0.5422149), wk =   0.0156250
        k(    6) = (  -0.0004431  -0.0000535   0.6777686), wk =   0.0156250
        k(    7) = (  -0.0005317  -0.0000642   0.8133223), wk =   0.0156250
        k(    8) = (  -0.0006203  -0.0000748   0.9488761), wk =   0.0156250
        k(    9) = (   0.0001928   0.2884536  -0.0000227), wk =   0.0312500
        k(   10) = (   0.0001042   0.2884430   0.1355310), wk =   0.0312500
        k(   11) = (   0.0000156   0.2884323   0.2710847), wk =   0.0312500
        k(   12) = (  -0.0000731   0.2884216   0.4066384), wk =   0.0312500
        k(   13) = (  -0.0001617   0.2884109   0.5421922), wk =   0.0312500
        k(   14) = (  -0.0002503   0.2884002   0.6777459), wk =   0.0312500
        k(   15) = (  -0.0003389   0.2883895   0.8132996), wk =   0.0312500
        k(   16) = (  -0.0004275   0.2883788   0.9488533), wk =   0.0312500
        k(   17) = (  -0.0003856  -0.5769073   0.0000454), wk =   0.0156250
        k(   18) = (  -0.0004742  -0.5769180   0.1355992), wk =   0.0156250
        k(   19) = (  -0.0005628  -0.5769287   0.2711529), wk =   0.0156250
        k(   20) = (  -0.0006514  -0.5769394   0.4067066), wk =   0.0156250
        k(   21) = (  -0.0007400  -0.5769501   0.5422603), wk =   0.0156250
        k(   22) = (  -0.0008286  -0.5769608   0.6778140), wk =   0.0156250
        k(   23) = (  -0.0009173  -0.5769714   0.8133678), wk =   0.0156250
        k(   24) = (  -0.0010059  -0.5769821   0.9489215), wk =   0.0156250
        k(   25) = (   0.2500967   0.1443934  -0.0001767), wk =   0.0312500
        k(   26) = (   0.2500081   0.1443827   0.1353770), wk =   0.0312500
        k(   27) = (   0.2499195   0.1443720   0.2709307), wk =   0.0312500
        k(   28) = (   0.2498309   0.1443613   0.4064844), wk =   0.0312500
        k(   29) = (   0.2497423   0.1443506   0.5420382), wk =   0.0312500
        k(   30) = (   0.2496537   0.1443399   0.6775919), wk =   0.0312500
        k(   31) = (   0.2495650   0.1443292   0.8131456), wk =   0.0312500
        k(   32) = (   0.2494764   0.1443185   0.9486993), wk =   0.0312500
        k(   33) = (   0.2502895   0.4328470  -0.0001994), wk =   0.0312500
        k(   34) = (   0.2502009   0.4328363   0.1353543), wk =   0.0312500
        k(   35) = (   0.2501123   0.4328256   0.2709080), wk =   0.0312500
        k(   36) = (   0.2500237   0.4328149   0.4064617), wk =   0.0312500
        k(   37) = (   0.2499351   0.4328042   0.5420155), wk =   0.0312500
        k(   38) = (   0.2498464   0.4327935   0.6775692), wk =   0.0312500
        k(   39) = (   0.2497578   0.4327828   0.8131229), wk =   0.0312500
        k(   40) = (   0.2496692   0.4327722   0.9486766), wk =   0.0312500
        k(   41) = (   0.2497111  -0.4325139  -0.0001313), wk =   0.0312500
        k(   42) = (   0.2496225  -0.4325246   0.1354224), wk =   0.0312500
        k(   43) = (   0.2495339  -0.4325353   0.2709762), wk =   0.0312500
        k(   44) = (   0.2494453  -0.4325460   0.4065299), wk =   0.0312500
        k(   45) = (   0.2493567  -0.4325567   0.5420836), wk =   0.0312500
        k(   46) = (   0.2492681  -0.4325674   0.6776373), wk =   0.0312500
        k(   47) = (   0.2491795  -0.4325781   0.8131910), wk =   0.0312500
        k(   48) = (   0.2490909  -0.4325888   0.9487448), wk =   0.0312500
        k(   49) = (   0.2499039  -0.1440603  -0.0001540), wk =   0.0312500
        k(   50) = (   0.2498153  -0.1440710   0.1353997), wk =   0.0312500
        k(   51) = (   0.2497267  -0.1440817   0.2709534), wk =   0.0312500
        k(   52) = (   0.2496381  -0.1440924   0.4065072), wk =   0.0312500
        k(   53) = (   0.2495495  -0.1441031   0.5420609), wk =   0.0312500
        k(   54) = (   0.2494609  -0.1441138   0.6776146), wk =   0.0312500
        k(   55) = (   0.2493723  -0.1441244   0.8131683), wk =   0.0312500
        k(   56) = (   0.2492836  -0.1441351   0.9487221), wk =   0.0312500
        k(   57) = (  -0.5001934  -0.2887867   0.0003534), wk =   0.0156250
        k(   58) = (  -0.5002821  -0.2887974   0.1359072), wk =   0.0156250
        k(   59) = (  -0.5003707  -0.2888081   0.2714609), wk =   0.0156250
        k(   60) = (  -0.5004593  -0.2888188   0.4070146), wk =   0.0156250
        k(   61) = (  -0.5005479  -0.2888295   0.5425683), wk =   0.0156250
        k(   62) = (  -0.5006365  -0.2888402   0.6781220), wk =   0.0156250
        k(   63) = (  -0.5007251  -0.2888509   0.8136758), wk =   0.0156250
        k(   64) = (  -0.5008137  -0.2888615   0.9492295), wk =   0.0156250
        k(   65) = (  -0.5000007  -0.0003331   0.0003307), wk =   0.0312500
        k(   66) = (  -0.5000893  -0.0003437   0.1358844), wk =   0.0312500
        k(   67) = (  -0.5001779  -0.0003544   0.2714382), wk =   0.0312500
        k(   68) = (  -0.5002665  -0.0003651   0.4069919), wk =   0.0312500
        k(   69) = (  -0.5003551  -0.0003758   0.5425456), wk =   0.0312500
        k(   70) = (  -0.5004437  -0.0003865   0.6780993), wk =   0.0312500
        k(   71) = (  -0.5005323  -0.0003972   0.8136530), wk =   0.0312500
        k(   72) = (  -0.5006210  -0.0004079   0.9492068), wk =   0.0312500
        k(   73) = (  -0.5005790  -0.8656940   0.0003989), wk =   0.0156250
        k(   74) = (  -0.5006676  -0.8657047   0.1359526), wk =   0.0156250
        k(   75) = (  -0.5007562  -0.8657154   0.2715063), wk =   0.0156250
        k(   76) = (  -0.5008449  -0.8657261   0.4070600), wk =   0.0156250
        k(   77) = (  -0.5009335  -0.8657368   0.5426138), wk =   0.0156250
        k(   78) = (  -0.5010221  -0.8657475   0.6781675), wk =   0.0156250
        k(   79) = (  -0.5011107  -0.8657582   0.8137212), wk =   0.0156250
        k(   80) = (  -0.5011993  -0.8657688   0.9492749), wk =   0.0156250

                       cryst. coord.
        k(    1) = (   0.0000000   0.0000000   0.0000000), wk =   0.0156250
        k(    2) = (   0.0000000  -0.0000000   0.1428571), wk =   0.0156250
        k(    3) = (   0.0000000  -0.0000000   0.2857143), wk =   0.0156250
        k(    4) = (   0.0000000  -0.0000000   0.4285714), wk =   0.0156250
        k(    5) = (   0.0000000  -0.0000000   0.5714286), wk =   0.0156250
        k(    6) = (   0.0000000  -0.0000000   0.7142857), wk =   0.0156250
        k(    7) = (   0.0000000  -0.0000000   0.8571429), wk =   0.0156250
        k(    8) = (   0.0000000   0.0000000   1.0000000), wk =   0.0156250
        k(    9) = (  -0.0000000   0.2500000  -0.0000000), wk =   0.0312500
        k(   10) = (  -0.0000000   0.2500000   0.1428571), wk =   0.0312500
        k(   11) = (  -0.0000000   0.2500000   0.2857143), wk =   0.0312500
        k(   12) = (   0.0000000   0.2500000   0.4285714), wk =   0.0312500
        k(   13) = (   0.0000000   0.2500000   0.5714286), wk =   0.0312500
        k(   14) = (   0.0000000   0.2500000   0.7142857), wk =   0.0312500
        k(   15) = (   0.0000000   0.2500000   0.8571429), wk =   0.0312500
        k(   16) = (   0.0000000   0.2500000   1.0000000), wk =   0.0312500
        k(   17) = (   0.0000000  -0.5000000   0.0000000), wk =   0.0156250
        k(   18) = (   0.0000000  -0.5000000   0.1428571), wk =   0.0156250
        k(   19) = (   0.0000000  -0.5000000   0.2857143), wk =   0.0156250
        k(   20) = (   0.0000000  -0.5000000   0.4285714), wk =   0.0156250
        k(   21) = (   0.0000000  -0.5000000   0.5714286), wk =   0.0156250
        k(   22) = (   0.0000000  -0.5000000   0.7142857), wk =   0.0156250
        k(   23) = (   0.0000000  -0.5000000   0.8571429), wk =   0.0156250
        k(   24) = (   0.0000000  -0.5000000   1.0000000), wk =   0.0156250
        k(   25) = (   0.2500000  -0.0000000   0.0000000), wk =   0.0312500
        k(   26) = (   0.2500000  -0.0000000   0.1428571), wk =   0.0312500
        k(   27) = (   0.2500000  -0.0000000   0.2857143), wk =   0.0312500
        k(   28) = (   0.2500000   0.0000000   0.4285714), wk =   0.0312500
        k(   29) = (   0.2500000  -0.0000000   0.5714286), wk =   0.0312500
        k(   30) = (   0.2500000   0.0000000   0.7142857), wk =   0.0312500
        k(   31) = (   0.2500000  -0.0000000   0.8571429), wk =   0.0312500
        k(   32) = (   0.2500000  -0.0000000   1.0000000), wk =   0.0312500
        k(   33) = (   0.2500000   0.2500000   0.0000000), wk =   0.0312500
        k(   34) = (   0.2500000   0.2500000   0.1428571), wk =   0.0312500
        k(   35) = (   0.2500000   0.2500000   0.2857143), wk =   0.0312500
        k(   36) = (   0.2500000   0.2500000   0.4285714), wk =   0.0312500
        k(   37) = (   0.2500000   0.2500000   0.5714286), wk =   0.0312500
        k(   38) = (   0.2500000   0.2500000   0.7142857), wk =   0.0312500
        k(   39) = (   0.2500000   0.2500000   0.8571429), wk =   0.0312500
        k(   40) = (   0.2500000   0.2500000   1.0000000), wk =   0.0312500
        k(   41) = (   0.2500000  -0.5000000   0.0000000), wk =   0.0312500
        k(   42) = (   0.2500000  -0.5000000   0.1428571), wk =   0.0312500
        k(   43) = (   0.2500000  -0.5000000   0.2857143), wk =   0.0312500
        k(   44) = (   0.2500000  -0.5000000   0.4285714), wk =   0.0312500
        k(   45) = (   0.2500000  -0.5000000   0.5714286), wk =   0.0312500
        k(   46) = (   0.2500000  -0.5000000   0.7142857), wk =   0.0312500
        k(   47) = (   0.2500000  -0.5000000   0.8571429), wk =   0.0312500
        k(   48) = (   0.2500000  -0.5000000   1.0000000), wk =   0.0312500
        k(   49) = (   0.2500000  -0.2500000   0.0000000), wk =   0.0312500
        k(   50) = (   0.2500000  -0.2500000   0.1428571), wk =   0.0312500
        k(   51) = (   0.2500000  -0.2500000   0.2857143), wk =   0.0312500
        k(   52) = (   0.2500000  -0.2500000   0.4285714), wk =   0.0312500
        k(   53) = (   0.2500000  -0.2500000   0.5714286), wk =   0.0312500
        k(   54) = (   0.2500000  -0.2500000   0.7142857), wk =   0.0312500
        k(   55) = (   0.2500000  -0.2500000   0.8571429), wk =   0.0312500
        k(   56) = (   0.2500000  -0.2500000   1.0000000), wk =   0.0312500
        k(   57) = (  -0.5000000   0.0000000  -0.0000000), wk =   0.0156250
        k(   58) = (  -0.5000000  -0.0000000   0.1428571), wk =   0.0156250
        k(   59) = (  -0.5000000   0.0000000   0.2857143), wk =   0.0156250
        k(   60) = (  -0.5000000  -0.0000000   0.4285714), wk =   0.0156250
        k(   61) = (  -0.5000000   0.0000000   0.5714286), wk =   0.0156250
        k(   62) = (  -0.5000000   0.0000000   0.7142857), wk =   0.0156250
        k(   63) = (  -0.5000000   0.0000000   0.8571429), wk =   0.0156250
        k(   64) = (  -0.5000000  -0.0000000   1.0000000), wk =   0.0156250
        k(   65) = (  -0.5000000   0.2500000  -0.0000000), wk =   0.0312500
        k(   66) = (  -0.5000000   0.2500000   0.1428571), wk =   0.0312500
        k(   67) = (  -0.5000000   0.2500000   0.2857143), wk =   0.0312500
        k(   68) = (  -0.5000000   0.2500000   0.4285714), wk =   0.0312500
        k(   69) = (  -0.5000000   0.2500000   0.5714286), wk =   0.0312500
        k(   70) = (  -0.5000000   0.2500000   0.7142857), wk =   0.0312500
        k(   71) = (  -0.5000000   0.2500000   0.8571429), wk =   0.0312500
        k(   72) = (  -0.5000000   0.2500000   1.0000000), wk =   0.0312500
        k(   73) = (  -0.5000000  -0.5000000  -0.0000000), wk =   0.0156250
        k(   74) = (  -0.5000000  -0.5000000   0.1428571), wk =   0.0156250
        k(   75) = (  -0.5000000  -0.5000000   0.2857143), wk =   0.0156250
        k(   76) = (  -0.5000000  -0.5000000   0.4285714), wk =   0.0156250
        k(   77) = (  -0.5000000  -0.5000000   0.5714286), wk =   0.0156250
        k(   78) = (  -0.5000000  -0.5000000   0.7142857), wk =   0.0156250
        k(   79) = (  -0.5000000  -0.5000000   0.8571429), wk =   0.0156250
        k(   80) = (  -0.5000000  -0.5000000   1.0000000), wk =   0.0156250

     Dense  grid:  1082167 G-vectors     FFT dimensions: ( 135, 135, 144)

     Smooth grid:   359765 G-vectors     FFT dimensions: (  96,  96,  96)

     Dynamical RAM for                 wfc:       2.08 MB

     Dynamical RAM for     wfc (w. buffer):     168.32 MB

     Dynamical RAM for           str. fact:       0.39 MB

     Dynamical RAM for           local pot:       0.00 MB

     Dynamical RAM for          nlocal pot:       6.06 MB

     Dynamical RAM for                qrad:      21.05 MB

     Dynamical RAM for          rho,v,vnew:       1.22 MB

     Dynamical RAM for           G-vectors:       0.51 MB

     Dynamical RAM for          h,s,v(r/c):       1.72 MB

     Dynamical RAM for          <psi|beta>:       6.70 MB

     Dynamical RAM for                 psi:       8.31 MB

     Dynamical RAM for                hpsi:       8.31 MB

     Dynamical RAM for                spsi:       8.31 MB

     Dynamical RAM for      wfcinit/wfcrot:      10.55 MB

     Dynamical RAM for           addusdens:      31.11 MB

     Estimated static dynamical RAM per process >     199.45 MB

     Estimated max dynamical RAM per process >     232.81 MB

     Estimated total dynamical RAM >      29.10 GB

     Check: negative core charge=   -0.000002

     The potential is recalculated from file :
     ./temp/ZnO.save/charge-density

     Starting wfcs are  484 randomized atomic wfcs

     Band Structure Calculation
     Davidson diagonalization with overlap

     Computing kpt #:     1
     total cpu time spent up to now is       20.7 secs

     Computing kpt #:     2
     total cpu time spent up to now is       34.2 secs

     Computing kpt #:     3
     total cpu time spent up to now is       47.5 secs

     Computing kpt #:     4
     total cpu time spent up to now is       60.9 secs

     Computing kpt #:     5
     total cpu time spent up to now is       74.2 secs

     Computing kpt #:     6
     total cpu time spent up to now is       87.6 secs

     Computing kpt #:     7
     total cpu time spent up to now is      101.0 secs

     Computing kpt #:     8
     total cpu time spent up to now is      114.3 secs

     Computing kpt #:     9
     total cpu time spent up to now is      127.7 secs

     Computing kpt #:    10
     total cpu time spent up to now is      141.0 secs

     Computing kpt #:    11
     total cpu time spent up to now is      154.4 secs

     Computing kpt #:    12
     total cpu time spent up to now is      167.6 secs

     Computing kpt #:    13
     total cpu time spent up to now is      181.0 secs

     Computing kpt #:    14
     total cpu time spent up to now is      194.4 secs

     Computing kpt #:    15
     total cpu time spent up to now is      207.8 secs

     Computing kpt #:    16
     total cpu time spent up to now is      221.2 secs

     Computing kpt #:    17
     total cpu time spent up to now is      234.6 secs

     Computing kpt #:    18
     total cpu time spent up to now is      247.9 secs

     Computing kpt #:    19
     total cpu time spent up to now is      261.2 secs

     Computing kpt #:    20
     total cpu time spent up to now is      274.6 secs

     Computing kpt #:    21
     total cpu time spent up to now is      287.9 secs

     Computing kpt #:    22
     total cpu time spent up to now is      301.2 secs

     Computing kpt #:    23
     total cpu time spent up to now is      314.6 secs

     Computing kpt #:    24
     total cpu time spent up to now is      328.0 secs

     Computing kpt #:    25
     total cpu time spent up to now is      341.5 secs

     Computing kpt #:    26
     total cpu time spent up to now is      354.8 secs

     Computing kpt #:    27
     total cpu time spent up to now is      368.1 secs

     Computing kpt #:    28
     total cpu time spent up to now is      381.4 secs

     Computing kpt #:    29
     total cpu time spent up to now is      394.9 secs

     Computing kpt #:    30
     total cpu time spent up to now is      408.1 secs

     Computing kpt #:    31
     total cpu time spent up to now is      421.6 secs

     Computing kpt #:    32
     total cpu time spent up to now is      434.9 secs

     Computing kpt #:    33
     total cpu time spent up to now is      448.4 secs

     Computing kpt #:    34
     total cpu time spent up to now is      461.8 secs

     Computing kpt #:    35
     total cpu time spent up to now is      475.1 secs

     Computing kpt #:    36
     total cpu time spent up to now is      488.5 secs

     Computing kpt #:    37
     total cpu time spent up to now is      501.8 secs

     Computing kpt #:    38
     total cpu time spent up to now is      515.3 secs

     Computing kpt #:    39
     total cpu time spent up to now is      528.6 secs

     Computing kpt #:    40
     total cpu time spent up to now is      541.9 secs

     Computing kpt #:    41
     total cpu time spent up to now is      555.3 secs

     Computing kpt #:    42
     total cpu time spent up to now is      568.7 secs

     Computing kpt #:    43
     total cpu time spent up to now is      582.1 secs

     Computing kpt #:    44
     total cpu time spent up to now is      595.4 secs

     Computing kpt #:    45
     total cpu time spent up to now is      608.8 secs

     Computing kpt #:    46
     total cpu time spent up to now is      622.0 secs

     Computing kpt #:    47
     total cpu time spent up to now is      635.6 secs

     Computing kpt #:    48
     total cpu time spent up to now is      648.9 secs

     Computing kpt #:    49
     total cpu time spent up to now is      662.3 secs

     Computing kpt #:    50
     total cpu time spent up to now is      675.7 secs

     Computing kpt #:    51
     total cpu time spent up to now is      689.1 secs

     Computing kpt #:    52
     total cpu time spent up to now is      702.5 secs

     Computing kpt #:    53
     total cpu time spent up to now is      715.9 secs

     Computing kpt #:    54
     total cpu time spent up to now is      729.3 secs

     Computing kpt #:    55
     total cpu time spent up to now is      742.6 secs

     Computing kpt #:    56
     total cpu time spent up to now is      756.2 secs

     Computing kpt #:    57
     total cpu time spent up to now is      769.6 secs

     Computing kpt #:    58
     total cpu time spent up to now is      782.9 secs

     Computing kpt #:    59
     total cpu time spent up to now is      796.4 secs

     Computing kpt #:    60
     total cpu time spent up to now is      809.8 secs

     Computing kpt #:    61
     total cpu time spent up to now is      823.3 secs

     Computing kpt #:    62
     total cpu time spent up to now is      836.7 secs

     Computing kpt #:    63
     total cpu time spent up to now is      850.1 secs

     Computing kpt #:    64
     total cpu time spent up to now is      863.4 secs

     Computing kpt #:    65
     total cpu time spent up to now is      876.9 secs

     Computing kpt #:    66
     total cpu time spent up to now is      890.3 secs

     Computing kpt #:    67
     total cpu time spent up to now is      903.6 secs

     Computing kpt #:    68
     total cpu time spent up to now is      916.9 secs

     Computing kpt #:    69
     total cpu time spent up to now is      930.3 secs

     Computing kpt #:    70
     total cpu time spent up to now is      943.7 secs

     Computing kpt #:    71
     total cpu time spent up to now is      957.1 secs

     Computing kpt #:    72
     total cpu time spent up to now is      970.5 secs

     Computing kpt #:    73
     total cpu time spent up to now is      983.8 secs

     Computing kpt #:    74
     total cpu time spent up to now is      997.3 secs

     Computing kpt #:    75
     total cpu time spent up to now is     1010.7 secs

     Computing kpt #:    76
     total cpu time spent up to now is     1024.0 secs

     Computing kpt #:    77
     total cpu time spent up to now is     1037.2 secs

     Computing kpt #:    78
     total cpu time spent up to now is     1050.6 secs

     Computing kpt #:    79
     total cpu time spent up to now is     1064.1 secs

     Computing kpt #:    80
     total cpu time spent up to now is     1077.5 secs

     ethr =  1.29E-12,  avg # of iterations = 12.1

     total cpu time spent up to now is     1077.5 secs

     End of band structure calculation

          k = 0.0000 0.0000 0.0000 ( 44865 PWs)   bands (ev):

  -115.6823-115.6765-115.6739-115.6720-115.6715-115.6687-115.6681-115.6676
  -115.6636-115.6635-115.6623-115.6612-115.6599-115.6594-115.6553-115.6537
  -115.6478-115.6456-115.6450-115.6285 -70.0443 -70.0396 -70.0383 -70.0350
   -70.0340 -70.0329 -70.0325 -70.0317 -70.0307 -70.0303 -70.0300 -70.0295
   -70.0282 -70.0274 -70.0274 -70.0265 -70.0257 -70.0253 -70.0250 -70.0250
   -70.0244 -70.0243 -70.0238 -70.0233 -70.0227 -70.0220 -70.0216 -70.0212
   -70.0202 -70.0198 -70.0196 -70.0189 -70.0189 -70.0176 -70.0174 -70.0171
   -70.0166 -70.0148 -70.0145 -70.0130 -70.0110 -70.0108 -70.0106 -70.0105
   -70.0098 -70.0095 -70.0093 -70.0092 -70.0084 -70.0072 -70.0041 -70.0030
   -70.0023 -70.0018 -70.0007 -69.9963 -69.9927 -69.9920 -69.9849 -69.9786
   -65.1247 -65.1170 -65.1005 -65.0992 -65.0852 -65.0767 -65.0728 -65.0674
   -65.0635 -65.0597 -65.0563 -65.0527 -65.0483 -65.0481 -65.0343 -65.0264
   -32.1175 -32.1114 -32.1091 -32.1086 -32.1045 -32.1016 -32.0926 -32.0921
   -32.0877 -32.0872 -32.0847 -32.0825 -32.0798 -32.0737 -32.0732 -32.0702
   -32.0669 -32.0660 -32.0650 -32.0630 -32.0602 -32.0591 -32.0567 -32.0527
   -32.0523 -32.0513 -32.0501 -32.0493 -32.0478 -32.0456 -32.0447 -32.0436
   -32.0427 -32.0424 -32.0401 -32.0379 -32.0369 -32.0362 -32.0337 -32.0327
   -32.0295 -32.0286 -32.0274 -32.0202 -32.0172 -32.0145 -32.0101 -32.0063
   -10.2946  -9.9771  -9.9314  -9.8666  -9.8446  -9.8123  -9.7788  -9.7726
    -9.7177  -9.6816  -9.6390  -9.6146  -9.5985  -9.5790  -9.5657  -9.5243
    -9.5208  -9.4887  -9.4746  -9.4609  -9.4526  -9.4198  -9.3990  -9.3876
    -9.3726  -9.3406  -9.3217  -9.2935  -9.2630  -9.2129  -9.1913  -9.1802
    -9.1488  -9.1157  -9.1041  -8.9626   1.5002   1.5388   1.5624   1.5688
     1.5929   1.6105   1.6361   1.6476   1.6715   1.6938   1.7222   1.7297
     1.7949   1.8103   1.8314   1.8454   1.8508   1.8672   1.8818   1.8962
     1.9130   1.9336   1.9483   1.9777   1.9934   2.0147   2.0212   2.0306
     2.0385   2.0540   2.0571   2.0728   2.0810   2.1120   2.1153   2.1227
     2.1354   2.1499   2.1677   2.1731   2.1767   2.2006   2.2139   2.2209
     2.2317   2.2388   2.2618   2.2858   2.3033   2.3282   2.3549   2.3894
     2.4028   2.4238   2.4462   2.4611   2.4730   2.4848   2.4955   2.5219
     2.5362   2.5578   2.5781   2.5933   2.6058   2.6117   2.6260   2.6406
     2.6555   2.6812   2.6873   2.7038   2.7138   2.7365   2.7495   2.7613
     2.7909   2.8131   2.8298   2.8346   2.8450   2.8638   2.8829   2.9004
     2.9105   2.9230   2.9376   2.9478   2.9647   2.9774   2.9941   3.0149
     3.0214   3.0285   3.0414   3.0547   3.0678   3.0750   3.0993   3.1155
     3.1207   3.2249   3.3170   3.3633   3.4109   3.4255   3.4463   3.5042
     3.5317   3.5432   3.5781   3.5998   3.6513   3.6704   3.7170   3.7437
     3.7832   3.8191   3.8491   3.8948   3.9260   3.9697   4.0602   4.0926
     4.1147   4.1243   4.1575   4.2030   4.2169   4.2726   4.2918   4.3387
     4.3658   4.3876   4.4195   4.5022   4.5450   4.5539   4.5767   4.6654
     4.7412   4.7892   4.8605   4.8887   4.9290   5.0534   5.1041   5.2203
     5.2496   5.2687   5.2756   5.3087   5.3440   5.3525   5.3832   5.4345
     5.4494   5.4651   5.4888   5.5303   5.5459   5.6253   5.6708   5.6934
     5.7112   5.7527   5.7672   5.7870   5.7922   5.8080   5.8380   5.8702
     5.9001   5.9195   5.9351   5.9521   5.9756   6.0227   6.0442   6.0462
     6.0622   6.1193   6.1309   6.1660   6.2014   6.2224   6.2410   6.2618
     6.2842   6.3249   6.3601   6.3899   6.4064   6.4266   6.4596   6.4716
     6.4866   6.4939   6.5128   6.5734   6.6262   6.7113   6.7269   6.7468
     6.8001   7.0233   7.0401   7.0597

     occupation numbers 
     1.0000   1.0000   1.0000   1.0000   1.0000   1.0000   1.0000   1.0000
     1.0000   1.0000   1.0000   1.0000   1.0000   1.0000   1.0000   1.0000
     1.0000   1.0000   1.0000   1.0000   1.0000   1.0000   1.0000   1.0000
     1.0000   1.0000   1.0000   1.0000   1.0000   1.0000   1.0000   1.0000
     1.0000   1.0000   1.0000   1.0000   1.0000   1.0000   1.0000   1.0000
     1.0000   1.0000   1.0000   1.0000   1.0000   1.0000   1.0000   1.0000
     1.0000   1.0000   1.0000   1.0000   1.0000   1.0000   1.0000   1.0000
     1.0000   1.0000   1.0000   1.0000   1.0000   1.0000   1.0000   1.0000
     1.0000   1.0000   1.0000   1.0000   1.0000   1.0000   1.0000   1.0000
     1.0000   1.0000   1.0000   1.0000   1.0000   1.0000   1.0000   1.0000
     1.0000   1.0000   1.0000   1.0000   1.0000   1.0000   1.0000   1.0000
     1.0000   1.0000   1.0000   1.0000   1.0000   1.0000   1.0000   1.0000
     1.0000   1.0000   1.0000   1.0000   1.0000   1.0000   1.0000   1.0000
     1.0000   1.0000   1.0000   1.0000   1.0000   1.0000   1.0000   1.0000
     1.0000   1.0000   1.0000   1.0000   1.0000   1.0000   1.0000   1.0000
     1.0000   1.0000   1.0000   1.0000   1.0000   1.0000   1.0000   1.0000
     1.0000   1.0000   1.0000   1.0000   1.0000   1.0000   1.0000   1.0000
     1.0000   1.0000   1.0000   1.0000   1.0000   1.0000   1.0000   1.0000
     1.0000   1.0000   1.0000   1.0000   1.0000   1.0000   1.0000   1.0000
     1.0000   1.0000   1.0000   1.0000   1.0000   1.0000   1.0000   1.0000
     1.0000   1.0000   1.0000   1.0000   1.0000   1.0000   1.0000   1.0000
     1.0000   1.0000   1.0000   1.0000   1.0000   1.0000   1.0000   1.0000
     1.0000   1.0000   1.0000   1.0000   1.0000   1.0000   1.0000   1.0000
     1.0000   1.0000   1.0000   1.0000   1.0000   1.0000   1.0000   1.0000
     1.0000   1.0000   1.0000   1.0000   1.0000   1.0000   1.0000   1.0000
     1.0000   1.0000   1.0000   1.0000   1.0000   1.0000   1.0000   1.0000
     1.0000   1.0000   1.0000   1.0000   1.0000   1.0000   1.0000   1.0000
     1.0000   1.0000   1.0000   1.0000   1.0000   1.0000   1.0000   1.0000
     1.0000   1.0000   1.0000   1.0000   1.0000   1.0000   1.0000   1.0000
     1.0000   1.0000   1.0000   1.0000   1.0000   1.0000   1.0000   1.0000
     1.0000   1.0000   1.0000   1.0000   1.0000   1.0000   1.0000   1.0000
     1.0000   1.0000   1.0000   1.0000   1.0000   1.0000   1.0000   1.0000
     1.0000   1.0000   1.0000   1.0000   1.0000   1.0000   1.0000   1.0000
     1.0000   1.0000   1.0000   1.0000   1.0000   1.0000   1.0000   1.0000
     1.0000   1.0000   1.0000   1.0000   1.0000   1.0000   1.0000   1.0000
     1.0000   1.0000   1.0000   1.0000   1.0000   1.0000   1.0000   1.0000
     1.0000   1.0000   1.0000   1.0000   1.0000   1.0000   1.0000   1.0000
     1.0000   1.0000   1.0000   1.0000   1.0000   1.0000   1.0000   1.0000
     1.0000   1.0000   1.0000   1.0000   1.0000   1.0000   1.0000   1.0000
     1.0000   1.0000   1.0000   1.0000   1.0000   1.0000   1.0000   1.0000
     1.0000   1.0000   1.0000   1.0000   1.0000   1.0000   1.0000   1.0000
     1.0000   1.0000   1.0000   1.0000   1.0000   1.0000   1.0000   1.0000
     1.0000   1.0000   1.0000   1.0000   1.0000   1.0000   1.0000   1.0000
     1.0000   1.0000   1.0000   1.0000   1.0000   1.0000   1.0000   1.0000
     1.0000   1.0000   1.0000   1.0000   1.0000   1.0000   1.0000   1.0000
     1.0000   1.0000   1.0000   1.0000   1.0000   1.0000   1.0000   1.0000
     1.0000   1.0000   1.0000   1.0000   1.0000   1.0000   1.0000   1.0000
     1.0000   1.0000   1.0000   1.0000   1.0000   1.0000   1.0000   1.0000
     1.0000   1.0000   1.0000   1.0000

          k =-0.0001-0.0000 0.1356 ( 44989 PWs)   bands (ev):

  -115.6823-115.6765-115.6739-115.6720-115.6715-115.6687-115.6681-115.6676
  -115.6636-115.6635-115.6623-115.6612-115.6599-115.6594-115.6553-115.6537
  -115.6478-115.6456-115.6450-115.6285 -70.0443 -70.0396 -70.0383 -70.0350
   -70.0340 -70.0329 -70.0325 -70.0317 -70.0307 -70.0303 -70.0300 -70.0295
   -70.0282 -70.0274 -70.0274 -70.0265 -70.0257 -70.0253 -70.0250 -70.0250
   -70.0244 -70.0243 -70.0238 -70.0233 -70.0227 -70.0220 -70.0216 -70.0212
   -70.0202 -70.0198 -70.0196 -70.0189 -70.0189 -70.0176 -70.0174 -70.0171
   -70.0166 -70.0148 -70.0145 -70.0130 -70.0110 -70.0108 -70.0106 -70.0105
   -70.0098 -70.0095 -70.0093 -70.0092 -70.0084 -70.0072 -70.0041 -70.0030
   -70.0023 -70.0018 -70.0007 -69.9963 -69.9927 -69.9920 -69.9849 -69.9786
   -65.1247 -65.1170 -65.1005 -65.0992 -65.0852 -65.0767 -65.0728 -65.0674
   -65.0635 -65.0597 -65.0563 -65.0527 -65.0483 -65.0481 -65.0344 -65.0264
   -32.1175 -32.1114 -32.1091 -32.1086 -32.1045 -32.1016 -32.0926 -32.0921
   -32.0877 -32.0873 -32.0847 -32.0825 -32.0798 -32.0737 -32.0732 -32.0702
   -32.0668 -32.0660 -32.0650 -32.0630 -32.0602 -32.0591 -32.0567 -32.0527
   -32.0523 -32.0513 -32.0501 -32.0493 -32.0478 -32.0456 -32.0447 -32.0436
   -32.0427 -32.0424 -32.0401 -32.0379 -32.0369 -32.0362 -32.0337 -32.0327
   -32.0295 -32.0286 -32.0274 -32.0202 -32.0172 -32.0145 -32.0101 -32.0063
   -10.2872 -10.0156  -9.9088  -9.8647  -9.8396  -9.8088  -9.7820  -9.7542
    -9.7172  -9.6890  -9.6494  -9.6267  -9.6088  -9.5774  -9.5555  -9.5233
    -9.5164  -9.4926  -9.4793  -9.4585  -9.4513  -9.4119  -9.3980  -9.3839
    -9.3670  -9.3406  -9.3223  -9.2936  -9.2633  -9.2145  -9.1915  -9.1809
    -9.1501  -9.1170  -9.1054  -8.9631   1.5027   1.5462   1.5648   1.5731
     1.5953   1.6155   1.6407   1.6529   1.6766   1.6984   1.7229   1.7361
     1.7976   1.8102   1.8317   1.8456   1.8568   1.8680   1.8828   1.8986
     1.9140   1.9374   1.9480   1.9778   1.9926   2.0082   2.0192   2.0267
     2.0412   2.0544   2.0606   2.0737   2.0785   2.1057   2.1163   2.1222
     2.1386   2.1517   2.1583   2.1717   2.1828   2.2005   2.2114   2.2181
     2.2307   2.2395   2.2583   2.2805   2.3025   2.3305   2.3512   2.3846
     2.4006   2.4188   2.4406   2.4575   2.4629   2.4768   2.4904   2.5130
     2.5334   2.5443   2.5690   2.5808   2.6017   2.6062   2.6217   2.6251
     2.6520   2.6718   2.6826   2.6980   2.7116   2.7264   2.7464   2.7605
     2.7879   2.8018   2.8210   2.8332   2.8476   2.8715   2.8760   2.8967
     2.9173   2.9224   2.9416   2.9488   2.9664   2.9725   2.9912   3.0145
     3.0246   3.0291   3.0433   3.0581   3.0622   3.0738   3.1002   3.1206
     3.1381   3.2321   3.3119   3.3830   3.4172   3.4400   3.4592   3.5104
     3.5282   3.5547   3.5713   3.6124   3.6595   3.6764   3.7263   3.7524
     3.7875   3.8306   3.8558   3.8970   3.9478   3.9766   4.0724   4.0930
     4.1113   4.1429   4.1651   4.2065   4.2263   4.2707   4.2910   4.3290
     4.3644   4.3822   4.4191   4.4445   4.4794   4.5462   4.6499   4.6890
     4.7725   4.8214   4.8718   4.8943   4.9848   5.0432   5.1212   5.2227
     5.2568   5.2806   5.2926   5.3174   5.3525   5.3712   5.3897   5.4117
     5.4297   5.4406   5.4786   5.4857   5.5077   5.5791   5.6043   5.6286
     5.6740   5.6888   5.7305   5.7632   5.7952   5.8165   5.8230   5.8560
     5.8982   5.9156   5.9407   5.9801   5.9896   6.0212   6.0517   6.0698
     6.1062   6.1319   6.1436   6.1681   6.2182   6.2386   6.2580   6.2702
     6.2941   6.3325   6.3749   6.3992   6.4138   6.4335   6.4688   6.4801
     6.4923   6.5130   6.5232   6.5718   6.6178   6.6790   6.7186   6.7726
     6.8170   6.9482   7.0367   7.0563

     occupation numbers 
     1.0000   1.0000   1.0000   1.0000   1.0000   1.0000   1.0000   1.0000
     1.0000   1.0000   1.0000   1.0000   1.0000   1.0000   1.0000   1.0000
     1.0000   1.0000   1.0000   1.0000   1.0000   1.0000   1.0000   1.0000
     1.0000   1.0000   1.0000   1.0000   1.0000   1.0000   1.0000   1.0000
     1.0000   1.0000   1.0000   1.0000   1.0000   1.0000   1.0000   1.0000
     1.0000   1.0000   1.0000   1.0000   1.0000   1.0000   1.0000   1.0000
     1.0000   1.0000   1.0000   1.0000   1.0000   1.0000   1.0000   1.0000
     1.0000   1.0000   1.0000   1.0000   1.0000   1.0000   1.0000   1.0000
     1.0000   1.0000   1.0000   1.0000   1.0000   1.0000   1.0000   1.0000
     1.0000   1.0000   1.0000   1.0000   1.0000   1.0000   1.0000   1.0000
     1.0000   1.0000   1.0000   1.0000   1.0000   1.0000   1.0000   1.0000
     1.0000   1.0000   1.0000   1.0000   1.0000   1.0000   1.0000   1.0000
     1.0000   1.0000   1.0000   1.0000   1.0000   1.0000   1.0000   1.0000
     1.0000   1.0000   1.0000   1.0000   1.0000   1.0000   1.0000   1.0000
     1.0000   1.0000   1.0000   1.0000   1.0000   1.0000   1.0000   1.0000
     1.0000   1.0000   1.0000   1.0000   1.0000   1.0000   1.0000   1.0000
     1.0000   1.0000   1.0000   1.0000   1.0000   1.0000   1.0000   1.0000
     1.0000   1.0000   1.0000   1.0000   1.0000   1.0000   1.0000   1.0000
     1.0000   1.0000   1.0000   1.0000   1.0000   1.0000   1.0000   1.0000
     1.0000   1.0000   1.0000   1.0000   1.0000   1.0000   1.0000   1.0000
     1.0000   1.0000   1.0000   1.0000   1.0000   1.0000   1.0000   1.0000
     1.0000   1.0000   1.0000   1.0000   1.0000   1.0000   1.0000   1.0000
     1.0000   1.0000   1.0000   1.0000   1.0000   1.0000   1.0000   1.0000
     1.0000   1.0000   1.0000   1.0000   1.0000   1.0000   1.0000   1.0000
     1.0000   1.0000   1.0000   1.0000   1.0000   1.0000   1.0000   1.0000
     1.0000   1.0000   1.0000   1.0000   1.0000   1.0000   1.0000   1.0000
     1.0000   1.0000   1.0000   1.0000   1.0000   1.0000   1.0000   1.0000
     1.0000   1.0000   1.0000   1.0000   1.0000   1.0000   1.0000   1.0000
     1.0000   1.0000   1.0000   1.0000   1.0000   1.0000   1.0000   1.0000
     1.0000   1.0000   1.0000   1.0000   1.0000   1.0000   1.0000   1.0000
     1.0000   1.0000   1.0000   1.0000   1.0000   1.0000   1.0000   1.0000
     1.0000   1.0000   1.0000   1.0000   1.0000   1.0000   1.0000   1.0000
     1.0000   1.0000   1.0000   1.0000   1.0000   1.0000   1.0000   1.0000
     1.0000   1.0000   1.0000   1.0000   1.0000   1.0000   1.0000   1.0000
     1.0000   1.0000   1.0000   1.0000   1.0000   1.0000   1.0000   1.0000
     1.0000   1.0000   1.0000   1.0000   1.0000   1.0000   1.0000   1.0000
     1.0000   1.0000   1.0000   1.0000   1.0000   1.0000   1.0000   1.0000
     1.0000   1.0000   1.0000   1.0000   1.0000   1.0000   1.0000   1.0000
     1.0000   1.0000   1.0000   1.0000   1.0000   1.0000   1.0000   1.0000
     1.0000   1.0000   1.0000   1.0000   1.0000   1.0000   1.0000   1.0000
     1.0000   1.0000   1.0000   1.0000   1.0000   1.0000   1.0000   1.0000
     1.0000   1.0000   1.0000   1.0000   1.0000   1.0000   1.0000   1.0000
     1.0000   1.0000   1.0000   1.0000   1.0000   1.0000   1.0000   1.0000
     1.0000   1.0000   1.0000   1.0000   1.0000   1.0000   1.0000   1.0000
     1.0000   1.0000   1.0000   1.0000   1.0000   1.0000   1.0000   1.0000
     1.0000   1.0000   1.0000   1.0000   1.0000   1.0000   1.0000   1.0000
     1.0000   1.0000   1.0000   1.0000   1.0000   1.0000   1.0000   1.0000
     1.0000   1.0000   1.0000   1.0000   1.0000   1.0000   1.0000   1.0000
     1.0000   1.0000   1.0000   1.0000

          k =-0.0002-0.0000 0.2711 ( 45072 PWs)   bands (ev):

  -115.6823-115.6765-115.6739-115.6720-115.6715-115.6687-115.6681-115.6676
  -115.6636-115.6635-115.6623-115.6612-115.6599-115.6594-115.6553-115.6537
  -115.6478-115.6456-115.6450-115.6285 -70.0443 -70.0396 -70.0383 -70.0350
   -70.0340 -70.0329 -70.0325 -70.0317 -70.0307 -70.0303 -70.0300 -70.0295
   -70.0282 -70.0274 -70.0274 -70.0265 -70.0257 -70.0253 -70.0250 -70.0250
   -70.0244 -70.0243 -70.0238 -70.0233 -70.0227 -70.0220 -70.0216 -70.0212
   -70.0202 -70.0198 -70.0196 -70.0189 -70.0189 -70.0176 -70.0174 -70.0171
   -70.0166 -70.0148 -70.0145 -70.0130 -70.0110 -70.0108 -70.0106 -70.0105
   -70.0098 -70.0095 -70.0093 -70.0092 -70.0084 -70.0072 -70.0041 -70.0030
   -70.0023 -70.0018 -70.0007 -69.9963 -69.9927 -69.9920 -69.9849 -69.9786
   -65.1247 -65.1170 -65.1005 -65.0992 -65.0852 -65.0767 -65.0728 -65.0674
   -65.0635 -65.0597 -65.0563 -65.0527 -65.0483 -65.0481 -65.0344 -65.0264
   -32.1175 -32.1114 -32.1091 -32.1086 -32.1045 -32.1016 -32.0926 -32.0921
   -32.0877 -32.0873 -32.0847 -32.0825 -32.0798 -32.0737 -32.0733 -32.0702
   -32.0668 -32.0659 -32.0650 -32.0630 -32.0602 -32.0591 -32.0567 -32.0527
   -32.0523 -32.0513 -32.0501 -32.0493 -32.0478 -32.0456 -32.0447 -32.0436
   -32.0427 -32.0424 -32.0401 -32.0379 -32.0369 -32.0362 -32.0337 -32.0327
   -32.0295 -32.0286 -32.0274 -32.0202 -32.0172 -32.0145 -32.0101 -32.0063
   -10.2668 -10.0733  -9.8872  -9.8576  -9.8293  -9.8002  -9.7798  -9.7419
    -9.7134  -9.6940  -9.6657  -9.6504  -9.6214  -9.5743  -9.5548  -9.5211
    -9.5121  -9.4956  -9.4856  -9.4556  -9.4461  -9.3992  -9.3905  -9.3738
    -9.3585  -9.3434  -9.3219  -9.2931  -9.2643  -9.2182  -9.1921  -9.1823
    -9.1531  -9.1199  -9.1085  -8.9643   1.5080   1.5603   1.5706   1.5827
     1.6027   1.6287   1.6518   1.6657   1.6856   1.7072   1.7296   1.7521
     1.8016   1.8157   1.8341   1.8527   1.8622   1.8712   1.8838   1.9043
     1.9177   1.9449   1.9483   1.9743   1.9894   1.9970   2.0091   2.0217
     2.0445   2.0522   2.0643   2.0680   2.0788   2.1005   2.1100   2.1187
     2.1399   2.1515   2.1588   2.1765   2.1850   2.2031   2.2081   2.2133
     2.2304   2.2410   2.2519   2.2765   2.2931   2.3277   2.3431   2.3688
     2.3891   2.3983   2.4262   2.4371   2.4500   2.4629   2.4750   2.4944
     2.5117   2.5265   2.5428   2.5723   2.5771   2.5887   2.6137   2.6238
     2.6358   2.6473   2.6654   2.6860   2.7070   2.7164   2.7343   2.7587
     2.7768   2.7959   2.8160   2.8305   2.8510   2.8671   2.8753   2.8969
     2.9163   2.9230   2.9417   2.9455   2.9712   2.9807   3.0005   3.0127
     3.0274   3.0314   3.0431   3.0540   3.0650   3.0851   3.1040   3.1180
     3.1782   3.2389   3.3271   3.4129   3.4256   3.4579   3.4831   3.5037
     3.5417   3.5690   3.6036   3.6374   3.6610   3.6989   3.7332   3.7666
     3.7989   3.8080   3.8636   3.9081   3.9672   3.9990   4.0462   4.0775
     4.1316   4.1616   4.1820   4.2115   4.2516   4.2845   4.2887   4.3326
     4.3523   4.3977   4.4262   4.4648   4.4938   4.5351   4.6889   4.7601
     4.8280   4.8768   4.8859   4.9389   4.9943   5.0432   5.1423   5.1786
     5.2205   5.2548   5.2853   5.3026   5.3244   5.3480   5.3671   5.3838
     5.4023   5.4269   5.4530   5.4736   5.5009   5.5144   5.5516   5.5941
     5.6176   5.6379   5.6874   5.7019   5.7389   5.7649   5.7972   5.8280
     5.8813   5.9051   5.9340   5.9733   6.0399   6.0590   6.0903   6.1011
     6.1066   6.1525   6.1788   6.1954   6.2183   6.2538   6.2890   6.3015
     6.3176   6.3623   6.3909   6.4130   6.4335   6.4498   6.4747   6.5004
     6.5195   6.5409   6.5570   6.5869   6.5982   6.6427   6.6942   6.7690
     6.8228   6.8464   7.0279   7.0478

     occupation numbers 
     1.0000   1.0000   1.0000   1.0000   1.0000   1.0000   1.0000   1.0000
     1.0000   1.0000   1.0000   1.0000   1.0000   1.0000   1.0000   1.0000
     1.0000   1.0000   1.0000   1.0000   1.0000   1.0000   1.0000   1.0000
     1.0000   1.0000   1.0000   1.0000   1.0000   1.0000   1.0000   1.0000
     1.0000   1.0000   1.0000   1.0000   1.0000   1.0000   1.0000   1.0000
     1.0000   1.0000   1.0000   1.0000   1.0000   1.0000   1.0000   1.0000
     1.0000   1.0000   1.0000   1.0000   1.0000   1.0000   1.0000   1.0000
     1.0000   1.0000   1.0000   1.0000   1.0000   1.0000   1.0000   1.0000
     1.0000   1.0000   1.0000   1.0000   1.0000   1.0000   1.0000   1.0000
     1.0000   1.0000   1.0000   1.0000   1.0000   1.0000   1.0000   1.0000
     1.0000   1.0000   1.0000   1.0000   1.0000   1.0000   1.0000   1.0000
     1.0000   1.0000   1.0000   1.0000   1.0000   1.0000   1.0000   1.0000
     1.0000   1.0000   1.0000   1.0000   1.0000   1.0000   1.0000   1.0000
     1.0000   1.0000   1.0000   1.0000   1.0000   1.0000   1.0000   1.0000
     1.0000   1.0000   1.0000   1.0000   1.0000   1.0000   1.0000   1.0000
     1.0000   1.0000   1.0000   1.0000   1.0000   1.0000   1.0000   1.0000
     1.0000   1.0000   1.0000   1.0000   1.0000   1.0000   1.0000   1.0000
     1.0000   1.0000   1.0000   1.0000   1.0000   1.0000   1.0000   1.0000
     1.0000   1.0000   1.0000   1.0000   1.0000   1.0000   1.0000   1.0000
     1.0000   1.0000   1.0000   1.0000   1.0000   1.0000   1.0000   1.0000
     1.0000   1.0000   1.0000   1.0000   1.0000   1.0000   1.0000   1.0000
     1.0000   1.0000   1.0000   1.0000   1.0000   1.0000   1.0000   1.0000
     1.0000   1.0000   1.0000   1.0000   1.0000   1.0000   1.0000   1.0000
     1.0000   1.0000   1.0000   1.0000   1.0000   1.0000   1.0000   1.0000
     1.0000   1.0000   1.0000   1.0000   1.0000   1.0000   1.0000   1.0000
     1.0000   1.0000   1.0000   1.0000   1.0000   1.0000   1.0000   1.0000
     1.0000   1.0000   1.0000   1.0000   1.0000   1.0000   1.0000   1.0000
     1.0000   1.0000   1.0000   1.0000   1.0000   1.0000   1.0000   1.0000
     1.0000   1.0000   1.0000   1.0000   1.0000   1.0000   1.0000   1.0000
     1.0000   1.0000   1.0000   1.0000   1.0000   1.0000   1.0000   1.0000
     1.0000   1.0000   1.0000   1.0000   1.0000   1.0000   1.0000   1.0000
     1.0000   1.0000   1.0000   1.0000   1.0000   1.0000   1.0000   1.0000
     1.0000   1.0000   1.0000   1.0000   1.0000   1.0000   1.0000   1.0000
     1.0000   1.0000   1.0000   1.0000   1.0000   1.0000   1.0000   1.0000
     1.0000   1.0000   1.0000   1.0000   1.0000   1.0000   1.0000   1.0000
     1.0000   1.0000   1.0000   1.0000   1.0000   1.0000   1.0000   1.0000
     1.0000   1.0000   1.0000   1.0000   1.0000   1.0000   1.0000   1.0000
     1.0000   1.0000   1.0000   1.0000   1.0000   1.0000   1.0000   1.0000
     1.0000   1.0000   1.0000   1.0000   1.0000   1.0000   1.0000   1.0000
     1.0000   1.0000   1.0000   1.0000   1.0000   1.0000   1.0000   1.0000
     1.0000   1.0000   1.0000   1.0000   1.0000   1.0000   1.0000   1.0000
     1.0000   1.0000   1.0000   1.0000   1.0000   1.0000   1.0000   1.0000
     1.0000   1.0000   1.0000   1.0000   1.0000   1.0000   1.0000   1.0000
     1.0000   1.0000   1.0000   1.0000   1.0000   1.0000   1.0000   1.0000
     1.0000   1.0000   1.0000   1.0000   1.0000   1.0000   1.0000   1.0000
     1.0000   1.0000   1.0000   1.0000   1.0000   1.0000   1.0000   1.0000
     1.0000   1.0000   1.0000   1.0000   1.0000   1.0000   1.0000   1.0000
     1.0000   1.0000   1.0000   1.0000   1.0000   1.0000   1.0000   1.0000
     1.0000   1.0000   1.0000   1.0000

          k =-0.0003-0.0000 0.4067 ( 45004 PWs)   bands (ev):

  -115.6823-115.6765-115.6739-115.6720-115.6715-115.6687-115.6681-115.6676
  -115.6636-115.6635-115.6623-115.6612-115.6599-115.6594-115.6553-115.6537
  -115.6478-115.6456-115.6450-115.6285 -70.0443 -70.0396 -70.0383 -70.0350
   -70.0340 -70.0329 -70.0325 -70.0317 -70.0307 -70.0303 -70.0300 -70.0295
   -70.0282 -70.0274 -70.0274 -70.0265 -70.0257 -70.0253 -70.0250 -70.0250
   -70.0244 -70.0243 -70.0238 -70.0233 -70.0227 -70.0220 -70.0216 -70.0212
   -70.0202 -70.0198 -70.0196 -70.0189 -70.0189 -70.0176 -70.0174 -70.0171
   -70.0166 -70.0148 -70.0145 -70.0130 -70.0110 -70.0108 -70.0106 -70.0105
   -70.0098 -70.0095 -70.0093 -70.0092 -70.0084 -70.0072 -70.0041 -70.0030
   -70.0023 -70.0018 -70.0007 -69.9963 -69.9927 -69.9920 -69.9849 -69.9786
   -65.1247 -65.1170 -65.1005 -65.0992 -65.0852 -65.0767 -65.0728 -65.0674
   -65.0635 -65.0597 -65.0563 -65.0527 -65.0483 -65.0481 -65.0344 -65.0264
   -32.1175 -32.1114 -32.1091 -32.1086 -32.1045 -32.1016 -32.0926 -32.0921
   -32.0877 -32.0873 -32.0847 -32.0825 -32.0798 -32.0737 -32.0733 -32.0702
   -32.0668 -32.0659 -32.0650 -32.0630 -32.0602 -32.0591 -32.0567 -32.0528
   -32.0523 -32.0513 -32.0501 -32.0493 -32.0478 -32.0456 -32.0447 -32.0436
   -32.0427 -32.0424 -32.0401 -32.0379 -32.0369 -32.0362 -32.0337 -32.0327
   -32.0295 -32.0286 -32.0274 -32.0202 -32.0172 -32.0145 -32.0101 -32.0063
   -10.2427 -10.1184  -9.8768  -9.8475  -9.8206  -9.7931  -9.7777  -9.7520
    -9.7075  -9.6973  -9.6809  -9.6590  -9.6091  -9.5799  -9.5672  -9.5206
    -9.5146  -9.4930  -9.4878  -9.4548  -9.4398  -9.3926  -9.3751  -9.3653
    -9.3601  -9.3466  -9.3211  -9.2906  -9.2663  -9.2212  -9.1925  -9.1834
    -9.1555  -9.1224  -9.1111  -8.9652   1.5119   1.5684   1.5754   1.5903
     1.6100   1.6454   1.6608   1.6776   1.6884   1.7096   1.7457   1.7663
     1.8039   1.8287   1.8379   1.8579   1.8626   1.8685   1.8901   1.9111
     1.9240   1.9413   1.9502   1.9636   1.9845   1.9929   2.0027   2.0183
     2.0344   2.0508   2.0607   2.0686   2.0741   2.0990   2.1110   2.1163
     2.1433   2.1496   2.1662   2.1774   2.1875   2.2030   2.2055   2.2153
     2.2360   2.2450   2.2570   2.2703   2.2844   2.3105   2.3302   2.3463
     2.3615   2.3948   2.4017   2.4268   2.4353   2.4528   2.4642   2.4751
     2.4921   2.5127   2.5382   2.5581   2.5679   2.5826   2.5960   2.6191
     2.6335   2.6398   2.6522   2.6839   2.7017   2.7074   2.7263   2.7457
     2.7765   2.7946   2.8114   2.8304   2.8494   2.8633   2.8763   2.9002
     2.9176   2.9245   2.9404   2.9458   2.9768   2.9884   3.0034   3.0097
     3.0279   3.0351   3.0447   3.0504   3.0696   3.0885   3.1088   3.1165
     3.2083   3.2570   3.3433   3.4165   3.4419   3.4668   3.4820   3.5129
     3.5608   3.6000   3.6311   3.6584   3.6828   3.7073   3.7320   3.7622
     3.7824   3.8219   3.8525   3.8816   3.9360   3.9782   4.0115   4.0700
     4.1388   4.1582   4.1843   4.2135   4.2473   4.3049   4.3397   4.3717
     4.3849   4.4550   4.4699   4.5193   4.5524   4.6030   4.6996   4.8239
     4.8577   4.8827   4.9306   4.9774   5.0033   5.0322   5.0432   5.0742
     5.1129   5.1652   5.1869   5.2496   5.2707   5.3090   5.3390   5.3858
     5.4156   5.4451   5.4729   5.4902   5.5267   5.5598   5.5935   5.6077
     5.6383   5.6494   5.6655   5.6946   5.7103   5.7318   5.7553   5.7799
     5.8111   5.8425   5.9242   5.9881   6.0472   6.0660   6.0917   6.1149
     6.1375   6.1722   6.1999   6.2183   6.2237   6.2652   6.2904   6.3368
     6.3403   6.3678   6.3932   6.4297   6.4487   6.4731   6.4772   6.5151
     6.5345   6.5516   6.5709   6.5893   6.6039   6.6249   6.6511   6.6818
     6.8407   6.8669   7.0197   7.0399

     occupation numbers 
     1.0000   1.0000   1.0000   1.0000   1.0000   1.0000   1.0000   1.0000
     1.0000   1.0000   1.0000   1.0000   1.0000   1.0000   1.0000   1.0000
     1.0000   1.0000   1.0000   1.0000   1.0000   1.0000   1.0000   1.0000
     1.0000   1.0000   1.0000   1.0000   1.0000   1.0000   1.0000   1.0000
     1.0000   1.0000   1.0000   1.0000   1.0000   1.0000   1.0000   1.0000
     1.0000   1.0000   1.0000   1.0000   1.0000   1.0000   1.0000   1.0000
     1.0000   1.0000   1.0000   1.0000   1.0000   1.0000   1.0000   1.0000
     1.0000   1.0000   1.0000   1.0000   1.0000   1.0000   1.0000   1.0000
     1.0000   1.0000   1.0000   1.0000   1.0000   1.0000   1.0000   1.0000
     1.0000   1.0000   1.0000   1.0000   1.0000   1.0000   1.0000   1.0000
     1.0000   1.0000   1.0000   1.0000   1.0000   1.0000   1.0000   1.0000
     1.0000   1.0000   1.0000   1.0000   1.0000   1.0000   1.0000   1.0000
     1.0000   1.0000   1.0000   1.0000   1.0000   1.0000   1.0000   1.0000
     1.0000   1.0000   1.0000   1.0000   1.0000   1.0000   1.0000   1.0000
     1.0000   1.0000   1.0000   1.0000   1.0000   1.0000   1.0000   1.0000
     1.0000   1.0000   1.0000   1.0000   1.0000   1.0000   1.0000   1.0000
     1.0000   1.0000   1.0000   1.0000   1.0000   1.0000   1.0000   1.0000
     1.0000   1.0000   1.0000   1.0000   1.0000   1.0000   1.0000   1.0000
     1.0000   1.0000   1.0000   1.0000   1.0000   1.0000   1.0000   1.0000
     1.0000   1.0000   1.0000   1.0000   1.0000   1.0000   1.0000   1.0000
     1.0000   1.0000   1.0000   1.0000   1.0000   1.0000   1.0000   1.0000
     1.0000   1.0000   1.0000   1.0000   1.0000   1.0000   1.0000   1.0000
     1.0000   1.0000   1.0000   1.0000   1.0000   1.0000   1.0000   1.0000
     1.0000   1.0000   1.0000   1.0000   1.0000   1.0000   1.0000   1.0000
     1.0000   1.0000   1.0000   1.0000   1.0000   1.0000   1.0000   1.0000
     1.0000   1.0000   1.0000   1.0000   1.0000   1.0000   1.0000   1.0000
     1.0000   1.0000   1.0000   1.0000   1.0000   1.0000   1.0000   1.0000
     1.0000   1.0000   1.0000   1.0000   1.0000   1.0000   1.0000   1.0000
     1.0000   1.0000   1.0000   1.0000   1.0000   1.0000   1.0000   1.0000
     1.0000   1.0000   1.0000   1.0000   1.0000   1.0000   1.0000   1.0000
     1.0000   1.0000   1.0000   1.0000   1.0000   1.0000   1.0000   1.0000
     1.0000   1.0000   1.0000   1.0000   1.0000   1.0000   1.0000   1.0000
     1.0000   1.0000   1.0000   1.0000   1.0000   1.0000   1.0000   1.0000
     1.0000   1.0000   1.0000   1.0000   1.0000   1.0000   1.0000   1.0000
     1.0000   1.0000   1.0000   1.0000   1.0000   1.0000   1.0000   1.0000
     1.0000   1.0000   1.0000   1.0000   1.0000   1.0000   1.0000   1.0000
     1.0000   1.0000   1.0000   1.0000   1.0000   1.0000   1.0000   1.0000
     1.0000   1.0000   1.0000   1.0000   1.0000   1.0000   1.0000   1.0000
     1.0000   1.0000   1.0000   1.0000   1.0000   1.0000   1.0000   1.0000
     1.0000   1.0000   1.0000   1.0000   1.0000   1.0000   1.0000   1.0000
     1.0000   1.0000   1.0000   1.0000   1.0000   1.0000   1.0000   1.0000
     1.0000   1.0000   1.0000   1.0000   1.0000   1.0000   1.0000   1.0000
     1.0000   1.0000   1.0000   1.0000   1.0000   1.0000   1.0000   1.0000
     1.0000   1.0000   1.0000   1.0000   1.0000   1.0000   1.0000   1.0000
     1.0000   1.0000   1.0000   1.0000   1.0000   1.0000   1.0000   1.0000
     1.0000   1.0000   1.0000   1.0000   1.0000   1.0000   1.0000   1.0000
     1.0000   1.0000   1.0000   1.0000   1.0000   1.0000   1.0000   1.0000
     1.0000   1.0000   1.0000   1.0000   1.0000   1.0000   1.0000   1.0000
     1.0000   1.0000   1.0000   1.0000

          k =-0.0004-0.0000 0.5422 ( 45004 PWs)   bands (ev):

  -115.6823-115.6765-115.6739-115.6720-115.6715-115.6687-115.6681-115.6676
  -115.6636-115.6635-115.6623-115.6612-115.6599-115.6594-115.6553-115.6537
  -115.6478-115.6456-115.6450-115.6285 -70.0443 -70.0396 -70.0383 -70.0350
   -70.0340 -70.0329 -70.0325 -70.0317 -70.0307 -70.0303 -70.0300 -70.0295
   -70.0282 -70.0274 -70.0274 -70.0265 -70.0257 -70.0253 -70.0250 -70.0250
   -70.0244 -70.0243 -70.0238 -70.0233 -70.0227 -70.0220 -70.0216 -70.0212
   -70.0202 -70.0198 -70.0196 -70.0189 -70.0189 -70.0176 -70.0174 -70.0171
   -70.0166 -70.0148 -70.0145 -70.0130 -70.0110 -70.0108 -70.0106 -70.0105
   -70.0098 -70.0095 -70.0093 -70.0092 -70.0084 -70.0072 -70.0041 -70.0030
   -70.0023 -70.0018 -70.0007 -69.9963 -69.9927 -69.9920 -69.9849 -69.9786
   -65.1247 -65.1170 -65.1005 -65.0992 -65.0852 -65.0767 -65.0728 -65.0674
   -65.0635 -65.0597 -65.0563 -65.0527 -65.0483 -65.0481 -65.0344 -65.0264
   -32.1175 -32.1114 -32.1091 -32.1086 -32.1045 -32.1016 -32.0926 -32.0921
   -32.0877 -32.0873 -32.0847 -32.0825 -32.0798 -32.0737 -32.0733 -32.0702
   -32.0668 -32.0659 -32.0650 -32.0630 -32.0602 -32.0591 -32.0567 -32.0528
   -32.0523 -32.0513 -32.0501 -32.0493 -32.0478 -32.0456 -32.0447 -32.0436
   -32.0427 -32.0424 -32.0401 -32.0379 -32.0369 -32.0362 -32.0337 -32.0327
   -32.0295 -32.0286 -32.0274 -32.0202 -32.0172 -32.0145 -32.0101 -32.0063
   -10.2427 -10.1184  -9.8768  -9.8475  -9.8206  -9.7931  -9.7777  -9.7520
    -9.7075  -9.6973  -9.6809  -9.6590  -9.6091  -9.5799  -9.5672  -9.5206
    -9.5146  -9.4930  -9.4878  -9.4548  -9.4398  -9.3926  -9.3751  -9.3653
    -9.3601  -9.3466  -9.3211  -9.2906  -9.2663  -9.2212  -9.1925  -9.1834
    -9.1555  -9.1224  -9.1111  -8.9652   1.5119   1.5684   1.5754   1.5903
     1.6100   1.6454   1.6608   1.6776   1.6884   1.7096   1.7457   1.7663
     1.8039   1.8287   1.8379   1.8579   1.8626   1.8685   1.8901   1.9111
     1.9240   1.9413   1.9502   1.9636   1.9845   1.9929   2.0027   2.0183
     2.0344   2.0508   2.0607   2.0686   2.0741   2.0990   2.1110   2.1163
     2.1433   2.1496   2.1662   2.1774   2.1875   2.2030   2.2055   2.2153
     2.2360   2.2450   2.2570   2.2703   2.2844   2.3105   2.3302   2.3463
     2.3615   2.3948   2.4017   2.4268   2.4353   2.4528   2.4642   2.4751
     2.4921   2.5127   2.5382   2.5581   2.5679   2.5826   2.5960   2.6191
     2.6335   2.6398   2.6522   2.6839   2.7017   2.7074   2.7263   2.7457
     2.7765   2.7946   2.8114   2.8304   2.8494   2.8633   2.8763   2.9002
     2.9176   2.9245   2.9404   2.9458   2.9768   2.9884   3.0034   3.0097
     3.0279   3.0351   3.0447   3.0504   3.0696   3.0885   3.1088   3.1165
     3.2083   3.2570   3.3433   3.4165   3.4419   3.4668   3.4820   3.5129
     3.5608   3.6000   3.6311   3.6584   3.6828   3.7073   3.7320   3.7622
     3.7824   3.8219   3.8525   3.8816   3.9360   3.9782   4.0115   4.0700
     4.1388   4.1582   4.1843   4.2135   4.2473   4.3049   4.3397   4.3717
     4.3849   4.4550   4.4699   4.5193   4.5524   4.6030   4.6996   4.8239
     4.8577   4.8827   4.9306   4.9774   5.0033   5.0322   5.0432   5.0742
     5.1129   5.1652   5.1869   5.2496   5.2707   5.3090   5.3390   5.3858
     5.4156   5.4451   5.4729   5.4902   5.5267   5.5598   5.5935   5.6077
     5.6383   5.6494   5.6655   5.6946   5.7103   5.7318   5.7553   5.7799
     5.8111   5.8425   5.9242   5.9881   6.0472   6.0660   6.0917   6.1149
     6.1375   6.1722   6.1999   6.2183   6.2237   6.2652   6.2904   6.3368
     6.3403   6.3678   6.3932   6.4297   6.4487   6.4731   6.4772   6.5151
     6.5345   6.5516   6.5709   6.5893   6.6039   6.6249   6.6511   6.6818
     6.8407   6.8669   7.0197   7.0399

     occupation numbers 
     1.0000   1.0000   1.0000   1.0000   1.0000   1.0000   1.0000   1.0000
     1.0000   1.0000   1.0000   1.0000   1.0000   1.0000   1.0000   1.0000
     1.0000   1.0000   1.0000   1.0000   1.0000   1.0000   1.0000   1.0000
     1.0000   1.0000   1.0000   1.0000   1.0000   1.0000   1.0000   1.0000
     1.0000   1.0000   1.0000   1.0000   1.0000   1.0000   1.0000   1.0000
     1.0000   1.0000   1.0000   1.0000   1.0000   1.0000   1.0000   1.0000
     1.0000   1.0000   1.0000   1.0000   1.0000   1.0000   1.0000   1.0000
     1.0000   1.0000   1.0000   1.0000   1.0000   1.0000   1.0000   1.0000
     1.0000   1.0000   1.0000   1.0000   1.0000   1.0000   1.0000   1.0000
     1.0000   1.0000   1.0000   1.0000   1.0000   1.0000   1.0000   1.0000
     1.0000   1.0000   1.0000   1.0000   1.0000   1.0000   1.0000   1.0000
     1.0000   1.0000   1.0000   1.0000   1.0000   1.0000   1.0000   1.0000
     1.0000   1.0000   1.0000   1.0000   1.0000   1.0000   1.0000   1.0000
     1.0000   1.0000   1.0000   1.0000   1.0000   1.0000   1.0000   1.0000
     1.0000   1.0000   1.0000   1.0000   1.0000   1.0000   1.0000   1.0000
     1.0000   1.0000   1.0000   1.0000   1.0000   1.0000   1.0000   1.0000
     1.0000   1.0000   1.0000   1.0000   1.0000   1.0000   1.0000   1.0000
     1.0000   1.0000   1.0000   1.0000   1.0000   1.0000   1.0000   1.0000
     1.0000   1.0000   1.0000   1.0000   1.0000   1.0000   1.0000   1.0000
     1.0000   1.0000   1.0000   1.0000   1.0000   1.0000   1.0000   1.0000
     1.0000   1.0000   1.0000   1.0000   1.0000   1.0000   1.0000   1.0000
     1.0000   1.0000   1.0000   1.0000   1.0000   1.0000   1.0000   1.0000
     1.0000   1.0000   1.0000   1.0000   1.0000   1.0000   1.0000   1.0000
     1.0000   1.0000   1.0000   1.0000   1.0000   1.0000   1.0000   1.0000
     1.0000   1.0000   1.0000   1.0000   1.0000   1.0000   1.0000   1.0000
     1.0000   1.0000   1.0000   1.0000   1.0000   1.0000   1.0000   1.0000
     1.0000   1.0000   1.0000   1.0000   1.0000   1.0000   1.0000   1.0000
     1.0000   1.0000   1.0000   1.0000   1.0000   1.0000   1.0000   1.0000
     1.0000   1.0000   1.0000   1.0000   1.0000   1.0000   1.0000   1.0000
     1.0000   1.0000   1.0000   1.0000   1.0000   1.0000   1.0000   1.0000
     1.0000   1.0000   1.0000   1.0000   1.0000   1.0000   1.0000   1.0000
     1.0000   1.0000   1.0000   1.0000   1.0000   1.0000   1.0000   1.0000
     1.0000   1.0000   1.0000   1.0000   1.0000   1.0000   1.0000   1.0000
     1.0000   1.0000   1.0000   1.0000   1.0000   1.0000   1.0000   1.0000
     1.0000   1.0000   1.0000   1.0000   1.0000   1.0000   1.0000   1.0000
     1.0000   1.0000   1.0000   1.0000   1.0000   1.0000   1.0000   1.0000
     1.0000   1.0000   1.0000   1.0000   1.0000   1.0000   1.0000   1.0000
     1.0000   1.0000   1.0000   1.0000   1.0000   1.0000   1.0000   1.0000
     1.0000   1.0000   1.0000   1.0000   1.0000   1.0000   1.0000   1.0000
     1.0000   1.0000   1.0000   1.0000   1.0000   1.0000   1.0000   1.0000
     1.0000   1.0000   1.0000   1.0000   1.0000   1.0000   1.0000   1.0000
     1.0000   1.0000   1.0000   1.0000   1.0000   1.0000   1.0000   1.0000
     1.0000   1.0000   1.0000   1.0000   1.0000   1.0000   1.0000   1.0000
     1.0000   1.0000   1.0000   1.0000   1.0000   1.0000   1.0000   1.0000
     1.0000   1.0000   1.0000   1.0000   1.0000   1.0000   1.0000   1.0000
     1.0000   1.0000   1.0000   1.0000   1.0000   1.0000   1.0000   1.0000
     1.0000   1.0000   1.0000   1.0000   1.0000   1.0000   1.0000   1.0000
     1.0000   1.0000   1.0000   1.0000   1.0000   1.0000   1.0000   1.0000
     1.0000   1.0000   1.0000   1.0000

          k =-0.0004-0.0001 0.6778 ( 45072 PWs)   bands (ev):

  -115.6823-115.6765-115.6739-115.6720-115.6715-115.6687-115.6681-115.6676
  -115.6636-115.6635-115.6623-115.6612-115.6599-115.6594-115.6553-115.6537
  -115.6478-115.6456-115.6450-115.6285 -70.0443 -70.0396 -70.0383 -70.0350
   -70.0340 -70.0329 -70.0325 -70.0317 -70.0307 -70.0303 -70.0300 -70.0295
   -70.0282 -70.0274 -70.0274 -70.0265 -70.0257 -70.0253 -70.0250 -70.0250
   -70.0244 -70.0243 -70.0238 -70.0233 -70.0227 -70.0220 -70.0216 -70.0212
   -70.0202 -70.0198 -70.0196 -70.0189 -70.0189 -70.0176 -70.0174 -70.0171
   -70.0166 -70.0148 -70.0145 -70.0130 -70.0110 -70.0108 -70.0106 -70.0105
   -70.0098 -70.0095 -70.0093 -70.0092 -70.0084 -70.0072 -70.0041 -70.0030
   -70.0023 -70.0018 -70.0007 -69.9963 -69.9927 -69.9920 -69.9849 -69.9786
   -65.1247 -65.1170 -65.1005 -65.0992 -65.0852 -65.0767 -65.0728 -65.0674
   -65.0635 -65.0597 -65.0563 -65.0527 -65.0483 -65.0481 -65.0344 -65.0264
   -32.1175 -32.1114 -32.1091 -32.1086 -32.1045 -32.1016 -32.0926 -32.0921
   -32.0877 -32.0873 -32.0847 -32.0825 -32.0798 -32.0737 -32.0733 -32.0702
   -32.0668 -32.0659 -32.0650 -32.0630 -32.0602 -32.0591 -32.0567 -32.0527
   -32.0523 -32.0513 -32.0501 -32.0493 -32.0478 -32.0456 -32.0447 -32.0436
   -32.0427 -32.0424 -32.0401 -32.0379 -32.0369 -32.0362 -32.0337 -32.0327
   -32.0295 -32.0286 -32.0274 -32.0202 -32.0172 -32.0145 -32.0101 -32.0063
   -10.2668 -10.0733  -9.8872  -9.8576  -9.8293  -9.8002  -9.7798  -9.7419
    -9.7134  -9.6940  -9.6657  -9.6504  -9.6214  -9.5743  -9.5548  -9.5211
    -9.5121  -9.4956  -9.4856  -9.4556  -9.4461  -9.3992  -9.3905  -9.3738
    -9.3585  -9.3434  -9.3219  -9.2931  -9.2643  -9.2182  -9.1921  -9.1823
    -9.1531  -9.1199  -9.1085  -8.9643   1.5080   1.5603   1.5706   1.5827
     1.6027   1.6287   1.6518   1.6657   1.6856   1.7072   1.7296   1.7521
     1.8016   1.8157   1.8341   1.8527   1.8622   1.8712   1.8838   1.9043
     1.9177   1.9449   1.9483   1.9743   1.9894   1.9970   2.0091   2.0217
     2.0445   2.0522   2.0643   2.0680   2.0788   2.1005   2.1100   2.1187
     2.1399   2.1515   2.1588   2.1765   2.1850   2.2031   2.2081   2.2133
     2.2304   2.2410   2.2519   2.2765   2.2931   2.3277   2.3431   2.3688
     2.3891   2.3983   2.4262   2.4371   2.4500   2.4629   2.4750   2.4944
     2.5117   2.5265   2.5428   2.5723   2.5771   2.5887   2.6137   2.6238
     2.6358   2.6473   2.6654   2.6860   2.7070   2.7164   2.7343   2.7587
     2.7768   2.7959   2.8160   2.8305   2.8510   2.8671   2.8753   2.8969
     2.9163   2.9230   2.9417   2.9455   2.9712   2.9807   3.0005   3.0127
     3.0274   3.0314   3.0431   3.0540   3.0650   3.0851   3.1040   3.1180
     3.1782   3.2389   3.3271   3.4129   3.4256   3.4579   3.4831   3.5037
     3.5417   3.5690   3.6036   3.6374   3.6610   3.6989   3.7332   3.7666
     3.7989   3.8080   3.8636   3.9081   3.9672   3.9990   4.0462   4.0775
     4.1316   4.1616   4.1820   4.2115   4.2516   4.2845   4.2887   4.3326
     4.3523   4.3977   4.4262   4.4648   4.4938   4.5351   4.6889   4.7601
     4.8280   4.8768   4.8859   4.9389   4.9943   5.0432   5.1423   5.1786
     5.2205   5.2548   5.2853   5.3026   5.3244   5.3480   5.3671   5.3838
     5.4023   5.4269   5.4530   5.4736   5.5009   5.5144   5.5516   5.5941
     5.6176   5.6379   5.6874   5.7019   5.7389   5.7649   5.7972   5.8280
     5.8813   5.9051   5.9340   5.9733   6.0399   6.0590   6.0903   6.1011
     6.1066   6.1525   6.1788   6.1954   6.2183   6.2538   6.2890   6.3015
     6.3176   6.3623   6.3909   6.4130   6.4335   6.4498   6.4747   6.5004
     6.5195   6.5409   6.5570   6.5869   6.5982   6.6427   6.6942   6.7690
     6.8228   6.8464   7.0279   7.0478

     occupation numbers 
     1.0000   1.0000   1.0000   1.0000   1.0000   1.0000   1.0000   1.0000
     1.0000   1.0000   1.0000   1.0000   1.0000   1.0000   1.0000   1.0000
     1.0000   1.0000   1.0000   1.0000   1.0000   1.0000   1.0000   1.0000
     1.0000   1.0000   1.0000   1.0000   1.0000   1.0000   1.0000   1.0000
     1.0000   1.0000   1.0000   1.0000   1.0000   1.0000   1.0000   1.0000
     1.0000   1.0000   1.0000   1.0000   1.0000   1.0000   1.0000   1.0000
     1.0000   1.0000   1.0000   1.0000   1.0000   1.0000   1.0000   1.0000
     1.0000   1.0000   1.0000   1.0000   1.0000   1.0000   1.0000   1.0000
     1.0000   1.0000   1.0000   1.0000   1.0000   1.0000   1.0000   1.0000
     1.0000   1.0000   1.0000   1.0000   1.0000   1.0000   1.0000   1.0000
     1.0000   1.0000   1.0000   1.0000   1.0000   1.0000   1.0000   1.0000
     1.0000   1.0000   1.0000   1.0000   1.0000   1.0000   1.0000   1.0000
     1.0000   1.0000   1.0000   1.0000   1.0000   1.0000   1.0000   1.0000
     1.0000   1.0000   1.0000   1.0000   1.0000   1.0000   1.0000   1.0000
     1.0000   1.0000   1.0000   1.0000   1.0000   1.0000   1.0000   1.0000
     1.0000   1.0000   1.0000   1.0000   1.0000   1.0000   1.0000   1.0000
     1.0000   1.0000   1.0000   1.0000   1.0000   1.0000   1.0000   1.0000
     1.0000   1.0000   1.0000   1.0000   1.0000   1.0000   1.0000   1.0000
     1.0000   1.0000   1.0000   1.0000   1.0000   1.0000   1.0000   1.0000
     1.0000   1.0000   1.0000   1.0000   1.0000   1.0000   1.0000   1.0000
     1.0000   1.0000   1.0000   1.0000   1.0000   1.0000   1.0000   1.0000
     1.0000   1.0000   1.0000   1.0000   1.0000   1.0000   1.0000   1.0000
     1.0000   1.0000   1.0000   1.0000   1.0000   1.0000   1.0000   1.0000
     1.0000   1.0000   1.0000   1.0000   1.0000   1.0000   1.0000   1.0000
     1.0000   1.0000   1.0000   1.0000   1.0000   1.0000   1.0000   1.0000
     1.0000   1.0000   1.0000   1.0000   1.0000   1.0000   1.0000   1.0000
[...]
   -65.1247 -65.1170 -65.1005 -65.0992 -65.0852 -65.0767 -65.0728 -65.0674
   -65.0635 -65.0597 -65.0563 -65.0527 -65.0483 -65.0481 -65.0344 -65.0264
   -32.1175 -32.1114 -32.1091 -32.1086 -32.1045 -32.1016 -32.0926 -32.0922
   -32.0882 -32.0874 -32.0847 -32.0825 -32.0799 -32.0736 -32.0733 -32.0702
   -32.0668 -32.0659 -32.0650 -32.0632 -32.0603 -32.0590 -32.0567 -32.0526
   -32.0516 -32.0511 -32.0501 -32.0494 -32.0478 -32.0459 -32.0447 -32.0437
   -32.0423 -32.0415 -32.0400 -32.0379 -32.0370 -32.0367 -32.0339 -32.0319
   -32.0298 -32.0289 -32.0275 -32.0202 -32.0172 -32.0152 -32.0101 -32.0063
   -10.1747 -10.1368  -9.9535  -9.8807  -9.8572  -9.8016  -9.7832  -9.7289
    -9.6989  -9.6868  -9.6385  -9.6096  -9.5895  -9.5812  -9.5723  -9.5498
    -9.5279  -9.4934  -9.4705  -9.4399  -9.4264  -9.4140  -9.4025  -9.3804
    -9.3731  -9.3312  -9.3258  -9.3093  -9.2400  -9.1996  -9.1989  -9.1830
    -9.1668  -9.1414  -9.0770  -8.9625   1.5337   1.5631   1.6025   1.6234
     1.6336   1.6458   1.6759   1.6984   1.7042   1.7243   1.7366   1.7540
     1.7861   1.7955   1.8061   1.8116   1.8353   1.8557   1.8738   1.9064
     1.9089   1.9213   1.9482   1.9704   1.9802   1.9936   2.0107   2.0277
     2.0403   2.0501   2.0574   2.0689   2.0804   2.0932   2.1034   2.1138
     2.1304   2.1388   2.1489   2.1675   2.1763   2.1857   2.1960   2.2162
     2.2273   2.2504   2.2530   2.2670   2.2824   2.2917   2.3153   2.3187
     2.3389   2.3509   2.3884   2.4289   2.4477   2.4511   2.4812   2.5116
     2.5228   2.5332   2.5380   2.5697   2.5846   2.6020   2.6183   2.6255
     2.6534   2.6616   2.6710   2.7057   2.7210   2.7458   2.7609   2.7723
     2.7750   2.8055   2.8265   2.8312   2.8429   2.8446   2.8664   2.8883
     2.8921   2.9026   2.9281   2.9462   2.9594   2.9838   3.0013   3.0137
     3.0221   3.0318   3.0423   3.0638   3.0806   3.0865   3.0924   3.1252
     3.1450   3.1737   3.2310   3.2712   3.3241   3.3654   3.4078   3.4293
     3.4753   3.5036   3.5108   3.5376   3.6335   3.6644   3.6933   3.7144
     3.7839   3.8531   3.8831   3.9462   4.0002   4.0639   4.1215   4.1351
     4.2447   4.2901   4.3730   4.4370   4.4625   4.4843   4.5264   4.5544
     4.5748   4.6293   4.6392   4.6595   4.6946   4.7058   4.7471   4.7742
     4.8059   4.8394   4.8624   4.8866   4.9599   5.0353   5.0839   5.1094
     5.1133   5.1517   5.1729   5.1999   5.2337   5.2960   5.3576   5.4276
     5.4655   5.5108   5.5562   5.5755   5.5978   5.6075   5.6270   5.6654
     5.7007   5.7379   5.7475   5.7793   5.7919   5.8158   5.8212   5.8541
     5.8741   5.8940   5.9394   5.9523   5.9745   6.0002   6.0039   6.0336
     6.0581   6.0861   6.0928   6.1160   6.1482   6.1551   6.1764   6.2031
     6.2184   6.2592   6.2669   6.2732   6.3077   6.3251   6.3436   6.3631
     6.4079   6.4393   6.4762   6.5092   6.5294   6.5639   6.5854   6.6215
     6.8231   6.8828   6.9045   6.9319

     occupation numbers 
     1.0000   1.0000   1.0000   1.0000   1.0000   1.0000   1.0000   1.0000
     1.0000   1.0000   1.0000   1.0000   1.0000   1.0000   1.0000   1.0000
     1.0000   1.0000   1.0000   1.0000   1.0000   1.0000   1.0000   1.0000
     1.0000   1.0000   1.0000   1.0000   1.0000   1.0000   1.0000   1.0000
     1.0000   1.0000   1.0000   1.0000   1.0000   1.0000   1.0000   1.0000
     1.0000   1.0000   1.0000   1.0000   1.0000   1.0000   1.0000   1.0000
     1.0000   1.0000   1.0000   1.0000   1.0000   1.0000   1.0000   1.0000
     1.0000   1.0000   1.0000   1.0000   1.0000   1.0000   1.0000   1.0000
     1.0000   1.0000   1.0000   1.0000   1.0000   1.0000   1.0000   1.0000
     1.0000   1.0000   1.0000   1.0000   1.0000   1.0000   1.0000   1.0000
     1.0000   1.0000   1.0000   1.0000   1.0000   1.0000   1.0000   1.0000
     1.0000   1.0000   1.0000   1.0000   1.0000   1.0000   1.0000   1.0000
     1.0000   1.0000   1.0000   1.0000   1.0000   1.0000   1.0000   1.0000
     1.0000   1.0000   1.0000   1.0000   1.0000   1.0000   1.0000   1.0000
     1.0000   1.0000   1.0000   1.0000   1.0000   1.0000   1.0000   1.0000
     1.0000   1.0000   1.0000   1.0000   1.0000   1.0000   1.0000   1.0000
     1.0000   1.0000   1.0000   1.0000   1.0000   1.0000   1.0000   1.0000
     1.0000   1.0000   1.0000   1.0000   1.0000   1.0000   1.0000   1.0000
     1.0000   1.0000   1.0000   1.0000   1.0000   1.0000   1.0000   1.0000
     1.0000   1.0000   1.0000   1.0000   1.0000   1.0000   1.0000   1.0000
     1.0000   1.0000   1.0000   1.0000   1.0000   1.0000   1.0000   1.0000
     1.0000   1.0000   1.0000   1.0000   1.0000   1.0000   1.0000   1.0000
     1.0000   1.0000   1.0000   1.0000   1.0000   1.0000   1.0000   1.0000
     1.0000   1.0000   1.0000   1.0000   1.0000   1.0000   1.0000   1.0000
     1.0000   1.0000   1.0000   1.0000   1.0000   1.0000   1.0000   1.0000
     1.0000   1.0000   1.0000   1.0000   1.0000   1.0000   1.0000   1.0000
     1.0000   1.0000   1.0000   1.0000   1.0000   1.0000   1.0000   1.0000
     1.0000   1.0000   1.0000   1.0000   1.0000   1.0000   1.0000   1.0000
     1.0000   1.0000   1.0000   1.0000   1.0000   1.0000   1.0000   1.0000
     1.0000   1.0000   1.0000   1.0000   1.0000   1.0000   1.0000   1.0000
     1.0000   1.0000   1.0000   1.0000   1.0000   1.0000   1.0000   1.0000
     1.0000   1.0000   1.0000   1.0000   1.0000   1.0000   1.0000   1.0000
     1.0000   1.0000   1.0000   1.0000   1.0000   1.0000   1.0000   1.0000
     1.0000   1.0000   1.0000   1.0000   1.0000   1.0000   1.0000   1.0000
     1.0000   1.0000   1.0000   1.0000   1.0000   1.0000   1.0000   1.0000
     1.0000   1.0000   1.0000   1.0000   1.0000   1.0000   1.0000   1.0000
     1.0000   1.0000   1.0000   1.0000   1.0000   1.0000   1.0000   1.0000
     1.0000   1.0000   1.0000   1.0000   1.0000   1.0000   1.0000   1.0000
     1.0000   1.0000   1.0000   1.0000   1.0000   1.0000   1.0000   1.0000
     1.0000   1.0000   1.0000   1.0000   1.0000   1.0000   1.0000   1.0000
     1.0000   1.0000   1.0000   1.0000   1.0000   1.0000   1.0000   1.0000
     1.0000   1.0000   1.0000   1.0000   1.0000   1.0000   1.0000   1.0000
     1.0000   1.0000   1.0000   1.0000   1.0000   1.0000   1.0000   1.0000
     1.0000   1.0000   1.0000   1.0000   1.0000   1.0000   1.0000   1.0000
     1.0000   1.0000   1.0000   1.0000   1.0000   1.0000   1.0000   1.0000
     1.0000   1.0000   1.0000   1.0000   1.0000   1.0000   1.0000   1.0000
     1.0000   1.0000   1.0000   1.0000   1.0000   1.0000   1.0000   1.0000
     1.0000   1.0000   1.0000   1.0000   1.0000   1.0000   1.0000   1.0000
     1.0000   1.0000   1.0000   1.0000

     highest occupied level (ev):     7.0597



               ==================================================
                            POLARIZATION CALCULATION
                         !!! NOT THOROUGHLY TESTED !!!
               --------------------------------------------------


                     K-POINTS STRINGS USED IN CALCULATIONS
                     ~~~~~~~~~~~~~~~~~~~~~~~~~~~~~~~~~~~~~

       G-vector along string (2 pi/a): -0.00062 -0.00007  0.94888
       Modulus of the vector (1/bohr):  0.32324
       Number of k-points per string:   8
       Number of different strings  :  10


                               IONIC POLARIZATION
                               ~~~~~~~~~~~~~~~~~~

        Note: (mod 1) means that the phases (angles ranging from
        -pi to pi) have been mapped to the interval [-1/2,+1/2) by
        dividing by 2*pi; (mod 2) refers to the interval [-1,+1)

  ============================================================================
    Ion    Species    Charge              Position                Phase
  ----------------------------------------------------------------------------
     1        Zn      20.000       0.1647  0.0954  0.2071    -0.07187 (mod 2)
     2        Zn      20.000       0.3321  0.3844  0.2043    -0.12708 (mod 2)
     3        Zn      20.000       0.6692  0.3848  0.2045    -0.12811 (mod 2)
     4        Zn      20.000       0.1679  0.0961  0.7340    -0.07225 (mod 2)
     5        Zn      20.000       0.5012  0.0962  0.7311    -0.13166 (mod 2)
     6        Zn      20.000       0.8319  0.0963  0.7296    -0.16451 (mod 2)
     7        Zn      20.000      -0.0002  0.3868  0.7307    -0.13343 (mod 2)
     8        Zn      20.000       0.6662  0.3852  0.7321    -0.11579 (mod 2)
     9        Zn      20.000       0.1654  0.6740  0.7316    -0.11951 (mod 2)
    10        Zn      20.000       0.5002  0.6717  0.7294    -0.16577 (mod 2)
    11        Zn      20.000       0.3320  0.1939  0.4697     0.90868 (mod 2)
    12        Zn      20.000       0.6672  0.1932  0.4673     0.85882 (mod 2)
    13        Zn      20.000       0.1671  0.4804  0.4682     0.88200 (mod 2)
    14        Zn      20.000       0.4994  0.4798  0.4666     0.84865 (mod 2)
    15        Zn      20.000      -0.0024  0.7689  0.4669     0.85902 (mod 2)
    16        Zn      20.000      -0.0007  0.1924  0.9952     0.88574 (mod 2)
    17        Zn      20.000       0.3340  0.1902  0.9968     0.91209 (mod 2)
    18        Zn      20.000       0.1655  0.4819  0.9964     0.90637 (mod 2)
    19        Zn      20.000      -0.3347  0.7696  0.9949     0.88372 (mod 2)
    20        Zn      20.000       0.0008  0.7716  0.9970     0.91921 (mod 2)
    21        Mg      10.000       0.4982  0.0971  0.2086    -0.02355 (mod 2)
    22        Mg      10.000       0.8355  0.0954  0.2072    -0.03944 (mod 2)
    23        Mg      10.000       0.0020  0.3827  0.2062    -0.04397 (mod 2)
    24        Mg      10.000      -0.1676  0.6757  0.2039    -0.06485 (mod 2)
    25        Mg      10.000       0.1669  0.6743  0.2068    -0.03882 (mod 2)
    26        Mg      10.000       0.4999  0.6755  0.2073    -0.03617 (mod 2)
    27        Mg      10.000       0.3337  0.3852  0.7340     0.96223 (mod 2)
    28        Mg      10.000      -0.1651  0.6752  0.7325     0.95117 (mod 2)
    29        Mg      10.000       0.0023  0.1933  0.4719     0.47760 (mod 2)
    30        Mg      10.000      -0.1668  0.4823  0.4680     0.44096 (mod 2)
    31        Mg      10.000      -0.3316  0.7718  0.4703     0.46397 (mod 2)
    32        Mg      10.000       0.3313  0.7693  0.4701     0.45825 (mod 2)
    33        Mg      10.000       0.6675  0.1920  0.9971    -0.54312 (mod 2)
    34        Mg      10.000      -0.1649  0.4805  0.9945    -0.56257 (mod 2)
    35        Mg      10.000       0.5023  0.4821  0.9983    -0.53099 (mod 2)
    36        Mg      10.000       0.3349  0.7708  0.9933    -0.57730 (mod 2)
    37        O        6.000       0.1654  0.0953  0.0030     0.01632 (mod 2)
    38        O        6.000       0.5004  0.0965  0.0061     0.03276 (mod 2)
    39        O        6.000       0.8326  0.0947  0.0043     0.02152 (mod 2)
    40        O        6.000      -0.0005  0.3844  0.0041     0.02323 (mod 2)
    41        O        6.000       0.3333  0.3848  0.0002    -0.00012 (mod 2)
    42        O        6.000       0.6678  0.3846  0.0010     0.00316 (mod 2)
    43        O        6.000      -0.1673  0.6732  0.0010     0.00576 (mod 2)
    44        O        6.000       0.1677  0.6749  0.0038     0.02097 (mod 2)
    45        O        6.000       0.4983  0.6738  0.0049     0.02600 (mod 2)
    46        O        6.000       0.1671  0.0961  0.5311    -0.97713 (mod 2)
    47        O        6.000       0.5001  0.0959  0.5273    -0.99969 (mod 2)
    48        O        6.000       0.8340  0.0957  0.5268     0.99634 (mod 2)
    49        O        6.000      -0.0008  0.3857  0.5274    -0.99766 (mod 2)
    50        O        6.000       0.3335  0.3856  0.5319    -0.97294 (mod 2)
    51        O        6.000       0.6666  0.3851  0.5290    -0.99115 (mod 2)
    52        O        6.000      -0.1677  0.6733  0.5304    -0.97990 (mod 2)
    53        O        6.000       0.1649  0.6734  0.5281    -0.99403 (mod 2)
    54        O        6.000       0.5000  0.6739  0.5259     0.99179 (mod 2)
    55        O        6.000      -0.0002  0.1925  0.2697    -0.46440 (mod 2)
    56        O        6.000       0.3316  0.1929  0.2668    -0.48262 (mod 2)
    57        O        6.000       0.6673  0.1917  0.2636    -0.50165 (mod 2)
    58        O        6.000      -0.1642  0.4828  0.2650    -0.49086 (mod 2)
    59        O        6.000       0.1667  0.4818  0.2653    -0.49064 (mod 2)
    60        O        6.000       0.5004  0.4810  0.2630    -0.50493 (mod 2)
    61        O        6.000      -0.3331  0.7700  0.2682    -0.47239 (mod 2)
    62        O        6.000      -0.0006  0.7707  0.2640    -0.49748 (mod 2)
    63        O        6.000       0.3329  0.7704  0.2673    -0.47950 (mod 2)
    64        O        6.000      -0.0004  0.1931  0.7911     0.50408 (mod 2)
    65        O        6.000       0.3346  0.1924  0.7935     0.51599 (mod 2)
    66        O        6.000       0.6669  0.1926  0.7945     0.52051 (mod 2)
    67        O        6.000      -0.1666  0.4827  0.7921     0.51026 (mod 2)
    68        O        6.000       0.1667  0.4817  0.7929     0.51362 (mod 2)
    69        O        6.000       0.4998  0.4812  0.7956     0.52752 (mod 2)
    70        O        6.000      -0.3335  0.7697  0.7910     0.50425 (mod 2)
    71        O        6.000       0.0005  0.7715  0.7935     0.51729 (mod 2)
    72        O        6.000       0.3336  0.7701  0.7905     0.49899 (mod 2)
  ----------------------------------------------------------------------------
                                               IONIC PHASE:   0.38098 (mod 2)
  ============================================================================


                            ELECTRONIC POLARIZATION
                            ~~~~~~~~~~~~~~~~~~~~~~~

        Note: (mod 1) means that the phases (angles ranging from
        -pi to pi) have been mapped to the interval [-1/2,+1/2) by
        dividing by 2*pi; (mod 2) refers to the interval [-1,+1)

  ============================================================================
   Spin    String     Weight      First k-point in string         Phase
  ----------------------------------------------------------------------------
    up        1      0.062500      0.0000  0.0000  0.0000    -0.25458 (mod 1)
    up        2      0.125000      0.0002  0.2885 -0.0000    -0.25787 (mod 1)
    up        3      0.062500     -0.0004 -0.5769  0.0000    -0.26030 (mod 1)
    up        4      0.125000      0.2501  0.1444 -0.0002    -0.25779 (mod 1)
    up        5      0.125000      0.2503  0.4328 -0.0002    -0.26027 (mod 1)
    up        6      0.125000      0.2497 -0.4325 -0.0001    -0.26033 (mod 1)
    up        7      0.125000      0.2499 -0.1441 -0.0002    -0.25790 (mod 1)
    up        8      0.062500     -0.5002 -0.2888  0.0004    -0.26021 (mod 1)
    up        9      0.125000     -0.5000 -0.0003  0.0003    -0.26029 (mod 1)
    up       10      0.062500     -0.5006 -0.8657  0.0004    -0.26034 (mod 1)
  ----------------------------------------------------------------------------
   down       1      0.062500      0.0000  0.0000  0.0000    -0.25458 (mod 1)
   down       2      0.125000      0.0002  0.2885 -0.0000    -0.25787 (mod 1)
   down       3      0.062500     -0.0004 -0.5769  0.0000    -0.26030 (mod 1)
   down       4      0.125000      0.2501  0.1444 -0.0002    -0.25779 (mod 1)
   down       5      0.125000      0.2503  0.4328 -0.0002    -0.26027 (mod 1)
   down       6      0.125000      0.2497 -0.4325 -0.0001    -0.26033 (mod 1)
   down       7      0.125000      0.2499 -0.1441 -0.0002    -0.25790 (mod 1)
   down       8      0.062500     -0.5002 -0.2888  0.0004    -0.26021 (mod 1)
   down       9      0.125000     -0.5000 -0.0003  0.0003    -0.26029 (mod 1)
   down      10      0.062500     -0.5006 -0.8657  0.0004    -0.26034 (mod 1)
  ----------------------------------------------------------------------------
                                        Average phase (up):  -0.25902 (mod 1)
                                      Average phase (down):  -0.25902 (mod 1)
                                          ELECTRONIC PHASE:  -0.51804 (mod 2)
  ============================================================================


                               SUMMARY OF PHASES
                               ~~~~~~~~~~~~~~~~~

                          Ionic Phase:  0.38098 (mod 2)
                     Electronic Phase: -0.51804 (mod 2)
                          TOTAL PHASE: -0.13706 (mod 2)


                             VALUES OF POLARIZATION
                             ~~~~~~~~~~~~~~~~~~~~~~

        The calculation of phases done along the direction of vector 3
        of the reciprocal lattice gives the following contribution to
        the polarization vector (in different units, and being Omega
        the volume of the unit cell):

           P =  -2.6642292  (mod  38.8768643)  (e/Omega).bohr

           P =  -0.0004648  (mod   0.0067831)  e/bohr^2

           P =  -0.0265759  (mod   0.3877992)  C/m^2

        The polarization direction is:  ( 0.00066 , 0.00008 , 1.00000 )


               ==================================================



     Writing output data file ZnO.save/
 
     init_run     :      2.43s CPU      6.35s WALL (       1 calls)
     electrons    :   1477.72s CPU   1513.81s WALL (       1 calls)

     Called by init_run:
     wfcinit      :      0.00s CPU      0.01s WALL (       1 calls)
     wfcinit:atom :      0.15s CPU      0.16s WALL (      80 calls)
     wfcinit:wfcr :     69.31s CPU     71.08s WALL (      80 calls)
     potinit      :      0.19s CPU      0.24s WALL (       1 calls)
     hinit0       :      1.43s CPU      5.03s WALL (       1 calls)

     Called by electrons:
     c_bands      :   1037.34s CPU   1070.35s WALL (       1 calls)
     v_of_rho     :      0.15s CPU      0.16s WALL (       1 calls)
     v_h          :      0.01s CPU      0.01s WALL (       1 calls)
     v_xc         :      0.14s CPU      0.15s WALL (       1 calls)
     newd         :      0.08s CPU      0.12s WALL (       1 calls)

     Called by c_bands:
     init_us_2    :      0.65s CPU      0.67s WALL (     220 calls)
     cegterg      :    965.31s CPU    996.45s WALL (      80 calls)

     Called by sum_band:

     Called by *egterg:
     h_psi        :    451.99s CPU    466.14s WALL (    1130 calls)
     s_psi        :     41.26s CPU     41.52s WALL (    1130 calls)
     g_psi        :      0.29s CPU      0.30s WALL (     970 calls)
     cdiaghg      :    274.75s CPU    281.12s WALL (    1050 calls)
     cegterg:over :     72.57s CPU     83.52s WALL (     970 calls)
     cegterg:upda :     91.39s CPU     91.92s WALL (     970 calls)
     cegterg:last :     86.28s CPU     86.81s WALL (     320 calls)
     cdiaghg:chol :     15.60s CPU     15.95s WALL (    1050 calls)
     cdiaghg:inve :     11.87s CPU     11.95s WALL (    1050 calls)
     cdiaghg:para :     41.48s CPU     45.25s WALL (    2100 calls)

     Called by h_psi:
     h_psi:pot    :    451.08s CPU    465.20s WALL (    1130 calls)
     h_psi:calbec :     57.60s CPU     67.91s WALL (    1130 calls)
     vloc_psi     :    351.36s CPU    354.89s WALL (    1130 calls)
     add_vuspsi   :     42.10s CPU     42.39s WALL (    1130 calls)

     General routines
     calbec       :     68.55s CPU     80.28s WALL (    1270 calls)
     fft          :      1.34s CPU      4.79s WALL (      13 calls)
     ffts         :      0.01s CPU      0.01s WALL (       1 calls)
     fftw         :    347.61s CPU    351.13s WALL (  706400 calls)
     interpolate  :      0.01s CPU      0.02s WALL (       1 calls)
 
     Parallel routines
     fft_scatt_xy :      9.90s CPU      9.99s WALL (  706414 calls)
     fft_scatt_yz :    299.95s CPU    306.49s WALL (  706414 calls)
 
     PWSCF        :  25m49.74s CPU  26m48.60s WALL

 
   This run was terminated on:   2:39:34  15Jul2022            

=------------------------------------------------------------------------------=
   JOB DONE.
=------------------------------------------------------------------------------=
