
     Program PWSCF v.6.4.1 starts on  8Jun2022 at 16:39:26 

     This program is part of the open-source Quantum ESPRESSO suite
     for quantum simulation of materials; please cite
         "P. Giannozzi et al., J. Phys.:Condens. Matter 21 395502 (2009);
         "P. Giannozzi et al., J. Phys.:Condens. Matter 29 465901 (2017);
          URL http://www.quantum-espresso.org", 
     in publications or presentations arising from this work. More details at
     http://www.quantum-espresso.org/quote

     Parallel version (MPI), running on    64 processors

     MPI processes distributed on     1 nodes
     K-points division:     npool     =       4
     R & G space division:  proc/nbgrp/npool/nimage =      16
     Waiting for input...
     Reading input from standard input

     Current dimensions of program PWSCF are:
     Max number of different atomic species (ntypx) = 10
     Max number of k-points (npk) =  40000
     Max angular momentum in pseudopotentials (lmaxx) =  3

     Subspace diagonalization in iterative solution of the eigenvalue problem:
     one sub-group per band group will be used
     scalapack distributed-memory algorithm (size of sub-group:  2*  2 procs)

 
     Parallelization info
     --------------------
     sticks:   dense  smooth     PW     G-vecs:    dense   smooth      PW
     Min          95      51     15                 4937     1921     333
     Max          96      52     16                 4944     1926     340
     Sum        1531     823    253                79067    30771    5395
 


     bravais-lattice index     =            0
     lattice parameter (alat)  =       6.1103  a.u.
     unit-cell volume          =     318.8455 (a.u.)^3
     number of atoms/cell      =            4
     number of atomic types    =            3
     number of electrons       =        42.00
     number of Kohn-Sham states=           21
     kinetic-energy cutoff     =      80.0000  Ry
     charge density cutoff     =     600.0000  Ry
     convergence threshold     =      1.0E-06
     mixing beta               =       0.5000
     number of iterations used =            8  plain     mixing
     Exchange-correlation      = SLA  PW   PSX  PSC ( 1  4 10  8 0 0)
     Using LIBXC version       =    4   3   4
     nstep                     =          200


     celldm(1)=   6.110292  celldm(2)=   0.000000  celldm(3)=   0.000000
     celldm(4)=   0.000000  celldm(5)=   0.000000  celldm(6)=   0.000000

     crystal axes: (cart. coord. in units of alat)
               a(1) = (   1.000000  -0.000000  -0.000000 )  
               a(2) = (  -0.500000   0.866025  -0.000000 )  
               a(3) = (  -0.000000  -0.000000   1.613853 )  

     reciprocal axes: (cart. coord. in units 2 pi/alat)
               b(1) = (  1.000000  0.577350  0.000000 )  
               b(2) = (  0.000000  1.154701  0.000000 )  
               b(3) = (  0.000000  0.000000  0.619635 )  


     PseudoPot. # 1 for Mg read from file:
     ./GBRV_PBEsol/mg_pbesol_v1.4.uspp.F.UPF
     MD5 check sum: 4059f37963cf5867752dbf5ab2400678
     Pseudo is Ultrasoft, Zval = 10.0
     Generated by new atomic code, or converted to UPF format
     Using radial grid of  821 points,  7 beta functions with: 
                l(1) =   0
                l(2) =   0
                l(3) =   0
                l(4) =   1
                l(5) =   1
                l(6) =   2
                l(7) =   2
     Q(r) pseudized with  8 coefficients,  rinner =    1.200   1.200   1.200
                                                       1.200   1.200

     PseudoPot. # 2 for Zn read from file:
     ./GBRV_PBEsol/zn_pbesol_v1.uspp.F.UPF
     MD5 check sum: 7d8615e52efe7c1e2b1899de8658bae2
     Pseudo is Ultrasoft, Zval = 20.0
     Generated by new atomic code, or converted to UPF format
     Using radial grid of  943 points,  6 beta functions with: 
                l(1) =   0
                l(2) =   0
                l(3) =   1
                l(4) =   1
                l(5) =   2
                l(6) =   2
     Q(r) pseudized with  8 coefficients,  rinner =    1.100   1.100   1.100
                                                       1.100   1.100

     PseudoPot. # 3 for O  read from file:
     ./GBRV_PBEsol/o_pbesol_v1.2.uspp.F.UPF
     MD5 check sum: 501638753501ef6325af9037351f7734
     Pseudo is Ultrasoft + core correction, Zval =  6.0
     Generated by new atomic code, or converted to UPF format
     Using radial grid of  737 points,  5 beta functions with: 
                l(1) =   0
                l(2) =   0
                l(3) =   1
                l(4) =   1
                l(5) =   2
     Q(r) pseudized with  8 coefficients,  rinner =    0.900   0.900   0.900
                                                       0.900   0.900

     atomic species   valence    mass     pseudopotential
        Mg            10.00    24.30500     Mg( 1.00)
        Zn            20.00    65.38000     Zn( 1.00)
        O              6.00    15.99900     O ( 1.00)

     No symmetry found


                                    s                        frac. trans.

      isym =  1     identity                                     

 cryst.   s( 1) = (     1          0          0      )
                  (     0          1          0      )
                  (     0          0          1      )

 cart.    s( 1) = (  1.0000000  0.0000000 -0.0000000 )
                  ( -0.0000000  1.0000000  0.0000000 )
                  ( -0.0000000 -0.0000000  1.0000000 )


   Cartesian axes

     site n.     atom                  positions (alat units)
         1           O   tau(   1) = (   0.5000001   0.2886754   0.0118550  )
         2           O   tau(   2) = (  -0.0000000   0.5773492   0.8187812  )
         3           Zn  tau(   3) = (   0.4999999   0.2886746   0.6358480  )
         4           Mg  tau(   4) = (  -0.0000003   0.5773508   1.4480752  )

   Crystallographic axes

     site n.     atom                  positions (cryst. coord.)
         1           O   tau(   1) = (  0.6666670  0.3333337  0.0073459  )
         2           O   tau(   2) = (  0.3333329  0.6666657  0.5073458  )
         3           Zn  tau(   3) = (  0.6666664  0.3333329  0.3939939  )
         4           Mg  tau(   4) = (  0.3333336  0.6666677  0.8972785  )

     number of k points=   260
                       cart. coord. in units 2pi/alat
        k(    1) = (   0.0000000   0.0000000   0.0000000), wk =   0.0039062
        k(    2) = (   0.0000000   0.0000000   0.0774544), wk =   0.0078125
        k(    3) = (   0.0000000   0.0000000   0.1549088), wk =   0.0078125
        k(    4) = (   0.0000000   0.0000000   0.2323632), wk =   0.0078125
        k(    5) = (  -0.0000000  -0.0000000  -0.3098176), wk =   0.0039062
        k(    6) = (   0.0000000   0.1443376   0.0000000), wk =   0.0078125
        k(    7) = (   0.0000000   0.1443376   0.0774544), wk =   0.0078125
        k(    8) = (   0.0000000   0.1443376   0.1549088), wk =   0.0078125
        k(    9) = (   0.0000000   0.1443376   0.2323633), wk =   0.0078125
        k(   10) = (  -0.0000000   0.1443375  -0.3098176), wk =   0.0078125
        k(   11) = (  -0.0000000   0.1443376  -0.2323632), wk =   0.0078125
        k(   12) = (  -0.0000000   0.1443376  -0.1549088), wk =   0.0078125
        k(   13) = (  -0.0000000   0.1443376  -0.0774544), wk =   0.0078125
        k(   14) = (   0.0000000   0.2886752   0.0000000), wk =   0.0078125
        k(   15) = (   0.0000000   0.2886752   0.0774545), wk =   0.0078125
        k(   16) = (   0.0000000   0.2886752   0.1549089), wk =   0.0078125
        k(   17) = (   0.0000000   0.2886752   0.2323633), wk =   0.0078125
        k(   18) = (  -0.0000000   0.2886751  -0.3098176), wk =   0.0078125
        k(   19) = (  -0.0000000   0.2886752  -0.2323632), wk =   0.0078125
        k(   20) = (  -0.0000000   0.2886752  -0.1549088), wk =   0.0078125
        k(   21) = (  -0.0000000   0.2886752  -0.0774544), wk =   0.0078125
        k(   22) = (   0.0000000   0.4330128   0.0000001), wk =   0.0078125
        k(   23) = (   0.0000000   0.4330128   0.0774545), wk =   0.0078125
        k(   24) = (   0.0000000   0.4330128   0.1549089), wk =   0.0078125
        k(   25) = (   0.0000000   0.4330128   0.2323633), wk =   0.0078125
        k(   26) = (  -0.0000000   0.4330127  -0.3098176), wk =   0.0078125
        k(   27) = (  -0.0000000   0.4330127  -0.2323632), wk =   0.0078125
        k(   28) = (  -0.0000000   0.4330128  -0.1549088), wk =   0.0078125
        k(   29) = (  -0.0000000   0.4330128  -0.0774543), wk =   0.0078125
        k(   30) = (  -0.0000000  -0.5773504  -0.0000001), wk =   0.0039062
        k(   31) = (  -0.0000000  -0.5773504   0.0774543), wk =   0.0078125
        k(   32) = (   0.0000000  -0.5773503   0.1549087), wk =   0.0078125
        k(   33) = (   0.0000000  -0.5773503   0.2323631), wk =   0.0078125
        k(   34) = (  -0.0000000  -0.5773504  -0.3098177), wk =   0.0039062
        k(   35) = (   0.1250000   0.0721688   0.0000000), wk =   0.0078125
        k(   36) = (   0.1250000   0.0721688   0.0774544), wk =   0.0078125
        k(   37) = (   0.1250000   0.0721688   0.1549088), wk =   0.0078125
        k(   38) = (   0.1250000   0.0721688   0.2323633), wk =   0.0078125
        k(   39) = (   0.1250000   0.0721688  -0.3098176), wk =   0.0078125
        k(   40) = (   0.1250000   0.0721688  -0.2323632), wk =   0.0078125
        k(   41) = (   0.1250000   0.0721688  -0.1549088), wk =   0.0078125
        k(   42) = (   0.1250000   0.0721688  -0.0774544), wk =   0.0078125
        k(   43) = (   0.1250000   0.2165064   0.0000000), wk =   0.0078125
        k(   44) = (   0.1250000   0.2165064   0.0774545), wk =   0.0078125
        k(   45) = (   0.1250000   0.2165064   0.1549089), wk =   0.0078125
        k(   46) = (   0.1250000   0.2165064   0.2323633), wk =   0.0078125
        k(   47) = (   0.1250000   0.2165063  -0.3098176), wk =   0.0078125
        k(   48) = (   0.1250000   0.2165064  -0.2323632), wk =   0.0078125
        k(   49) = (   0.1250000   0.2165064  -0.1549088), wk =   0.0078125
        k(   50) = (   0.1250000   0.2165064  -0.0774544), wk =   0.0078125
        k(   51) = (   0.1250000   0.3608440   0.0000001), wk =   0.0078125
        k(   52) = (   0.1250000   0.3608440   0.0774545), wk =   0.0078125
        k(   53) = (   0.1250000   0.3608440   0.1549089), wk =   0.0078125
        k(   54) = (   0.1250000   0.3608440   0.2323633), wk =   0.0078125
        k(   55) = (   0.1250000   0.3608439  -0.3098176), wk =   0.0078125
        k(   56) = (   0.1250000   0.3608440  -0.2323632), wk =   0.0078125
        k(   57) = (   0.1250000   0.3608440  -0.1549088), wk =   0.0078125
        k(   58) = (   0.1250000   0.3608440  -0.0774543), wk =   0.0078125
        k(   59) = (   0.1250000   0.5051816   0.0000001), wk =   0.0078125
        k(   60) = (   0.1250000   0.5051816   0.0774545), wk =   0.0078125
        k(   61) = (   0.1250000   0.5051816   0.1549089), wk =   0.0078125
        k(   62) = (   0.1250000   0.5051816   0.2323633), wk =   0.0078125
        k(   63) = (   0.1250000   0.5051815  -0.3098176), wk =   0.0078125
        k(   64) = (   0.1250000   0.5051815  -0.2323631), wk =   0.0078125
        k(   65) = (   0.1250000   0.5051816  -0.1549087), wk =   0.0078125
        k(   66) = (   0.1250000   0.5051816  -0.0774543), wk =   0.0078125
        k(   67) = (   0.1250000  -0.5051816  -0.0000001), wk =   0.0078125
        k(   68) = (   0.1250000  -0.5051816   0.0774543), wk =   0.0078125
        k(   69) = (   0.1250000  -0.5051816   0.1549088), wk =   0.0078125
        k(   70) = (   0.1250000  -0.5051815   0.2323632), wk =   0.0078125
        k(   71) = (   0.1250000  -0.5051816  -0.3098177), wk =   0.0078125
        k(   72) = (   0.1250000  -0.5051816  -0.2323633), wk =   0.0078125
        k(   73) = (   0.1250000  -0.5051816  -0.1549089), wk =   0.0078125
        k(   74) = (   0.1250000  -0.5051816  -0.0774545), wk =   0.0078125
        k(   75) = (   0.1250000  -0.3608440  -0.0000000), wk =   0.0078125
        k(   76) = (   0.1250000  -0.3608440   0.0774544), wk =   0.0078125
        k(   77) = (   0.1250000  -0.3608440   0.1549088), wk =   0.0078125
        k(   78) = (   0.1250000  -0.3608439   0.2323632), wk =   0.0078125
        k(   79) = (   0.1250000  -0.3608440  -0.3098177), wk =   0.0078125
        k(   80) = (   0.1250000  -0.3608440  -0.2323633), wk =   0.0078125
        k(   81) = (   0.1250000  -0.3608440  -0.1549089), wk =   0.0078125
        k(   82) = (   0.1250000  -0.3608440  -0.0774545), wk =   0.0078125
        k(   83) = (   0.1250000  -0.2165064  -0.0000000), wk =   0.0078125
        k(   84) = (   0.1250000  -0.2165064   0.0774544), wk =   0.0078125
        k(   85) = (   0.1250000  -0.2165064   0.1549088), wk =   0.0078125
        k(   86) = (   0.1250000  -0.2165064   0.2323632), wk =   0.0078125
        k(   87) = (   0.1250000  -0.2165064  -0.3098177), wk =   0.0078125
        k(   88) = (   0.1250000  -0.2165064  -0.2323633), wk =   0.0078125
        k(   89) = (   0.1250000  -0.2165064  -0.1549088), wk =   0.0078125
        k(   90) = (   0.1250000  -0.2165064  -0.0774544), wk =   0.0078125
        k(   91) = (   0.1250000  -0.0721688   0.0000000), wk =   0.0078125
        k(   92) = (   0.1250000  -0.0721688   0.0774544), wk =   0.0078125
        k(   93) = (   0.1250000  -0.0721688   0.1549088), wk =   0.0078125
        k(   94) = (   0.1250000  -0.0721688   0.2323632), wk =   0.0078125
        k(   95) = (   0.1250000  -0.0721688  -0.3098176), wk =   0.0078125
        k(   96) = (   0.1250000  -0.0721688  -0.2323632), wk =   0.0078125
        k(   97) = (   0.1250000  -0.0721688  -0.1549088), wk =   0.0078125
        k(   98) = (   0.1250000  -0.0721688  -0.0774544), wk =   0.0078125
        k(   99) = (   0.2500000   0.1443376   0.0000000), wk =   0.0078125
        k(  100) = (   0.2500000   0.1443376   0.0774545), wk =   0.0078125
        k(  101) = (   0.2500000   0.1443376   0.1549089), wk =   0.0078125
        k(  102) = (   0.2500000   0.1443376   0.2323633), wk =   0.0078125
        k(  103) = (   0.2500000   0.1443376  -0.3098176), wk =   0.0078125
        k(  104) = (   0.2500000   0.1443376  -0.2323632), wk =   0.0078125
        k(  105) = (   0.2500000   0.1443376  -0.1549088), wk =   0.0078125
        k(  106) = (   0.2500000   0.1443376  -0.0774544), wk =   0.0078125
        k(  107) = (   0.2500000   0.2886752   0.0000001), wk =   0.0078125
        k(  108) = (   0.2500000   0.2886752   0.0774545), wk =   0.0078125
        k(  109) = (   0.2500000   0.2886752   0.1549089), wk =   0.0078125
        k(  110) = (   0.2500000   0.2886752   0.2323633), wk =   0.0078125
        k(  111) = (   0.2500000   0.2886751  -0.3098176), wk =   0.0078125
        k(  112) = (   0.2500000   0.2886752  -0.2323632), wk =   0.0078125
        k(  113) = (   0.2500000   0.2886752  -0.1549088), wk =   0.0078125
        k(  114) = (   0.2500000   0.2886752  -0.0774543), wk =   0.0078125
        k(  115) = (   0.2500000   0.4330128   0.0000001), wk =   0.0078125
        k(  116) = (   0.2500000   0.4330128   0.0774545), wk =   0.0078125
        k(  117) = (   0.2500000   0.4330128   0.1549089), wk =   0.0078125
        k(  118) = (   0.2500000   0.4330128   0.2323633), wk =   0.0078125
        k(  119) = (   0.2500000   0.4330127  -0.3098176), wk =   0.0078125
        k(  120) = (   0.2500000   0.4330127  -0.2323631), wk =   0.0078125
        k(  121) = (   0.2500000   0.4330128  -0.1549087), wk =   0.0078125
        k(  122) = (   0.2500000   0.4330128  -0.0774543), wk =   0.0078125
        k(  123) = (   0.2500000   0.5773504   0.0000001), wk =   0.0078125
        k(  124) = (   0.2500000   0.5773504   0.0774545), wk =   0.0078125
        k(  125) = (   0.2500000   0.5773504   0.1549089), wk =   0.0078125
        k(  126) = (   0.2500000   0.5773504   0.2323633), wk =   0.0078125
        k(  127) = (   0.2500000   0.5773503  -0.3098175), wk =   0.0078125
        k(  128) = (   0.2500000   0.5773503  -0.2323631), wk =   0.0078125
        k(  129) = (   0.2500000   0.5773504  -0.1549087), wk =   0.0078125
        k(  130) = (   0.2500000   0.5773504  -0.0774543), wk =   0.0078125
        k(  131) = (   0.2500000  -0.4330128  -0.0000000), wk =   0.0078125
        k(  132) = (   0.2500000  -0.4330128   0.0774544), wk =   0.0078125
        k(  133) = (   0.2500000  -0.4330128   0.1549088), wk =   0.0078125
        k(  134) = (   0.2500000  -0.4330127   0.2323632), wk =   0.0078125
        k(  135) = (   0.2500000  -0.4330128  -0.3098177), wk =   0.0078125
        k(  136) = (   0.2500000  -0.4330128  -0.2323633), wk =   0.0078125
        k(  137) = (   0.2500000  -0.4330128  -0.1549089), wk =   0.0078125
        k(  138) = (   0.2500000  -0.4330128  -0.0774545), wk =   0.0078125
        k(  139) = (   0.2500000  -0.2886752  -0.0000000), wk =   0.0078125
        k(  140) = (   0.2500000  -0.2886752   0.0774544), wk =   0.0078125
        k(  141) = (   0.2500000  -0.2886752   0.1549088), wk =   0.0078125
        k(  142) = (   0.2500000  -0.2886751   0.2323632), wk =   0.0078125
        k(  143) = (   0.2500000  -0.2886752  -0.3098177), wk =   0.0078125
        k(  144) = (   0.2500000  -0.2886752  -0.2323633), wk =   0.0078125
        k(  145) = (   0.2500000  -0.2886752  -0.1549088), wk =   0.0078125
        k(  146) = (   0.2500000  -0.2886752  -0.0774544), wk =   0.0078125
        k(  147) = (   0.2500000  -0.1443376   0.0000000), wk =   0.0078125
        k(  148) = (   0.2500000  -0.1443376   0.0774544), wk =   0.0078125
        k(  149) = (   0.2500000  -0.1443376   0.1549088), wk =   0.0078125
        k(  150) = (   0.2500000  -0.1443376   0.2323632), wk =   0.0078125
        k(  151) = (   0.2500000  -0.1443376  -0.3098176), wk =   0.0078125
        k(  152) = (   0.2500000  -0.1443376  -0.2323632), wk =   0.0078125
        k(  153) = (   0.2500000  -0.1443376  -0.1549088), wk =   0.0078125
        k(  154) = (   0.2500000  -0.1443376  -0.0774544), wk =   0.0078125
        k(  155) = (   0.2500000   0.0000000   0.0000000), wk =   0.0078125
        k(  156) = (   0.2500000   0.0000000   0.0774544), wk =   0.0078125
        k(  157) = (   0.2500000   0.0000000   0.1549088), wk =   0.0078125
        k(  158) = (   0.2500000   0.0000000   0.2323633), wk =   0.0078125
        k(  159) = (   0.2500000  -0.0000000  -0.3098176), wk =   0.0078125
        k(  160) = (   0.2500000  -0.0000000  -0.2323632), wk =   0.0078125
        k(  161) = (   0.2500000  -0.0000000  -0.1549088), wk =   0.0078125
        k(  162) = (   0.2500000  -0.0000000  -0.0774544), wk =   0.0078125
        k(  163) = (   0.3750000   0.2165064   0.0000001), wk =   0.0078125
        k(  164) = (   0.3750000   0.2165064   0.0774545), wk =   0.0078125
        k(  165) = (   0.3750000   0.2165064   0.1549089), wk =   0.0078125
        k(  166) = (   0.3750000   0.2165064   0.2323633), wk =   0.0078125
        k(  167) = (   0.3750000   0.2165063  -0.3098176), wk =   0.0078125
        k(  168) = (   0.3750000   0.2165064  -0.2323632), wk =   0.0078125
        k(  169) = (   0.3750000   0.2165064  -0.1549088), wk =   0.0078125
        k(  170) = (   0.3750000   0.2165064  -0.0774543), wk =   0.0078125
        k(  171) = (   0.3750000   0.3608440   0.0000001), wk =   0.0078125
        k(  172) = (   0.3750000   0.3608440   0.0774545), wk =   0.0078125
        k(  173) = (   0.3750000   0.3608440   0.1549089), wk =   0.0078125
        k(  174) = (   0.3750000   0.3608440   0.2323633), wk =   0.0078125
        k(  175) = (   0.3750000   0.3608439  -0.3098176), wk =   0.0078125
        k(  176) = (   0.3750000   0.3608440  -0.2323631), wk =   0.0078125
        k(  177) = (   0.3750000   0.3608440  -0.1549087), wk =   0.0078125
        k(  178) = (   0.3750000   0.3608440  -0.0774543), wk =   0.0078125
        k(  179) = (   0.3750000   0.5051816   0.0000001), wk =   0.0078125
        k(  180) = (   0.3750000   0.5051816   0.0774545), wk =   0.0078125
        k(  181) = (   0.3750000   0.5051816   0.1549089), wk =   0.0078125
        k(  182) = (   0.3750000   0.5051816   0.2323633), wk =   0.0078125
        k(  183) = (   0.3750000   0.5051815  -0.3098175), wk =   0.0078125
        k(  184) = (   0.3750000   0.5051815  -0.2323631), wk =   0.0078125
        k(  185) = (   0.3750000   0.5051816  -0.1549087), wk =   0.0078125
        k(  186) = (   0.3750000   0.5051816  -0.0774543), wk =   0.0078125
        k(  187) = (   0.3750000   0.6495192   0.0000001), wk =   0.0078125
        k(  188) = (   0.3750000   0.6495192   0.0774545), wk =   0.0078125
        k(  189) = (   0.3750000   0.6495192   0.1549090), wk =   0.0078125
        k(  190) = (   0.3750000   0.6495192   0.2323634), wk =   0.0078125
        k(  191) = (   0.3750000   0.6495191  -0.3098175), wk =   0.0078125
        k(  192) = (   0.3750000   0.6495191  -0.2323631), wk =   0.0078125
        k(  193) = (   0.3750000   0.6495192  -0.1549087), wk =   0.0078125
        k(  194) = (   0.3750000   0.6495192  -0.0774543), wk =   0.0078125
        k(  195) = (   0.3750000  -0.3608440  -0.0000000), wk =   0.0078125
        k(  196) = (   0.3750000  -0.3608440   0.0774544), wk =   0.0078125
        k(  197) = (   0.3750000  -0.3608440   0.1549088), wk =   0.0078125
        k(  198) = (   0.3750000  -0.3608439   0.2323632), wk =   0.0078125
        k(  199) = (   0.3750000  -0.3608440  -0.3098177), wk =   0.0078125
        k(  200) = (   0.3750000  -0.3608440  -0.2323632), wk =   0.0078125
        k(  201) = (   0.3750000  -0.3608440  -0.1549088), wk =   0.0078125
        k(  202) = (   0.3750000  -0.3608440  -0.0774544), wk =   0.0078125
        k(  203) = (   0.3750000  -0.2165064   0.0000000), wk =   0.0078125
        k(  204) = (   0.3750000  -0.2165064   0.0774544), wk =   0.0078125
        k(  205) = (   0.3750000  -0.2165064   0.1549088), wk =   0.0078125
        k(  206) = (   0.3750000  -0.2165063   0.2323632), wk =   0.0078125
        k(  207) = (   0.3750000  -0.2165064  -0.3098176), wk =   0.0078125
        k(  208) = (   0.3750000  -0.2165064  -0.2323632), wk =   0.0078125
        k(  209) = (   0.3750000  -0.2165064  -0.1549088), wk =   0.0078125
        k(  210) = (   0.3750000  -0.2165064  -0.0774544), wk =   0.0078125
        k(  211) = (   0.3750000  -0.0721688   0.0000000), wk =   0.0078125
        k(  212) = (   0.3750000  -0.0721688   0.0774544), wk =   0.0078125
        k(  213) = (   0.3750000  -0.0721688   0.1549088), wk =   0.0078125
        k(  214) = (   0.3750000  -0.0721688   0.2323633), wk =   0.0078125
        k(  215) = (   0.3750000  -0.0721688  -0.3098176), wk =   0.0078125
        k(  216) = (   0.3750000  -0.0721688  -0.2323632), wk =   0.0078125
        k(  217) = (   0.3750000  -0.0721688  -0.1549088), wk =   0.0078125
        k(  218) = (   0.3750000  -0.0721688  -0.0774544), wk =   0.0078125
        k(  219) = (   0.3750000   0.0721688   0.0000000), wk =   0.0078125
        k(  220) = (   0.3750000   0.0721688   0.0774545), wk =   0.0078125
        k(  221) = (   0.3750000   0.0721688   0.1549089), wk =   0.0078125
        k(  222) = (   0.3750000   0.0721688   0.2323633), wk =   0.0078125
        k(  223) = (   0.3750000   0.0721688  -0.3098176), wk =   0.0078125
        k(  224) = (   0.3750000   0.0721688  -0.2323632), wk =   0.0078125
        k(  225) = (   0.3750000   0.0721688  -0.1549088), wk =   0.0078125
        k(  226) = (   0.3750000   0.0721688  -0.0774544), wk =   0.0078125
        k(  227) = (  -0.5000000  -0.2886752  -0.0000001), wk =   0.0039062
        k(  228) = (  -0.5000000  -0.2886752   0.0774543), wk =   0.0078125
        k(  229) = (  -0.5000000  -0.2886752   0.1549087), wk =   0.0078125
        k(  230) = (  -0.5000000  -0.2886752   0.2323631), wk =   0.0078125
        k(  231) = (  -0.5000000  -0.2886752  -0.3098177), wk =   0.0039062
        k(  232) = (  -0.5000000  -0.1443376  -0.0000001), wk =   0.0078125
        k(  233) = (  -0.5000000  -0.1443376   0.0774543), wk =   0.0078125
        k(  234) = (  -0.5000000  -0.1443376   0.1549088), wk =   0.0078125
        k(  235) = (  -0.5000000  -0.1443376   0.2323632), wk =   0.0078125
        k(  236) = (  -0.5000000  -0.1443376  -0.3098177), wk =   0.0078125
        k(  237) = (  -0.5000000  -0.1443376  -0.2323633), wk =   0.0078125
        k(  238) = (  -0.5000000  -0.1443376  -0.1549089), wk =   0.0078125
        k(  239) = (  -0.5000000  -0.1443376  -0.0774545), wk =   0.0078125
        k(  240) = (  -0.5000000  -0.0000000  -0.0000000), wk =   0.0078125
        k(  241) = (  -0.5000000   0.0000000   0.0774544), wk =   0.0078125
        k(  242) = (  -0.5000000   0.0000000   0.1549088), wk =   0.0078125
        k(  243) = (  -0.5000000   0.0000000   0.2323632), wk =   0.0078125
        k(  244) = (  -0.5000000  -0.0000001  -0.3098177), wk =   0.0078125
        k(  245) = (  -0.5000000  -0.0000000  -0.2323633), wk =   0.0078125
        k(  246) = (  -0.5000000  -0.0000000  -0.1549089), wk =   0.0078125
        k(  247) = (  -0.5000000  -0.0000000  -0.0774545), wk =   0.0078125
        k(  248) = (  -0.5000000   0.1443376  -0.0000000), wk =   0.0078125
        k(  249) = (  -0.5000000   0.1443376   0.0774544), wk =   0.0078125
        k(  250) = (  -0.5000000   0.1443376   0.1549088), wk =   0.0078125
        k(  251) = (  -0.5000000   0.1443376   0.2323632), wk =   0.0078125
        k(  252) = (  -0.5000000   0.1443375  -0.3098177), wk =   0.0078125
        k(  253) = (  -0.5000000   0.1443375  -0.2323633), wk =   0.0078125
        k(  254) = (  -0.5000000   0.1443376  -0.1549089), wk =   0.0078125
        k(  255) = (  -0.5000000   0.1443376  -0.0774544), wk =   0.0078125
        k(  256) = (  -0.5000000  -0.8660256  -0.0000002), wk =   0.0039062
        k(  257) = (  -0.5000000  -0.8660256   0.0774542), wk =   0.0078125
        k(  258) = (  -0.5000000  -0.8660255   0.1549086), wk =   0.0078125
        k(  259) = (  -0.5000000  -0.8660255   0.2323631), wk =   0.0078125
        k(  260) = (  -0.5000000  -0.8660256  -0.3098178), wk =   0.0039062

                       cryst. coord.
        k(    1) = (   0.0000000   0.0000000   0.0000000), wk =   0.0039062
        k(    2) = (  -0.0000000  -0.0000000   0.1250000), wk =   0.0078125
        k(    3) = (  -0.0000000  -0.0000000   0.2500000), wk =   0.0078125
        k(    4) = (  -0.0000000  -0.0000000   0.3750000), wk =   0.0078125
        k(    5) = (   0.0000000   0.0000000  -0.5000000), wk =   0.0039062
        k(    6) = (  -0.0000000   0.1250000   0.0000000), wk =   0.0078125
        k(    7) = (   0.0000000   0.1250000   0.1250000), wk =   0.0078125
        k(    8) = (   0.0000000   0.1250000   0.2500000), wk =   0.0078125
        k(    9) = (   0.0000000   0.1250000   0.3750000), wk =   0.0078125
        k(   10) = (  -0.0000000   0.1250000  -0.5000000), wk =   0.0078125
        k(   11) = (  -0.0000000   0.1250000  -0.3750000), wk =   0.0078125
        k(   12) = (   0.0000000   0.1250000  -0.2500000), wk =   0.0078125
        k(   13) = (  -0.0000000   0.1250000  -0.1250000), wk =   0.0078125
        k(   14) = (  -0.0000000   0.2500000   0.0000000), wk =   0.0078125
        k(   15) = (   0.0000000   0.2500000   0.1250000), wk =   0.0078125
        k(   16) = (   0.0000000   0.2500000   0.2500000), wk =   0.0078125
        k(   17) = (   0.0000000   0.2500000   0.3750000), wk =   0.0078125
        k(   18) = (   0.0000000   0.2500000  -0.5000000), wk =   0.0078125
        k(   19) = (  -0.0000000   0.2500000  -0.3750000), wk =   0.0078125
        k(   20) = (  -0.0000000   0.2500000  -0.2500000), wk =   0.0078125
        k(   21) = (  -0.0000000   0.2500000  -0.1250000), wk =   0.0078125
        k(   22) = (   0.0000000   0.3750000  -0.0000000), wk =   0.0078125
        k(   23) = (  -0.0000000   0.3750000   0.1250000), wk =   0.0078125
        k(   24) = (   0.0000000   0.3750000   0.2500000), wk =   0.0078125
        k(   25) = (   0.0000000   0.3750000   0.3750000), wk =   0.0078125
        k(   26) = (  -0.0000000   0.3750000  -0.5000000), wk =   0.0078125
        k(   27) = (   0.0000000   0.3750000  -0.3750000), wk =   0.0078125
        k(   28) = (   0.0000000   0.3750000  -0.2500000), wk =   0.0078125
        k(   29) = (   0.0000000   0.3750000  -0.1250000), wk =   0.0078125
        k(   30) = (   0.0000000  -0.5000000  -0.0000000), wk =   0.0039062
        k(   31) = (  -0.0000000  -0.5000000   0.1250000), wk =   0.0078125
        k(   32) = (   0.0000000  -0.5000000   0.2500000), wk =   0.0078125
        k(   33) = (  -0.0000000  -0.5000000   0.3750000), wk =   0.0078125
        k(   34) = (  -0.0000000  -0.5000000  -0.5000000), wk =   0.0039062
        k(   35) = (   0.1250000  -0.0000000  -0.0000000), wk =   0.0078125
        k(   36) = (   0.1250000  -0.0000000   0.1250000), wk =   0.0078125
        k(   37) = (   0.1250000   0.0000000   0.2500000), wk =   0.0078125
        k(   38) = (   0.1250000  -0.0000000   0.3750000), wk =   0.0078125
        k(   39) = (   0.1250000  -0.0000000  -0.5000000), wk =   0.0078125
        k(   40) = (   0.1250000   0.0000000  -0.3750000), wk =   0.0078125
        k(   41) = (   0.1250000  -0.0000000  -0.2500000), wk =   0.0078125
        k(   42) = (   0.1250000  -0.0000000  -0.1250000), wk =   0.0078125
        k(   43) = (   0.1250000   0.1250000  -0.0000000), wk =   0.0078125
        k(   44) = (   0.1250000   0.1250000   0.1250000), wk =   0.0078125
        k(   45) = (   0.1250000   0.1250000   0.2500000), wk =   0.0078125
        k(   46) = (   0.1250000   0.1250000   0.3750000), wk =   0.0078125
        k(   47) = (   0.1250000   0.1250000  -0.5000000), wk =   0.0078125
        k(   48) = (   0.1250000   0.1250000  -0.3750000), wk =   0.0078125
        k(   49) = (   0.1250000   0.1250000  -0.2500000), wk =   0.0078125
        k(   50) = (   0.1250000   0.1250000  -0.1250000), wk =   0.0078125
        k(   51) = (   0.1250000   0.2500000   0.0000000), wk =   0.0078125
        k(   52) = (   0.1250000   0.2500000   0.1250000), wk =   0.0078125
        k(   53) = (   0.1250000   0.2500000   0.2500000), wk =   0.0078125
        k(   54) = (   0.1250000   0.2500000   0.3750000), wk =   0.0078125
        k(   55) = (   0.1250000   0.2500000  -0.5000000), wk =   0.0078125
        k(   56) = (   0.1250000   0.2500000  -0.3750000), wk =   0.0078125
        k(   57) = (   0.1250000   0.2500000  -0.2500000), wk =   0.0078125
        k(   58) = (   0.1250000   0.2500000  -0.1250000), wk =   0.0078125
        k(   59) = (   0.1250000   0.3750000  -0.0000000), wk =   0.0078125
        k(   60) = (   0.1250000   0.3750000   0.1250000), wk =   0.0078125
        k(   61) = (   0.1250000   0.3750000   0.2500000), wk =   0.0078125
        k(   62) = (   0.1250000   0.3750000   0.3750000), wk =   0.0078125
        k(   63) = (   0.1250000   0.3750000  -0.5000000), wk =   0.0078125
        k(   64) = (   0.1250000   0.3750000  -0.3750000), wk =   0.0078125
        k(   65) = (   0.1250000   0.3750000  -0.2500000), wk =   0.0078125
        k(   66) = (   0.1250000   0.3750000  -0.1250000), wk =   0.0078125
        k(   67) = (   0.1250000  -0.5000000  -0.0000000), wk =   0.0078125
        k(   68) = (   0.1250000  -0.5000000   0.1250000), wk =   0.0078125
        k(   69) = (   0.1250000  -0.5000000   0.2500000), wk =   0.0078125
        k(   70) = (   0.1250000  -0.5000000   0.3750000), wk =   0.0078125
        k(   71) = (   0.1250000  -0.5000000  -0.5000000), wk =   0.0078125
        k(   72) = (   0.1250000  -0.5000000  -0.3750000), wk =   0.0078125
        k(   73) = (   0.1250000  -0.5000000  -0.2500000), wk =   0.0078125
        k(   74) = (   0.1250000  -0.5000000  -0.1250000), wk =   0.0078125
        k(   75) = (   0.1250000  -0.3750000   0.0000000), wk =   0.0078125
        k(   76) = (   0.1250000  -0.3750000   0.1250000), wk =   0.0078125
        k(   77) = (   0.1250000  -0.3750000   0.2500000), wk =   0.0078125
        k(   78) = (   0.1250000  -0.3750000   0.3750000), wk =   0.0078125
        k(   79) = (   0.1250000  -0.3750000  -0.5000000), wk =   0.0078125
        k(   80) = (   0.1250000  -0.3750000  -0.3750000), wk =   0.0078125
        k(   81) = (   0.1250000  -0.3750000  -0.2500000), wk =   0.0078125
        k(   82) = (   0.1250000  -0.3750000  -0.1250000), wk =   0.0078125
        k(   83) = (   0.1250000  -0.2500000  -0.0000000), wk =   0.0078125
        k(   84) = (   0.1250000  -0.2500000   0.1250000), wk =   0.0078125
        k(   85) = (   0.1250000  -0.2500000   0.2500000), wk =   0.0078125
        k(   86) = (   0.1250000  -0.2500000   0.3750000), wk =   0.0078125
        k(   87) = (   0.1250000  -0.2500000  -0.5000000), wk =   0.0078125
        k(   88) = (   0.1250000  -0.2500000  -0.3750000), wk =   0.0078125
        k(   89) = (   0.1250000  -0.2500000  -0.2500000), wk =   0.0078125
        k(   90) = (   0.1250000  -0.2500000  -0.1250000), wk =   0.0078125
        k(   91) = (   0.1250000  -0.1250000  -0.0000000), wk =   0.0078125
        k(   92) = (   0.1250000  -0.1250000   0.1250000), wk =   0.0078125
        k(   93) = (   0.1250000  -0.1250000   0.2500000), wk =   0.0078125
        k(   94) = (   0.1250000  -0.1250000   0.3750000), wk =   0.0078125
        k(   95) = (   0.1250000  -0.1250000  -0.5000000), wk =   0.0078125
        k(   96) = (   0.1250000  -0.1250000  -0.3750000), wk =   0.0078125
        k(   97) = (   0.1250000  -0.1250000  -0.2500000), wk =   0.0078125
        k(   98) = (   0.1250000  -0.1250000  -0.1250000), wk =   0.0078125
        k(   99) = (   0.2500000  -0.0000000  -0.0000000), wk =   0.0078125
        k(  100) = (   0.2500000  -0.0000000   0.1250000), wk =   0.0078125
        k(  101) = (   0.2500000  -0.0000000   0.2500000), wk =   0.0078125
        k(  102) = (   0.2500000   0.0000000   0.3750000), wk =   0.0078125
        k(  103) = (   0.2500000  -0.0000000  -0.5000000), wk =   0.0078125
        k(  104) = (   0.2500000  -0.0000000  -0.3750000), wk =   0.0078125
        k(  105) = (   0.2500000  -0.0000000  -0.2500000), wk =   0.0078125
        k(  106) = (   0.2500000   0.0000000  -0.1250000), wk =   0.0078125
        k(  107) = (   0.2500000   0.1250000  -0.0000000), wk =   0.0078125
        k(  108) = (   0.2500000   0.1250000   0.1250000), wk =   0.0078125
        k(  109) = (   0.2500000   0.1250000   0.2500000), wk =   0.0078125
        k(  110) = (   0.2500000   0.1250000   0.3750000), wk =   0.0078125
        k(  111) = (   0.2500000   0.1250000  -0.5000000), wk =   0.0078125
        k(  112) = (   0.2500000   0.1250000  -0.3750000), wk =   0.0078125
        k(  113) = (   0.2500000   0.1250000  -0.2500000), wk =   0.0078125
        k(  114) = (   0.2500000   0.1250000  -0.1250000), wk =   0.0078125
        k(  115) = (   0.2500000   0.2500000  -0.0000000), wk =   0.0078125
        k(  116) = (   0.2500000   0.2500000   0.1250000), wk =   0.0078125
        k(  117) = (   0.2500000   0.2500000   0.2500000), wk =   0.0078125
        k(  118) = (   0.2500000   0.2500000   0.3750000), wk =   0.0078125
        k(  119) = (   0.2500000   0.2500000  -0.5000000), wk =   0.0078125
        k(  120) = (   0.2500000   0.2500000  -0.3750000), wk =   0.0078125
        k(  121) = (   0.2500000   0.2500000  -0.2500000), wk =   0.0078125
        k(  122) = (   0.2500000   0.2500000  -0.1250000), wk =   0.0078125
        k(  123) = (   0.2500000   0.3750000  -0.0000000), wk =   0.0078125
        k(  124) = (   0.2500000   0.3750000   0.1250000), wk =   0.0078125
        k(  125) = (   0.2500000   0.3750000   0.2500000), wk =   0.0078125
        k(  126) = (   0.2500000   0.3750000   0.3750000), wk =   0.0078125
        k(  127) = (   0.2500000   0.3750000  -0.5000000), wk =   0.0078125
        k(  128) = (   0.2500000   0.3750000  -0.3750000), wk =   0.0078125
        k(  129) = (   0.2500000   0.3750000  -0.2500000), wk =   0.0078125
        k(  130) = (   0.2500000   0.3750000  -0.1250000), wk =   0.0078125
        k(  131) = (   0.2500000  -0.5000000  -0.0000000), wk =   0.0078125
        k(  132) = (   0.2500000  -0.5000000   0.1250000), wk =   0.0078125
        k(  133) = (   0.2500000  -0.5000000   0.2500000), wk =   0.0078125
        k(  134) = (   0.2500000  -0.5000000   0.3750000), wk =   0.0078125
        k(  135) = (   0.2500000  -0.5000000  -0.5000000), wk =   0.0078125
        k(  136) = (   0.2500000  -0.5000000  -0.3750000), wk =   0.0078125
        k(  137) = (   0.2500000  -0.5000000  -0.2500000), wk =   0.0078125
        k(  138) = (   0.2500000  -0.5000000  -0.1250000), wk =   0.0078125
        k(  139) = (   0.2500000  -0.3750000  -0.0000000), wk =   0.0078125
        k(  140) = (   0.2500000  -0.3750000   0.1250000), wk =   0.0078125
        k(  141) = (   0.2500000  -0.3750000   0.2500000), wk =   0.0078125
        k(  142) = (   0.2500000  -0.3750000   0.3750000), wk =   0.0078125
        k(  143) = (   0.2500000  -0.3750000  -0.5000000), wk =   0.0078125
        k(  144) = (   0.2500000  -0.3750000  -0.3750000), wk =   0.0078125
        k(  145) = (   0.2500000  -0.3750000  -0.2500000), wk =   0.0078125
        k(  146) = (   0.2500000  -0.3750000  -0.1250000), wk =   0.0078125
        k(  147) = (   0.2500000  -0.2500000  -0.0000000), wk =   0.0078125
        k(  148) = (   0.2500000  -0.2500000   0.1250000), wk =   0.0078125
        k(  149) = (   0.2500000  -0.2500000   0.2500000), wk =   0.0078125
        k(  150) = (   0.2500000  -0.2500000   0.3750000), wk =   0.0078125
        k(  151) = (   0.2500000  -0.2500000  -0.5000000), wk =   0.0078125
        k(  152) = (   0.2500000  -0.2500000  -0.3750000), wk =   0.0078125
        k(  153) = (   0.2500000  -0.2500000  -0.2500000), wk =   0.0078125
        k(  154) = (   0.2500000  -0.2500000  -0.1250000), wk =   0.0078125
        k(  155) = (   0.2500000  -0.1250000  -0.0000000), wk =   0.0078125
        k(  156) = (   0.2500000  -0.1250000   0.1250000), wk =   0.0078125
        k(  157) = (   0.2500000  -0.1250000   0.2500000), wk =   0.0078125
        k(  158) = (   0.2500000  -0.1250000   0.3750000), wk =   0.0078125
        k(  159) = (   0.2500000  -0.1250000  -0.5000000), wk =   0.0078125
        k(  160) = (   0.2500000  -0.1250000  -0.3750000), wk =   0.0078125
        k(  161) = (   0.2500000  -0.1250000  -0.2500000), wk =   0.0078125
        k(  162) = (   0.2500000  -0.1250000  -0.1250000), wk =   0.0078125
        k(  163) = (   0.3750000  -0.0000000  -0.0000000), wk =   0.0078125
        k(  164) = (   0.3750000  -0.0000000   0.1250000), wk =   0.0078125
        k(  165) = (   0.3750000  -0.0000000   0.2500000), wk =   0.0078125
        k(  166) = (   0.3750000   0.0000000   0.3750000), wk =   0.0078125
        k(  167) = (   0.3750000   0.0000000  -0.5000000), wk =   0.0078125
        k(  168) = (   0.3750000   0.0000000  -0.3750000), wk =   0.0078125
        k(  169) = (   0.3750000   0.0000000  -0.2500000), wk =   0.0078125
        k(  170) = (   0.3750000  -0.0000000  -0.1250000), wk =   0.0078125
        k(  171) = (   0.3750000   0.1250000  -0.0000000), wk =   0.0078125
        k(  172) = (   0.3750000   0.1250000   0.1250000), wk =   0.0078125
        k(  173) = (   0.3750000   0.1250000   0.2500000), wk =   0.0078125
        k(  174) = (   0.3750000   0.1250000   0.3750000), wk =   0.0078125
        k(  175) = (   0.3750000   0.1250000  -0.5000000), wk =   0.0078125
        k(  176) = (   0.3750000   0.1250000  -0.3750000), wk =   0.0078125
        k(  177) = (   0.3750000   0.1250000  -0.2500000), wk =   0.0078125
        k(  178) = (   0.3750000   0.1250000  -0.1250000), wk =   0.0078125
        k(  179) = (   0.3750000   0.2500000  -0.0000000), wk =   0.0078125
        k(  180) = (   0.3750000   0.2500000   0.1250000), wk =   0.0078125
        k(  181) = (   0.3750000   0.2500000   0.2500000), wk =   0.0078125
        k(  182) = (   0.3750000   0.2500000   0.3750000), wk =   0.0078125
        k(  183) = (   0.3750000   0.2500000  -0.5000000), wk =   0.0078125
        k(  184) = (   0.3750000   0.2500000  -0.3750000), wk =   0.0078125
        k(  185) = (   0.3750000   0.2500000  -0.2500000), wk =   0.0078125
        k(  186) = (   0.3750000   0.2500000  -0.1250000), wk =   0.0078125
        k(  187) = (   0.3750000   0.3750000  -0.0000000), wk =   0.0078125
        k(  188) = (   0.3750000   0.3750000   0.1250000), wk =   0.0078125
        k(  189) = (   0.3750000   0.3750000   0.2500000), wk =   0.0078125
        k(  190) = (   0.3750000   0.3750000   0.3750000), wk =   0.0078125
        k(  191) = (   0.3750000   0.3750000  -0.5000000), wk =   0.0078125
        k(  192) = (   0.3750000   0.3750000  -0.3750000), wk =   0.0078125
        k(  193) = (   0.3750000   0.3750000  -0.2500000), wk =   0.0078125
        k(  194) = (   0.3750000   0.3750000  -0.1250000), wk =   0.0078125
        k(  195) = (   0.3750000  -0.5000000  -0.0000000), wk =   0.0078125
        k(  196) = (   0.3750000  -0.5000000   0.1250000), wk =   0.0078125
        k(  197) = (   0.3750000  -0.5000000   0.2500000), wk =   0.0078125
        k(  198) = (   0.3750000  -0.5000000   0.3750000), wk =   0.0078125
        k(  199) = (   0.3750000  -0.5000000  -0.5000000), wk =   0.0078125
        k(  200) = (   0.3750000  -0.5000000  -0.3750000), wk =   0.0078125
        k(  201) = (   0.3750000  -0.5000000  -0.2500000), wk =   0.0078125
        k(  202) = (   0.3750000  -0.5000000  -0.1250000), wk =   0.0078125
        k(  203) = (   0.3750000  -0.3750000  -0.0000000), wk =   0.0078125
        k(  204) = (   0.3750000  -0.3750000   0.1250000), wk =   0.0078125
        k(  205) = (   0.3750000  -0.3750000   0.2500000), wk =   0.0078125
        k(  206) = (   0.3750000  -0.3750000   0.3750000), wk =   0.0078125
        k(  207) = (   0.3750000  -0.3750000  -0.5000000), wk =   0.0078125
        k(  208) = (   0.3750000  -0.3750000  -0.3750000), wk =   0.0078125
        k(  209) = (   0.3750000  -0.3750000  -0.2500000), wk =   0.0078125
        k(  210) = (   0.3750000  -0.3750000  -0.1250000), wk =   0.0078125
        k(  211) = (   0.3750000  -0.2500000  -0.0000000), wk =   0.0078125
        k(  212) = (   0.3750000  -0.2500000   0.1250000), wk =   0.0078125
        k(  213) = (   0.3750000  -0.2500000   0.2500000), wk =   0.0078125
        k(  214) = (   0.3750000  -0.2500000   0.3750000), wk =   0.0078125
        k(  215) = (   0.3750000  -0.2500000  -0.5000000), wk =   0.0078125
        k(  216) = (   0.3750000  -0.2500000  -0.3750000), wk =   0.0078125
        k(  217) = (   0.3750000  -0.2500000  -0.2500000), wk =   0.0078125
        k(  218) = (   0.3750000  -0.2500000  -0.1250000), wk =   0.0078125
        k(  219) = (   0.3750000  -0.1250000  -0.0000000), wk =   0.0078125
        k(  220) = (   0.3750000  -0.1250000   0.1250000), wk =   0.0078125
        k(  221) = (   0.3750000  -0.1250000   0.2500000), wk =   0.0078125
        k(  222) = (   0.3750000  -0.1250000   0.3750000), wk =   0.0078125
        k(  223) = (   0.3750000  -0.1250000  -0.5000000), wk =   0.0078125
        k(  224) = (   0.3750000  -0.1250000  -0.3750000), wk =   0.0078125
        k(  225) = (   0.3750000  -0.1250000  -0.2500000), wk =   0.0078125
        k(  226) = (   0.3750000  -0.1250000  -0.1250000), wk =   0.0078125
        k(  227) = (  -0.5000000   0.0000000   0.0000000), wk =   0.0039062
        k(  228) = (  -0.5000000  -0.0000000   0.1250000), wk =   0.0078125
        k(  229) = (  -0.5000000  -0.0000000   0.2500000), wk =   0.0078125
        k(  230) = (  -0.5000000   0.0000000   0.3750000), wk =   0.0078125
        k(  231) = (  -0.5000000   0.0000000  -0.5000000), wk =   0.0039062
        k(  232) = (  -0.5000000   0.1250000   0.0000000), wk =   0.0078125
        k(  233) = (  -0.5000000   0.1250000   0.1250000), wk =   0.0078125
        k(  234) = (  -0.5000000   0.1250000   0.2500000), wk =   0.0078125
        k(  235) = (  -0.5000000   0.1250000   0.3750000), wk =   0.0078125
        k(  236) = (  -0.5000000   0.1250000  -0.5000000), wk =   0.0078125
        k(  237) = (  -0.5000000   0.1250000  -0.3750000), wk =   0.0078125
        k(  238) = (  -0.5000000   0.1250000  -0.2500000), wk =   0.0078125
        k(  239) = (  -0.5000000   0.1250000  -0.1250000), wk =   0.0078125
        k(  240) = (  -0.5000000   0.2500000   0.0000000), wk =   0.0078125
        k(  241) = (  -0.5000000   0.2500000   0.1250000), wk =   0.0078125
        k(  242) = (  -0.5000000   0.2500000   0.2500000), wk =   0.0078125
        k(  243) = (  -0.5000000   0.2500000   0.3750000), wk =   0.0078125
        k(  244) = (  -0.5000000   0.2500000  -0.5000000), wk =   0.0078125
        k(  245) = (  -0.5000000   0.2500000  -0.3750000), wk =   0.0078125
        k(  246) = (  -0.5000000   0.2500000  -0.2500000), wk =   0.0078125
        k(  247) = (  -0.5000000   0.2500000  -0.1250000), wk =   0.0078125
        k(  248) = (  -0.5000000   0.3750000   0.0000000), wk =   0.0078125
        k(  249) = (  -0.5000000   0.3750000   0.1250000), wk =   0.0078125
        k(  250) = (  -0.5000000   0.3750000   0.2500000), wk =   0.0078125
        k(  251) = (  -0.5000000   0.3750000   0.3750000), wk =   0.0078125
        k(  252) = (  -0.5000000   0.3750000  -0.5000000), wk =   0.0078125
        k(  253) = (  -0.5000000   0.3750000  -0.3750000), wk =   0.0078125
        k(  254) = (  -0.5000000   0.3750000  -0.2500000), wk =   0.0078125
        k(  255) = (  -0.5000000   0.3750000  -0.1250000), wk =   0.0078125
        k(  256) = (  -0.5000000  -0.5000000   0.0000000), wk =   0.0039062
        k(  257) = (  -0.5000000  -0.5000000   0.1250000), wk =   0.0078125
        k(  258) = (  -0.5000000  -0.5000000   0.2500000), wk =   0.0078125
        k(  259) = (  -0.5000000  -0.5000000   0.3750000), wk =   0.0078125
        k(  260) = (  -0.5000000  -0.5000000  -0.5000000), wk =   0.0039062

     Dense  grid:    79067 G-vectors     FFT dimensions: (  48,  48,  80)

     Smooth grid:    30771 G-vectors     FFT dimensions: (  36,  36,  60)

     Dynamical RAM for                 wfc:       0.08 MB

     Dynamical RAM for     wfc (w. buffer):       5.08 MB

     Dynamical RAM for           str. fact:       0.23 MB

     Dynamical RAM for           local pot:       0.00 MB

     Dynamical RAM for          nlocal pot:       0.23 MB

     Dynamical RAM for                qrad:      15.29 MB

     Dynamical RAM for          rho,v,vnew:       0.49 MB

     Dynamical RAM for               rhoin:       0.16 MB

     Dynamical RAM for            rho*nmix:       1.21 MB

     Dynamical RAM for           G-vectors:       0.30 MB

     Dynamical RAM for          h,s,v(r/c):       0.08 MB

     Dynamical RAM for          <psi|beta>:       0.02 MB

     Dynamical RAM for                 psi:       0.31 MB

     Dynamical RAM for                hpsi:       0.31 MB

     Dynamical RAM for                spsi:       0.31 MB

     Dynamical RAM for      wfcinit/wfcrot:       0.21 MB

     Dynamical RAM for           addusdens:       3.95 MB

     Dynamical RAM for          addusforce:       4.10 MB

     Dynamical RAM for         addusstress:       4.17 MB

     Estimated static dynamical RAM per process >      23.72 MB

     Estimated max dynamical RAM per process >      27.89 MB

     Estimated total dynamical RAM >       1.74 GB

     Check: negative core charge=   -0.000003

     Initial potential from superposition of free atoms

     starting charge   41.69964, renormalised to   42.00000
     Starting wfcs are   26 randomized atomic wfcs

     total cpu time spent up to now is        1.9 secs

     Self-consistent Calculation

     iteration #  1     ecut=    80.00 Ry     beta= 0.50
     Davidson diagonalization with overlap
     ethr =  1.00E-02,  avg # of iterations =  2.0

     total cpu time spent up to now is        2.8 secs

     total energy              =    -650.61743799 Ry
     Harris-Foulkes estimate   =    -651.46653060 Ry
     estimated scf accuracy    <       1.27234686 Ry

     iteration #  2     ecut=    80.00 Ry     beta= 0.50
     Davidson diagonalization with overlap
     ethr =  3.03E-03,  avg # of iterations =  3.0

     total cpu time spent up to now is        3.8 secs

     total energy              =    -651.01455290 Ry
     Harris-Foulkes estimate   =    -651.30511883 Ry
     estimated scf accuracy    <       0.66592468 Ry

     iteration #  3     ecut=    80.00 Ry     beta= 0.50
     Davidson diagonalization with overlap
     ethr =  1.59E-03,  avg # of iterations =  2.0

     total cpu time spent up to now is        4.7 secs

     total energy              =    -651.12831459 Ry
     Harris-Foulkes estimate   =    -651.13156233 Ry
     estimated scf accuracy    <       0.01002226 Ry

     iteration #  4     ecut=    80.00 Ry     beta= 0.50
     Davidson diagonalization with overlap
     ethr =  2.39E-05,  avg # of iterations =  2.0

     total cpu time spent up to now is        5.5 secs

     total energy              =    -651.12939476 Ry
     Harris-Foulkes estimate   =    -651.12967799 Ry
     estimated scf accuracy    <       0.00070108 Ry

     iteration #  5     ecut=    80.00 Ry     beta= 0.50
     Davidson diagonalization with overlap
     ethr =  1.67E-06,  avg # of iterations =  2.0

     total cpu time spent up to now is        6.4 secs

     total energy              =    -651.12953524 Ry
     Harris-Foulkes estimate   =    -651.12952583 Ry
     estimated scf accuracy    <       0.00005013 Ry

     iteration #  6     ecut=    80.00 Ry     beta= 0.50
     Davidson diagonalization with overlap
     ethr =  1.19E-07,  avg # of iterations =  2.0

     total cpu time spent up to now is        7.2 secs

     total energy              =    -651.12954010 Ry
     Harris-Foulkes estimate   =    -651.12953913 Ry
     estimated scf accuracy    <       0.00000630 Ry

     iteration #  7     ecut=    80.00 Ry     beta= 0.50
     Davidson diagonalization with overlap
     ethr =  1.50E-08,  avg # of iterations =  3.0

     total cpu time spent up to now is        8.2 secs

     total energy              =    -651.12954122 Ry
     Harris-Foulkes estimate   =    -651.12954165 Ry
     estimated scf accuracy    <       0.00000238 Ry

     iteration #  8     ecut=    80.00 Ry     beta= 0.50
     Davidson diagonalization with overlap
     ethr =  5.68E-09,  avg # of iterations =  2.8

     total cpu time spent up to now is        9.1 secs

     End of self-consistent calculation

          k = 0.0000 0.0000 0.0000 (  3851 PWs)   bands (ev):

  -115.8471 -70.2148 -70.1994 -70.1994 -65.2514 -32.2470 -32.2180 -32.2180
   -10.4633  -9.5245   1.5695   1.5695   1.9320   2.5637   2.7595   2.7595
     5.6711   5.6711   6.6620   6.9662   6.9662

     occupation numbers 
     1.0000   1.0000   1.0000   1.0000   1.0000   1.0000   1.0000   1.0000
     1.0000   1.0000   1.0000   1.0000   1.0000   1.0000   1.0000   1.0000
     1.0000   1.0000   1.0000   1.0000   1.0000

          k = 0.0000 0.0000 0.0775 (  3880 PWs)   bands (ev):

  -115.8471 -70.2149 -70.1994 -70.1994 -65.2514 -32.2471 -32.2180 -32.2180
   -10.4430  -9.5483   1.5693   1.5693   1.8581   2.6876   2.7572   2.7572
     5.6810   5.6810   6.4366   6.9601   6.9601

     occupation numbers 
     1.0000   1.0000   1.0000   1.0000   1.0000   1.0000   1.0000   1.0000
     1.0000   1.0000   1.0000   1.0000   1.0000   1.0000   1.0000   1.0000
     1.0000   1.0000   1.0000   1.0000   1.0000

          k = 0.0000 0.0000 0.1549 (  3844 PWs)   bands (ev):

  -115.8471 -70.2148 -70.1994 -70.1994 -65.2514 -32.2471 -32.2180 -32.2180
   -10.3891  -9.6108   1.5686   1.5686   1.7372   2.7518   2.7518   2.9410
     5.7054   5.7054   6.0038   6.9451   6.9451

     occupation numbers 
     1.0000   1.0000   1.0000   1.0000   1.0000   1.0000   1.0000   1.0000
     1.0000   1.0000   1.0000   1.0000   1.0000   1.0000   1.0000   1.0000
     1.0000   1.0000   1.0000   1.0000   1.0000

          k = 0.0000 0.0000 0.2324 (  3826 PWs)   bands (ev):

  -115.8471 -70.2148 -70.1993 -70.1993 -65.2514 -32.2471 -32.2179 -32.2179
   -10.3249  -9.6836   1.5680   1.5680   1.6524   2.7463   2.7463   3.1817
     5.6314   5.7303   5.7303   6.9296   6.9296

     occupation numbers 
     1.0000   1.0000   1.0000   1.0000   1.0000   1.0000   1.0000   1.0000
     1.0000   1.0000   1.0000   1.0000   1.0000   1.0000   1.0000   1.0000
     1.0000   1.0000   1.0000   1.0000   1.0000

          k =-0.0000-0.0000-0.3098 (  3796 PWs)   bands (ev):

  -115.8471 -70.2148 -70.1993 -70.1993 -65.2514 -32.2471 -32.2179 -32.2179
   -10.2937  -9.7184   1.5678   1.5678   1.6232   2.7441   2.7441   3.2858
     5.4811   5.7408   5.7408   6.9229   6.9229

     occupation numbers 
     1.0000   1.0000   1.0000   1.0000   1.0000   1.0000   1.0000   1.0000
     1.0000   1.0000   1.0000   1.0000   1.0000   1.0000   1.0000   1.0000
     1.0000   1.0000   1.0000   1.0000   1.0000

          k = 0.0000 0.1443 0.0000 (  3869 PWs)   bands (ev):

  -115.8470 -70.2148 -70.1997 -70.1995 -65.2511 -32.2465 -32.2230 -32.2191
   -10.3779  -9.4806   1.5187   1.6374   2.0148   2.5593   2.7552   2.8588
     5.2545   5.5948   6.2342   6.5997   6.8208

     occupation numbers 
     1.0000   1.0000   1.0000   1.0000   1.0000   1.0000   1.0000   1.0000
     1.0000   1.0000   1.0000   1.0000   1.0000   1.0000   1.0000   1.0000
     1.0000   1.0000   1.0000   1.0000   1.0000

          k = 0.0000 0.1443 0.0775 (  3870 PWs)   bands (ev):

  -115.8470 -70.2148 -70.1997 -70.1995 -65.2511 -32.2465 -32.2230 -32.2191
   -10.3591  -9.5021   1.5179   1.6375   1.9344   2.5904   2.7526   2.9437
     5.2737   5.6022   6.1397   6.5704   6.8176

     occupation numbers 
     1.0000   1.0000   1.0000   1.0000   1.0000   1.0000   1.0000   1.0000
     1.0000   1.0000   1.0000   1.0000   1.0000   1.0000   1.0000   1.0000
     1.0000   1.0000   1.0000   1.0000   1.0000

          k = 0.0000 0.1443 0.1549 (  3857 PWs)   bands (ev):

  -115.8470 -70.2148 -70.1997 -70.1995 -65.2511 -32.2466 -32.2230 -32.2191
   -10.3096  -9.5582   1.5122   1.6369   1.8001   2.6090   2.7469   3.1650
     5.2860   5.6307   5.9085   6.5491   6.7970

     occupation numbers 
     1.0000   1.0000   1.0000   1.0000   1.0000   1.0000   1.0000   1.0000
     1.0000   1.0000   1.0000   1.0000   1.0000   1.0000   1.0000   1.0000
     1.0000   1.0000   1.0000   1.0000   1.0000

          k = 0.0000 0.1443 0.2324 (  3843 PWs)   bands (ev):

  -115.8470 -70.2148 -70.1997 -70.1995 -65.2511 -32.2466 -32.2230 -32.2191
   -10.2514  -9.6230   1.5018   1.6358   1.7091   2.6062   2.7415   3.3912
     5.2280   5.6648   5.7596   6.5175   6.7700

     occupation numbers 
     1.0000   1.0000   1.0000   1.0000   1.0000   1.0000   1.0000   1.0000
     1.0000   1.0000   1.0000   1.0000   1.0000   1.0000   1.0000   1.0000
     1.0000   1.0000   1.0000   1.0000   1.0000

          k =-0.0000 0.1443-0.3098 (  3856 PWs)   bands (ev):

  -115.8470 -70.2148 -70.1997 -70.1995 -65.2511 -32.2466 -32.2230 -32.2191
   -10.2235  -9.6536   1.4924   1.6350   1.6828   2.6027   2.7396   3.4954
     5.1525   5.6843   5.7331   6.5132   6.7526

     occupation numbers 
     1.0000   1.0000   1.0000   1.0000   1.0000   1.0000   1.0000   1.0000
     1.0000   1.0000   1.0000   1.0000   1.0000   1.0000   1.0000   1.0000
     1.0000   1.0000   1.0000   1.0000   1.0000

          k =-0.0000 0.1443-0.2324 (  3843 PWs)   bands (ev):

  -115.8470 -70.2148 -70.1997 -70.1995 -65.2511 -32.2466 -32.2230 -32.2191
   -10.2515  -9.6229   1.4946   1.6348   1.7157   2.6053   2.7421   3.4060
     5.1802   5.6763   5.7616   6.5557   6.7565

     occupation numbers 
     1.0000   1.0000   1.0000   1.0000   1.0000   1.0000   1.0000   1.0000
     1.0000   1.0000   1.0000   1.0000   1.0000   1.0000   1.0000   1.0000
     1.0000   1.0000   1.0000   1.0000   1.0000

          k =-0.0000 0.1443-0.1549 (  3857 PWs)   bands (ev):

  -115.8470 -70.2148 -70.1997 -70.1995 -65.2511 -32.2466 -32.2230 -32.2191
   -10.3097  -9.5582   1.5052   1.6355   1.8054   2.6084   2.7477   3.1816
     5.2384   5.6460   5.8852   6.6142   6.7788

     occupation numbers 
     1.0000   1.0000   1.0000   1.0000   1.0000   1.0000   1.0000   1.0000
     1.0000   1.0000   1.0000   1.0000   1.0000   1.0000   1.0000   1.0000
     1.0000   1.0000   1.0000   1.0000   1.0000

          k =-0.0000 0.1443-0.0775 (  3870 PWs)   bands (ev):

  -115.8470 -70.2148 -70.1997 -70.1995 -65.2511 -32.2465 -32.2230 -32.2191
   -10.3592  -9.5020   1.5145   1.6365   1.9350   2.5919   2.7532   2.9530
     5.2511   5.6125   6.0944   6.6371   6.8052

     occupation numbers 
     1.0000   1.0000   1.0000   1.0000   1.0000   1.0000   1.0000   1.0000
     1.0000   1.0000   1.0000   1.0000   1.0000   1.0000   1.0000   1.0000
     1.0000   1.0000   1.0000   1.0000   1.0000

          k = 0.0000 0.2887 0.0000 (  3871 PWs)   bands (ev):

  -115.8470 -70.2147 -70.2006 -70.1997 -65.2503 -32.2453 -32.2351 -32.2218
   -10.1613  -9.3768   1.4355   1.8081   2.1677   2.5587   2.7596   3.1767
     4.4130   5.1950   5.3863   6.3477   6.4886

     occupation numbers 
     1.0000   1.0000   1.0000   1.0000   1.0000   1.0000   1.0000   1.0000
     1.0000   1.0000   1.0000   1.0000   1.0000   1.0000   1.0000   1.0000
     1.0000   1.0000   1.0000   1.0000   1.0000

          k = 0.0000 0.2887 0.0775 (  3865 PWs)   bands (ev):

  -115.8470 -70.2147 -70.2006 -70.1997 -65.2503 -32.2453 -32.2351 -32.2218
   -10.1471  -9.3918   1.4303   1.8083   2.1110   2.5183   2.7568   3.2382
     4.5093   5.2032   5.3977   6.2849   6.4800

     occupation numbers 
     1.0000   1.0000   1.0000   1.0000   1.0000   1.0000   1.0000   1.0000
     1.0000   1.0000   1.0000   1.0000   1.0000   1.0000   1.0000   1.0000
     1.0000   1.0000   1.0000   1.0000   1.0000

          k = 0.0000 0.2887 0.1549 (  3856 PWs)   bands (ev):

  -115.8470 -70.2147 -70.2006 -70.1997 -65.2503 -32.2454 -32.2351 -32.2218
   -10.1102  -9.4302   1.4140   1.8067   1.9684   2.4645   2.7514   3.4234
     4.6117   5.2232   5.4431   6.2061   6.4387

     occupation numbers 
     1.0000   1.0000   1.0000   1.0000   1.0000   1.0000   1.0000   1.0000
     1.0000   1.0000   1.0000   1.0000   1.0000   1.0000   1.0000   1.0000
     1.0000   1.0000   1.0000   1.0000   1.0000

          k = 0.0000 0.2887 0.2324 (  3860 PWs)   bands (ev):

  -115.8470 -70.2147 -70.2006 -70.1997 -65.2503 -32.2454 -32.2351 -32.2218
   -10.0687  -9.4734   1.3918   1.8043   1.8560   2.4265   2.7466   3.6077
     4.5687   5.3897   5.5006   6.0895   6.3841

     occupation numbers 
     1.0000   1.0000   1.0000   1.0000   1.0000   1.0000   1.0000   1.0000
     1.0000   1.0000   1.0000   1.0000   1.0000   1.0000   1.0000   1.0000
     1.0000   1.0000   1.0000   1.0000   1.0000

          k =-0.0000 0.2887-0.3098 (  3850 PWs)   bands (ev):

  -115.8470 -70.2147 -70.2006 -70.1997 -65.2503 -32.2454 -32.2351 -32.2218
   -10.0497  -9.4931   1.3765   1.8025   1.8192   2.4121   2.7452   3.7410
     4.4415   5.4945   5.5354   6.0596   6.3493

     occupation numbers 
     1.0000   1.0000   1.0000   1.0000   1.0000   1.0000   1.0000   1.0000
     1.0000   1.0000   1.0000   1.0000   1.0000   1.0000   1.0000   1.0000
     1.0000   1.0000   1.0000   1.0000   1.0000

          k =-0.0000 0.2887-0.2324 (  3860 PWs)   bands (ev):

  -115.8470 -70.2147 -70.2006 -70.1997 -65.2503 -32.2454 -32.2351 -32.2218
   -10.0689  -9.4732   1.3821   1.8023   1.8557   2.4272   2.7479   3.7515
     4.3658   5.3394   5.5211   6.2274   6.3609

     occupation numbers 
     1.0000   1.0000   1.0000   1.0000   1.0000   1.0000   1.0000   1.0000
     1.0000   1.0000   1.0000   1.0000   1.0000   1.0000   1.0000   1.0000
     1.0000   1.0000   1.0000   1.0000   1.0000

          k =-0.0000 0.2887-0.1549 (  3856 PWs)   bands (ev):

  -115.8470 -70.2147 -70.2006 -70.1997 -65.2503 -32.2454 -32.2351 -32.2218
   -10.1104  -9.4299   1.4049   1.8039   1.9541   2.4693   2.7533   3.5900
     4.3754   5.1776   5.4688   6.3665   6.4092

     occupation numbers 
     1.0000   1.0000   1.0000   1.0000   1.0000   1.0000   1.0000   1.0000
     1.0000   1.0000   1.0000   1.0000   1.0000   1.0000   1.0000   1.0000
     1.0000   1.0000   1.0000   1.0000   1.0000

          k =-0.0000 0.2887-0.0775 (  3865 PWs)   bands (ev):

  -115.8470 -70.2147 -70.2006 -70.1997 -65.2503 -32.2453 -32.2351 -32.2218
   -10.1472  -9.3916   1.4267   1.8063   2.0858   2.5254   2.7582   3.3447
     4.3852   5.1509   5.4141   6.3948   6.4609

     occupation numbers 
     1.0000   1.0000   1.0000   1.0000   1.0000   1.0000   1.0000   1.0000
     1.0000   1.0000   1.0000   1.0000   1.0000   1.0000   1.0000   1.0000
     1.0000   1.0000   1.0000   1.0000   1.0000

          k = 0.0000 0.4330 0.0000 (  3859 PWs)   bands (ev):

  -115.8470 -70.2146 -70.2014 -70.1999 -65.2495 -32.2483 -32.2429 -32.2246
    -9.9257  -9.2793   1.4247   1.9815   2.2818   2.5778   2.8066   3.3307
     3.9351   4.4687   5.1182   5.9329   6.1911

     occupation numbers 
     1.0000   1.0000   1.0000   1.0000   1.0000   1.0000   1.0000   1.0000
     1.0000   1.0000   1.0000   1.0000   1.0000   1.0000   1.0000   1.0000
     1.0000   1.0000   1.0000   1.0000   1.0000

          k = 0.0000 0.4330 0.0775 (  3854 PWs)   bands (ev):

  -115.8470 -70.2146 -70.2014 -70.1999 -65.2495 -32.2483 -32.2429 -32.2246
    -9.9178  -9.2857   1.4072   1.9805   2.2865   2.5216   2.8043   3.1820
     4.1127   4.5690   5.1384   5.9129   6.1719

     occupation numbers 
     1.0000   1.0000   1.0000   1.0000   1.0000   1.0000   1.0000   1.0000
     1.0000   1.0000   1.0000   1.0000   1.0000   1.0000   1.0000   1.0000
     1.0000   1.0000   1.0000   1.0000   1.0000

          k = 0.0000 0.4330 0.1549 (  3860 PWs)   bands (ev):

  -115.8470 -70.2146 -70.2014 -70.1999 -65.2495 -32.2483 -32.2430 -32.2246
    -9.8984  -9.3017   1.3765   1.9763   2.1936   2.3971   2.8005   3.1894
     4.1786   4.8105   5.2039   5.9594   6.1069

     occupation numbers 
     1.0000   1.0000   1.0000   1.0000   1.0000   1.0000   1.0000   1.0000
     1.0000   1.0000   1.0000   1.0000   1.0000   1.0000   1.0000   1.0000
     1.0000   1.0000   1.0000   1.0000   1.0000

          k = 0.0000 0.4330 0.2324 (  3861 PWs)   bands (ev):

  -115.8470 -70.2147 -70.2014 -70.1999 -65.2495 -32.2483 -32.2430 -32.2246
    -9.8778  -9.3187   1.3472   1.9713   2.0579   2.3355   2.7973   3.2662
     4.1093   5.1056   5.2871   6.0023   6.0236

     occupation numbers 
     1.0000   1.0000   1.0000   1.0000   1.0000   1.0000   1.0000   1.0000
     1.0000   1.0000   1.0000   1.0000   1.0000   1.0000   1.0000   1.0000
     1.0000   1.0000   1.0000   1.0000   1.0000

          k =-0.0000 0.4330-0.3098 (  3854 PWs)   bands (ev):

  -115.8470 -70.2146 -70.2014 -70.1999 -65.2495 -32.2483 -32.2430 -32.2246
    -9.8690  -9.3261   1.3360   1.9685   1.9902   2.3190   2.7966   3.3564
     4.0215   5.1948   5.3356   5.9743   6.0644

     occupation numbers 
     1.0000   1.0000   1.0000   1.0000   1.0000   1.0000   1.0000   1.0000
     1.0000   1.0000   1.0000   1.0000   1.0000   1.0000   1.0000   1.0000
     1.0000   1.0000   1.0000   1.0000   1.0000

          k =-0.0000 0.4330-0.2324 (  3861 PWs)   bands (ev):

  -115.8470 -70.2147 -70.2014 -70.1999 -65.2495 -32.2483 -32.2430 -32.2246
    -9.8781  -9.3184   1.3533   1.9694   2.0099   2.3450   2.7987   3.4329
     3.9711   4.9900   5.3047   6.0042   6.1463

     occupation numbers 
     1.0000   1.0000   1.0000   1.0000   1.0000   1.0000   1.0000   1.0000
     1.0000   1.0000   1.0000   1.0000   1.0000   1.0000   1.0000   1.0000
     1.0000   1.0000   1.0000   1.0000   1.0000

          k =-0.0000 0.4330-0.1549 (  3860 PWs)   bands (ev):

  -115.8470 -70.2146 -70.2014 -70.1999 -65.2495 -32.2483 -32.2430 -32.2246
    -9.8987  -9.3013   1.3893   1.9736   2.0942   2.4154   2.8025   3.4756
     3.9705   4.6539   5.2241   6.0843   6.1380

     occupation numbers 
     1.0000   1.0000   1.0000   1.0000   1.0000   1.0000   1.0000   1.0000
     1.0000   1.0000   1.0000   1.0000   1.0000   1.0000   1.0000   1.0000
     1.0000   1.0000   1.0000   1.0000   1.0000

          k =-0.0000 0.4330-0.0775 (  3854 PWs)   bands (ev):

  -115.8470 -70.2146 -70.2014 -70.1999 -65.2495 -32.2483 -32.2429 -32.2246
    -9.9180  -9.2854   1.4189   1.9786   2.2034   2.5121   2.8058   3.4734
     3.9258   4.4425   5.1506   6.0362   6.1579

     occupation numbers 
     1.0000   1.0000   1.0000   1.0000   1.0000   1.0000   1.0000   1.0000
     1.0000   1.0000   1.0000   1.0000   1.0000   1.0000   1.0000   1.0000
     1.0000   1.0000   1.0000   1.0000   1.0000

          k =-0.0000-0.5774-0.0000 (  3852 PWs)   bands (ev):

  -115.8469 -70.2146 -70.2017 -70.2000 -65.2492 -32.2530 -32.2427 -32.2257
    -9.8203  -9.2427   1.4548   2.0491   2.3505   2.6252   2.8510   2.9742
     4.0267   4.3956   4.9786   5.6299   6.0809

     occupation numbers 
     1.0000   1.0000   1.0000   1.0000   1.0000   1.0000   1.0000   1.0000
     1.0000   1.0000   1.0000   1.0000   1.0000   1.0000   1.0000   1.0000
     1.0000   1.0000   1.0000   1.0000   1.0000

          k =-0.0000-0.5774 0.0775 (  3838 PWs)   bands (ev):

  -115.8469 -70.2146 -70.2017 -70.2000 -65.2492 -32.2530 -32.2427 -32.2257
    -9.8162  -9.2444   1.4382   2.0465   2.3316   2.5663   2.8499   2.9407
     4.0132   4.5184   5.0069   5.7122   6.0523

     occupation numbers 
     1.0000   1.0000   1.0000   1.0000   1.0000   1.0000   1.0000   1.0000
     1.0000   1.0000   1.0000   1.0000   1.0000   1.0000   1.0000   1.0000
     1.0000   1.0000   1.0000   1.0000   1.0000

          k = 0.0000-0.5774 0.1549 (  3864 PWs)   bands (ev):

  -115.8469 -70.2146 -70.2018 -70.2000 -65.2492 -32.2530 -32.2428 -32.2257
    -9.8064  -9.2485   1.3975   2.0402   2.2700   2.4402   2.8474   2.9091
     3.9664   4.8024   5.0824   5.8889   5.9761

     occupation numbers 
     1.0000   1.0000   1.0000   1.0000   1.0000   1.0000   1.0000   1.0000
     1.0000   1.0000   1.0000   1.0000   1.0000   1.0000   1.0000   1.0000
     1.0000   1.0000   1.0000   1.0000   1.0000

          k = 0.0000-0.5774 0.2324 (  3866 PWs)   bands (ev):

  -115.8469 -70.2146 -70.2017 -70.2000 -65.2492 -32.2529 -32.2428 -32.2257
    -9.7963  -9.2529   1.3561   2.0339   2.1725   2.3682   2.8449   2.9008
     3.9231   5.0726   5.1727   5.8848   6.0350

     occupation numbers 
     1.0000   1.0000   1.0000   1.0000   1.0000   1.0000   1.0000   1.0000
     1.0000   1.0000   1.0000   1.0000   1.0000   1.0000   1.0000   1.0000
     1.0000   1.0000   1.0000   1.0000   1.0000

          k =-0.0000-0.5774-0.3098 (  3856 PWs)   bands (ev):

  -115.8469 -70.2146 -70.2018 -70.2000 -65.2492 -32.2529 -32.2428 -32.2257
    -9.7920  -9.2548   1.3388   2.0313   2.1258   2.3504   2.8439   2.8997
     3.9070   5.1845   5.2175   5.8397   6.0853

     occupation numbers 
     1.0000   1.0000   1.0000   1.0000   1.0000   1.0000   1.0000   1.0000
     1.0000   1.0000   1.0000   1.0000   1.0000   1.0000   1.0000   1.0000
     1.0000   1.0000   1.0000   1.0000   1.0000

          k = 0.1250 0.0722 0.0000 (  3869 PWs)   bands (ev):

  -115.8470 -70.2148 -70.1997 -70.1995 -65.2511 -32.2465 -32.2230 -32.2191
   -10.3779  -9.4806   1.5187   1.6374   2.0148   2.5593   2.7552   2.8588
     5.2545   5.5948   6.2342   6.5997   6.8208

     occupation numbers 
     1.0000   1.0000   1.0000   1.0000   1.0000   1.0000   1.0000   1.0000
     1.0000   1.0000   1.0000   1.0000   1.0000   1.0000   1.0000   1.0000
     1.0000   1.0000   1.0000   1.0000   1.0000

          k = 0.1250 0.0722 0.0775 (  3870 PWs)   bands (ev):

  -115.8470 -70.2148 -70.1997 -70.1995 -65.2511 -32.2465 -32.2230 -32.2191
   -10.3592  -9.5020   1.5145   1.6365   1.9350   2.5919   2.7532   2.9530
     5.2511   5.6125   6.0944   6.6371   6.8052

     occupation numbers 
     1.0000   1.0000   1.0000   1.0000   1.0000   1.0000   1.0000   1.0000
     1.0000   1.0000   1.0000   1.0000   1.0000   1.0000   1.0000   1.0000
     1.0000   1.0000   1.0000   1.0000   1.0000

          k = 0.1250 0.0722 0.1549 (  3857 PWs)   bands (ev):

  -115.8470 -70.2148 -70.1997 -70.1995 -65.2511 -32.2466 -32.2230 -32.2191
   -10.3097  -9.5582   1.5052   1.6355   1.8054   2.6084   2.7477   3.1816
     5.2384   5.6460   5.8852   6.6142   6.7788

     occupation numbers 
     1.0000   1.0000   1.0000   1.0000   1.0000   1.0000   1.0000   1.0000
     1.0000   1.0000   1.0000   1.0000   1.0000   1.0000   1.0000   1.0000
     1.0000   1.0000   1.0000   1.0000   1.0000

          k = 0.1250 0.0722 0.2324 (  3843 PWs)   bands (ev):

  -115.8470 -70.2148 -70.1997 -70.1995 -65.2511 -32.2466 -32.2230 -32.2191
   -10.2515  -9.6229   1.4946   1.6348   1.7157   2.6053   2.7421   3.4060
     5.1802   5.6763   5.7616   6.5557   6.7565

     occupation numbers 
     1.0000   1.0000   1.0000   1.0000   1.0000   1.0000   1.0000   1.0000
     1.0000   1.0000   1.0000   1.0000   1.0000   1.0000   1.0000   1.0000
     1.0000   1.0000   1.0000   1.0000   1.0000

          k = 0.1250 0.0722-0.3098 (  3856 PWs)   bands (ev):

  -115.8470 -70.2148 -70.1997 -70.1995 -65.2511 -32.2466 -32.2230 -32.2191
   -10.2235  -9.6536   1.4924   1.6350   1.6828   2.6027   2.7396   3.4954
     5.1525   5.6843   5.7331   6.5132   6.7526

     occupation numbers 
     1.0000   1.0000   1.0000   1.0000   1.0000   1.0000   1.0000   1.0000
     1.0000   1.0000   1.0000   1.0000   1.0000   1.0000   1.0000   1.0000
     1.0000   1.0000   1.0000   1.0000   1.0000

          k = 0.1250 0.0722-0.2324 (  3843 PWs)   bands (ev):

  -115.8470 -70.2148 -70.1997 -70.1995 -65.2511 -32.2466 -32.2230 -32.2191
   -10.2514  -9.6230   1.5018   1.6358   1.7091   2.6062   2.7415   3.3912
     5.2280   5.6648   5.7596   6.5175   6.7700

     occupation numbers 
     1.0000   1.0000   1.0000   1.0000   1.0000   1.0000   1.0000   1.0000
     1.0000   1.0000   1.0000   1.0000   1.0000   1.0000   1.0000   1.0000
     1.0000   1.0000   1.0000   1.0000   1.0000

          k = 0.1250 0.0722-0.1549 (  3857 PWs)   bands (ev):

  -115.8470 -70.2148 -70.1997 -70.1995 -65.2511 -32.2466 -32.2230 -32.2191
   -10.3096  -9.5582   1.5122   1.6369   1.8001   2.6090   2.7469   3.1650
     5.2860   5.6307   5.9085   6.5491   6.7970

     occupation numbers 
     1.0000   1.0000   1.0000   1.0000   1.0000   1.0000   1.0000   1.0000
     1.0000   1.0000   1.0000   1.0000   1.0000   1.0000   1.0000   1.0000
     1.0000   1.0000   1.0000   1.0000   1.0000

          k = 0.1250 0.0722-0.0775 (  3870 PWs)   bands (ev):

  -115.8470 -70.2148 -70.1997 -70.1995 -65.2511 -32.2465 -32.2230 -32.2191
   -10.3591  -9.5021   1.5179   1.6375   1.9344   2.5904   2.7526   2.9437
     5.2737   5.6022   6.1397   6.5704   6.8176

     occupation numbers 
     1.0000   1.0000   1.0000   1.0000   1.0000   1.0000   1.0000   1.0000
     1.0000   1.0000   1.0000   1.0000   1.0000   1.0000   1.0000   1.0000
     1.0000   1.0000   1.0000   1.0000   1.0000

          k = 0.1250 0.2165 0.0000 (  3859 PWs)   bands (ev):

  -115.8470 -70.2147 -70.2003 -70.1997 -65.2505 -32.2456 -32.2311 -32.2216
   -10.2266  -9.4068   1.4829   1.7204   2.1362   2.5609   2.7446   3.0858
     4.7134   5.2450   5.6362   6.3704   6.5638

     occupation numbers 
     1.0000   1.0000   1.0000   1.0000   1.0000   1.0000   1.0000   1.0000
     1.0000   1.0000   1.0000   1.0000   1.0000   1.0000   1.0000   1.0000
     1.0000   1.0000   1.0000   1.0000   1.0000

          k = 0.1250 0.2165 0.0775 (  3856 PWs)   bands (ev):

  -115.8470 -70.2147 -70.2003 -70.1997 -65.2505 -32.2456 -32.2311 -32.2216
   -10.2110  -9.4237   1.4776   1.7168   2.0633   2.5404   2.7425   3.2039
     4.7275   5.2729   5.5995   6.3611   6.5473

     occupation numbers 
     1.0000   1.0000   1.0000   1.0000   1.0000   1.0000   1.0000   1.0000
     1.0000   1.0000   1.0000   1.0000   1.0000   1.0000   1.0000   1.0000
     1.0000   1.0000   1.0000   1.0000   1.0000

          k = 0.1250 0.2165 0.1549 (  3855 PWs)   bands (ev):

  -115.8470 -70.2147 -70.2003 -70.1997 -65.2505 -32.2457 -32.2311 -32.2216
   -10.1701  -9.4677   1.4621   1.7056   1.9340   2.5057   2.7369   3.4365
     4.7348   5.3632   5.5481   6.3151   6.4926

     occupation numbers 
     1.0000   1.0000   1.0000   1.0000   1.0000   1.0000   1.0000   1.0000
     1.0000   1.0000   1.0000   1.0000   1.0000   1.0000   1.0000   1.0000
     1.0000   1.0000   1.0000   1.0000   1.0000

          k = 0.1250 0.2165 0.2324 (  3849 PWs)   bands (ev):

  -115.8470 -70.2147 -70.2003 -70.1997 -65.2505 -32.2457 -32.2311 -32.2216
   -10.1232  -9.5177   1.4421   1.6890   1.8481   2.4770   2.7313   3.6385
     4.6941   5.4734   5.5862   6.2155   6.4192

     occupation numbers 
     1.0000   1.0000   1.0000   1.0000   1.0000   1.0000   1.0000   1.0000
     1.0000   1.0000   1.0000   1.0000   1.0000   1.0000   1.0000   1.0000
     1.0000   1.0000   1.0000   1.0000   1.0000

          k = 0.1250 0.2165-0.3098 (  3852 PWs)   bands (ev):

  -115.8470 -70.2147 -70.2003 -70.1997 -65.2505 -32.2457 -32.2311 -32.2216
   -10.1014  -9.5408   1.4321   1.6800   1.8226   2.4659   2.7289   3.7201
     4.6618   5.4966   5.6789   6.1323   6.3867

     occupation numbers 
     1.0000   1.0000   1.0000   1.0000   1.0000   1.0000   1.0000   1.0000
     1.0000   1.0000   1.0000   1.0000   1.0000   1.0000   1.0000   1.0000
     1.0000   1.0000   1.0000   1.0000   1.0000

          k = 0.1250 0.2165-0.2324 (  3849 PWs)   bands (ev):

  -115.8470 -70.2147 -70.2003 -70.1997 -65.2505 -32.2457 -32.2311 -32.2216
   -10.1232  -9.5177   1.4421   1.6890   1.8481   2.4770   2.7313   3.6385
     4.6941   5.4734   5.5862   6.2155   6.4192

     occupation numbers 
     1.0000   1.0000   1.0000   1.0000   1.0000   1.0000   1.0000   1.0000
     1.0000   1.0000   1.0000   1.0000   1.0000   1.0000   1.0000   1.0000
     1.0000   1.0000   1.0000   1.0000   1.0000

          k = 0.1250 0.2165-0.1549 (  3855 PWs)   bands (ev):

  -115.8470 -70.2147 -70.2003 -70.1997 -65.2505 -32.2457 -32.2311 -32.2216
   -10.1701  -9.4677   1.4621   1.7056   1.9340   2.5057   2.7369   3.4365
     4.7348   5.3632   5.5481   6.3151   6.4926

     occupation numbers 
     1.0000   1.0000   1.0000   1.0000   1.0000   1.0000   1.0000   1.0000
     1.0000   1.0000   1.0000   1.0000   1.0000   1.0000   1.0000   1.0000
     1.0000   1.0000   1.0000   1.0000   1.0000

          k = 0.1250 0.2165-0.0775 (  3856 PWs)   bands (ev):

  -115.8470 -70.2147 -70.2003 -70.1997 -65.2505 -32.2456 -32.2311 -32.2216
   -10.2110  -9.4237   1.4776   1.7168   2.0633   2.5404   2.7425   3.2039
     4.7275   5.2729   5.5995   6.3611   6.5473

     occupation numbers 
     1.0000   1.0000   1.0000   1.0000   1.0000   1.0000   1.0000   1.0000
     1.0000   1.0000   1.0000   1.0000   1.0000   1.0000   1.0000   1.0000
     1.0000   1.0000   1.0000   1.0000   1.0000

          k = 0.1250 0.3608 0.0000 (  3838 PWs)   bands (ev):

  -115.8470 -70.2146 -70.2010 -70.2000 -65.2498 -32.2451 -32.2412 -32.2254
    -9.9986  -9.3066   1.4952   1.8573   2.2510   2.5778   2.7574   3.4939
     4.0562   4.5768   5.1507   5.9685   6.2140

     occupation numbers 
     1.0000   1.0000   1.0000   1.0000   1.0000   1.0000   1.0000   1.0000
     1.0000   1.0000   1.0000   1.0000   1.0000   1.0000   1.0000   1.0000
     1.0000   1.0000   1.0000   1.0000   1.0000

          k = 0.1250 0.3608 0.0775 (  3843 PWs)   bands (ev):

  -115.8470 -70.2147 -70.2010 -70.2000 -65.2498 -32.2451 -32.2412 -32.2254
    -9.9885  -9.3159   1.4842   1.8527   2.2245   2.5187   2.7570   3.4422
     4.2108   4.6419   5.1492   5.9273   6.2192

     occupation numbers 
     1.0000   1.0000   1.0000   1.0000   1.0000   1.0000   1.0000   1.0000
     1.0000   1.0000   1.0000   1.0000   1.0000   1.0000   1.0000   1.0000
     1.0000   1.0000   1.0000   1.0000   1.0000

          k = 0.1250 0.3608 0.1549 (  3851 PWs)   bands (ev):

  -115.8470 -70.2147 -70.2010 -70.2000 -65.2498 -32.2452 -32.2413 -32.2254
    -9.9631  -9.3394   1.4625   1.8314   2.1220   2.4267   2.7549   3.5001
     4.2782   4.8711   5.1740   5.8738   6.2109

     occupation numbers 
     1.0000   1.0000   1.0000   1.0000   1.0000   1.0000   1.0000   1.0000
     1.0000   1.0000   1.0000   1.0000   1.0000   1.0000   1.0000   1.0000
     1.0000   1.0000   1.0000   1.0000   1.0000

          k = 0.1250 0.3608 0.2324 (  3855 PWs)   bands (ev):

  -115.8470 -70.2147 -70.2010 -70.2000 -65.2498 -32.2452 -32.2413 -32.2254
    -9.9356  -9.3650   1.4383   1.7995   2.0287   2.3710   2.7519   3.6025
     4.2089   5.1127   5.2971   5.8182   6.1558

     occupation numbers 
     1.0000   1.0000   1.0000   1.0000   1.0000   1.0000   1.0000   1.0000
     1.0000   1.0000   1.0000   1.0000   1.0000   1.0000   1.0000   1.0000
     1.0000   1.0000   1.0000   1.0000   1.0000

          k = 0.1250 0.3608-0.3098 (  3866 PWs)   bands (ev):

  -115.8470 -70.2147 -70.2010 -70.2000 -65.2498 -32.2452 -32.2413 -32.2254
    -9.9235  -9.3763   1.4266   1.7807   1.9953   2.3536   2.7508   3.7128
     4.0949   5.1937   5.3616   5.8533   6.0981

     occupation numbers 
     1.0000   1.0000   1.0000   1.0000   1.0000   1.0000   1.0000   1.0000
     1.0000   1.0000   1.0000   1.0000   1.0000   1.0000   1.0000   1.0000
     1.0000   1.0000   1.0000   1.0000   1.0000

          k = 0.1250 0.3608-0.2324 (  3855 PWs)   bands (ev):

  -115.8470 -70.2147 -70.2010 -70.2000 -65.2498 -32.2452 -32.2413 -32.2254
    -9.9357  -9.3648   1.4398   1.7913   2.0185   2.3759   2.7525   3.7857
     4.0079   5.1028   5.2558   5.8904   6.1763

     occupation numbers 
     1.0000   1.0000   1.0000   1.0000   1.0000   1.0000   1.0000   1.0000
     1.0000   1.0000   1.0000   1.0000   1.0000   1.0000   1.0000   1.0000
     1.0000   1.0000   1.0000   1.0000   1.0000

          k = 0.1250 0.3608-0.1549 (  3851 PWs)   bands (ev):

  -115.8470 -70.2147 -70.2010 -70.2000 -65.2498 -32.2452 -32.2413 -32.2254
    -9.9633  -9.3392   1.4683   1.8194   2.0927   2.4378   2.7557   3.7478
     4.0050   4.8367   5.1732   5.9541   6.2304

     occupation numbers 
     1.0000   1.0000   1.0000   1.0000   1.0000   1.0000   1.0000   1.0000
     1.0000   1.0000   1.0000   1.0000   1.0000   1.0000   1.0000   1.0000
     1.0000   1.0000   1.0000   1.0000   1.0000

          k = 0.1250 0.3608-0.0775 (  3843 PWs)   bands (ev):

  -115.8470 -70.2147 -70.2010 -70.2000 -65.2498 -32.2451 -32.2412 -32.2254
    -9.9886  -9.3157   1.4903   1.8451   2.1914   2.5254   2.7578   3.6371
     4.0037   4.6280   5.1455   5.9956   6.2181

     occupation numbers 
     1.0000   1.0000   1.0000   1.0000   1.0000   1.0000   1.0000   1.0000
     1.0000   1.0000   1.0000   1.0000   1.0000   1.0000   1.0000   1.0000
     1.0000   1.0000   1.0000   1.0000   1.0000

          k = 0.1250 0.5052 0.0000 (  3841 PWs)   bands (ev):

  -115.8469 -70.2146 -70.2016 -70.2002 -65.2492 -32.2505 -32.2427 -32.2282
    -9.8237  -9.2418   1.5598   2.0150   2.3307   2.6144   2.8026   3.1802
     4.0533   4.3762   4.7812   5.6359   5.8870

     occupation numbers 
     1.0000   1.0000   1.0000   1.0000   1.0000   1.0000   1.0000   1.0000
     1.0000   1.0000   1.0000   1.0000   1.0000   1.0000   1.0000   1.0000
     1.0000   1.0000   1.0000   1.0000   1.0000

          k = 0.1250 0.5052 0.0775 (  3848 PWs)   bands (ev):

  -115.8469 -70.2146 -70.2016 -70.2002 -65.2492 -32.2505 -32.2427 -32.2282
    -9.8194  -9.2438   1.5389   2.0131   2.3338   2.5729   2.8004   3.0755
     4.0454   4.5620   4.8168   5.6368   5.8912

     occupation numbers 
     1.0000   1.0000   1.0000   1.0000   1.0000   1.0000   1.0000   1.0000
     1.0000   1.0000   1.0000   1.0000   1.0000   1.0000   1.0000   1.0000
     1.0000   1.0000   1.0000   1.0000   1.0000

          k = 0.1250 0.5052 0.1549 (  3853 PWs)   bands (ev):

  -115.8469 -70.2146 -70.2016 -70.2002 -65.2492 -32.2505 -32.2427 -32.2282
    -9.8089  -9.2488   1.5017   2.0039   2.2796   2.4293   2.8194   3.0321
     4.0179   4.7263   5.0164   5.6526   5.9384

     occupation numbers 
[...]
     3.9558   4.5997   4.9723   5.6999   5.9682

     occupation numbers 
     1.0000   1.0000   1.0000   1.0000   1.0000   1.0000   1.0000   1.0000
     1.0000   1.0000   1.0000   1.0000   1.0000   1.0000   1.0000   1.0000
     1.0000   1.0000   1.0000   1.0000   1.0000

          k =-0.4945-0.1427-0.0790 (  3871 PWs)   bands (ev):

  -115.8810 -70.2455 -70.2365 -70.2353 -65.3117 -32.3095 -32.3049 -32.2900
    -9.8076  -9.3108   1.5923   2.0094   2.2276   2.4953   2.7607   3.1723
     4.0149   4.4031   4.7735   5.7143   5.8458

     occupation numbers 
     1.0000   1.0000   1.0000   1.0000   1.0000   1.0000   1.0000   1.0000
     1.0000   1.0000   1.0000   1.0000   1.0000   1.0000   1.0000   1.0000
     1.0000   1.0000   1.0000   1.0000   1.0000

          k =-0.4945 0.0000 0.0000 (  3865 PWs)   bands (ev):

  -115.8810 -70.2455 -70.2363 -70.2355 -65.3117 -32.3070 -32.3045 -32.2929
    -9.8169  -9.3067   1.7570   1.9274   2.2488   2.5691   2.7562   3.5243
     3.7160   4.3524   4.6767   5.4894   5.7699

     occupation numbers 
     1.0000   1.0000   1.0000   1.0000   1.0000   1.0000   1.0000   1.0000
     1.0000   1.0000   1.0000   1.0000   1.0000   1.0000   1.0000   1.0000
     1.0000   1.0000   1.0000   1.0000   1.0000

          k =-0.4945 0.0000 0.0790 (  3849 PWs)   bands (ev):

  -115.8810 -70.2454 -70.2363 -70.2355 -65.3117 -32.3070 -32.3045 -32.2929
    -9.8110  -9.3097   1.7475   1.9136   2.2232   2.5034   2.7638   3.4345
     3.7355   4.5308   4.6915   5.4724   5.8232

     occupation numbers 
     1.0000   1.0000   1.0000   1.0000   1.0000   1.0000   1.0000   1.0000
     1.0000   1.0000   1.0000   1.0000   1.0000   1.0000   1.0000   1.0000
     1.0000   1.0000   1.0000   1.0000   1.0000

          k =-0.4945 0.0000 0.1579 (  3856 PWs)   bands (ev):

  -115.8810 -70.2454 -70.2363 -70.2355 -65.3117 -32.3070 -32.3045 -32.2929
    -9.7963  -9.3175   1.7208   1.8795   2.1581   2.3620   2.7748   3.3508
     3.7883   4.5618   5.0031   5.4009   5.9691

     occupation numbers 
     1.0000   1.0000   1.0000   1.0000   1.0000   1.0000   1.0000   1.0000
     1.0000   1.0000   1.0000   1.0000   1.0000   1.0000   1.0000   1.0000
     1.0000   1.0000   1.0000   1.0000   1.0000

          k =-0.4945-0.0000 0.2369 (  3868 PWs)   bands (ev):

  -115.8810 -70.2455 -70.2363 -70.2355 -65.3117 -32.3070 -32.3046 -32.2929
    -9.7809  -9.3258   1.6871   1.8431   2.0780   2.2645   2.7806   3.3328
     3.8351   4.5843   5.0983   5.4980   6.1026

     occupation numbers 
     1.0000   1.0000   1.0000   1.0000   1.0000   1.0000   1.0000   1.0000
     1.0000   1.0000   1.0000   1.0000   1.0000   1.0000   1.0000   1.0000
     1.0000   1.0000   1.0000   1.0000   1.0000

          k =-0.4945 0.0000-0.3159 (  3866 PWs)   bands (ev):

  -115.8810 -70.2455 -70.2363 -70.2355 -65.3117 -32.3070 -32.3046 -32.2929
    -9.7744  -9.3295   1.6706   1.8265   2.0417   2.2374   2.7822   3.3331
     3.8509   4.6226   5.0327   5.6143   6.1503

     occupation numbers 
     1.0000   1.0000   1.0000   1.0000   1.0000   1.0000   1.0000   1.0000
     1.0000   1.0000   1.0000   1.0000   1.0000   1.0000   1.0000   1.0000
     1.0000   1.0000   1.0000   1.0000   1.0000

          k =-0.4945 0.0000-0.2369 (  3868 PWs)   bands (ev):

  -115.8810 -70.2455 -70.2363 -70.2355 -65.3117 -32.3070 -32.3046 -32.2929
    -9.7809  -9.3258   1.6871   1.8431   2.0780   2.2645   2.7806   3.3328
     3.8351   4.5843   5.0983   5.4980   6.1026

     occupation numbers 
     1.0000   1.0000   1.0000   1.0000   1.0000   1.0000   1.0000   1.0000
     1.0000   1.0000   1.0000   1.0000   1.0000   1.0000   1.0000   1.0000
     1.0000   1.0000   1.0000   1.0000   1.0000

          k =-0.4945 0.0000-0.1579 (  3856 PWs)   bands (ev):

  -115.8810 -70.2454 -70.2363 -70.2355 -65.3117 -32.3070 -32.3045 -32.2929
    -9.7963  -9.3175   1.7208   1.8795   2.1581   2.3620   2.7748   3.3508
     3.7883   4.5618   5.0031   5.4009   5.9691

     occupation numbers 
     1.0000   1.0000   1.0000   1.0000   1.0000   1.0000   1.0000   1.0000
     1.0000   1.0000   1.0000   1.0000   1.0000   1.0000   1.0000   1.0000
     1.0000   1.0000   1.0000   1.0000   1.0000

          k =-0.4945 0.0000-0.0790 (  3849 PWs)   bands (ev):

  -115.8810 -70.2454 -70.2363 -70.2355 -65.3117 -32.3070 -32.3045 -32.2929
    -9.8110  -9.3097   1.7475   1.9136   2.2232   2.5034   2.7638   3.4345
     3.7355   4.5308   4.6915   5.4724   5.8232

     occupation numbers 
     1.0000   1.0000   1.0000   1.0000   1.0000   1.0000   1.0000   1.0000
     1.0000   1.0000   1.0000   1.0000   1.0000   1.0000   1.0000   1.0000
     1.0000   1.0000   1.0000   1.0000   1.0000

          k =-0.4945 0.1427 0.0000 (  3872 PWs)   bands (ev):

  -115.8810 -70.2455 -70.2365 -70.2353 -65.3117 -32.3095 -32.3049 -32.2900
    -9.8132  -9.3082   1.5992   2.0204   2.2803   2.5671   2.7524   3.1574
     4.0477   4.3409   4.7010   5.6120   5.8700

     occupation numbers 
     1.0000   1.0000   1.0000   1.0000   1.0000   1.0000   1.0000   1.0000
     1.0000   1.0000   1.0000   1.0000   1.0000   1.0000   1.0000   1.0000
     1.0000   1.0000   1.0000   1.0000   1.0000

          k =-0.4945 0.1427 0.0790 (  3871 PWs)   bands (ev):

  -115.8810 -70.2455 -70.2365 -70.2353 -65.3117 -32.3095 -32.3049 -32.2900
    -9.8076  -9.3108   1.5923   2.0094   2.2276   2.4953   2.7607   3.1723
     4.0149   4.4031   4.7735   5.7143   5.8458

     occupation numbers 
     1.0000   1.0000   1.0000   1.0000   1.0000   1.0000   1.0000   1.0000
     1.0000   1.0000   1.0000   1.0000   1.0000   1.0000   1.0000   1.0000
     1.0000   1.0000   1.0000   1.0000   1.0000

          k =-0.4945 0.1427 0.1579 (  3862 PWs)   bands (ev):

  -115.8810 -70.2454 -70.2365 -70.2353 -65.3117 -32.3095 -32.3049 -32.2900
    -9.7937  -9.3176   1.5524   1.9891   2.1464   2.3776   2.7676   3.1223
     3.9558   4.5997   4.9723   5.6999   5.9682

     occupation numbers 
     1.0000   1.0000   1.0000   1.0000   1.0000   1.0000   1.0000   1.0000
     1.0000   1.0000   1.0000   1.0000   1.0000   1.0000   1.0000   1.0000
     1.0000   1.0000   1.0000   1.0000   1.0000

          k =-0.4945 0.1427 0.2369 (  3870 PWs)   bands (ev):

  -115.8810 -70.2455 -70.2365 -70.2353 -65.3117 -32.3095 -32.3050 -32.2900
    -9.7791  -9.3250   1.5023   1.9681   2.0687   2.2952   2.7736   3.0818
     3.9250   4.7737   5.1337   5.6574   6.1131

     occupation numbers 
     1.0000   1.0000   1.0000   1.0000   1.0000   1.0000   1.0000   1.0000
     1.0000   1.0000   1.0000   1.0000   1.0000   1.0000   1.0000   1.0000
     1.0000   1.0000   1.0000   1.0000   1.0000

          k =-0.4945 0.1427-0.3159 (  3870 PWs)   bands (ev):

  -115.8810 -70.2455 -70.2365 -70.2353 -65.3117 -32.3095 -32.3050 -32.2899
    -9.7728  -9.3283   1.4761   1.9660   2.0397   2.2695   2.7773   3.0457
     3.9322   4.8760   5.1360   5.6836   6.1454

     occupation numbers 
     1.0000   1.0000   1.0000   1.0000   1.0000   1.0000   1.0000   1.0000
     1.0000   1.0000   1.0000   1.0000   1.0000   1.0000   1.0000   1.0000
     1.0000   1.0000   1.0000   1.0000   1.0000

          k =-0.4945 0.1427-0.2369 (  3870 PWs)   bands (ev):

  -115.8810 -70.2455 -70.2365 -70.2353 -65.3117 -32.3095 -32.3050 -32.2900
    -9.7790  -9.3252   1.4889   1.9911   2.0934   2.2869   2.7766   3.0100
     3.9698   4.7891   5.1569   5.6488   6.0717

     occupation numbers 
     1.0000   1.0000   1.0000   1.0000   1.0000   1.0000   1.0000   1.0000
     1.0000   1.0000   1.0000   1.0000   1.0000   1.0000   1.0000   1.0000
     1.0000   1.0000   1.0000   1.0000   1.0000

          k =-0.4945 0.1427-0.1579 (  3862 PWs)   bands (ev):

  -115.8810 -70.2454 -70.2365 -70.2353 -65.3117 -32.3095 -32.3049 -32.2900
    -9.7935  -9.3178   1.5290   2.0081   2.2186   2.3677   2.7667   2.9924
     4.0161   4.6587   4.9963   5.6472   5.9388

     occupation numbers 
     1.0000   1.0000   1.0000   1.0000   1.0000   1.0000   1.0000   1.0000
     1.0000   1.0000   1.0000   1.0000   1.0000   1.0000   1.0000   1.0000
     1.0000   1.0000   1.0000   1.0000   1.0000

          k =-0.4945 0.1427-0.0790 (  3871 PWs)   bands (ev):

  -115.8810 -70.2455 -70.2365 -70.2353 -65.3117 -32.3095 -32.3049 -32.2900
    -9.8075  -9.3110   1.5732   2.0190   2.2809   2.5231   2.7500   3.0418
     4.0407   4.5266   4.7479   5.6272   5.8714

     occupation numbers 
     1.0000   1.0000   1.0000   1.0000   1.0000   1.0000   1.0000   1.0000
     1.0000   1.0000   1.0000   1.0000   1.0000   1.0000   1.0000   1.0000
     1.0000   1.0000   1.0000   1.0000   1.0000

          k =-0.4945-0.8564 0.0000 (  3876 PWs)   bands (ev):

  -115.8810 -70.2455 -70.2367 -70.2352 -65.3117 -32.3117 -32.3050 -32.2877
    -9.8095  -9.3098   1.4996   2.0579   2.2796   2.5712   2.7972   2.9804
     4.0590   4.3466   4.8643   5.6033   6.0599

     occupation numbers 
     1.0000   1.0000   1.0000   1.0000   1.0000   1.0000   1.0000   1.0000
     1.0000   1.0000   1.0000   1.0000   1.0000   1.0000   1.0000   1.0000
     1.0000   1.0000   1.0000   1.0000   1.0000

          k =-0.4945-0.8564 0.0790 (  3882 PWs)   bands (ev):

  -115.8810 -70.2455 -70.2367 -70.2352 -65.3117 -32.3117 -32.3050 -32.2877
    -9.8041  -9.3121   1.4803   2.0544   2.2589   2.5103   2.7958   2.9329
     4.0403   4.4849   4.8964   5.6990   6.0280

     occupation numbers 
     1.0000   1.0000   1.0000   1.0000   1.0000   1.0000   1.0000   1.0000
     1.0000   1.0000   1.0000   1.0000   1.0000   1.0000   1.0000   1.0000
     1.0000   1.0000   1.0000   1.0000   1.0000

          k =-0.4945-0.8564 0.1579 (  3862 PWs)   bands (ev):

  -115.8810 -70.2454 -70.2367 -70.2352 -65.3117 -32.3117 -32.3050 -32.2877
    -9.7909  -9.3180   1.4325   2.0461   2.1896   2.3786   2.7926   2.8859
     3.9825   4.7956   4.9820   5.9037   5.9430

     occupation numbers 
     1.0000   1.0000   1.0000   1.0000   1.0000   1.0000   1.0000   1.0000
     1.0000   1.0000   1.0000   1.0000   1.0000   1.0000   1.0000   1.0000
     1.0000   1.0000   1.0000   1.0000   1.0000

          k =-0.4945-0.8564 0.2369 (  3870 PWs)   bands (ev):

  -115.8810 -70.2455 -70.2367 -70.2352 -65.3117 -32.3117 -32.3050 -32.2877
    -9.7771  -9.3243   1.3835   2.0378   2.0801   2.3052   2.7896   2.8717
     3.9329   5.0826   5.0850   5.8403   6.0733

     occupation numbers 
     1.0000   1.0000   1.0000   1.0000   1.0000   1.0000   1.0000   1.0000
     1.0000   1.0000   1.0000   1.0000   1.0000   1.0000   1.0000   1.0000
     1.0000   1.0000   1.0000   1.0000   1.0000

          k =-0.4945-0.8564-0.3159 (  3888 PWs)   bands (ev):

  -115.8810 -70.2455 -70.2367 -70.2352 -65.3117 -32.3117 -32.3051 -32.2877
    -9.7713  -9.3271   1.3630   2.0283   2.0344   2.2874   2.7884   2.8691
     3.9149   5.1366   5.2000   5.7887   6.1323

     occupation numbers 
     1.0000   1.0000   1.0000   1.0000   1.0000   1.0000   1.0000   1.0000
     1.0000   1.0000   1.0000   1.0000   1.0000   1.0000   1.0000   1.0000
     1.0000   1.0000   1.0000   1.0000   1.0000

     highest occupied level (ev):     6.8761

!    total energy              =    -651.13102253 Ry
     Harris-Foulkes estimate   =    -651.13102253 Ry
     estimated scf accuracy    <          3.7E-10 Ry

     The total energy is the sum of the following terms:

     one-electron contribution =    -538.94356602 Ry
     hartree contribution      =     282.70629547 Ry
     xc contribution           =     -73.06860849 Ry
     ewald contribution        =    -321.82514349 Ry

     convergence has been achieved in  10 iterations

     Forces acting on atoms (cartesian axes, Ry/au):

     atom    1 type  3   force =    -0.00000046    0.00000003   -0.00606801
     atom    2 type  3   force =    -0.00000064    0.00000040    0.00692005
     atom    3 type  2   force =     0.00000094    0.00000036   -0.00488663
     atom    4 type  1   force =     0.00000016   -0.00000079    0.00403459
     The non-local contrib.  to forces
     atom    1 type  3   force =    -0.00000018   -0.00000079    0.16108657
     atom    2 type  3   force =     0.00000050    0.00000087   -0.10987426
     atom    3 type  2   force =     0.00000206   -0.00000326    0.13657961
     atom    4 type  1   force =     0.00000117   -0.00000021    0.01318201
     The ionic contribution  to forces
     atom    1 type  3   force =    -0.00000572    0.00002100   -7.20830562
     atom    2 type  3   force =    -0.00001144    0.00000753    6.55132207
     atom    3 type  2   force =     0.00001066   -0.00002162    0.94237315
     atom    4 type  1   force =     0.00000650   -0.00000691   -0.28538960
     The local contribution  to forces
     atom    1 type  3   force =     0.00000543   -0.00002015    7.04268847
     atom    2 type  3   force =     0.00001031   -0.00000802   -6.43586127
     atom    3 type  2   force =    -0.00001181    0.00002533   -1.08375496
     atom    4 type  1   force =    -0.00000751    0.00000630    0.27623929
     The core correction contribution to forces
     atom    1 type  3   force =     0.00000001   -0.00000001   -0.00154912
     atom    2 type  3   force =    -0.00000000   -0.00000001    0.00132212
     atom    3 type  2   force =     0.00000000    0.00000000    0.00000000
     atom    4 type  1   force =     0.00000000    0.00000000    0.00000000
     The Hubbard contrib.    to forces
     atom    1 type  3   force =     0.00000000    0.00000000    0.00000000
     atom    2 type  3   force =     0.00000000    0.00000000    0.00000000
     atom    3 type  2   force =     0.00000000    0.00000000    0.00000000
     atom    4 type  1   force =     0.00000000    0.00000000    0.00000000
     The SCF correction term to forces
     atom    1 type  3   force =     0.00000000    0.00000000    0.00000000
     atom    2 type  3   force =     0.00000000    0.00000000    0.00000000
     atom    3 type  2   force =     0.00000000    0.00000000    0.00000000
     atom    4 type  1   force =     0.00000000    0.00000000    0.00000000

     Total force =     0.000000     Total SCF correction =     0.000000


     Computing stress (Cartesian axis) and pressure

          total   stress  (Ry/bohr**3)                   (kbar)     P=    0.43
   0.00000382  -0.00000000  -0.00000001          0.56     -0.00     -0.00
  -0.00000000   0.00000382  -0.00000001         -0.00      0.56     -0.00
  -0.00000001  -0.00000001   0.00000103         -0.00     -0.00      0.15

     kinetic stress (kbar)  26388.37      0.00     -0.00
                                0.00  26388.37     -0.00
                               -0.00     -0.00  26432.75

     local   stress (kbar) -18537.23     -0.01      0.02
                               -0.01 -18537.23     -0.06
                                0.02     -0.06   2610.72

     nonloc. stress (kbar)   1772.97      0.00      0.00
                                0.00   1772.97      0.00
                                0.00      0.00   1750.59

     hartree stress (kbar)  46743.80      0.00     -0.01
                                0.00  46743.80      0.02
                               -0.01      0.02  36568.72

     exc-cor stress (kbar) -10432.62      0.00      0.00
                                0.00 -10432.62      0.00
                                0.00      0.00 -10433.53

     corecor stress (kbar)   -248.63     -0.00      0.00
                               -0.00   -248.63     -0.00
                                0.00     -0.00   -248.72

     ewald   stress (kbar) -45686.10      0.00     -0.01
                                0.00 -45686.10      0.03
                               -0.01      0.03 -56680.38

     hubbard stress (kbar)      0.00      0.00      0.00
                                0.00      0.00      0.00
                                0.00      0.00      0.00

     london  stress (kbar)      0.00      0.00      0.00
                                0.00      0.00      0.00
                                0.00      0.00      0.00

     DFT-D3  stress (kbar)      0.00      0.00      0.00
                                0.00      0.00      0.00
                                0.00      0.00      0.00

     XDM     stress (kbar)      0.00      0.00      0.00
                                0.00      0.00      0.00
                                0.00      0.00      0.00

     dft-nl  stress (kbar)      0.00      0.00      0.00
                                0.00      0.00      0.00
                                0.00      0.00      0.00

     TS-vdW  stress (kbar)      0.00      0.00      0.00
                                0.00      0.00      0.00
                                0.00      0.00      0.00



     Writing output data file ZnO.save/
 
     init_run     :      1.13s CPU      1.69s WALL (       2 calls)
     electrons    :     93.77s CPU    100.27s WALL (      11 calls)
     update_pot   :      1.57s CPU      1.59s WALL (       9 calls)
     forces       :      1.73s CPU      1.77s WALL (      11 calls)
     stress       :      3.22s CPU      3.27s WALL (      11 calls)

     Called by init_run:
     wfcinit      :      0.61s CPU      0.80s WALL (       2 calls)
     wfcinit:atom :      0.01s CPU      0.01s WALL (     130 calls)
     wfcinit:wfcr :      0.57s CPU      0.76s WALL (     130 calls)
     potinit      :      0.14s CPU      0.25s WALL (       2 calls)
     hinit0       :      0.34s CPU      0.48s WALL (       2 calls)

     Called by electrons:
     c_bands      :     78.01s CPU     83.92s WALL (     116 calls)
     sum_band     :     11.72s CPU     12.05s WALL (     116 calls)
     v_of_rho     :      3.10s CPU      3.21s WALL (     124 calls)
     v_h          :      0.04s CPU      0.04s WALL (     124 calls)
     v_xc         :      3.60s CPU      3.70s WALL (     146 calls)
     newd         :      0.90s CPU      0.93s WALL (     124 calls)
     mix_rho      :      0.12s CPU      0.13s WALL (     116 calls)

     Called by c_bands:
     init_us_2    :      1.32s CPU      1.41s WALL (   16640 calls)
     cegterg      :     72.65s CPU     76.32s WALL (    7540 calls)

     Called by sum_band:
     sum_band:bec :      0.08s CPU      0.09s WALL (    7540 calls)
     addusdens    :      0.89s CPU      0.90s WALL (     116 calls)

     Called by *egterg:
     h_psi        :     43.19s CPU     44.78s WALL (   22470 calls)
     s_psi        :      1.51s CPU      1.56s WALL (   22470 calls)
     g_psi        :      0.10s CPU      0.10s WALL (   14800 calls)
     cdiaghg      :     17.20s CPU     18.51s WALL (   21560 calls)
     cegterg:over :      5.03s CPU      5.79s WALL (   14800 calls)
     cegterg:upda :      2.56s CPU      2.62s WALL (   14800 calls)
     cegterg:last :      1.71s CPU      1.74s WALL (    7800 calls)
     cdiaghg:chol :      0.83s CPU      1.06s WALL (   21560 calls)
     cdiaghg:inve :      0.32s CPU      0.36s WALL (   21560 calls)
     cdiaghg:para :      1.75s CPU      1.87s WALL (   43120 calls)

     Called by h_psi:
     h_psi:pot    :     43.07s CPU     44.66s WALL (   22470 calls)
     h_psi:calbec :      2.67s CPU      2.77s WALL (   22470 calls)
     vloc_psi     :     38.82s CPU     40.25s WALL (   22470 calls)
     add_vuspsi   :      1.52s CPU      1.58s WALL (   22470 calls)

     General routines
     calbec       :      4.16s CPU      4.31s WALL (   33585 calls)
     fft          :      0.56s CPU      0.60s WALL (    1877 calls)
     ffts         :      0.03s CPU      0.03s WALL (     240 calls)
     fftw         :     44.82s CPU     46.39s WALL (  955936 calls)
     interpolate  :      0.05s CPU      0.06s WALL (     124 calls)
 
     Parallel routines
     fft_scatt_xy :      6.28s CPU      6.49s WALL (  958053 calls)
     fft_scatt_yz :     23.36s CPU     24.23s WALL (  958053 calls)
 
     PWSCF        :   1m42.09s CPU   1m51.43s WALL

 
   This run was terminated on:  16:41:17   8Jun2022            

=------------------------------------------------------------------------------=
   JOB DONE.
=------------------------------------------------------------------------------=
