
     Program PWSCF v.6.4.1 starts on  8Jun2022 at 16:46:35 

     This program is part of the open-source Quantum ESPRESSO suite
     for quantum simulation of materials; please cite
         "P. Giannozzi et al., J. Phys.:Condens. Matter 21 395502 (2009);
         "P. Giannozzi et al., J. Phys.:Condens. Matter 29 465901 (2017);
          URL http://www.quantum-espresso.org", 
     in publications or presentations arising from this work. More details at
     http://www.quantum-espresso.org/quote

     Parallel version (MPI), running on    64 processors

     MPI processes distributed on     1 nodes
     K-points division:     npool     =       4
     R & G space division:  proc/nbgrp/npool/nimage =      16
     Waiting for input...
     Reading input from standard input

     Current dimensions of program PWSCF are:
     Max number of different atomic species (ntypx) = 10
     Max number of k-points (npk) =  40000
     Max angular momentum in pseudopotentials (lmaxx) =  3

     Subspace diagonalization in iterative solution of the eigenvalue problem:
     one sub-group per band group will be used
     scalapack distributed-memory algorithm (size of sub-group:  2*  2 procs)

 
     Parallelization info
     --------------------
     sticks:   dense  smooth     PW     G-vecs:    dense   smooth      PW
     Min          95      51     15                 4937     1921     333
     Max          96      52     16                 4944     1926     340
     Sum        1531     823    253                79067    30771    5395
 


     bravais-lattice index     =            0
     lattice parameter (alat)  =       6.1103  a.u.
     unit-cell volume          =     318.8455 (a.u.)^3
     number of atoms/cell      =            4
     number of atomic types    =            3
     number of electrons       =        42.00
     number of Kohn-Sham states=           21
     kinetic-energy cutoff     =      80.0000  Ry
     charge density cutoff     =     600.0000  Ry
     convergence threshold     =      1.0E-06
     mixing beta               =       0.5000
     number of iterations used =            8  plain     mixing
     Exchange-correlation      = SLA  PW   PSX  PSC ( 1  4 10  8 0 0)
     Using LIBXC version       =    4   3   4
     nstep                     =          200


     celldm(1)=   6.110292  celldm(2)=   0.000000  celldm(3)=   0.000000
     celldm(4)=   0.000000  celldm(5)=   0.000000  celldm(6)=   0.000000

     crystal axes: (cart. coord. in units of alat)
               a(1) = (   1.000000  -0.000000  -0.000000 )  
               a(2) = (  -0.500000   0.866025  -0.000000 )  
               a(3) = (  -0.000000  -0.000000   1.613853 )  

     reciprocal axes: (cart. coord. in units 2 pi/alat)
               b(1) = (  1.000000  0.577350  0.000000 )  
               b(2) = (  0.000000  1.154701  0.000000 )  
               b(3) = (  0.000000  0.000000  0.619635 )  


     PseudoPot. # 1 for Mg read from file:
     ./GBRV_PBEsol/mg_pbesol_v1.4.uspp.F.UPF
     MD5 check sum: 4059f37963cf5867752dbf5ab2400678
     Pseudo is Ultrasoft, Zval = 10.0
     Generated by new atomic code, or converted to UPF format
     Using radial grid of  821 points,  7 beta functions with: 
                l(1) =   0
                l(2) =   0
                l(3) =   0
                l(4) =   1
                l(5) =   1
                l(6) =   2
                l(7) =   2
     Q(r) pseudized with  8 coefficients,  rinner =    1.200   1.200   1.200
                                                       1.200   1.200

     PseudoPot. # 2 for Zn read from file:
     ./GBRV_PBEsol/zn_pbesol_v1.uspp.F.UPF
     MD5 check sum: 7d8615e52efe7c1e2b1899de8658bae2
     Pseudo is Ultrasoft, Zval = 20.0
     Generated by new atomic code, or converted to UPF format
     Using radial grid of  943 points,  6 beta functions with: 
                l(1) =   0
                l(2) =   0
                l(3) =   1
                l(4) =   1
                l(5) =   2
                l(6) =   2
     Q(r) pseudized with  8 coefficients,  rinner =    1.100   1.100   1.100
                                                       1.100   1.100

     PseudoPot. # 3 for O  read from file:
     ./GBRV_PBEsol/o_pbesol_v1.2.uspp.F.UPF
     MD5 check sum: 501638753501ef6325af9037351f7734
     Pseudo is Ultrasoft + core correction, Zval =  6.0
     Generated by new atomic code, or converted to UPF format
     Using radial grid of  737 points,  5 beta functions with: 
                l(1) =   0
                l(2) =   0
                l(3) =   1
                l(4) =   1
                l(5) =   2
     Q(r) pseudized with  8 coefficients,  rinner =    0.900   0.900   0.900
                                                       0.900   0.900

     atomic species   valence    mass     pseudopotential
        Mg            10.00    24.30500     Mg( 1.00)
        Zn            20.00    65.38000     Zn( 1.00)
        O              6.00    15.99900     O ( 1.00)

     No symmetry found


                                    s                        frac. trans.

      isym =  1     identity                                     

 cryst.   s( 1) = (     1          0          0      )
                  (     0          1          0      )
                  (     0          0          1      )

 cart.    s( 1) = (  1.0000000  0.0000000 -0.0000000 )
                  ( -0.0000000  1.0000000  0.0000000 )
                  ( -0.0000000 -0.0000000  1.0000000 )


   Cartesian axes

     site n.     atom                  positions (alat units)
         1           O   tau(   1) = (   0.5000001   0.2886754   0.0118550  )
         2           O   tau(   2) = (  -0.0000000   0.5773492   0.8187812  )
         3           Zn  tau(   3) = (   0.4999999   0.2886746   0.9424800  )
         4           Mg  tau(   4) = (  -0.0000004   0.5773508   1.7547071  )

   Crystallographic axes

     site n.     atom                  positions (cryst. coord.)
         1           O   tau(   1) = (  0.6666670  0.3333337  0.0073459  )
         2           O   tau(   2) = (  0.3333329  0.6666657  0.5073458  )
         3           Zn  tau(   3) = (  0.6666664  0.3333329  0.5839939  )
         4           Mg  tau(   4) = (  0.3333336  0.6666677  1.0872785  )

     number of k points=   260
                       cart. coord. in units 2pi/alat
        k(    1) = (   0.0000000   0.0000000   0.0000000), wk =   0.0039062
        k(    2) = (   0.0000000   0.0000000   0.0774544), wk =   0.0078125
        k(    3) = (   0.0000000   0.0000000   0.1549088), wk =   0.0078125
        k(    4) = (   0.0000000   0.0000000   0.2323632), wk =   0.0078125
        k(    5) = (  -0.0000000  -0.0000000  -0.3098176), wk =   0.0039062
        k(    6) = (   0.0000000   0.1443376   0.0000000), wk =   0.0078125
        k(    7) = (   0.0000000   0.1443376   0.0774544), wk =   0.0078125
        k(    8) = (   0.0000000   0.1443376   0.1549088), wk =   0.0078125
        k(    9) = (   0.0000000   0.1443376   0.2323633), wk =   0.0078125
        k(   10) = (  -0.0000000   0.1443375  -0.3098176), wk =   0.0078125
        k(   11) = (  -0.0000000   0.1443376  -0.2323632), wk =   0.0078125
        k(   12) = (  -0.0000000   0.1443376  -0.1549088), wk =   0.0078125
        k(   13) = (  -0.0000000   0.1443376  -0.0774544), wk =   0.0078125
        k(   14) = (   0.0000000   0.2886752   0.0000000), wk =   0.0078125
        k(   15) = (   0.0000000   0.2886752   0.0774545), wk =   0.0078125
        k(   16) = (   0.0000000   0.2886752   0.1549089), wk =   0.0078125
        k(   17) = (   0.0000000   0.2886752   0.2323633), wk =   0.0078125
        k(   18) = (  -0.0000000   0.2886751  -0.3098176), wk =   0.0078125
        k(   19) = (  -0.0000000   0.2886752  -0.2323632), wk =   0.0078125
        k(   20) = (  -0.0000000   0.2886752  -0.1549088), wk =   0.0078125
        k(   21) = (  -0.0000000   0.2886752  -0.0774544), wk =   0.0078125
        k(   22) = (   0.0000000   0.4330128   0.0000001), wk =   0.0078125
        k(   23) = (   0.0000000   0.4330128   0.0774545), wk =   0.0078125
        k(   24) = (   0.0000000   0.4330128   0.1549089), wk =   0.0078125
        k(   25) = (   0.0000000   0.4330128   0.2323633), wk =   0.0078125
        k(   26) = (  -0.0000000   0.4330127  -0.3098176), wk =   0.0078125
        k(   27) = (  -0.0000000   0.4330127  -0.2323632), wk =   0.0078125
        k(   28) = (  -0.0000000   0.4330128  -0.1549088), wk =   0.0078125
        k(   29) = (  -0.0000000   0.4330128  -0.0774543), wk =   0.0078125
        k(   30) = (  -0.0000000  -0.5773504  -0.0000001), wk =   0.0039062
        k(   31) = (  -0.0000000  -0.5773504   0.0774543), wk =   0.0078125
        k(   32) = (   0.0000000  -0.5773503   0.1549087), wk =   0.0078125
        k(   33) = (   0.0000000  -0.5773503   0.2323631), wk =   0.0078125
        k(   34) = (  -0.0000000  -0.5773504  -0.3098177), wk =   0.0039062
        k(   35) = (   0.1250000   0.0721688   0.0000000), wk =   0.0078125
        k(   36) = (   0.1250000   0.0721688   0.0774544), wk =   0.0078125
        k(   37) = (   0.1250000   0.0721688   0.1549088), wk =   0.0078125
        k(   38) = (   0.1250000   0.0721688   0.2323633), wk =   0.0078125
        k(   39) = (   0.1250000   0.0721688  -0.3098176), wk =   0.0078125
        k(   40) = (   0.1250000   0.0721688  -0.2323632), wk =   0.0078125
        k(   41) = (   0.1250000   0.0721688  -0.1549088), wk =   0.0078125
        k(   42) = (   0.1250000   0.0721688  -0.0774544), wk =   0.0078125
        k(   43) = (   0.1250000   0.2165064   0.0000000), wk =   0.0078125
        k(   44) = (   0.1250000   0.2165064   0.0774545), wk =   0.0078125
        k(   45) = (   0.1250000   0.2165064   0.1549089), wk =   0.0078125
        k(   46) = (   0.1250000   0.2165064   0.2323633), wk =   0.0078125
        k(   47) = (   0.1250000   0.2165063  -0.3098176), wk =   0.0078125
        k(   48) = (   0.1250000   0.2165064  -0.2323632), wk =   0.0078125
        k(   49) = (   0.1250000   0.2165064  -0.1549088), wk =   0.0078125
        k(   50) = (   0.1250000   0.2165064  -0.0774544), wk =   0.0078125
        k(   51) = (   0.1250000   0.3608440   0.0000001), wk =   0.0078125
        k(   52) = (   0.1250000   0.3608440   0.0774545), wk =   0.0078125
        k(   53) = (   0.1250000   0.3608440   0.1549089), wk =   0.0078125
        k(   54) = (   0.1250000   0.3608440   0.2323633), wk =   0.0078125
        k(   55) = (   0.1250000   0.3608439  -0.3098176), wk =   0.0078125
        k(   56) = (   0.1250000   0.3608440  -0.2323632), wk =   0.0078125
        k(   57) = (   0.1250000   0.3608440  -0.1549088), wk =   0.0078125
        k(   58) = (   0.1250000   0.3608440  -0.0774543), wk =   0.0078125
        k(   59) = (   0.1250000   0.5051816   0.0000001), wk =   0.0078125
        k(   60) = (   0.1250000   0.5051816   0.0774545), wk =   0.0078125
        k(   61) = (   0.1250000   0.5051816   0.1549089), wk =   0.0078125
        k(   62) = (   0.1250000   0.5051816   0.2323633), wk =   0.0078125
        k(   63) = (   0.1250000   0.5051815  -0.3098176), wk =   0.0078125
        k(   64) = (   0.1250000   0.5051815  -0.2323631), wk =   0.0078125
        k(   65) = (   0.1250000   0.5051816  -0.1549087), wk =   0.0078125
        k(   66) = (   0.1250000   0.5051816  -0.0774543), wk =   0.0078125
        k(   67) = (   0.1250000  -0.5051816  -0.0000001), wk =   0.0078125
        k(   68) = (   0.1250000  -0.5051816   0.0774543), wk =   0.0078125
        k(   69) = (   0.1250000  -0.5051816   0.1549088), wk =   0.0078125
        k(   70) = (   0.1250000  -0.5051815   0.2323632), wk =   0.0078125
        k(   71) = (   0.1250000  -0.5051816  -0.3098177), wk =   0.0078125
        k(   72) = (   0.1250000  -0.5051816  -0.2323633), wk =   0.0078125
        k(   73) = (   0.1250000  -0.5051816  -0.1549089), wk =   0.0078125
        k(   74) = (   0.1250000  -0.5051816  -0.0774545), wk =   0.0078125
        k(   75) = (   0.1250000  -0.3608440  -0.0000000), wk =   0.0078125
        k(   76) = (   0.1250000  -0.3608440   0.0774544), wk =   0.0078125
        k(   77) = (   0.1250000  -0.3608440   0.1549088), wk =   0.0078125
        k(   78) = (   0.1250000  -0.3608439   0.2323632), wk =   0.0078125
        k(   79) = (   0.1250000  -0.3608440  -0.3098177), wk =   0.0078125
        k(   80) = (   0.1250000  -0.3608440  -0.2323633), wk =   0.0078125
        k(   81) = (   0.1250000  -0.3608440  -0.1549089), wk =   0.0078125
        k(   82) = (   0.1250000  -0.3608440  -0.0774545), wk =   0.0078125
        k(   83) = (   0.1250000  -0.2165064  -0.0000000), wk =   0.0078125
        k(   84) = (   0.1250000  -0.2165064   0.0774544), wk =   0.0078125
        k(   85) = (   0.1250000  -0.2165064   0.1549088), wk =   0.0078125
        k(   86) = (   0.1250000  -0.2165064   0.2323632), wk =   0.0078125
        k(   87) = (   0.1250000  -0.2165064  -0.3098177), wk =   0.0078125
        k(   88) = (   0.1250000  -0.2165064  -0.2323633), wk =   0.0078125
        k(   89) = (   0.1250000  -0.2165064  -0.1549088), wk =   0.0078125
        k(   90) = (   0.1250000  -0.2165064  -0.0774544), wk =   0.0078125
        k(   91) = (   0.1250000  -0.0721688   0.0000000), wk =   0.0078125
        k(   92) = (   0.1250000  -0.0721688   0.0774544), wk =   0.0078125
        k(   93) = (   0.1250000  -0.0721688   0.1549088), wk =   0.0078125
        k(   94) = (   0.1250000  -0.0721688   0.2323632), wk =   0.0078125
        k(   95) = (   0.1250000  -0.0721688  -0.3098176), wk =   0.0078125
        k(   96) = (   0.1250000  -0.0721688  -0.2323632), wk =   0.0078125
        k(   97) = (   0.1250000  -0.0721688  -0.1549088), wk =   0.0078125
        k(   98) = (   0.1250000  -0.0721688  -0.0774544), wk =   0.0078125
        k(   99) = (   0.2500000   0.1443376   0.0000000), wk =   0.0078125
        k(  100) = (   0.2500000   0.1443376   0.0774545), wk =   0.0078125
        k(  101) = (   0.2500000   0.1443376   0.1549089), wk =   0.0078125
        k(  102) = (   0.2500000   0.1443376   0.2323633), wk =   0.0078125
        k(  103) = (   0.2500000   0.1443376  -0.3098176), wk =   0.0078125
        k(  104) = (   0.2500000   0.1443376  -0.2323632), wk =   0.0078125
        k(  105) = (   0.2500000   0.1443376  -0.1549088), wk =   0.0078125
        k(  106) = (   0.2500000   0.1443376  -0.0774544), wk =   0.0078125
        k(  107) = (   0.2500000   0.2886752   0.0000001), wk =   0.0078125
        k(  108) = (   0.2500000   0.2886752   0.0774545), wk =   0.0078125
        k(  109) = (   0.2500000   0.2886752   0.1549089), wk =   0.0078125
        k(  110) = (   0.2500000   0.2886752   0.2323633), wk =   0.0078125
        k(  111) = (   0.2500000   0.2886751  -0.3098176), wk =   0.0078125
        k(  112) = (   0.2500000   0.2886752  -0.2323632), wk =   0.0078125
        k(  113) = (   0.2500000   0.2886752  -0.1549088), wk =   0.0078125
        k(  114) = (   0.2500000   0.2886752  -0.0774543), wk =   0.0078125
        k(  115) = (   0.2500000   0.4330128   0.0000001), wk =   0.0078125
        k(  116) = (   0.2500000   0.4330128   0.0774545), wk =   0.0078125
        k(  117) = (   0.2500000   0.4330128   0.1549089), wk =   0.0078125
        k(  118) = (   0.2500000   0.4330128   0.2323633), wk =   0.0078125
        k(  119) = (   0.2500000   0.4330127  -0.3098176), wk =   0.0078125
        k(  120) = (   0.2500000   0.4330127  -0.2323631), wk =   0.0078125
        k(  121) = (   0.2500000   0.4330128  -0.1549087), wk =   0.0078125
        k(  122) = (   0.2500000   0.4330128  -0.0774543), wk =   0.0078125
        k(  123) = (   0.2500000   0.5773504   0.0000001), wk =   0.0078125
        k(  124) = (   0.2500000   0.5773504   0.0774545), wk =   0.0078125
        k(  125) = (   0.2500000   0.5773504   0.1549089), wk =   0.0078125
        k(  126) = (   0.2500000   0.5773504   0.2323633), wk =   0.0078125
        k(  127) = (   0.2500000   0.5773503  -0.3098175), wk =   0.0078125
        k(  128) = (   0.2500000   0.5773503  -0.2323631), wk =   0.0078125
        k(  129) = (   0.2500000   0.5773504  -0.1549087), wk =   0.0078125
        k(  130) = (   0.2500000   0.5773504  -0.0774543), wk =   0.0078125
        k(  131) = (   0.2500000  -0.4330128  -0.0000000), wk =   0.0078125
        k(  132) = (   0.2500000  -0.4330128   0.0774544), wk =   0.0078125
        k(  133) = (   0.2500000  -0.4330128   0.1549088), wk =   0.0078125
        k(  134) = (   0.2500000  -0.4330127   0.2323632), wk =   0.0078125
        k(  135) = (   0.2500000  -0.4330128  -0.3098177), wk =   0.0078125
        k(  136) = (   0.2500000  -0.4330128  -0.2323633), wk =   0.0078125
        k(  137) = (   0.2500000  -0.4330128  -0.1549089), wk =   0.0078125
        k(  138) = (   0.2500000  -0.4330128  -0.0774545), wk =   0.0078125
        k(  139) = (   0.2500000  -0.2886752  -0.0000000), wk =   0.0078125
        k(  140) = (   0.2500000  -0.2886752   0.0774544), wk =   0.0078125
        k(  141) = (   0.2500000  -0.2886752   0.1549088), wk =   0.0078125
        k(  142) = (   0.2500000  -0.2886751   0.2323632), wk =   0.0078125
        k(  143) = (   0.2500000  -0.2886752  -0.3098177), wk =   0.0078125
        k(  144) = (   0.2500000  -0.2886752  -0.2323633), wk =   0.0078125
        k(  145) = (   0.2500000  -0.2886752  -0.1549088), wk =   0.0078125
        k(  146) = (   0.2500000  -0.2886752  -0.0774544), wk =   0.0078125
        k(  147) = (   0.2500000  -0.1443376   0.0000000), wk =   0.0078125
        k(  148) = (   0.2500000  -0.1443376   0.0774544), wk =   0.0078125
        k(  149) = (   0.2500000  -0.1443376   0.1549088), wk =   0.0078125
        k(  150) = (   0.2500000  -0.1443376   0.2323632), wk =   0.0078125
        k(  151) = (   0.2500000  -0.1443376  -0.3098176), wk =   0.0078125
        k(  152) = (   0.2500000  -0.1443376  -0.2323632), wk =   0.0078125
        k(  153) = (   0.2500000  -0.1443376  -0.1549088), wk =   0.0078125
        k(  154) = (   0.2500000  -0.1443376  -0.0774544), wk =   0.0078125
        k(  155) = (   0.2500000   0.0000000   0.0000000), wk =   0.0078125
        k(  156) = (   0.2500000   0.0000000   0.0774544), wk =   0.0078125
        k(  157) = (   0.2500000   0.0000000   0.1549088), wk =   0.0078125
        k(  158) = (   0.2500000   0.0000000   0.2323633), wk =   0.0078125
        k(  159) = (   0.2500000  -0.0000000  -0.3098176), wk =   0.0078125
        k(  160) = (   0.2500000  -0.0000000  -0.2323632), wk =   0.0078125
        k(  161) = (   0.2500000  -0.0000000  -0.1549088), wk =   0.0078125
        k(  162) = (   0.2500000  -0.0000000  -0.0774544), wk =   0.0078125
        k(  163) = (   0.3750000   0.2165064   0.0000001), wk =   0.0078125
        k(  164) = (   0.3750000   0.2165064   0.0774545), wk =   0.0078125
        k(  165) = (   0.3750000   0.2165064   0.1549089), wk =   0.0078125
        k(  166) = (   0.3750000   0.2165064   0.2323633), wk =   0.0078125
        k(  167) = (   0.3750000   0.2165063  -0.3098176), wk =   0.0078125
        k(  168) = (   0.3750000   0.2165064  -0.2323632), wk =   0.0078125
        k(  169) = (   0.3750000   0.2165064  -0.1549088), wk =   0.0078125
        k(  170) = (   0.3750000   0.2165064  -0.0774543), wk =   0.0078125
        k(  171) = (   0.3750000   0.3608440   0.0000001), wk =   0.0078125
        k(  172) = (   0.3750000   0.3608440   0.0774545), wk =   0.0078125
        k(  173) = (   0.3750000   0.3608440   0.1549089), wk =   0.0078125
        k(  174) = (   0.3750000   0.3608440   0.2323633), wk =   0.0078125
        k(  175) = (   0.3750000   0.3608439  -0.3098176), wk =   0.0078125
        k(  176) = (   0.3750000   0.3608440  -0.2323631), wk =   0.0078125
        k(  177) = (   0.3750000   0.3608440  -0.1549087), wk =   0.0078125
        k(  178) = (   0.3750000   0.3608440  -0.0774543), wk =   0.0078125
        k(  179) = (   0.3750000   0.5051816   0.0000001), wk =   0.0078125
        k(  180) = (   0.3750000   0.5051816   0.0774545), wk =   0.0078125
        k(  181) = (   0.3750000   0.5051816   0.1549089), wk =   0.0078125
        k(  182) = (   0.3750000   0.5051816   0.2323633), wk =   0.0078125
        k(  183) = (   0.3750000   0.5051815  -0.3098175), wk =   0.0078125
        k(  184) = (   0.3750000   0.5051815  -0.2323631), wk =   0.0078125
        k(  185) = (   0.3750000   0.5051816  -0.1549087), wk =   0.0078125
        k(  186) = (   0.3750000   0.5051816  -0.0774543), wk =   0.0078125
        k(  187) = (   0.3750000   0.6495192   0.0000001), wk =   0.0078125
        k(  188) = (   0.3750000   0.6495192   0.0774545), wk =   0.0078125
        k(  189) = (   0.3750000   0.6495192   0.1549090), wk =   0.0078125
        k(  190) = (   0.3750000   0.6495192   0.2323634), wk =   0.0078125
        k(  191) = (   0.3750000   0.6495191  -0.3098175), wk =   0.0078125
        k(  192) = (   0.3750000   0.6495191  -0.2323631), wk =   0.0078125
        k(  193) = (   0.3750000   0.6495192  -0.1549087), wk =   0.0078125
        k(  194) = (   0.3750000   0.6495192  -0.0774543), wk =   0.0078125
        k(  195) = (   0.3750000  -0.3608440  -0.0000000), wk =   0.0078125
        k(  196) = (   0.3750000  -0.3608440   0.0774544), wk =   0.0078125
        k(  197) = (   0.3750000  -0.3608440   0.1549088), wk =   0.0078125
        k(  198) = (   0.3750000  -0.3608439   0.2323632), wk =   0.0078125
        k(  199) = (   0.3750000  -0.3608440  -0.3098177), wk =   0.0078125
        k(  200) = (   0.3750000  -0.3608440  -0.2323632), wk =   0.0078125
        k(  201) = (   0.3750000  -0.3608440  -0.1549088), wk =   0.0078125
        k(  202) = (   0.3750000  -0.3608440  -0.0774544), wk =   0.0078125
        k(  203) = (   0.3750000  -0.2165064   0.0000000), wk =   0.0078125
        k(  204) = (   0.3750000  -0.2165064   0.0774544), wk =   0.0078125
        k(  205) = (   0.3750000  -0.2165064   0.1549088), wk =   0.0078125
        k(  206) = (   0.3750000  -0.2165063   0.2323632), wk =   0.0078125
        k(  207) = (   0.3750000  -0.2165064  -0.3098176), wk =   0.0078125
        k(  208) = (   0.3750000  -0.2165064  -0.2323632), wk =   0.0078125
        k(  209) = (   0.3750000  -0.2165064  -0.1549088), wk =   0.0078125
        k(  210) = (   0.3750000  -0.2165064  -0.0774544), wk =   0.0078125
        k(  211) = (   0.3750000  -0.0721688   0.0000000), wk =   0.0078125
        k(  212) = (   0.3750000  -0.0721688   0.0774544), wk =   0.0078125
        k(  213) = (   0.3750000  -0.0721688   0.1549088), wk =   0.0078125
        k(  214) = (   0.3750000  -0.0721688   0.2323633), wk =   0.0078125
        k(  215) = (   0.3750000  -0.0721688  -0.3098176), wk =   0.0078125
        k(  216) = (   0.3750000  -0.0721688  -0.2323632), wk =   0.0078125
        k(  217) = (   0.3750000  -0.0721688  -0.1549088), wk =   0.0078125
        k(  218) = (   0.3750000  -0.0721688  -0.0774544), wk =   0.0078125
        k(  219) = (   0.3750000   0.0721688   0.0000000), wk =   0.0078125
        k(  220) = (   0.3750000   0.0721688   0.0774545), wk =   0.0078125
        k(  221) = (   0.3750000   0.0721688   0.1549089), wk =   0.0078125
        k(  222) = (   0.3750000   0.0721688   0.2323633), wk =   0.0078125
        k(  223) = (   0.3750000   0.0721688  -0.3098176), wk =   0.0078125
        k(  224) = (   0.3750000   0.0721688  -0.2323632), wk =   0.0078125
        k(  225) = (   0.3750000   0.0721688  -0.1549088), wk =   0.0078125
        k(  226) = (   0.3750000   0.0721688  -0.0774544), wk =   0.0078125
        k(  227) = (  -0.5000000  -0.2886752  -0.0000001), wk =   0.0039062
        k(  228) = (  -0.5000000  -0.2886752   0.0774543), wk =   0.0078125
        k(  229) = (  -0.5000000  -0.2886752   0.1549087), wk =   0.0078125
        k(  230) = (  -0.5000000  -0.2886752   0.2323631), wk =   0.0078125
        k(  231) = (  -0.5000000  -0.2886752  -0.3098177), wk =   0.0039062
        k(  232) = (  -0.5000000  -0.1443376  -0.0000001), wk =   0.0078125
        k(  233) = (  -0.5000000  -0.1443376   0.0774543), wk =   0.0078125
        k(  234) = (  -0.5000000  -0.1443376   0.1549088), wk =   0.0078125
        k(  235) = (  -0.5000000  -0.1443376   0.2323632), wk =   0.0078125
        k(  236) = (  -0.5000000  -0.1443376  -0.3098177), wk =   0.0078125
        k(  237) = (  -0.5000000  -0.1443376  -0.2323633), wk =   0.0078125
        k(  238) = (  -0.5000000  -0.1443376  -0.1549089), wk =   0.0078125
        k(  239) = (  -0.5000000  -0.1443376  -0.0774545), wk =   0.0078125
        k(  240) = (  -0.5000000  -0.0000000  -0.0000000), wk =   0.0078125
        k(  241) = (  -0.5000000   0.0000000   0.0774544), wk =   0.0078125
        k(  242) = (  -0.5000000   0.0000000   0.1549088), wk =   0.0078125
        k(  243) = (  -0.5000000   0.0000000   0.2323632), wk =   0.0078125
        k(  244) = (  -0.5000000  -0.0000001  -0.3098177), wk =   0.0078125
        k(  245) = (  -0.5000000  -0.0000000  -0.2323633), wk =   0.0078125
        k(  246) = (  -0.5000000  -0.0000000  -0.1549089), wk =   0.0078125
        k(  247) = (  -0.5000000  -0.0000000  -0.0774545), wk =   0.0078125
        k(  248) = (  -0.5000000   0.1443376  -0.0000000), wk =   0.0078125
        k(  249) = (  -0.5000000   0.1443376   0.0774544), wk =   0.0078125
        k(  250) = (  -0.5000000   0.1443376   0.1549088), wk =   0.0078125
        k(  251) = (  -0.5000000   0.1443376   0.2323632), wk =   0.0078125
        k(  252) = (  -0.5000000   0.1443375  -0.3098177), wk =   0.0078125
        k(  253) = (  -0.5000000   0.1443375  -0.2323633), wk =   0.0078125
        k(  254) = (  -0.5000000   0.1443376  -0.1549089), wk =   0.0078125
        k(  255) = (  -0.5000000   0.1443376  -0.0774544), wk =   0.0078125
        k(  256) = (  -0.5000000  -0.8660256  -0.0000002), wk =   0.0039062
        k(  257) = (  -0.5000000  -0.8660256   0.0774542), wk =   0.0078125
        k(  258) = (  -0.5000000  -0.8660255   0.1549086), wk =   0.0078125
        k(  259) = (  -0.5000000  -0.8660255   0.2323631), wk =   0.0078125
        k(  260) = (  -0.5000000  -0.8660256  -0.3098178), wk =   0.0039062

                       cryst. coord.
        k(    1) = (   0.0000000   0.0000000   0.0000000), wk =   0.0039062
        k(    2) = (  -0.0000000  -0.0000000   0.1250000), wk =   0.0078125
        k(    3) = (  -0.0000000  -0.0000000   0.2500000), wk =   0.0078125
        k(    4) = (  -0.0000000  -0.0000000   0.3750000), wk =   0.0078125
        k(    5) = (   0.0000000   0.0000000  -0.5000000), wk =   0.0039062
        k(    6) = (  -0.0000000   0.1250000   0.0000000), wk =   0.0078125
        k(    7) = (   0.0000000   0.1250000   0.1250000), wk =   0.0078125
        k(    8) = (   0.0000000   0.1250000   0.2500000), wk =   0.0078125
        k(    9) = (   0.0000000   0.1250000   0.3750000), wk =   0.0078125
        k(   10) = (  -0.0000000   0.1250000  -0.5000000), wk =   0.0078125
        k(   11) = (  -0.0000000   0.1250000  -0.3750000), wk =   0.0078125
        k(   12) = (   0.0000000   0.1250000  -0.2500000), wk =   0.0078125
        k(   13) = (  -0.0000000   0.1250000  -0.1250000), wk =   0.0078125
        k(   14) = (  -0.0000000   0.2500000   0.0000000), wk =   0.0078125
        k(   15) = (   0.0000000   0.2500000   0.1250000), wk =   0.0078125
        k(   16) = (   0.0000000   0.2500000   0.2500000), wk =   0.0078125
        k(   17) = (   0.0000000   0.2500000   0.3750000), wk =   0.0078125
        k(   18) = (   0.0000000   0.2500000  -0.5000000), wk =   0.0078125
        k(   19) = (  -0.0000000   0.2500000  -0.3750000), wk =   0.0078125
        k(   20) = (  -0.0000000   0.2500000  -0.2500000), wk =   0.0078125
        k(   21) = (  -0.0000000   0.2500000  -0.1250000), wk =   0.0078125
        k(   22) = (   0.0000000   0.3750000  -0.0000000), wk =   0.0078125
        k(   23) = (  -0.0000000   0.3750000   0.1250000), wk =   0.0078125
        k(   24) = (   0.0000000   0.3750000   0.2500000), wk =   0.0078125
        k(   25) = (   0.0000000   0.3750000   0.3750000), wk =   0.0078125
        k(   26) = (  -0.0000000   0.3750000  -0.5000000), wk =   0.0078125
        k(   27) = (   0.0000000   0.3750000  -0.3750000), wk =   0.0078125
        k(   28) = (   0.0000000   0.3750000  -0.2500000), wk =   0.0078125
        k(   29) = (   0.0000000   0.3750000  -0.1250000), wk =   0.0078125
        k(   30) = (   0.0000000  -0.5000000  -0.0000000), wk =   0.0039062
        k(   31) = (  -0.0000000  -0.5000000   0.1250000), wk =   0.0078125
        k(   32) = (   0.0000000  -0.5000000   0.2500000), wk =   0.0078125
        k(   33) = (  -0.0000000  -0.5000000   0.3750000), wk =   0.0078125
        k(   34) = (  -0.0000000  -0.5000000  -0.5000000), wk =   0.0039062
        k(   35) = (   0.1250000  -0.0000000  -0.0000000), wk =   0.0078125
        k(   36) = (   0.1250000  -0.0000000   0.1250000), wk =   0.0078125
        k(   37) = (   0.1250000   0.0000000   0.2500000), wk =   0.0078125
        k(   38) = (   0.1250000  -0.0000000   0.3750000), wk =   0.0078125
        k(   39) = (   0.1250000  -0.0000000  -0.5000000), wk =   0.0078125
        k(   40) = (   0.1250000   0.0000000  -0.3750000), wk =   0.0078125
        k(   41) = (   0.1250000  -0.0000000  -0.2500000), wk =   0.0078125
        k(   42) = (   0.1250000  -0.0000000  -0.1250000), wk =   0.0078125
        k(   43) = (   0.1250000   0.1250000  -0.0000000), wk =   0.0078125
        k(   44) = (   0.1250000   0.1250000   0.1250000), wk =   0.0078125
        k(   45) = (   0.1250000   0.1250000   0.2500000), wk =   0.0078125
        k(   46) = (   0.1250000   0.1250000   0.3750000), wk =   0.0078125
        k(   47) = (   0.1250000   0.1250000  -0.5000000), wk =   0.0078125
        k(   48) = (   0.1250000   0.1250000  -0.3750000), wk =   0.0078125
        k(   49) = (   0.1250000   0.1250000  -0.2500000), wk =   0.0078125
        k(   50) = (   0.1250000   0.1250000  -0.1250000), wk =   0.0078125
        k(   51) = (   0.1250000   0.2500000   0.0000000), wk =   0.0078125
        k(   52) = (   0.1250000   0.2500000   0.1250000), wk =   0.0078125
        k(   53) = (   0.1250000   0.2500000   0.2500000), wk =   0.0078125
        k(   54) = (   0.1250000   0.2500000   0.3750000), wk =   0.0078125
        k(   55) = (   0.1250000   0.2500000  -0.5000000), wk =   0.0078125
        k(   56) = (   0.1250000   0.2500000  -0.3750000), wk =   0.0078125
        k(   57) = (   0.1250000   0.2500000  -0.2500000), wk =   0.0078125
        k(   58) = (   0.1250000   0.2500000  -0.1250000), wk =   0.0078125
        k(   59) = (   0.1250000   0.3750000  -0.0000000), wk =   0.0078125
        k(   60) = (   0.1250000   0.3750000   0.1250000), wk =   0.0078125
        k(   61) = (   0.1250000   0.3750000   0.2500000), wk =   0.0078125
        k(   62) = (   0.1250000   0.3750000   0.3750000), wk =   0.0078125
        k(   63) = (   0.1250000   0.3750000  -0.5000000), wk =   0.0078125
        k(   64) = (   0.1250000   0.3750000  -0.3750000), wk =   0.0078125
        k(   65) = (   0.1250000   0.3750000  -0.2500000), wk =   0.0078125
        k(   66) = (   0.1250000   0.3750000  -0.1250000), wk =   0.0078125
        k(   67) = (   0.1250000  -0.5000000  -0.0000000), wk =   0.0078125
        k(   68) = (   0.1250000  -0.5000000   0.1250000), wk =   0.0078125
        k(   69) = (   0.1250000  -0.5000000   0.2500000), wk =   0.0078125
        k(   70) = (   0.1250000  -0.5000000   0.3750000), wk =   0.0078125
        k(   71) = (   0.1250000  -0.5000000  -0.5000000), wk =   0.0078125
        k(   72) = (   0.1250000  -0.5000000  -0.3750000), wk =   0.0078125
        k(   73) = (   0.1250000  -0.5000000  -0.2500000), wk =   0.0078125
        k(   74) = (   0.1250000  -0.5000000  -0.1250000), wk =   0.0078125
        k(   75) = (   0.1250000  -0.3750000   0.0000000), wk =   0.0078125
        k(   76) = (   0.1250000  -0.3750000   0.1250000), wk =   0.0078125
        k(   77) = (   0.1250000  -0.3750000   0.2500000), wk =   0.0078125
        k(   78) = (   0.1250000  -0.3750000   0.3750000), wk =   0.0078125
        k(   79) = (   0.1250000  -0.3750000  -0.5000000), wk =   0.0078125
        k(   80) = (   0.1250000  -0.3750000  -0.3750000), wk =   0.0078125
        k(   81) = (   0.1250000  -0.3750000  -0.2500000), wk =   0.0078125
        k(   82) = (   0.1250000  -0.3750000  -0.1250000), wk =   0.0078125
        k(   83) = (   0.1250000  -0.2500000  -0.0000000), wk =   0.0078125
        k(   84) = (   0.1250000  -0.2500000   0.1250000), wk =   0.0078125
        k(   85) = (   0.1250000  -0.2500000   0.2500000), wk =   0.0078125
        k(   86) = (   0.1250000  -0.2500000   0.3750000), wk =   0.0078125
        k(   87) = (   0.1250000  -0.2500000  -0.5000000), wk =   0.0078125
        k(   88) = (   0.1250000  -0.2500000  -0.3750000), wk =   0.0078125
        k(   89) = (   0.1250000  -0.2500000  -0.2500000), wk =   0.0078125
        k(   90) = (   0.1250000  -0.2500000  -0.1250000), wk =   0.0078125
        k(   91) = (   0.1250000  -0.1250000  -0.0000000), wk =   0.0078125
        k(   92) = (   0.1250000  -0.1250000   0.1250000), wk =   0.0078125
        k(   93) = (   0.1250000  -0.1250000   0.2500000), wk =   0.0078125
        k(   94) = (   0.1250000  -0.1250000   0.3750000), wk =   0.0078125
        k(   95) = (   0.1250000  -0.1250000  -0.5000000), wk =   0.0078125
        k(   96) = (   0.1250000  -0.1250000  -0.3750000), wk =   0.0078125
        k(   97) = (   0.1250000  -0.1250000  -0.2500000), wk =   0.0078125
        k(   98) = (   0.1250000  -0.1250000  -0.1250000), wk =   0.0078125
        k(   99) = (   0.2500000  -0.0000000  -0.0000000), wk =   0.0078125
        k(  100) = (   0.2500000  -0.0000000   0.1250000), wk =   0.0078125
        k(  101) = (   0.2500000  -0.0000000   0.2500000), wk =   0.0078125
        k(  102) = (   0.2500000   0.0000000   0.3750000), wk =   0.0078125
        k(  103) = (   0.2500000  -0.0000000  -0.5000000), wk =   0.0078125
        k(  104) = (   0.2500000  -0.0000000  -0.3750000), wk =   0.0078125
        k(  105) = (   0.2500000  -0.0000000  -0.2500000), wk =   0.0078125
        k(  106) = (   0.2500000   0.0000000  -0.1250000), wk =   0.0078125
        k(  107) = (   0.2500000   0.1250000  -0.0000000), wk =   0.0078125
        k(  108) = (   0.2500000   0.1250000   0.1250000), wk =   0.0078125
        k(  109) = (   0.2500000   0.1250000   0.2500000), wk =   0.0078125
        k(  110) = (   0.2500000   0.1250000   0.3750000), wk =   0.0078125
        k(  111) = (   0.2500000   0.1250000  -0.5000000), wk =   0.0078125
        k(  112) = (   0.2500000   0.1250000  -0.3750000), wk =   0.0078125
        k(  113) = (   0.2500000   0.1250000  -0.2500000), wk =   0.0078125
        k(  114) = (   0.2500000   0.1250000  -0.1250000), wk =   0.0078125
        k(  115) = (   0.2500000   0.2500000  -0.0000000), wk =   0.0078125
        k(  116) = (   0.2500000   0.2500000   0.1250000), wk =   0.0078125
        k(  117) = (   0.2500000   0.2500000   0.2500000), wk =   0.0078125
        k(  118) = (   0.2500000   0.2500000   0.3750000), wk =   0.0078125
        k(  119) = (   0.2500000   0.2500000  -0.5000000), wk =   0.0078125
        k(  120) = (   0.2500000   0.2500000  -0.3750000), wk =   0.0078125
        k(  121) = (   0.2500000   0.2500000  -0.2500000), wk =   0.0078125
        k(  122) = (   0.2500000   0.2500000  -0.1250000), wk =   0.0078125
        k(  123) = (   0.2500000   0.3750000  -0.0000000), wk =   0.0078125
        k(  124) = (   0.2500000   0.3750000   0.1250000), wk =   0.0078125
        k(  125) = (   0.2500000   0.3750000   0.2500000), wk =   0.0078125
        k(  126) = (   0.2500000   0.3750000   0.3750000), wk =   0.0078125
        k(  127) = (   0.2500000   0.3750000  -0.5000000), wk =   0.0078125
        k(  128) = (   0.2500000   0.3750000  -0.3750000), wk =   0.0078125
        k(  129) = (   0.2500000   0.3750000  -0.2500000), wk =   0.0078125
        k(  130) = (   0.2500000   0.3750000  -0.1250000), wk =   0.0078125
        k(  131) = (   0.2500000  -0.5000000  -0.0000000), wk =   0.0078125
        k(  132) = (   0.2500000  -0.5000000   0.1250000), wk =   0.0078125
        k(  133) = (   0.2500000  -0.5000000   0.2500000), wk =   0.0078125
        k(  134) = (   0.2500000  -0.5000000   0.3750000), wk =   0.0078125
        k(  135) = (   0.2500000  -0.5000000  -0.5000000), wk =   0.0078125
        k(  136) = (   0.2500000  -0.5000000  -0.3750000), wk =   0.0078125
        k(  137) = (   0.2500000  -0.5000000  -0.2500000), wk =   0.0078125
        k(  138) = (   0.2500000  -0.5000000  -0.1250000), wk =   0.0078125
        k(  139) = (   0.2500000  -0.3750000  -0.0000000), wk =   0.0078125
        k(  140) = (   0.2500000  -0.3750000   0.1250000), wk =   0.0078125
        k(  141) = (   0.2500000  -0.3750000   0.2500000), wk =   0.0078125
        k(  142) = (   0.2500000  -0.3750000   0.3750000), wk =   0.0078125
        k(  143) = (   0.2500000  -0.3750000  -0.5000000), wk =   0.0078125
        k(  144) = (   0.2500000  -0.3750000  -0.3750000), wk =   0.0078125
        k(  145) = (   0.2500000  -0.3750000  -0.2500000), wk =   0.0078125
        k(  146) = (   0.2500000  -0.3750000  -0.1250000), wk =   0.0078125
        k(  147) = (   0.2500000  -0.2500000  -0.0000000), wk =   0.0078125
        k(  148) = (   0.2500000  -0.2500000   0.1250000), wk =   0.0078125
        k(  149) = (   0.2500000  -0.2500000   0.2500000), wk =   0.0078125
        k(  150) = (   0.2500000  -0.2500000   0.3750000), wk =   0.0078125
        k(  151) = (   0.2500000  -0.2500000  -0.5000000), wk =   0.0078125
        k(  152) = (   0.2500000  -0.2500000  -0.3750000), wk =   0.0078125
        k(  153) = (   0.2500000  -0.2500000  -0.2500000), wk =   0.0078125
        k(  154) = (   0.2500000  -0.2500000  -0.1250000), wk =   0.0078125
        k(  155) = (   0.2500000  -0.1250000  -0.0000000), wk =   0.0078125
        k(  156) = (   0.2500000  -0.1250000   0.1250000), wk =   0.0078125
        k(  157) = (   0.2500000  -0.1250000   0.2500000), wk =   0.0078125
        k(  158) = (   0.2500000  -0.1250000   0.3750000), wk =   0.0078125
        k(  159) = (   0.2500000  -0.1250000  -0.5000000), wk =   0.0078125
        k(  160) = (   0.2500000  -0.1250000  -0.3750000), wk =   0.0078125
        k(  161) = (   0.2500000  -0.1250000  -0.2500000), wk =   0.0078125
        k(  162) = (   0.2500000  -0.1250000  -0.1250000), wk =   0.0078125
        k(  163) = (   0.3750000  -0.0000000  -0.0000000), wk =   0.0078125
        k(  164) = (   0.3750000  -0.0000000   0.1250000), wk =   0.0078125
        k(  165) = (   0.3750000  -0.0000000   0.2500000), wk =   0.0078125
        k(  166) = (   0.3750000   0.0000000   0.3750000), wk =   0.0078125
        k(  167) = (   0.3750000   0.0000000  -0.5000000), wk =   0.0078125
        k(  168) = (   0.3750000   0.0000000  -0.3750000), wk =   0.0078125
        k(  169) = (   0.3750000   0.0000000  -0.2500000), wk =   0.0078125
        k(  170) = (   0.3750000  -0.0000000  -0.1250000), wk =   0.0078125
        k(  171) = (   0.3750000   0.1250000  -0.0000000), wk =   0.0078125
        k(  172) = (   0.3750000   0.1250000   0.1250000), wk =   0.0078125
        k(  173) = (   0.3750000   0.1250000   0.2500000), wk =   0.0078125
        k(  174) = (   0.3750000   0.1250000   0.3750000), wk =   0.0078125
        k(  175) = (   0.3750000   0.1250000  -0.5000000), wk =   0.0078125
        k(  176) = (   0.3750000   0.1250000  -0.3750000), wk =   0.0078125
        k(  177) = (   0.3750000   0.1250000  -0.2500000), wk =   0.0078125
        k(  178) = (   0.3750000   0.1250000  -0.1250000), wk =   0.0078125
        k(  179) = (   0.3750000   0.2500000  -0.0000000), wk =   0.0078125
        k(  180) = (   0.3750000   0.2500000   0.1250000), wk =   0.0078125
        k(  181) = (   0.3750000   0.2500000   0.2500000), wk =   0.0078125
        k(  182) = (   0.3750000   0.2500000   0.3750000), wk =   0.0078125
        k(  183) = (   0.3750000   0.2500000  -0.5000000), wk =   0.0078125
        k(  184) = (   0.3750000   0.2500000  -0.3750000), wk =   0.0078125
        k(  185) = (   0.3750000   0.2500000  -0.2500000), wk =   0.0078125
        k(  186) = (   0.3750000   0.2500000  -0.1250000), wk =   0.0078125
        k(  187) = (   0.3750000   0.3750000  -0.0000000), wk =   0.0078125
        k(  188) = (   0.3750000   0.3750000   0.1250000), wk =   0.0078125
        k(  189) = (   0.3750000   0.3750000   0.2500000), wk =   0.0078125
        k(  190) = (   0.3750000   0.3750000   0.3750000), wk =   0.0078125
        k(  191) = (   0.3750000   0.3750000  -0.5000000), wk =   0.0078125
        k(  192) = (   0.3750000   0.3750000  -0.3750000), wk =   0.0078125
        k(  193) = (   0.3750000   0.3750000  -0.2500000), wk =   0.0078125
        k(  194) = (   0.3750000   0.3750000  -0.1250000), wk =   0.0078125
        k(  195) = (   0.3750000  -0.5000000  -0.0000000), wk =   0.0078125
        k(  196) = (   0.3750000  -0.5000000   0.1250000), wk =   0.0078125
        k(  197) = (   0.3750000  -0.5000000   0.2500000), wk =   0.0078125
        k(  198) = (   0.3750000  -0.5000000   0.3750000), wk =   0.0078125
        k(  199) = (   0.3750000  -0.5000000  -0.5000000), wk =   0.0078125
        k(  200) = (   0.3750000  -0.5000000  -0.3750000), wk =   0.0078125
        k(  201) = (   0.3750000  -0.5000000  -0.2500000), wk =   0.0078125
        k(  202) = (   0.3750000  -0.5000000  -0.1250000), wk =   0.0078125
        k(  203) = (   0.3750000  -0.3750000  -0.0000000), wk =   0.0078125
        k(  204) = (   0.3750000  -0.3750000   0.1250000), wk =   0.0078125
        k(  205) = (   0.3750000  -0.3750000   0.2500000), wk =   0.0078125
        k(  206) = (   0.3750000  -0.3750000   0.3750000), wk =   0.0078125
        k(  207) = (   0.3750000  -0.3750000  -0.5000000), wk =   0.0078125
        k(  208) = (   0.3750000  -0.3750000  -0.3750000), wk =   0.0078125
        k(  209) = (   0.3750000  -0.3750000  -0.2500000), wk =   0.0078125
        k(  210) = (   0.3750000  -0.3750000  -0.1250000), wk =   0.0078125
        k(  211) = (   0.3750000  -0.2500000  -0.0000000), wk =   0.0078125
        k(  212) = (   0.3750000  -0.2500000   0.1250000), wk =   0.0078125
        k(  213) = (   0.3750000  -0.2500000   0.2500000), wk =   0.0078125
        k(  214) = (   0.3750000  -0.2500000   0.3750000), wk =   0.0078125
        k(  215) = (   0.3750000  -0.2500000  -0.5000000), wk =   0.0078125
        k(  216) = (   0.3750000  -0.2500000  -0.3750000), wk =   0.0078125
        k(  217) = (   0.3750000  -0.2500000  -0.2500000), wk =   0.0078125
        k(  218) = (   0.3750000  -0.2500000  -0.1250000), wk =   0.0078125
        k(  219) = (   0.3750000  -0.1250000  -0.0000000), wk =   0.0078125
        k(  220) = (   0.3750000  -0.1250000   0.1250000), wk =   0.0078125
        k(  221) = (   0.3750000  -0.1250000   0.2500000), wk =   0.0078125
        k(  222) = (   0.3750000  -0.1250000   0.3750000), wk =   0.0078125
        k(  223) = (   0.3750000  -0.1250000  -0.5000000), wk =   0.0078125
        k(  224) = (   0.3750000  -0.1250000  -0.3750000), wk =   0.0078125
        k(  225) = (   0.3750000  -0.1250000  -0.2500000), wk =   0.0078125
        k(  226) = (   0.3750000  -0.1250000  -0.1250000), wk =   0.0078125
        k(  227) = (  -0.5000000   0.0000000   0.0000000), wk =   0.0039062
        k(  228) = (  -0.5000000  -0.0000000   0.1250000), wk =   0.0078125
        k(  229) = (  -0.5000000  -0.0000000   0.2500000), wk =   0.0078125
        k(  230) = (  -0.5000000   0.0000000   0.3750000), wk =   0.0078125
        k(  231) = (  -0.5000000   0.0000000  -0.5000000), wk =   0.0039062
        k(  232) = (  -0.5000000   0.1250000   0.0000000), wk =   0.0078125
        k(  233) = (  -0.5000000   0.1250000   0.1250000), wk =   0.0078125
        k(  234) = (  -0.5000000   0.1250000   0.2500000), wk =   0.0078125
        k(  235) = (  -0.5000000   0.1250000   0.3750000), wk =   0.0078125
        k(  236) = (  -0.5000000   0.1250000  -0.5000000), wk =   0.0078125
        k(  237) = (  -0.5000000   0.1250000  -0.3750000), wk =   0.0078125
        k(  238) = (  -0.5000000   0.1250000  -0.2500000), wk =   0.0078125
        k(  239) = (  -0.5000000   0.1250000  -0.1250000), wk =   0.0078125
        k(  240) = (  -0.5000000   0.2500000   0.0000000), wk =   0.0078125
        k(  241) = (  -0.5000000   0.2500000   0.1250000), wk =   0.0078125
        k(  242) = (  -0.5000000   0.2500000   0.2500000), wk =   0.0078125
        k(  243) = (  -0.5000000   0.2500000   0.3750000), wk =   0.0078125
        k(  244) = (  -0.5000000   0.2500000  -0.5000000), wk =   0.0078125
        k(  245) = (  -0.5000000   0.2500000  -0.3750000), wk =   0.0078125
        k(  246) = (  -0.5000000   0.2500000  -0.2500000), wk =   0.0078125
        k(  247) = (  -0.5000000   0.2500000  -0.1250000), wk =   0.0078125
        k(  248) = (  -0.5000000   0.3750000   0.0000000), wk =   0.0078125
        k(  249) = (  -0.5000000   0.3750000   0.1250000), wk =   0.0078125
        k(  250) = (  -0.5000000   0.3750000   0.2500000), wk =   0.0078125
        k(  251) = (  -0.5000000   0.3750000   0.3750000), wk =   0.0078125
        k(  252) = (  -0.5000000   0.3750000  -0.5000000), wk =   0.0078125
        k(  253) = (  -0.5000000   0.3750000  -0.3750000), wk =   0.0078125
        k(  254) = (  -0.5000000   0.3750000  -0.2500000), wk =   0.0078125
        k(  255) = (  -0.5000000   0.3750000  -0.1250000), wk =   0.0078125
        k(  256) = (  -0.5000000  -0.5000000   0.0000000), wk =   0.0039062
        k(  257) = (  -0.5000000  -0.5000000   0.1250000), wk =   0.0078125
        k(  258) = (  -0.5000000  -0.5000000   0.2500000), wk =   0.0078125
        k(  259) = (  -0.5000000  -0.5000000   0.3750000), wk =   0.0078125
        k(  260) = (  -0.5000000  -0.5000000  -0.5000000), wk =   0.0039062

     Dense  grid:    79067 G-vectors     FFT dimensions: (  48,  48,  80)

     Smooth grid:    30771 G-vectors     FFT dimensions: (  36,  36,  60)

     Dynamical RAM for                 wfc:       0.08 MB

     Dynamical RAM for     wfc (w. buffer):       5.08 MB

     Dynamical RAM for           str. fact:       0.23 MB

     Dynamical RAM for           local pot:       0.00 MB

     Dynamical RAM for          nlocal pot:       0.23 MB

     Dynamical RAM for                qrad:      15.29 MB

     Dynamical RAM for          rho,v,vnew:       0.49 MB

     Dynamical RAM for               rhoin:       0.16 MB

     Dynamical RAM for            rho*nmix:       1.21 MB

     Dynamical RAM for           G-vectors:       0.30 MB

     Dynamical RAM for          h,s,v(r/c):       0.08 MB

     Dynamical RAM for          <psi|beta>:       0.02 MB

     Dynamical RAM for                 psi:       0.31 MB

     Dynamical RAM for                hpsi:       0.31 MB

     Dynamical RAM for                spsi:       0.31 MB

     Dynamical RAM for      wfcinit/wfcrot:       0.21 MB

     Dynamical RAM for           addusdens:       3.95 MB

     Dynamical RAM for          addusforce:       4.10 MB

     Dynamical RAM for         addusstress:       4.17 MB

     Estimated static dynamical RAM per process >      23.72 MB

     Estimated max dynamical RAM per process >      27.89 MB

     Estimated total dynamical RAM >       1.74 GB

     Check: negative core charge=   -0.000003

     Initial potential from superposition of free atoms

     starting charge   41.69964, renormalised to   42.00000
     Starting wfcs are   26 randomized atomic wfcs

     total cpu time spent up to now is        1.7 secs

     Self-consistent Calculation

     iteration #  1     ecut=    80.00 Ry     beta= 0.50
     Davidson diagonalization with overlap
     ethr =  1.00E-02,  avg # of iterations =  2.0

     total cpu time spent up to now is        2.5 secs

     total energy              =    -650.57188084 Ry
     Harris-Foulkes estimate   =    -651.46616854 Ry
     estimated scf accuracy    <       1.33440077 Ry

     iteration #  2     ecut=    80.00 Ry     beta= 0.50
     Davidson diagonalization with overlap
     ethr =  3.18E-03,  avg # of iterations =  3.0

     total cpu time spent up to now is        3.5 secs

     total energy              =    -650.99091002 Ry
     Harris-Foulkes estimate   =    -651.30408589 Ry
     estimated scf accuracy    <       0.72117673 Ry

     iteration #  3     ecut=    80.00 Ry     beta= 0.50
     Davidson diagonalization with overlap
     ethr =  1.72E-03,  avg # of iterations =  2.0

     total cpu time spent up to now is        4.4 secs

     total energy              =    -651.11219157 Ry
     Harris-Foulkes estimate   =    -651.11654970 Ry
     estimated scf accuracy    <       0.01162470 Ry

     iteration #  4     ecut=    80.00 Ry     beta= 0.50
     Davidson diagonalization with overlap
     ethr =  2.77E-05,  avg # of iterations =  3.0

     total cpu time spent up to now is        5.5 secs

     total energy              =    -651.11332758 Ry
     Harris-Foulkes estimate   =    -651.11537013 Ry
     estimated scf accuracy    <       0.00552419 Ry

     iteration #  5     ecut=    80.00 Ry     beta= 0.50
     Davidson diagonalization with overlap
     ethr =  1.32E-05,  avg # of iterations =  2.4

     total cpu time spent up to now is        6.4 secs

     total energy              =    -651.11411830 Ry
     Harris-Foulkes estimate   =    -651.11416635 Ry
     estimated scf accuracy    <       0.00018469 Ry

     iteration #  6     ecut=    80.00 Ry     beta= 0.50
     Davidson diagonalization with overlap
     ethr =  4.40E-07,  avg # of iterations =  2.0

     total cpu time spent up to now is        7.2 secs

     total energy              =    -651.11415753 Ry
     Harris-Foulkes estimate   =    -651.11415764 Ry
     estimated scf accuracy    <       0.00002530 Ry

     iteration #  7     ecut=    80.00 Ry     beta= 0.50
     Davidson diagonalization with overlap
     ethr =  6.02E-08,  avg # of iterations =  2.0

     total cpu time spent up to now is        8.1 secs

     total energy              =    -651.11416138 Ry
     Harris-Foulkes estimate   =    -651.11416131 Ry
     estimated scf accuracy    <       0.00000294 Ry

     iteration #  8     ecut=    80.00 Ry     beta= 0.50
     Davidson diagonalization with overlap
     ethr =  6.99E-09,  avg # of iterations =  2.1

     total cpu time spent up to now is        9.1 secs

     End of self-consistent calculation

          k = 0.0000 0.0000 0.0000 (  3851 PWs)   bands (ev):

  -116.0031 -70.4056 -70.3378 -70.3378 -65.1290 -32.1488 -32.0852 -32.0852
   -10.6891  -9.3955   1.1303   1.1303   2.0026   2.6471   2.6471   2.8138
     5.7037   5.7037   6.5441   7.0022   7.0022

     occupation numbers 
     1.0000   1.0000   1.0000   1.0000   1.0000   1.0000   1.0000   1.0000
     1.0000   1.0000   1.0000   1.0000   1.0000   1.0000   1.0000   1.0000
     1.0000   1.0000   1.0000   1.0000   1.0000

          k = 0.0000 0.0000 0.0775 (  3880 PWs)   bands (ev):

  -116.0031 -70.4056 -70.3378 -70.3378 -65.1290 -32.1488 -32.0852 -32.0852
   -10.6761  -9.4118   1.1302   1.1302   1.9534   2.6450   2.6450   2.9182
     5.7121   5.7121   6.3086   6.9974   6.9974

     occupation numbers 
     1.0000   1.0000   1.0000   1.0000   1.0000   1.0000   1.0000   1.0000
     1.0000   1.0000   1.0000   1.0000   1.0000   1.0000   1.0000   1.0000
     1.0000   1.0000   1.0000   1.0000   1.0000

          k = 0.0000 0.0000 0.1549 (  3844 PWs)   bands (ev):

  -116.0031 -70.4056 -70.3378 -70.3378 -65.1290 -32.1488 -32.0852 -32.0852
   -10.6433  -9.4526   1.1301   1.1301   1.8640   2.6398   2.6398   3.1577
     5.7327   5.7327   5.8471   6.9855   6.9855

     occupation numbers 
     1.0000   1.0000   1.0000   1.0000   1.0000   1.0000   1.0000   1.0000
     1.0000   1.0000   1.0000   1.0000   1.0000   1.0000   1.0000   1.0000
     1.0000   1.0000   1.0000   1.0000   1.0000

          k = 0.0000 0.0000 0.2324 (  3826 PWs)   bands (ev):

  -116.0031 -70.4056 -70.3378 -70.3378 -65.1290 -32.1489 -32.0852 -32.0852
   -10.6082  -9.4957   1.1299   1.1299   1.7976   2.6347   2.6347   3.4111
     5.4335   5.7537   5.7537   6.9731   6.9731

     occupation numbers 
     1.0000   1.0000   1.0000   1.0000   1.0000   1.0000   1.0000   1.0000
     1.0000   1.0000   1.0000   1.0000   1.0000   1.0000   1.0000   1.0000
     1.0000   1.0000   1.0000   1.0000   1.0000

          k =-0.0000-0.0000-0.3098 (  3796 PWs)   bands (ev):

  -116.0031 -70.4055 -70.3378 -70.3378 -65.1290 -32.1489 -32.0852 -32.0852
   -10.5928  -9.5143   1.1298   1.1298   1.7743   2.6326   2.6326   3.5308
     5.2577   5.7625   5.7625   6.9679   6.9679

     occupation numbers 
     1.0000   1.0000   1.0000   1.0000   1.0000   1.0000   1.0000   1.0000
     1.0000   1.0000   1.0000   1.0000   1.0000   1.0000   1.0000   1.0000
     1.0000   1.0000   1.0000   1.0000   1.0000

          k = 0.0000 0.1443 0.0000 (  3869 PWs)   bands (ev):

  -116.0031 -70.4056 -70.3382 -70.3379 -65.1287 -32.1482 -32.0909 -32.0865
   -10.6061  -9.3423   1.0852   1.2186   2.0075   2.6127   2.6413   3.0185
     5.2886   5.6412   6.2541   6.4981   6.7998

     occupation numbers 
     1.0000   1.0000   1.0000   1.0000   1.0000   1.0000   1.0000   1.0000
     1.0000   1.0000   1.0000   1.0000   1.0000   1.0000   1.0000   1.0000
     1.0000   1.0000   1.0000   1.0000   1.0000

          k = 0.0000 0.1443 0.0775 (  3870 PWs)   bands (ev):

  -116.0031 -70.4056 -70.3382 -70.3379 -65.1287 -32.1483 -32.0909 -32.0865
   -10.5944  -9.3566   1.0828   1.2183   1.9679   2.5800   2.6393   3.1409
     5.2847   5.6549   6.0450   6.5990   6.7883

     occupation numbers 
     1.0000   1.0000   1.0000   1.0000   1.0000   1.0000   1.0000   1.0000
     1.0000   1.0000   1.0000   1.0000   1.0000   1.0000   1.0000   1.0000
     1.0000   1.0000   1.0000   1.0000   1.0000

          k = 0.0000 0.1443 0.1549 (  3857 PWs)   bands (ev):

  -116.0031 -70.4055 -70.3382 -70.3379 -65.1287 -32.1483 -32.0909 -32.0865
   -10.5647  -9.3923   1.0785   1.2180   1.8885   2.5363   2.6340   3.3915
     5.2552   5.6827   5.7776   6.6298   6.7673

     occupation numbers 
     1.0000   1.0000   1.0000   1.0000   1.0000   1.0000   1.0000   1.0000
     1.0000   1.0000   1.0000   1.0000   1.0000   1.0000   1.0000   1.0000
     1.0000   1.0000   1.0000   1.0000   1.0000

          k = 0.0000 0.1443 0.2324 (  3843 PWs)   bands (ev):

  -116.0031 -70.4055 -70.3382 -70.3379 -65.1287 -32.1483 -32.0909 -32.0865
   -10.5332  -9.4299   1.0747   1.2180   1.8245   2.5079   2.6286   3.6388
     5.1392   5.6394   5.7088   6.6085   6.7486

     occupation numbers 
     1.0000   1.0000   1.0000   1.0000   1.0000   1.0000   1.0000   1.0000
     1.0000   1.0000   1.0000   1.0000   1.0000   1.0000   1.0000   1.0000
     1.0000   1.0000   1.0000   1.0000   1.0000

          k =-0.0000 0.1443-0.3098 (  3856 PWs)   bands (ev):

  -116.0031 -70.4055 -70.3382 -70.3379 -65.1287 -32.1483 -32.0909 -32.0865
   -10.5195  -9.4462   1.0738   1.2181   1.8008   2.4983   2.6263   3.7443
     5.0691   5.6152   5.7170   6.5828   6.7441

     occupation numbers 
     1.0000   1.0000   1.0000   1.0000   1.0000   1.0000   1.0000   1.0000
     1.0000   1.0000   1.0000   1.0000   1.0000   1.0000   1.0000   1.0000
     1.0000   1.0000   1.0000   1.0000   1.0000

          k =-0.0000 0.1443-0.2324 (  3843 PWs)   bands (ev):

  -116.0031 -70.4055 -70.3382 -70.3379 -65.1287 -32.1483 -32.0909 -32.0865
   -10.5332  -9.4299   1.0765   1.2184   1.8231   2.5090   2.6283   3.6225
     5.1808   5.6405   5.7020   6.5755   6.7568

     occupation numbers 
     1.0000   1.0000   1.0000   1.0000   1.0000   1.0000   1.0000   1.0000
     1.0000   1.0000   1.0000   1.0000   1.0000   1.0000   1.0000   1.0000
     1.0000   1.0000   1.0000   1.0000   1.0000

          k =-0.0000 0.1443-0.1549 (  3857 PWs)   bands (ev):

  -116.0031 -70.4055 -70.3382 -70.3379 -65.1287 -32.1483 -32.0909 -32.0865
   -10.5647  -9.3923   1.0808   1.2187   1.8871   2.5381   2.6335   3.3740
     5.2920   5.6736   5.8068   6.5702   6.7784

     occupation numbers 
     1.0000   1.0000   1.0000   1.0000   1.0000   1.0000   1.0000   1.0000
     1.0000   1.0000   1.0000   1.0000   1.0000   1.0000   1.0000   1.0000
     1.0000   1.0000   1.0000   1.0000   1.0000

          k =-0.0000 0.1443-0.0775 (  3870 PWs)   bands (ev):

  -116.0031 -70.4056 -70.3382 -70.3379 -65.1287 -32.1483 -32.0909 -32.0865
   -10.5944  -9.3566   1.0844   1.2188   1.9675   2.5821   2.6389   3.1298
     5.2998   5.6488   6.1025   6.5276   6.7959

     occupation numbers 
     1.0000   1.0000   1.0000   1.0000   1.0000   1.0000   1.0000   1.0000
     1.0000   1.0000   1.0000   1.0000   1.0000   1.0000   1.0000   1.0000
     1.0000   1.0000   1.0000   1.0000   1.0000

          k = 0.0000 0.2887 0.0000 (  3871 PWs)   bands (ev):

  -116.0031 -70.4055 -70.3391 -70.3382 -65.1279 -32.1469 -32.1045 -32.0895
   -10.3986  -9.2127   1.0263   1.4522   2.0154   2.6248   2.6350   3.4675
     4.4542   5.1193   5.4577   6.3235   6.3387

     occupation numbers 
     1.0000   1.0000   1.0000   1.0000   1.0000   1.0000   1.0000   1.0000
     1.0000   1.0000   1.0000   1.0000   1.0000   1.0000   1.0000   1.0000
     1.0000   1.0000   1.0000   1.0000   1.0000

          k = 0.0000 0.2887 0.0775 (  3865 PWs)   bands (ev):

  -116.0031 -70.4055 -70.3391 -70.3382 -65.1279 -32.1469 -32.1045 -32.0895
   -10.3902  -9.2217   1.0203   1.4515   1.9843   2.5586   2.6331   3.6193
     4.4395   5.0445   5.4818   6.3151   6.3839

     occupation numbers 
     1.0000   1.0000   1.0000   1.0000   1.0000   1.0000   1.0000   1.0000
     1.0000   1.0000   1.0000   1.0000   1.0000   1.0000   1.0000   1.0000
     1.0000   1.0000   1.0000   1.0000   1.0000

          k = 0.0000 0.2887 0.1549 (  3856 PWs)   bands (ev):

  -116.0031 -70.4055 -70.3391 -70.3382 -65.1279 -32.1469 -32.1045 -32.0895
   -10.3692  -9.2440   1.0091   1.4509   1.9215   2.4475   2.6277   3.8457
     4.4258   5.0411   5.5324   6.2679   6.3864

     occupation numbers 
     1.0000   1.0000   1.0000   1.0000   1.0000   1.0000   1.0000   1.0000
     1.0000   1.0000   1.0000   1.0000   1.0000   1.0000   1.0000   1.0000
     1.0000   1.0000   1.0000   1.0000   1.0000

          k = 0.0000 0.2887 0.2324 (  3860 PWs)   bands (ev):

  -116.0031 -70.4055 -70.3391 -70.3382 -65.1279 -32.1469 -32.1045 -32.0895
   -10.3472  -9.2673   0.9990   1.4507   1.8659   2.3638   2.6221   4.0060
     4.3742   5.1879   5.5835   6.2210   6.2940

     occupation numbers 
     1.0000   1.0000   1.0000   1.0000   1.0000   1.0000   1.0000   1.0000
     1.0000   1.0000   1.0000   1.0000   1.0000   1.0000   1.0000   1.0000
     1.0000   1.0000   1.0000   1.0000   1.0000

          k =-0.0000 0.2887-0.3098 (  3850 PWs)   bands (ev):

  -116.0031 -70.4055 -70.3391 -70.3382 -65.1279 -32.1469 -32.1045 -32.0895
   -10.3378  -9.2773   0.9971   1.4511   1.8445   2.3333   2.6194   3.9789
     4.4320   5.3309   5.5999   6.1712   6.2071

     occupation numbers 
     1.0000   1.0000   1.0000   1.0000   1.0000   1.0000   1.0000   1.0000
     1.0000   1.0000   1.0000   1.0000   1.0000   1.0000   1.0000   1.0000
     1.0000   1.0000   1.0000   1.0000   1.0000

          k =-0.0000 0.2887-0.2324 (  3860 PWs)   bands (ev):

  -116.0031 -70.4055 -70.3391 -70.3382 -65.1279 -32.1469 -32.1045 -32.0895
   -10.3472  -9.2674   1.0044   1.4517   1.8678   2.3631   2.6212   3.8351
     4.5589   5.2869   5.5679   6.1574   6.2386

     occupation numbers 
     1.0000   1.0000   1.0000   1.0000   1.0000   1.0000   1.0000   1.0000
     1.0000   1.0000   1.0000   1.0000   1.0000   1.0000   1.0000   1.0000
     1.0000   1.0000   1.0000   1.0000   1.0000

          k =-0.0000 0.2887-0.1549 (  3856 PWs)   bands (ev):

  -116.0031 -70.4055 -70.3391 -70.3382 -65.1279 -32.1469 -32.1045 -32.0895
   -10.3691  -9.2442   1.0157   1.4523   1.9280   2.4482   2.6265   3.6647
     4.6115   5.1664   5.5134   6.2184   6.2897

     occupation numbers 
     1.0000   1.0000   1.0000   1.0000   1.0000   1.0000   1.0000   1.0000
     1.0000   1.0000   1.0000   1.0000   1.0000   1.0000   1.0000   1.0000
     1.0000   1.0000   1.0000   1.0000   1.0000

          k =-0.0000 0.2887-0.0775 (  3865 PWs)   bands (ev):

  -116.0031 -70.4055 -70.3391 -70.3382 -65.1279 -32.1469 -32.1045 -32.0895
   -10.3901  -9.2218   1.0244   1.4525   1.9915   2.5637   2.6322   3.5085
     4.5326   5.1450   5.4699   6.2681   6.3290

     occupation numbers 
     1.0000   1.0000   1.0000   1.0000   1.0000   1.0000   1.0000   1.0000
     1.0000   1.0000   1.0000   1.0000   1.0000   1.0000   1.0000   1.0000
     1.0000   1.0000   1.0000   1.0000   1.0000

          k = 0.0000 0.4330 0.0000 (  3859 PWs)   bands (ev):

  -116.0030 -70.4054 -70.3400 -70.3384 -65.1271 -32.1454 -32.1181 -32.0925
   -10.1797  -9.0817   1.0586   1.7202   2.0639   2.6536   2.6541   3.5508
     3.9784   4.3749   5.1653   5.9548   6.0143

     occupation numbers 
     1.0000   1.0000   1.0000   1.0000   1.0000   1.0000   1.0000   1.0000
     1.0000   1.0000   1.0000   1.0000   1.0000   1.0000   1.0000   1.0000
     1.0000   1.0000   1.0000   1.0000   1.0000

          k = 0.0000 0.4330 0.0775 (  3854 PWs)   bands (ev):

  -116.0030 -70.4054 -70.3400 -70.3384 -65.1271 -32.1454 -32.1181 -32.0925
   -10.1753  -9.0844   1.0543   1.7191   2.0214   2.5905   2.6521   3.5804
     4.0535   4.3418   5.1956   5.9243   6.1148

     occupation numbers 
     1.0000   1.0000   1.0000   1.0000   1.0000   1.0000   1.0000   1.0000
     1.0000   1.0000   1.0000   1.0000   1.0000   1.0000   1.0000   1.0000
     1.0000   1.0000   1.0000   1.0000   1.0000

          k = 0.0000 0.4330 0.1549 (  3860 PWs)   bands (ev):

  -116.0030 -70.4054 -70.3400 -70.3384 -65.1271 -32.1455 -32.1181 -32.0925
   -10.1646  -9.0914   1.0406   1.7174   1.9541   2.4660   2.6473   3.5151
     4.0115   4.6746   5.2688   5.8518   6.2260

     occupation numbers 
     1.0000   1.0000   1.0000   1.0000   1.0000   1.0000   1.0000   1.0000
     1.0000   1.0000   1.0000   1.0000   1.0000   1.0000   1.0000   1.0000
     1.0000   1.0000   1.0000   1.0000   1.0000

          k = 0.0000 0.4330 0.2324 (  3861 PWs)   bands (ev):

  -116.0030 -70.4054 -70.3400 -70.3384 -65.1271 -32.1455 -32.1181 -32.0925
   -10.1537  -9.0987   1.0253   1.7161   1.9025   2.3514   2.6422   3.4585
     3.9723   5.0411   5.3593   5.7625   6.2573

     occupation numbers 
     1.0000   1.0000   1.0000   1.0000   1.0000   1.0000   1.0000   1.0000
     1.0000   1.0000   1.0000   1.0000   1.0000   1.0000   1.0000   1.0000
     1.0000   1.0000   1.0000   1.0000   1.0000

          k =-0.0000 0.4330-0.3098 (  3854 PWs)   bands (ev):

  -116.0030 -70.4054 -70.3400 -70.3384 -65.1271 -32.1455 -32.1181 -32.0925
   -10.1491  -9.1018   1.0187   1.7161   1.8928   2.3019   2.6396   3.4038
     3.9810   5.2575   5.4016   5.7213   6.1923

     occupation numbers 
     1.0000   1.0000   1.0000   1.0000   1.0000   1.0000   1.0000   1.0000
     1.0000   1.0000   1.0000   1.0000   1.0000   1.0000   1.0000   1.0000
     1.0000   1.0000   1.0000   1.0000   1.0000

          k =-0.0000 0.4330-0.2324 (  3861 PWs)   bands (ev):

  -116.0030 -70.4054 -70.3400 -70.3384 -65.1271 -32.1455 -32.1181 -32.0925
   -10.1536  -9.0988   1.0247   1.7173   1.9306   2.3417   2.6411   3.3539
     4.0188   5.2053   5.3417   5.7814   6.1131

     occupation numbers 
     1.0000   1.0000   1.0000   1.0000   1.0000   1.0000   1.0000   1.0000
     1.0000   1.0000   1.0000   1.0000   1.0000   1.0000   1.0000   1.0000
     1.0000   1.0000   1.0000   1.0000   1.0000

          k =-0.0000 0.4330-0.1549 (  3860 PWs)   bands (ev):

  -116.0030 -70.4054 -70.3400 -70.3384 -65.1271 -32.1455 -32.1181 -32.0925
   -10.1645  -9.0917   1.0385   1.7190   1.9966   2.4637   2.6458   3.3317
     4.0510   4.9315   5.2516   5.8709   6.0485

     occupation numbers 
     1.0000   1.0000   1.0000   1.0000   1.0000   1.0000   1.0000   1.0000
     1.0000   1.0000   1.0000   1.0000   1.0000   1.0000   1.0000   1.0000
     1.0000   1.0000   1.0000   1.0000   1.0000

          k =-0.0000 0.4330-0.0775 (  3854 PWs)   bands (ev):

  -116.0030 -70.4054 -70.3400 -70.3384 -65.1271 -32.1454 -32.1181 -32.0925
   -10.1752  -9.0846   1.0521   1.7202   2.0528   2.6042   2.6510   3.3908
     4.0328   4.6104   5.1858   5.9354   5.9966

     occupation numbers 
     1.0000   1.0000   1.0000   1.0000   1.0000   1.0000   1.0000   1.0000
     1.0000   1.0000   1.0000   1.0000   1.0000   1.0000   1.0000   1.0000
     1.0000   1.0000   1.0000   1.0000   1.0000

          k =-0.0000-0.5774-0.0000 (  3852 PWs)   bands (ev):

  -116.0030 -70.4054 -70.3404 -70.3385 -65.1267 -32.1448 -32.1238 -32.0938
   -10.0851  -9.0271   1.1131   1.8414   2.1445   2.6574   2.6799   3.1370
     3.8118   4.5619   4.9856   5.7774   5.8328

     occupation numbers 
     1.0000   1.0000   1.0000   1.0000   1.0000   1.0000   1.0000   1.0000
     1.0000   1.0000   1.0000   1.0000   1.0000   1.0000   1.0000   1.0000
     1.0000   1.0000   1.0000   1.0000   1.0000

          k =-0.0000-0.5774 0.0775 (  3838 PWs)   bands (ev):

  -116.0030 -70.4053 -70.3404 -70.3385 -65.1267 -32.1448 -32.1238 -32.0938
   -10.0828  -9.0271   1.1060   1.8403   2.1191   2.6335   2.6781   3.0439
     3.8155   4.7019   5.0112   5.8072   5.8506

     occupation numbers 
     1.0000   1.0000   1.0000   1.0000   1.0000   1.0000   1.0000   1.0000
     1.0000   1.0000   1.0000   1.0000   1.0000   1.0000   1.0000   1.0000
     1.0000   1.0000   1.0000   1.0000   1.0000

          k = 0.0000-0.5774 0.1549 (  3864 PWs)   bands (ev):

  -116.0030 -70.4054 -70.3404 -70.3385 -65.1267 -32.1448 -32.1238 -32.0938
   -10.0770  -9.0270   1.0882   1.8378   2.0648   2.5292   2.6739   2.9239
     3.8201   4.9867   5.0809   5.7376   6.0211

     occupation numbers 
     1.0000   1.0000   1.0000   1.0000   1.0000   1.0000   1.0000   1.0000
     1.0000   1.0000   1.0000   1.0000   1.0000   1.0000   1.0000   1.0000
     1.0000   1.0000   1.0000   1.0000   1.0000

          k = 0.0000-0.5774 0.2324 (  3866 PWs)   bands (ev):

  -116.0030 -70.4054 -70.3404 -70.3385 -65.1267 -32.1449 -32.1238 -32.0938
   -10.0712  -9.0270   1.0697   1.8353   2.0191   2.3885   2.6697   2.8838
     3.8226   5.1694   5.2360   5.6491   6.1793

     occupation numbers 
     1.0000   1.0000   1.0000   1.0000   1.0000   1.0000   1.0000   1.0000
     1.0000   1.0000   1.0000   1.0000   1.0000   1.0000   1.0000   1.0000
     1.0000   1.0000   1.0000   1.0000   1.0000

          k =-0.0000-0.5774-0.3098 (  3856 PWs)   bands (ev):

  -116.0030 -70.4054 -70.3404 -70.3385 -65.1267 -32.1449 -32.1238 -32.0938
   -10.0688  -9.0270   1.0619   1.8343   2.0025   2.3282   2.6680   2.8767
     3.8233   5.2175   5.3350   5.6010   6.2397

     occupation numbers 
     1.0000   1.0000   1.0000   1.0000   1.0000   1.0000   1.0000   1.0000
     1.0000   1.0000   1.0000   1.0000   1.0000   1.0000   1.0000   1.0000
     1.0000   1.0000   1.0000   1.0000   1.0000

          k = 0.1250 0.0722 0.0000 (  3869 PWs)   bands (ev):

  -116.0031 -70.4056 -70.3382 -70.3379 -65.1287 -32.1482 -32.0909 -32.0865
   -10.6061  -9.3423   1.0852   1.2186   2.0075   2.6127   2.6413   3.0185
     5.2886   5.6412   6.2541   6.4981   6.7998

     occupation numbers 
     1.0000   1.0000   1.0000   1.0000   1.0000   1.0000   1.0000   1.0000
     1.0000   1.0000   1.0000   1.0000   1.0000   1.0000   1.0000   1.0000
     1.0000   1.0000   1.0000   1.0000   1.0000

          k = 0.1250 0.0722 0.0775 (  3870 PWs)   bands (ev):

  -116.0031 -70.4056 -70.3382 -70.3379 -65.1287 -32.1483 -32.0909 -32.0865
   -10.5944  -9.3566   1.0844   1.2188   1.9675   2.5821   2.6389   3.1298
     5.2998   5.6488   6.1025   6.5276   6.7959

     occupation numbers 
     1.0000   1.0000   1.0000   1.0000   1.0000   1.0000   1.0000   1.0000
     1.0000   1.0000   1.0000   1.0000   1.0000   1.0000   1.0000   1.0000
     1.0000   1.0000   1.0000   1.0000   1.0000

          k = 0.1250 0.0722 0.1549 (  3857 PWs)   bands (ev):

  -116.0031 -70.4055 -70.3382 -70.3379 -65.1287 -32.1483 -32.0909 -32.0865
   -10.5647  -9.3923   1.0808   1.2187   1.8871   2.5381   2.6335   3.3740
     5.2920   5.6736   5.8068   6.5702   6.7784

     occupation numbers 
     1.0000   1.0000   1.0000   1.0000   1.0000   1.0000   1.0000   1.0000
     1.0000   1.0000   1.0000   1.0000   1.0000   1.0000   1.0000   1.0000
     1.0000   1.0000   1.0000   1.0000   1.0000

          k = 0.1250 0.0722 0.2324 (  3843 PWs)   bands (ev):

  -116.0031 -70.4055 -70.3382 -70.3379 -65.1287 -32.1483 -32.0909 -32.0865
   -10.5332  -9.4299   1.0765   1.2184   1.8231   2.5090   2.6283   3.6225
     5.1808   5.6405   5.7020   6.5755   6.7568

     occupation numbers 
     1.0000   1.0000   1.0000   1.0000   1.0000   1.0000   1.0000   1.0000
     1.0000   1.0000   1.0000   1.0000   1.0000   1.0000   1.0000   1.0000
     1.0000   1.0000   1.0000   1.0000   1.0000

          k = 0.1250 0.0722-0.3098 (  3856 PWs)   bands (ev):

  -116.0031 -70.4055 -70.3382 -70.3379 -65.1287 -32.1483 -32.0909 -32.0865
   -10.5195  -9.4462   1.0738   1.2181   1.8008   2.4983   2.6263   3.7443
     5.0691   5.6152   5.7170   6.5828   6.7441

     occupation numbers 
     1.0000   1.0000   1.0000   1.0000   1.0000   1.0000   1.0000   1.0000
     1.0000   1.0000   1.0000   1.0000   1.0000   1.0000   1.0000   1.0000
     1.0000   1.0000   1.0000   1.0000   1.0000

          k = 0.1250 0.0722-0.2324 (  3843 PWs)   bands (ev):

  -116.0031 -70.4055 -70.3382 -70.3379 -65.1287 -32.1483 -32.0909 -32.0865
   -10.5332  -9.4299   1.0747   1.2180   1.8245   2.5079   2.6286   3.6388
     5.1392   5.6394   5.7088   6.6085   6.7486

     occupation numbers 
     1.0000   1.0000   1.0000   1.0000   1.0000   1.0000   1.0000   1.0000
     1.0000   1.0000   1.0000   1.0000   1.0000   1.0000   1.0000   1.0000
     1.0000   1.0000   1.0000   1.0000   1.0000

          k = 0.1250 0.0722-0.1549 (  3857 PWs)   bands (ev):

  -116.0031 -70.4055 -70.3382 -70.3379 -65.1287 -32.1483 -32.0909 -32.0865
   -10.5647  -9.3923   1.0785   1.2180   1.8885   2.5363   2.6340   3.3915
     5.2552   5.6827   5.7776   6.6298   6.7673

     occupation numbers 
     1.0000   1.0000   1.0000   1.0000   1.0000   1.0000   1.0000   1.0000
     1.0000   1.0000   1.0000   1.0000   1.0000   1.0000   1.0000   1.0000
     1.0000   1.0000   1.0000   1.0000   1.0000

          k = 0.1250 0.0722-0.0775 (  3870 PWs)   bands (ev):

  -116.0031 -70.4056 -70.3382 -70.3379 -65.1287 -32.1483 -32.0909 -32.0865
   -10.5944  -9.3566   1.0828   1.2183   1.9679   2.5800   2.6393   3.1409
     5.2847   5.6549   6.0449   6.5990   6.7883

     occupation numbers 
     1.0000   1.0000   1.0000   1.0000   1.0000   1.0000   1.0000   1.0000
     1.0000   1.0000   1.0000   1.0000   1.0000   1.0000   1.0000   1.0000
     1.0000   1.0000   1.0000   1.0000   1.0000

          k = 0.1250 0.2165 0.0000 (  3859 PWs)   bands (ev):

  -116.0031 -70.4055 -70.3388 -70.3381 -65.1281 -32.1473 -32.0999 -32.0892
   -10.4607  -9.2509   1.0525   1.3630   2.0148   2.6191   2.6295   3.3401
     4.7416   5.3066   5.6202   6.2857   6.4738

     occupation numbers 
     1.0000   1.0000   1.0000   1.0000   1.0000   1.0000   1.0000   1.0000
     1.0000   1.0000   1.0000   1.0000   1.0000   1.0000   1.0000   1.0000
     1.0000   1.0000   1.0000   1.0000   1.0000

          k = 0.1250 0.2165 0.0775 (  3856 PWs)   bands (ev):

  -116.0031 -70.4055 -70.3388 -70.3381 -65.1281 -32.1473 -32.0999 -32.0892
   -10.4512  -9.2615   1.0491   1.3627   1.9858   2.5622   2.6257   3.4504
     4.7550   5.3149   5.5817   6.2858   6.4682

     occupation numbers 
     1.0000   1.0000   1.0000   1.0000   1.0000   1.0000   1.0000   1.0000
     1.0000   1.0000   1.0000   1.0000   1.0000   1.0000   1.0000   1.0000
     1.0000   1.0000   1.0000   1.0000   1.0000

          k = 0.1250 0.2165 0.1549 (  3855 PWs)   bands (ev):

  -116.0031 -70.4055 -70.3388 -70.3381 -65.1281 -32.1473 -32.0999 -32.0892
   -10.4275  -9.2880   1.0403   1.3621   1.9205   2.4656   2.6194   3.6747
     4.7576   5.3390   5.5453   6.2665   6.4352

     occupation numbers 
     1.0000   1.0000   1.0000   1.0000   1.0000   1.0000   1.0000   1.0000
     1.0000   1.0000   1.0000   1.0000   1.0000   1.0000   1.0000   1.0000
     1.0000   1.0000   1.0000   1.0000   1.0000

          k = 0.1250 0.2165 0.2324 (  3849 PWs)   bands (ev):

  -116.0031 -70.4055 -70.3388 -70.3381 -65.1281 -32.1473 -32.0999 -32.0892
   -10.4026  -9.3157   1.0309   1.3616   1.8623   2.3965   2.6134   3.8818
     4.6968   5.3927   5.5772   6.2308   6.3646

     occupation numbers 
     1.0000   1.0000   1.0000   1.0000   1.0000   1.0000   1.0000   1.0000
     1.0000   1.0000   1.0000   1.0000   1.0000   1.0000   1.0000   1.0000
     1.0000   1.0000   1.0000   1.0000   1.0000

          k = 0.1250 0.2165-0.3098 (  3852 PWs)   bands (ev):

  -116.0031 -70.4055 -70.3388 -70.3381 -65.1281 -32.1474 -32.0999 -32.0892
   -10.3919  -9.3275   1.0268   1.3614   1.8402   2.3721   2.6109   3.9724
     4.6475   5.4262   5.6123   6.2108   6.3200

     occupation numbers 
     1.0000   1.0000   1.0000   1.0000   1.0000   1.0000   1.0000   1.0000
     1.0000   1.0000   1.0000   1.0000   1.0000   1.0000   1.0000   1.0000
     1.0000   1.0000   1.0000   1.0000   1.0000

          k = 0.1250 0.2165-0.2324 (  3849 PWs)   bands (ev):

  -116.0031 -70.4055 -70.3388 -70.3381 -65.1281 -32.1473 -32.0999 -32.0892
   -10.4026  -9.3157   1.0309   1.3616   1.8623   2.3965   2.6134   3.8818
     4.6968   5.3928   5.5772   6.2308   6.3646

     occupation numbers 
     1.0000   1.0000   1.0000   1.0000   1.0000   1.0000   1.0000   1.0000
     1.0000   1.0000   1.0000   1.0000   1.0000   1.0000   1.0000   1.0000
     1.0000   1.0000   1.0000   1.0000   1.0000

          k = 0.1250 0.2165-0.1549 (  3855 PWs)   bands (ev):

  -116.0031 -70.4055 -70.3388 -70.3381 -65.1281 -32.1473 -32.0999 -32.0892
   -10.4275  -9.2880   1.0403   1.3621   1.9205   2.4655   2.6194   3.6747
     4.7576   5.3390   5.5453   6.2665   6.4352

     occupation numbers 
     1.0000   1.0000   1.0000   1.0000   1.0000   1.0000   1.0000   1.0000
     1.0000   1.0000   1.0000   1.0000   1.0000   1.0000   1.0000   1.0000
     1.0000   1.0000   1.0000   1.0000   1.0000

          k = 0.1250 0.2165-0.0775 (  3856 PWs)   bands (ev):

  -116.0031 -70.4055 -70.3388 -70.3381 -65.1281 -32.1473 -32.0999 -32.0892
   -10.4512  -9.2615   1.0491   1.3627   1.9858   2.5622   2.6257   3.4504
     4.7550   5.3149   5.5817   6.2858   6.4682

     occupation numbers 
     1.0000   1.0000   1.0000   1.0000   1.0000   1.0000   1.0000   1.0000
     1.0000   1.0000   1.0000   1.0000   1.0000   1.0000   1.0000   1.0000
     1.0000   1.0000   1.0000   1.0000   1.0000

          k = 0.1250 0.3608 0.0000 (  3838 PWs)   bands (ev):

  -116.0030 -70.4054 -70.3396 -70.3385 -65.1273 -32.1459 -32.1123 -32.0934
   -10.2463  -9.1203   1.0986   1.5849   2.0447   2.6250   2.6538   3.8086
     4.0864   4.4968   5.1538   5.8164   6.1753

     occupation numbers 
     1.0000   1.0000   1.0000   1.0000   1.0000   1.0000   1.0000   1.0000
     1.0000   1.0000   1.0000   1.0000   1.0000   1.0000   1.0000   1.0000
     1.0000   1.0000   1.0000   1.0000   1.0000

          k = 0.1250 0.3608 0.0775 (  3843 PWs)   bands (ev):

  -116.0030 -70.4054 -70.3396 -70.3385 -65.1273 -32.1459 -32.1123 -32.0934
   -10.2406  -9.1251   1.0945   1.5806   2.0162   2.5865   2.6250   3.8998
     4.0744   4.5113   5.1672   5.8101   6.2220

     occupation numbers 
     1.0000   1.0000   1.0000   1.0000   1.0000   1.0000   1.0000   1.0000
     1.0000   1.0000   1.0000   1.0000   1.0000   1.0000   1.0000   1.0000
     1.0000   1.0000   1.0000   1.0000   1.0000

          k = 0.1250 0.3608 0.1549 (  3851 PWs)   bands (ev):

  -116.0030 -70.4054 -70.3396 -70.3385 -65.1273 -32.1459 -32.1123 -32.0934
   -10.2266  -9.1371   1.0833   1.5721   1.9621   2.4601   2.6180   3.8961
     4.0875   4.7482   5.2236   5.7508   6.2797

     occupation numbers 
     1.0000   1.0000   1.0000   1.0000   1.0000   1.0000   1.0000   1.0000
     1.0000   1.0000   1.0000   1.0000   1.0000   1.0000   1.0000   1.0000
     1.0000   1.0000   1.0000   1.0000   1.0000

          k = 0.1250 0.3608 0.2324 (  3855 PWs)   bands (ev):

  -116.0030 -70.4054 -70.3396 -70.3385 -65.1273 -32.1459 -32.1123 -32.0934
   -10.2121  -9.1494   1.0709   1.5637   1.9159   2.3536   2.6113   3.8972
     4.0493   5.0343   5.3119   5.6912   6.2691

     occupation numbers 
     1.0000   1.0000   1.0000   1.0000   1.0000   1.0000   1.0000   1.0000
     1.0000   1.0000   1.0000   1.0000   1.0000   1.0000   1.0000   1.0000
     1.0000   1.0000   1.0000   1.0000   1.0000

          k = 0.1250 0.3608-0.3098 (  3866 PWs)   bands (ev):

  -116.0030 -70.4055 -70.3396 -70.3385 -65.1273 -32.1459 -32.1123 -32.0934
   -10.2060  -9.1547   1.0660   1.5609   1.9009   2.3118   2.6085   3.8273
     4.0987   5.2039   5.3211   5.6897   6.2100

     occupation numbers 
     1.0000   1.0000   1.0000   1.0000   1.0000   1.0000   1.0000   1.0000
     1.0000   1.0000   1.0000   1.0000   1.0000   1.0000   1.0000   1.0000
     1.0000   1.0000   1.0000   1.0000   1.0000

          k = 0.1250 0.3608-0.2324 (  3855 PWs)   bands (ev):

  -116.0030 -70.4054 -70.3396 -70.3385 -65.1273 -32.1459 -32.1123 -32.0934
   -10.2121  -9.1495   1.0720   1.5660   1.9245   2.3489   2.6113   3.7402
     4.1847   5.1413   5.2973   5.6601   6.2117

     occupation numbers 
     1.0000   1.0000   1.0000   1.0000   1.0000   1.0000   1.0000   1.0000
     1.0000   1.0000   1.0000   1.0000   1.0000   1.0000   1.0000   1.0000
     1.0000   1.0000   1.0000   1.0000   1.0000

          k = 0.1250 0.3608-0.1549 (  3851 PWs)   bands (ev):

  -116.0030 -70.4054 -70.3396 -70.3385 -65.1273 -32.1459 -32.1123 -32.0934
   -10.2265  -9.1372   1.0839   1.5753   1.9765   2.4564   2.6183   3.6802
     4.2470   4.9090   5.1957   5.7083   6.2169

     occupation numbers 
     1.0000   1.0000   1.0000   1.0000   1.0000   1.0000   1.0000   1.0000
     1.0000   1.0000   1.0000   1.0000   1.0000   1.0000   1.0000   1.0000
     1.0000   1.0000   1.0000   1.0000   1.0000

          k = 0.1250 0.3608-0.0775 (  3843 PWs)   bands (ev):

  -116.0030 -70.4054 -70.3396 -70.3385 -65.1273 -32.1459 -32.1123 -32.0934
   -10.2406  -9.1252   1.0944   1.5829   2.0277   2.5871   2.6276   3.6881
     4.2200   4.6325   5.1559   5.7757   6.1866

     occupation numbers 
     1.0000   1.0000   1.0000   1.0000   1.0000   1.0000   1.0000   1.0000
     1.0000   1.0000   1.0000   1.0000   1.0000   1.0000   1.0000   1.0000
     1.0000   1.0000   1.0000   1.0000   1.0000

          k = 0.1250 0.5052 0.0000 (  3841 PWs)   bands (ev):

  -116.0030 -70.4053 -70.3402 -70.3387 -65.1267 -32.1448 -32.1211 -32.0965
   -10.0879  -9.0273   1.2227   1.7959   2.1098   2.6364   2.6977   3.2948
     3.9347   4.4945   4.7744   5.5726   5.8226

     occupation numbers 
     1.0000   1.0000   1.0000   1.0000   1.0000   1.0000   1.0000   1.0000
     1.0000   1.0000   1.0000   1.0000   1.0000   1.0000   1.0000   1.0000
     1.0000   1.0000   1.0000   1.0000   1.0000

          k = 0.1250 0.5052 0.0775 (  3848 PWs)   bands (ev):

  -116.0030 -70.4054 -70.3402 -70.3387 -65.1267 -32.1448 -32.1211 -32.0965
   -10.0854  -9.0274   1.2197   1.7886   2.0791   2.6090   2.6827   3.2512
     3.9392   4.5013   4.8864   5.5545   5.9081

     occupation numbers 
     1.0000   1.0000   1.0000   1.0000   1.0000   1.0000   1.0000   1.0000
     1.0000   1.0000   1.0000   1.0000   1.0000   1.0000   1.0000   1.0000
     1.0000   1.0000   1.0000   1.0000   1.0000

          k = 0.1250 0.5052 0.1549 (  3853 PWs)   bands (ev):

  -116.0030 -70.4054 -70.3402 -70.3387 -65.1267 -32.1448 -32.1211 -32.0965
   -10.0793  -9.0278   1.2061   1.7751   2.0312   2.5098   2.6719   3.1429
     3.9167   4.6347   5.1029   5.5008   6.0792

     occupation numbers 
[...]
     4.1782   4.7313   5.3241   5.7269   6.3054

     occupation numbers 
     1.0000   1.0000   1.0000   1.0000   1.0000   1.0000   1.0000   1.0000
     1.0000   1.0000   1.0000   1.0000   1.0000   1.0000   1.0000   1.0000
     1.0000   1.0000   1.0000   1.0000   1.0000

          k =-0.4839-0.1397-0.0837 (  3818 PWs)   bands (ev):

  -115.7869 -70.1633 -70.1363 -70.1354 -65.1017 -32.1080 -32.0894 -32.0728
    -9.7500  -9.0111   1.6379   2.1444   2.2910   2.7790   2.8302   3.3106
     4.1559   4.6802   4.9452   5.7928   6.0263

     occupation numbers 
     1.0000   1.0000   1.0000   1.0000   1.0000   1.0000   1.0000   1.0000
     1.0000   1.0000   1.0000   1.0000   1.0000   1.0000   1.0000   1.0000
     1.0000   1.0000   1.0000   1.0000   1.0000

          k =-0.4839 0.0000 0.0000 (  3799 PWs)   bands (ev):

  -115.7869 -70.1632 -70.1361 -70.1356 -65.1017 -32.1080 -32.0871 -32.0752
    -9.7599  -9.0091   1.7765   2.0758   2.3202   2.8019   2.8719   3.7937
     3.8919   4.5415   4.7803   5.6002   5.9220

     occupation numbers 
     1.0000   1.0000   1.0000   1.0000   1.0000   1.0000   1.0000   1.0000
     1.0000   1.0000   1.0000   1.0000   1.0000   1.0000   1.0000   1.0000
     1.0000   1.0000   1.0000   1.0000   1.0000

          k =-0.4839 0.0000 0.0837 (  3816 PWs)   bands (ev):

  -115.7869 -70.1633 -70.1362 -70.1356 -65.1017 -32.1080 -32.0871 -32.0752
    -9.7530  -9.0099   1.7758   2.0482   2.2954   2.7630   2.8299   3.6247
     3.8792   4.6856   4.9342   5.5629   6.0452

     occupation numbers 
     1.0000   1.0000   1.0000   1.0000   1.0000   1.0000   1.0000   1.0000
     1.0000   1.0000   1.0000   1.0000   1.0000   1.0000   1.0000   1.0000
     1.0000   1.0000   1.0000   1.0000   1.0000

          k =-0.4839 0.0000 0.1674 (  3816 PWs)   bands (ev):

  -115.7869 -70.1633 -70.1362 -70.1356 -65.1017 -32.1081 -32.0871 -32.0752
    -9.7359  -9.0121   1.7726   1.9749   2.2480   2.5598   2.8010   3.4515
     3.9788   4.6441   5.3032   5.5327   6.3482

     occupation numbers 
     1.0000   1.0000   1.0000   1.0000   1.0000   1.0000   1.0000   1.0000
     1.0000   1.0000   1.0000   1.0000   1.0000   1.0000   1.0000   1.0000
     1.0000   1.0000   1.0000   1.0000   1.0000

          k =-0.4839 0.0000 0.2511 (  3815 PWs)   bands (ev):

  -115.7869 -70.1633 -70.1362 -70.1356 -65.1017 -32.1082 -32.0870 -32.0752
    -9.7184  -9.0147   1.7653   1.8959   2.2089   2.3514   2.7874   3.4034
     4.0905   4.6389   5.1973   5.8012   6.6538

     occupation numbers 
     1.0000   1.0000   1.0000   1.0000   1.0000   1.0000   1.0000   1.0000
     1.0000   1.0000   1.0000   1.0000   1.0000   1.0000   1.0000   1.0000
     1.0000   1.0000   1.0000   1.0000   1.0000

          k =-0.4839 0.0000-0.3348 (  3810 PWs)   bands (ev):

  -115.7869 -70.1633 -70.1362 -70.1356 -65.1017 -32.1083 -32.0870 -32.0752
    -9.7110  -9.0158   1.7599   1.8622   2.1899   2.2784   2.7827   3.3950
     4.1373   4.6652   5.1019   5.9169   6.7811

     occupation numbers 
     1.0000   1.0000   1.0000   1.0000   1.0000   1.0000   1.0000   1.0000
     1.0000   1.0000   1.0000   1.0000   1.0000   1.0000   1.0000   1.0000
     1.0000   1.0000   1.0000   1.0000   1.0000

          k =-0.4839 0.0000-0.2511 (  3815 PWs)   bands (ev):

  -115.7869 -70.1633 -70.1362 -70.1356 -65.1017 -32.1082 -32.0870 -32.0752
    -9.7184  -9.0147   1.7653   1.8959   2.2089   2.3514   2.7874   3.4034
     4.0905   4.6389   5.1973   5.8012   6.6538

     occupation numbers 
     1.0000   1.0000   1.0000   1.0000   1.0000   1.0000   1.0000   1.0000
     1.0000   1.0000   1.0000   1.0000   1.0000   1.0000   1.0000   1.0000
     1.0000   1.0000   1.0000   1.0000   1.0000

          k =-0.4839 0.0000-0.1674 (  3816 PWs)   bands (ev):

  -115.7869 -70.1633 -70.1362 -70.1356 -65.1017 -32.1081 -32.0871 -32.0752
    -9.7359  -9.0121   1.7726   1.9749   2.2480   2.5598   2.8010   3.4515
     3.9788   4.6441   5.3032   5.5327   6.3482

     occupation numbers 
     1.0000   1.0000   1.0000   1.0000   1.0000   1.0000   1.0000   1.0000
     1.0000   1.0000   1.0000   1.0000   1.0000   1.0000   1.0000   1.0000
     1.0000   1.0000   1.0000   1.0000   1.0000

          k =-0.4839 0.0000-0.0837 (  3816 PWs)   bands (ev):

  -115.7869 -70.1633 -70.1362 -70.1356 -65.1017 -32.1080 -32.0871 -32.0752
    -9.7530  -9.0099   1.7758   2.0482   2.2954   2.7630   2.8299   3.6247
     3.8792   4.6856   4.9342   5.5628   6.0452

     occupation numbers 
     1.0000   1.0000   1.0000   1.0000   1.0000   1.0000   1.0000   1.0000
     1.0000   1.0000   1.0000   1.0000   1.0000   1.0000   1.0000   1.0000
     1.0000   1.0000   1.0000   1.0000   1.0000

          k =-0.4839 0.1397 0.0000 (  3810 PWs)   bands (ev):

  -115.7869 -70.1633 -70.1363 -70.1354 -65.1017 -32.1080 -32.0894 -32.0728
    -9.7567  -9.0106   1.6547   2.1513   2.3115   2.8165   2.8436   3.5099
     4.2048   4.5130   4.7588   5.8241   5.9366

     occupation numbers 
     1.0000   1.0000   1.0000   1.0000   1.0000   1.0000   1.0000   1.0000
     1.0000   1.0000   1.0000   1.0000   1.0000   1.0000   1.0000   1.0000
     1.0000   1.0000   1.0000   1.0000   1.0000

          k =-0.4839 0.1397 0.0837 (  3818 PWs)   bands (ev):

  -115.7869 -70.1633 -70.1363 -70.1354 -65.1017 -32.1080 -32.0894 -32.0728
    -9.7500  -9.0111   1.6379   2.1444   2.2910   2.7790   2.8302   3.3106
     4.1559   4.6802   4.9452   5.7928   6.0263

     occupation numbers 
     1.0000   1.0000   1.0000   1.0000   1.0000   1.0000   1.0000   1.0000
     1.0000   1.0000   1.0000   1.0000   1.0000   1.0000   1.0000   1.0000
     1.0000   1.0000   1.0000   1.0000   1.0000

          k =-0.4839 0.1397 0.1674 (  3814 PWs)   bands (ev):

  -115.7869 -70.1633 -70.1363 -70.1354 -65.1017 -32.1081 -32.0894 -32.0728
    -9.7335  -9.0125   1.6077   2.1057   2.2415   2.5649   2.8105   3.1710
     4.1782   4.7313   5.3241   5.7269   6.3054

     occupation numbers 
     1.0000   1.0000   1.0000   1.0000   1.0000   1.0000   1.0000   1.0000
     1.0000   1.0000   1.0000   1.0000   1.0000   1.0000   1.0000   1.0000
     1.0000   1.0000   1.0000   1.0000   1.0000

          k =-0.4839 0.1397 0.2511 (  3820 PWs)   bands (ev):

  -115.7869 -70.1633 -70.1363 -70.1354 -65.1017 -32.1082 -32.0894 -32.0728
    -9.7167  -9.0141   1.5767   2.0491   2.2044   2.3386   2.7974   3.1552
     4.1906   4.8466   5.3897   5.7915   6.6071

     occupation numbers 
     1.0000   1.0000   1.0000   1.0000   1.0000   1.0000   1.0000   1.0000
     1.0000   1.0000   1.0000   1.0000   1.0000   1.0000   1.0000   1.0000
     1.0000   1.0000   1.0000   1.0000   1.0000

          k =-0.4839 0.1397-0.3348 (  3816 PWs)   bands (ev):

  -115.7869 -70.1633 -70.1363 -70.1354 -65.1017 -32.1083 -32.0894 -32.0728
    -9.7097  -9.0148   1.5660   2.0065   2.1859   2.2714   2.7919   3.1663
     4.1850   4.9350   5.3105   5.8633   6.7438

     occupation numbers 
     1.0000   1.0000   1.0000   1.0000   1.0000   1.0000   1.0000   1.0000
     1.0000   1.0000   1.0000   1.0000   1.0000   1.0000   1.0000   1.0000
     1.0000   1.0000   1.0000   1.0000   1.0000

          k =-0.4839 0.1397-0.2511 (  3820 PWs)   bands (ev):

  -115.7869 -70.1633 -70.1363 -70.1354 -65.1017 -32.1082 -32.0894 -32.0728
    -9.7168  -9.0140   1.5885   2.0113   2.2020   2.3569   2.7949   3.1882
     4.1743   4.8369   5.3837   5.7727   6.6451

     occupation numbers 
     1.0000   1.0000   1.0000   1.0000   1.0000   1.0000   1.0000   1.0000
     1.0000   1.0000   1.0000   1.0000   1.0000   1.0000   1.0000   1.0000
     1.0000   1.0000   1.0000   1.0000   1.0000

          k =-0.4839 0.1397-0.1674 (  3814 PWs)   bands (ev):

  -115.7869 -70.1633 -70.1363 -70.1354 -65.1017 -32.1081 -32.0894 -32.0728
    -9.7336  -9.0123   1.6276   2.0612   2.2314   2.5716   2.8044   3.2443
     4.1663   4.6943   5.2791   5.7372   6.3591

     occupation numbers 
     1.0000   1.0000   1.0000   1.0000   1.0000   1.0000   1.0000   1.0000
     1.0000   1.0000   1.0000   1.0000   1.0000   1.0000   1.0000   1.0000
     1.0000   1.0000   1.0000   1.0000   1.0000

          k =-0.4839 0.1397-0.0837 (  3818 PWs)   bands (ev):

  -115.7869 -70.1633 -70.1363 -70.1354 -65.1017 -32.1080 -32.0894 -32.0728
    -9.7501  -9.0111   1.6527   2.1224   2.2762   2.7719   2.8150   3.3989
     4.1839   4.5724   4.9292   5.8307   6.0457

     occupation numbers 
     1.0000   1.0000   1.0000   1.0000   1.0000   1.0000   1.0000   1.0000
     1.0000   1.0000   1.0000   1.0000   1.0000   1.0000   1.0000   1.0000
     1.0000   1.0000   1.0000   1.0000   1.0000

          k =-0.4839-0.8381 0.0000 (  3804 PWs)   bands (ev):

  -115.7869 -70.1633 -70.1364 -70.1353 -65.1017 -32.1080 -32.0913 -32.0710
    -9.7535  -9.0122   1.5641   2.1977   2.2913   2.8237   2.8387   3.4195
     4.1778   4.5440   4.8702   5.8653   6.0892

     occupation numbers 
     1.0000   1.0000   1.0000   1.0000   1.0000   1.0000   1.0000   1.0000
     1.0000   1.0000   1.0000   1.0000   1.0000   1.0000   1.0000   1.0000
     1.0000   1.0000   1.0000   1.0000   1.0000

          k =-0.4839-0.8381 0.0837 (  3812 PWs)   bands (ev):

  -115.7869 -70.1633 -70.1364 -70.1353 -65.1017 -32.1080 -32.0913 -32.0710
    -9.7471  -9.0123   1.5510   2.1947   2.2494   2.7816   2.8335   3.2419
     4.1612   4.7811   4.9114   5.9988   6.0516

     occupation numbers 
     1.0000   1.0000   1.0000   1.0000   1.0000   1.0000   1.0000   1.0000
     1.0000   1.0000   1.0000   1.0000   1.0000   1.0000   1.0000   1.0000
     1.0000   1.0000   1.0000   1.0000   1.0000

          k =-0.4839-0.8381 0.1674 (  3798 PWs)   bands (ev):

  -115.7869 -70.1633 -70.1364 -70.1353 -65.1017 -32.1081 -32.0912 -32.0710
    -9.7312  -9.0127   1.5159   2.1651   2.1877   2.5795   2.8213   3.0754
     4.1518   5.0226   5.1629   5.9486   6.3064

     occupation numbers 
     1.0000   1.0000   1.0000   1.0000   1.0000   1.0000   1.0000   1.0000
     1.0000   1.0000   1.0000   1.0000   1.0000   1.0000   1.0000   1.0000
     1.0000   1.0000   1.0000   1.0000   1.0000

          k =-0.4839-0.8381 0.2511 (  3810 PWs)   bands (ev):

  -115.7869 -70.1633 -70.1364 -70.1353 -65.1017 -32.1082 -32.0912 -32.0710
    -9.7151  -9.0134   1.4760   2.0970   2.1805   2.3415   2.8100   3.0402
     4.1475   5.1646   5.4598   5.8141   6.5842

     occupation numbers 
     1.0000   1.0000   1.0000   1.0000   1.0000   1.0000   1.0000   1.0000
     1.0000   1.0000   1.0000   1.0000   1.0000   1.0000   1.0000   1.0000
     1.0000   1.0000   1.0000   1.0000   1.0000

          k =-0.4839-0.8381-0.3348 (  3800 PWs)   bands (ev):

  -115.7869 -70.1633 -70.1364 -70.1352 -65.1017 -32.1083 -32.0912 -32.0710
    -9.7083  -9.0138   1.4584   2.0707   2.1776   2.2506   2.8054   3.0351
     4.1460   5.2440   5.5740   5.7376   6.6882

     occupation numbers 
     1.0000   1.0000   1.0000   1.0000   1.0000   1.0000   1.0000   1.0000
     1.0000   1.0000   1.0000   1.0000   1.0000   1.0000   1.0000   1.0000
     1.0000   1.0000   1.0000   1.0000   1.0000

     highest occupied level (ev):     6.9885

!    total energy              =    -651.12730909 Ry
     Harris-Foulkes estimate   =    -651.12730909 Ry
     estimated scf accuracy    <          1.6E-10 Ry

     The total energy is the sum of the following terms:

     one-electron contribution =    -532.99125363 Ry
     hartree contribution      =     279.96977606 Ry
     xc contribution           =     -73.07462562 Ry
     ewald contribution        =    -325.03120589 Ry

     convergence has been achieved in  10 iterations

     Forces acting on atoms (cartesian axes, Ry/au):

     atom    1 type  3   force =     0.00000026    0.00000076   -0.00312593
     atom    2 type  3   force =    -0.00000016   -0.00000076   -0.00985026
     atom    3 type  2   force =    -0.00000007    0.00000134    0.01627932
     atom    4 type  1   force =    -0.00000002   -0.00000133   -0.00330313
     The non-local contrib.  to forces
     atom    1 type  3   force =    -0.00000064   -0.00000116   -0.16322883
     atom    2 type  3   force =    -0.00000007    0.00000081    0.00580584
     atom    3 type  2   force =     0.00000016   -0.00000308   -0.24921788
     atom    4 type  1   force =    -0.00000020   -0.00000130   -0.07583838
     The ionic contribution  to forces
     atom    1 type  3   force =     0.00000323    0.00002640    5.08588105
     atom    2 type  3   force =    -0.00000312    0.00001235   -3.29646768
     atom    3 type  2   force =     0.00000214   -0.00002280   -0.74667584
     atom    4 type  1   force =    -0.00000225   -0.00001596   -1.04273753
     The local contribution  to forces
     atom    1 type  3   force =    -0.00000234   -0.00002449   -4.92715206
     atom    2 type  3   force =     0.00000303   -0.00001391    3.28140955
     atom    3 type  2   force =    -0.00000238    0.00002721    1.01216326
     atom    4 type  1   force =     0.00000243    0.00001592    1.11527367
     The core correction contribution to forces
     atom    1 type  3   force =     0.00000001   -0.00000000    0.00137875
     atom    2 type  3   force =    -0.00000000   -0.00000002   -0.00059611
     atom    3 type  2   force =     0.00000000    0.00000000    0.00000000
     atom    4 type  1   force =     0.00000000    0.00000000    0.00000000
     The Hubbard contrib.    to forces
     atom    1 type  3   force =     0.00000000    0.00000000    0.00000000
     atom    2 type  3   force =     0.00000000    0.00000000    0.00000000
     atom    3 type  2   force =     0.00000000    0.00000000    0.00000000
     atom    4 type  1   force =     0.00000000    0.00000000    0.00000000
     The SCF correction term to forces
     atom    1 type  3   force =     0.00000000    0.00000000    0.00000000
     atom    2 type  3   force =     0.00000000    0.00000000    0.00000000
     atom    3 type  2   force =     0.00000000    0.00000000    0.00000000
     atom    4 type  1   force =     0.00000000    0.00000000    0.00000000

     Total force =     0.000000     Total SCF correction =     0.000000


     Computing stress (Cartesian axis) and pressure

          total   stress  (Ry/bohr**3)                   (kbar)     P=    0.11
   0.00000289   0.00000000  -0.00000000          0.43      0.00     -0.00
   0.00000000   0.00000290   0.00000000          0.00      0.43      0.00
  -0.00000000   0.00000000  -0.00000354         -0.00      0.00     -0.52

     kinetic stress (kbar)  26743.26     -0.00     -0.00
                               -0.00  26743.26      0.00
                               -0.00      0.00  26908.84

     local   stress (kbar) -16460.39     -0.01     -0.05
                               -0.01 -16460.40      0.04
                               -0.05      0.04    722.65

     nonloc. stress (kbar)   1812.75     -0.00      0.00
                               -0.00   1812.75     -0.00
                                0.00     -0.00   1739.29

     hartree stress (kbar)  46174.10      0.00      0.02
                                0.00  46174.10     -0.01
                                0.02     -0.01  38364.17

     exc-cor stress (kbar) -10587.59     -0.00      0.00
                               -0.00 -10587.59     -0.00
                                0.00     -0.00 -10591.13

     corecor stress (kbar)   -252.26      0.00      0.00
                                0.00   -252.26      0.00
                                0.00      0.00   -252.56

     ewald   stress (kbar) -47429.44      0.01      0.03
                                0.01 -47429.44     -0.02
                                0.03     -0.02 -56891.79

     hubbard stress (kbar)      0.00      0.00      0.00
                                0.00      0.00      0.00
                                0.00      0.00      0.00

     london  stress (kbar)      0.00      0.00      0.00
                                0.00      0.00      0.00
                                0.00      0.00      0.00

     DFT-D3  stress (kbar)      0.00      0.00      0.00
                                0.00      0.00      0.00
                                0.00      0.00      0.00

     XDM     stress (kbar)      0.00      0.00      0.00
                                0.00      0.00      0.00
                                0.00      0.00      0.00

     dft-nl  stress (kbar)      0.00      0.00      0.00
                                0.00      0.00      0.00
                                0.00      0.00      0.00

     TS-vdW  stress (kbar)      0.00      0.00      0.00
                                0.00      0.00      0.00
                                0.00      0.00      0.00



     Writing output data file ZnO.save/
 
     init_run     :      1.09s CPU      1.61s WALL (       2 calls)
     electrons    :    106.35s CPU    113.41s WALL (      11 calls)
     update_pot   :      1.51s CPU      1.52s WALL (       9 calls)
     forces       :      1.76s CPU      1.82s WALL (      11 calls)
     stress       :      3.32s CPU      3.37s WALL (      11 calls)

     Called by init_run:
     wfcinit      :      0.62s CPU      0.73s WALL (       2 calls)
     wfcinit:atom :      0.01s CPU      0.01s WALL (     130 calls)
     wfcinit:wfcr :      0.58s CPU      0.69s WALL (     130 calls)
     potinit      :      0.14s CPU      0.22s WALL (       2 calls)
     hinit0       :      0.30s CPU      0.49s WALL (       2 calls)

     Called by electrons:
     c_bands      :     89.36s CPU     95.79s WALL (     123 calls)
     sum_band     :     12.54s CPU     12.90s WALL (     123 calls)
     v_of_rho     :      3.42s CPU      3.50s WALL (     133 calls)
     v_h          :      0.05s CPU      0.05s WALL (     133 calls)
     v_xc         :      3.92s CPU      4.01s WALL (     155 calls)
     newd         :      0.97s CPU      0.99s WALL (     133 calls)
     mix_rho      :      0.14s CPU      0.15s WALL (     123 calls)

     Called by c_bands:
     init_us_2    :      1.41s CPU      1.49s WALL (   17550 calls)
     cegterg      :     83.10s CPU     86.97s WALL (    7995 calls)

     Called by sum_band:
     sum_band:bec :      0.09s CPU      0.09s WALL (    7995 calls)
     addusdens    :      0.97s CPU      0.98s WALL (     123 calls)

     Called by *egterg:
     h_psi        :     48.48s CPU     50.14s WALL (   25432 calls)
     s_psi        :      1.69s CPU      1.74s WALL (   25432 calls)
     g_psi        :      0.11s CPU      0.11s WALL (   17307 calls)
     cdiaghg      :     20.27s CPU     21.57s WALL (   24652 calls)
     cegterg:over :      5.88s CPU      6.71s WALL (   17307 calls)
     cegterg:upda :      3.08s CPU      3.13s WALL (   17307 calls)
     cegterg:last :      1.98s CPU      2.01s WALL (    8385 calls)
     cdiaghg:chol :      1.04s CPU      1.18s WALL (   24652 calls)
     cdiaghg:inve :      0.37s CPU      0.42s WALL (   24652 calls)
     cdiaghg:para :      2.06s CPU      2.20s WALL (   49304 calls)

     Called by h_psi:
     h_psi:pot    :     48.35s CPU     50.00s WALL (   25432 calls)
     h_psi:calbec :      3.10s CPU      3.20s WALL (   25432 calls)
     vloc_psi     :     43.46s CPU     44.96s WALL (   25432 calls)
     add_vuspsi   :      1.71s CPU      1.77s WALL (   25432 calls)

     General routines
     calbec       :      4.75s CPU      4.90s WALL (   37002 calls)
     fft          :      0.61s CPU      0.65s WALL (    1992 calls)
     ffts         :      0.03s CPU      0.03s WALL (     256 calls)
     fftw         :     49.82s CPU     51.50s WALL ( 1037487 calls)
     interpolate  :      0.05s CPU      0.06s WALL (     133 calls)
 
     Parallel routines
     fft_scatt_xy :      6.92s CPU      7.14s WALL ( 1039735 calls)
     fft_scatt_yz :     26.32s CPU     27.25s WALL ( 1039735 calls)
 
     PWSCF        :   1m54.99s CPU   2m 4.17s WALL

 
   This run was terminated on:  16:48:40   8Jun2022            

=------------------------------------------------------------------------------=
   JOB DONE.
=------------------------------------------------------------------------------=
