
     Program PWSCF v.6.4.1 starts on 15Jul2022 at  2:11: 2 

     This program is part of the open-source Quantum ESPRESSO suite
     for quantum simulation of materials; please cite
         "P. Giannozzi et al., J. Phys.:Condens. Matter 21 395502 (2009);
         "P. Giannozzi et al., J. Phys.:Condens. Matter 29 465901 (2017);
          URL http://www.quantum-espresso.org", 
     in publications or presentations arising from this work. More details at
     http://www.quantum-espresso.org/quote

     Parallel version (MPI), running on   128 processors

     MPI processes distributed on     2 nodes
     R & G space division:  proc/nbgrp/npool/nimage =     128
     Waiting for input...
     Reading input from standard input
Warning: card &IONS ignored
Warning: card   UPSCALE           = 100.D0, ignored
Warning: card / ignored
Warning: card &CELL ignored
Warning: card   CELL_DYNAMICS     = 'BFGS' ignored
Warning: card   PRESS_CONV_THR    = 0.5D0 ignored
Warning: card   CELL_DOFREE = 'ALL' ignored
Warning: card / ignored

     Current dimensions of program PWSCF are:
     Max number of different atomic species (ntypx) = 10
     Max number of k-points (npk) =  40000
     Max angular momentum in pseudopotentials (lmaxx) =  3

     Atomic positions and unit cell read from directory:
     ./temp/ZnO.save/
 

     Subspace diagonalization in iterative solution of the eigenvalue problem:
     one sub-group per band group will be used
     scalapack distributed-memory algorithm (size of sub-group:  8*  8 procs)

 
     Parallelization info
     --------------------
     sticks:   dense  smooth     PW     G-vecs:    dense   smooth      PW
     Min          90      43     12                 8566     2847     422
     Max          91      44     13                 8577     2854     427
     Sum       11641    5599   1561              1097301   364987   54351
 


     bravais-lattice index     =            0
     lattice parameter (alat)  =      18.3770  a.u.
     unit-cell volume          =    5811.2876 (a.u.)^3
     number of atoms/cell      =           72
     number of atomic types    =            3
     number of electrons       =       876.00
     number of Kohn-Sham states=          438
     kinetic-energy cutoff     =      60.0000  Ry
     charge density cutoff     =     500.0000  Ry
     Exchange-correlation      = SLA  PW   PSX  PSC ( 1  4 10  8 0 0)
     Using LIBXC version       =    4   3   4

     celldm(1)=  18.377017  celldm(2)=   0.000000  celldm(3)=   0.000000
     celldm(4)=   0.000000  celldm(5)=   0.000000  celldm(6)=   0.000000

     crystal axes: (cart. coord. in units of alat)
               a(1) = (   1.000000   0.000006   0.000017 )  
               a(2) = (  -0.499993   0.865992  -0.000022 )  
               a(3) = (   0.000019  -0.000017   1.081265 )  

     reciprocal axes: (cart. coord. in units 2 pi/alat)
               b(1) = (  0.999997  0.577363 -0.000009 )  
               b(2) = ( -0.000007  1.154742  0.000018 )  
               b(3) = ( -0.000016  0.000014  0.924843 )  


     PseudoPot. # 1 for Zn read from file:
     ./GBRV_PBEsol/zn_pbesol_v1.uspp.F.UPF
     MD5 check sum: 7d8615e52efe7c1e2b1899de8658bae2
     Pseudo is Ultrasoft, Zval = 20.0
     Generated by new atomic code, or converted to UPF format
     Using radial grid of  943 points,  6 beta functions with: 
                l(1) =   0
                l(2) =   0
                l(3) =   1
                l(4) =   1
                l(5) =   2
                l(6) =   2
     Q(r) pseudized with  8 coefficients,  rinner =    1.100   1.100   1.100
                                                       1.100   1.100

     PseudoPot. # 2 for O  read from file:
     ./GBRV_PBEsol/o_pbesol_v1.2.uspp.F.UPF
     MD5 check sum: 501638753501ef6325af9037351f7734
     Pseudo is Ultrasoft + core correction, Zval =  6.0
     Generated by new atomic code, or converted to UPF format
     Using radial grid of  737 points,  5 beta functions with: 
                l(1) =   0
                l(2) =   0
                l(3) =   1
                l(4) =   1
                l(5) =   2
     Q(r) pseudized with  8 coefficients,  rinner =    0.900   0.900   0.900
                                                       0.900   0.900

     PseudoPot. # 3 for Mg read from file:
     ./GBRV_PBEsol/mg_pbesol_v1.4.uspp.F.UPF
     MD5 check sum: 4059f37963cf5867752dbf5ab2400678
     Pseudo is Ultrasoft, Zval = 10.0
     Generated by new atomic code, or converted to UPF format
     Using radial grid of  821 points,  7 beta functions with: 
                l(1) =   0
                l(2) =   0
                l(3) =   0
                l(4) =   1
                l(5) =   1
                l(6) =   2
                l(7) =   2
     Q(r) pseudized with  8 coefficients,  rinner =    1.200   1.200   1.200
                                                       1.200   1.200

     atomic species   valence    mass     pseudopotential
        Zn            20.00    65.38000     Zn( 1.00)
        O              6.00    15.99900     O ( 1.00)
        Mg            10.00    24.30500     Mg( 1.00)

     No symmetry found


                                    s                        frac. trans.

      isym =  1     identity                                     

 cryst.   s( 1) = (     1          0          0      )
                  (     0          1          0      )
                  (     0          0          1      )

 cart.    s( 1) = (  1.0000000  0.0000000 -0.0000000 )
                  (  0.0000000  1.0000000  0.0000000 )
                  ( -0.0000000 -0.0000000  1.0000000 )


   Cartesian axes

     site n.     atom                  positions (alat units)
         1           Zn  tau(   1) = (   0.1666675   0.0973772   0.2084995  )
         2           Zn  tau(   2) = (   0.4998314   0.0954053   0.2081771  )
         3           Zn  tau(   3) = (   0.8332109   0.0973695   0.2069724  )
         4           Zn  tau(   4) = (   0.0000110   0.3848398   0.2079296  )
         5           Zn  tau(   5) = (   0.3333019   0.3847791   0.2092407  )
         6           Zn  tau(   6) = (   0.6668840   0.3848872   0.2090229  )
         7           Zn  tau(   7) = (  -0.1648628   0.6732968   0.2082098  )
         8           Zn  tau(   8) = (   0.1648774   0.6732845   0.2083329  )
         9           Zn  tau(   9) = (   0.5002173   0.6727580   0.2062988  )
        10           Zn  tau(  10) = (   0.1659034   0.0951510   0.7497393  )
        11           Zn  tau(  11) = (   0.4993990   0.0977435   0.7496365  )
        12           Zn  tau(  12) = (   0.3340597   0.3847392   0.7503525  )
        13           Zn  tau(  13) = (   0.6659296   0.3846958   0.7504916  )
        14           Zn  tau(  14) = (  -0.1687186   0.6739948   0.7490677  )
        15           Zn  tau(  15) = (   0.1700064   0.6739853   0.7494693  )
        16           Zn  tau(  16) = (  -0.0007290   0.1928849   0.4785446  )
        17           Zn  tau(  17) = (   0.3335624   0.1927136   0.4799159  )
        18           Zn  tau(  18) = (   0.6666436   0.1925221   0.4789335  )
        19           Zn  tau(  19) = (  -0.1665730   0.4808908   0.4794148  )
        20           Zn  tau(  20) = (   0.1667560   0.4810361   0.4793399  )
        21           Zn  tau(  21) = (   0.5001026   0.4815385   0.4785403  )
        22           Zn  tau(  22) = (  -0.3339041   0.7689777   0.4773142  )
        23           Zn  tau(  23) = (   0.3340656   0.7696906   0.4765180  )
        24           Zn  tau(  24) = (   0.0004925   0.1922875   1.0183777  )
        25           Zn  tau(  25) = (   0.3328453   0.1930304   1.0203199  )
        26           Zn  tau(  26) = (   0.6661015   0.1932892   1.0196381  )
        27           Zn  tau(  27) = (  -0.1667023   0.4814763   1.0192460  )
        28           Zn  tau(  28) = (   0.1669411   0.4813463   1.0197533  )
        29           Zn  tau(  29) = (   0.5001866   0.4811330   1.0200207  )
        30           Zn  tau(  30) = (   0.0000898   0.7686064   1.0184126  )
        31           Mg  tau(  31) = (   0.8324755   0.0951363   0.7498098  )
        32           Mg  tau(  32) = (   0.0011765   0.3855254   0.7504672  )
        33           Mg  tau(  33) = (   0.4998697   0.6729047   0.7488222  )
        34           Mg  tau(  34) = (   0.0000941   0.7698321   0.4808286  )
        35           Mg  tau(  35) = (  -0.3315315   0.7698709   1.0208642  )
        36           Mg  tau(  36) = (   0.3318873   0.7685611   1.0208165  )
        37           O   tau(  37) = (   0.1666024   0.0962297   0.0043475  )
        38           O   tau(  38) = (   0.4997026   0.0956379   0.0038972  )
        39           O   tau(  39) = (   0.8331086   0.0958911   0.0025567  )
        40           O   tau(  40) = (   0.0000308   0.3846545   0.0033606  )
        41           O   tau(  41) = (   0.3335418   0.3851688   0.0049569  )
        42           O   tau(  42) = (   0.6667866   0.3852021   0.0048024  )
        43           O   tau(  43) = (  -0.1659654   0.6733887   0.0042998  )
        44           O   tau(  44) = (   0.1659000   0.6732346   0.0045093  )
        45           O   tau(  45) = (   0.5004064   0.6744455   0.0020033  )
        46           O   tau(  46) = (   0.1663077   0.0957973   0.5446346  )
        47           O   tau(  47) = (   0.5000655   0.0962716   0.5452893  )
        48           O   tau(  48) = (   0.8331384   0.0957746   0.5454305  )
        49           O   tau(  49) = (   0.0001355   0.3849895   0.5462773  )
        50           O   tau(  50) = (   0.3335500   0.3850909   0.5455509  )
        51           O   tau(  51) = (   0.6665924   0.3849011   0.5453713  )
        52           O   tau(  52) = (  -0.1669745   0.6736970   0.5445751  )
        53           O   tau(  53) = (   0.1673345   0.6738652   0.5446340  )
        54           O   tau(  54) = (   0.4998681   0.6737310   0.5449258  )
        55           O   tau(  55) = (  -0.0003252   0.1926599   0.2743877  )
        56           O   tau(  56) = (   0.3336067   0.1924003   0.2751909  )
        57           O   tau(  57) = (   0.6664355   0.1922947   0.2744306  )
        58           O   tau(  58) = (  -0.1663548   0.4809681   0.2748572  )
        59           O   tau(  59) = (   0.1664476   0.4809205   0.2748443  )
        60           O   tau(  60) = (   0.5000879   0.4812162   0.2744754  )
        61           O   tau(  61) = (  -0.3330645   0.7696615   0.2726104  )
        62           O   tau(  62) = (   0.0000231   0.7700009   0.2768020  )
        63           O   tau(  63) = (   0.3332598   0.7698377   0.2719555  )
        64           O   tau(  64) = (  -0.0010319   0.1926943   0.8139065  )
        65           O   tau(  65) = (   0.3323331   0.1922327   0.8158207  )
        66           O   tau(  66) = (   0.6667087   0.1922716   0.8153658  )
        67           O   tau(  67) = (  -0.1664282   0.4810193   0.8149497  )
        68           O   tau(  68) = (   0.1673861   0.4815091   0.8155340  )
        69           O   tau(  69) = (   0.5001005   0.4812709   0.8155062  )
        70           O   tau(  70) = (  -0.3344794   0.7692893   0.8168190  )
        71           O   tau(  71) = (   0.0003583   0.7694827   0.8134057  )
        72           O   tau(  72) = (   0.3351136   0.7700762   0.8168624  )

   Crystallographic axes

     site n.     atom                  positions (cryst. coord.)
         1           Zn  tau(   1) = (  0.2228872  0.1124481  0.1928279  )
         2           Zn  tau(   2) = (  0.5549115  0.1101688  0.1925244  )
         3           Zn  tau(   3) = (  0.8894239  0.1124348  0.1914049  )
         4           Zn  tau(   4) = (  0.2222016  0.4443943  0.1923077  )
         5           Zn  tau(   5) = (  0.5554564  0.4443220  0.1935148  )
         6           Zn  tau(   6) = (  0.8890997  0.4444446  0.1933080  )
         7           Zn  tau(   7) = (  0.2238729  0.7774888  0.1925736  )
         8           Zn  tau(   8) = (  0.5536049  0.7774724  0.1926821  )
         9           Zn  tau(   9) = (  0.8886397  0.7768621  0.1907954  )
        10           Zn  tau(  10) = (  0.2208331  0.1098870  0.6933895  )
        11           Zn  tau(  11) = (  0.5558245  0.1128784  0.6932891  )
        12           Zn  tau(  12) = (  0.5561865  0.4442855  0.6939580  )
        13           Zn  tau(  13) = (  0.8880302  0.4442332  0.6940813  )
        14           Zn  tau(  14) = (  0.2204155  0.7783045  0.6927820  )
        15           Zn  tau(  15) = (  0.5591338  0.7782911  0.6931480  )
        16           Zn  tau(  16) = (  0.1106316  0.2227407  0.4425812  )
        17           Zn  tau(  17) = (  0.4448230  0.2225407  0.4438440  )
        18           Zn  tau(  18) = (  0.7777925  0.2223173  0.4429301  )
        19           Zn  tau(  19) = (  0.1110722  0.5553144  0.4433927  )
        20           Zn  tau(  20) = (  0.4444840  0.5554799  0.4433181  )
        21           Zn  tau(  21) = (  0.7781195  0.5560578  0.4425733  )
        22           Zn  tau(  22) = (  0.1100725  0.8879814  0.4414569  )
        23           Zn  tau(  23) = (  0.7784515  0.8888001  0.4407097  )
        24           Zn  tau(  24) = (  0.1115036  0.2220604  0.9418418  )
        25           Zn  tau(  25) = (  0.4442842  0.2229161  0.9436326  )
        26           Zn  tau(  26) = (  0.7776887  0.2232127  0.9429967  )
        27           Zn  tau(  27) = (  0.1112764  0.5560000  0.9426516  )
        28           Zn  tau(  28) = (  0.4448436  0.5558477  0.9431154  )
        29           Zn  tau(  29) = (  0.7779649  0.5555992  0.9433573  )
        30           Zn  tau(  30) = (  0.4438463  0.8875601  0.9418822  )
        31           Mg  tau(  31) = (  0.8873945  0.1098655  0.6934440  )
        32           Mg  tau(  32) = (  0.2237583  0.4451956  0.6940695  )
        33           Mg  tau(  33) = (  0.8883722  0.7770411  0.6925442  )
        34           Mg  tau(  34) = (  0.4445628  0.8889659  0.4447017  )
        35           Mg  tau(  35) = (  0.1129562  0.8890225  0.9441549  )
        36           Mg  tau(  36) = (  0.7756165  0.8875055  0.9441001  )
        37           O   tau(  37) = (  0.2221614  0.1111195  0.0040195  )
        38           O   tau(  38) = (  0.5549187  0.1104338  0.0035976  )
        39           O   tau(  39) = (  0.8884698  0.1107239  0.0023525  )
        40           O   tau(  40) = (  0.2221162  0.4441767  0.0031135  )
        41           O   tau(  41) = (  0.5559230  0.4447684  0.0045845  )
        42           O   tau(  42) = (  0.8891859  0.4448046  0.0044362  )
        43           O   tau(  43) = (  0.2228251  0.7775913  0.0039889  )
        44           O   tau(  44) = (  0.5546003  0.7774111  0.0041773  )
        45           O   tau(  45) = (  0.8898048  0.7788071  0.0018543  )
        46           O   tau(  46) = (  0.2216124  0.1106297  0.5036999  )
        47           O   tau(  47) = (  0.5556428  0.1111751  0.5043001  )
        48           O   tau(  48) = (  0.8884277  0.1105991  0.5044252  )
        49           O   tau(  49) = (  0.2224097  0.4445732  0.5052260  )
        50           O   tau(  50) = (  0.5558816  0.4446880  0.5045488  )
        51           O   tau(  51) = (  0.8888133  0.4444666  0.5043773  )
        52           O   tau(  52) = (  0.2219894  0.7779569  0.5036585  )
        53           O   tau(  53) = (  0.5563944  0.7781489  0.5037076  )
        54           O   tau(  54) = (  0.8888493  0.7779917  0.5039721  )
        55           O   tau(  55) = (  0.1109072  0.2224773  0.2537682  )
        56           O   tau(  56) = (  0.4446881  0.2221753  0.2545056  )
        57           O   tau(  57) = (  0.7774549  0.2220512  0.2537971  )
        58           O   tau(  58) = (  0.1113368  0.5554000  0.2542091  )
        59           O   tau(  59) = (  0.4441106  0.5553428  0.2541919  )
        60           O   tau(  60) = (  0.7779205  0.5556821  0.2538454  )
        61           O   tau(  61) = (  0.1113086  0.8887675  0.2521380  )
        62           O   tau(  62) = (  0.4445910  0.8891571  0.2560093  )
        63           O   tau(  63) = (  0.7777324  0.8889664  0.2515217  )
        64           O   tau(  64) = (  0.1102158  0.2225265  0.7527381  )
        65           O   tau(  65) = (  0.4433132  0.2219914  0.7545031  )
        66           O   tau(  66) = (  0.7777101  0.2220340  0.7540770  )
        67           O   tau(  67) = (  0.1112884  0.5554687  0.7537097  )
        68           O   tau(  68) = (  0.4453843  0.5560320  0.7542447  )
        69           O   tau(  69) = (  0.7779601  0.5557548  0.7542136  )
        70           O   tau(  70) = (  0.1096742  0.8883472  0.7554453  )
        71           O   tau(  71) = (  0.4446225  0.8885683  0.7522832  )
        72           O   tau(  72) = (  0.7797193  0.8892515  0.7554747  )

     number of k points=    80
                       cart. coord. in units 2pi/alat
        k(    1) = (   0.0000000   0.0000000   0.0000000), wk =   0.0156250
        k(    2) = (  -0.0000023   0.0000020   0.1321204), wk =   0.0156250
        k(    3) = (  -0.0000046   0.0000041   0.2642407), wk =   0.0156250
        k(    4) = (  -0.0000069   0.0000061   0.3963611), wk =   0.0156250
        k(    5) = (  -0.0000092   0.0000082   0.5284814), wk =   0.0156250
        k(    6) = (  -0.0000115   0.0000102   0.6606018), wk =   0.0156250
        k(    7) = (  -0.0000138   0.0000122   0.7927222), wk =   0.0156250
        k(    8) = (  -0.0000161   0.0000143   0.9248425), wk =   0.0156250
        k(    9) = (  -0.0000017   0.2886855   0.0000044), wk =   0.0312500
        k(   10) = (  -0.0000040   0.2886875   0.1321248), wk =   0.0312500
        k(   11) = (  -0.0000063   0.2886895   0.2642451), wk =   0.0312500
        k(   12) = (  -0.0000086   0.2886916   0.3963655), wk =   0.0312500
        k(   13) = (  -0.0000109   0.2886936   0.5284859), wk =   0.0312500
        k(   14) = (  -0.0000132   0.2886957   0.6606062), wk =   0.0312500
        k(   15) = (  -0.0000155   0.2886977   0.7927266), wk =   0.0312500
        k(   16) = (  -0.0000178   0.2886997   0.9248470), wk =   0.0312500
        k(   17) = (   0.0000034  -0.5773709  -0.0000089), wk =   0.0156250
        k(   18) = (   0.0000011  -0.5773689   0.1321115), wk =   0.0156250
        k(   19) = (  -0.0000012  -0.5773669   0.2642319), wk =   0.0156250
        k(   20) = (  -0.0000035  -0.5773648   0.3963522), wk =   0.0156250
        k(   21) = (  -0.0000058  -0.5773628   0.5284726), wk =   0.0156250
        k(   22) = (  -0.0000082  -0.5773607   0.6605930), wk =   0.0156250
        k(   23) = (  -0.0000105  -0.5773587   0.7927133), wk =   0.0156250
        k(   24) = (  -0.0000128  -0.5773567   0.9248337), wk =   0.0156250
        k(   25) = (   0.2499992   0.1443408  -0.0000021), wk =   0.0312500
        k(   26) = (   0.2499969   0.1443429   0.1321182), wk =   0.0312500
        k(   27) = (   0.2499946   0.1443449   0.2642386), wk =   0.0312500
        k(   28) = (   0.2499923   0.1443470   0.3963590), wk =   0.0312500
        k(   29) = (   0.2499900   0.1443490   0.5284793), wk =   0.0312500
        k(   30) = (   0.2499877   0.1443510   0.6605997), wk =   0.0312500
        k(   31) = (   0.2499854   0.1443531   0.7927200), wk =   0.0312500
        k(   32) = (   0.2499831   0.1443551   0.9248404), wk =   0.0312500
        k(   33) = (   0.2499975   0.4330263   0.0000023), wk =   0.0312500
        k(   34) = (   0.2499952   0.4330283   0.1321227), wk =   0.0312500
        k(   35) = (   0.2499929   0.4330304   0.2642430), wk =   0.0312500
        k(   36) = (   0.2499906   0.4330324   0.3963634), wk =   0.0312500
        k(   37) = (   0.2499883   0.4330345   0.5284837), wk =   0.0312500
        k(   38) = (   0.2499860   0.4330365   0.6606041), wk =   0.0312500
        k(   39) = (   0.2499837   0.4330385   0.7927245), wk =   0.0312500
        k(   40) = (   0.2499814   0.4330406   0.9248448), wk =   0.0312500
        k(   41) = (   0.2500025  -0.4330301  -0.0000110), wk =   0.0312500
        k(   42) = (   0.2500002  -0.4330281   0.1321094), wk =   0.0312500
        k(   43) = (   0.2499979  -0.4330260   0.2642297), wk =   0.0312500
        k(   44) = (   0.2499956  -0.4330240   0.3963501), wk =   0.0312500
        k(   45) = (   0.2499933  -0.4330219   0.5284705), wk =   0.0312500
        k(   46) = (   0.2499910  -0.4330199   0.6605908), wk =   0.0312500
        k(   47) = (   0.2499887  -0.4330179   0.7927112), wk =   0.0312500
        k(   48) = (   0.2499864  -0.4330158   0.9248316), wk =   0.0312500
        k(   49) = (   0.2500008  -0.1443446  -0.0000066), wk =   0.0312500
        k(   50) = (   0.2499985  -0.1443426   0.1321138), wk =   0.0312500
        k(   51) = (   0.2499962  -0.1443406   0.2642342), wk =   0.0312500
        k(   52) = (   0.2499939  -0.1443385   0.3963545), wk =   0.0312500
        k(   53) = (   0.2499916  -0.1443365   0.5284749), wk =   0.0312500
        k(   54) = (   0.2499893  -0.1443344   0.6605953), wk =   0.0312500
        k(   55) = (   0.2499870  -0.1443324   0.7927156), wk =   0.0312500
        k(   56) = (   0.2499847  -0.1443304   0.9248360), wk =   0.0312500
        k(   57) = (  -0.4999983  -0.2886817   0.0000043), wk =   0.0156250
        k(   58) = (  -0.5000006  -0.2886796   0.1321246), wk =   0.0156250
        k(   59) = (  -0.5000029  -0.2886776   0.2642450), wk =   0.0156250
        k(   60) = (  -0.5000052  -0.2886756   0.3963653), wk =   0.0156250
        k(   61) = (  -0.5000075  -0.2886735   0.5284857), wk =   0.0156250
        k(   62) = (  -0.5000098  -0.2886715   0.6606061), wk =   0.0156250
        k(   63) = (  -0.5000121  -0.2886694   0.7927264), wk =   0.0156250
        k(   64) = (  -0.5000144  -0.2886674   0.9248468), wk =   0.0156250
        k(   65) = (  -0.5000000   0.0000038   0.0000087), wk =   0.0312500
        k(   66) = (  -0.5000023   0.0000058   0.1321290), wk =   0.0312500
        k(   67) = (  -0.5000046   0.0000079   0.2642494), wk =   0.0312500
        k(   68) = (  -0.5000069   0.0000099   0.3963698), wk =   0.0312500
        k(   69) = (  -0.5000092   0.0000120   0.5284901), wk =   0.0312500
        k(   70) = (  -0.5000115   0.0000140   0.6606105), wk =   0.0312500
        k(   71) = (  -0.5000138   0.0000160   0.7927309), wk =   0.0312500
        k(   72) = (  -0.5000161   0.0000181   0.9248512), wk =   0.0312500
        k(   73) = (  -0.4999950  -0.8660526  -0.0000046), wk =   0.0156250
        k(   74) = (  -0.4999973  -0.8660506   0.1321158), wk =   0.0156250
        k(   75) = (  -0.4999996  -0.8660485   0.2642361), wk =   0.0156250
        k(   76) = (  -0.5000019  -0.8660465   0.3963565), wk =   0.0156250
        k(   77) = (  -0.5000042  -0.8660445   0.5284769), wk =   0.0156250
        k(   78) = (  -0.5000065  -0.8660424   0.6605972), wk =   0.0156250
        k(   79) = (  -0.5000088  -0.8660404   0.7927176), wk =   0.0156250
        k(   80) = (  -0.5000111  -0.8660383   0.9248379), wk =   0.0156250

                       cryst. coord.
        k(    1) = (   0.0000000   0.0000000   0.0000000), wk =   0.0156250
        k(    2) = (  -0.0000000   0.0000000   0.1428571), wk =   0.0156250
        k(    3) = (  -0.0000000   0.0000000   0.2857143), wk =   0.0156250
        k(    4) = (  -0.0000000   0.0000000   0.4285714), wk =   0.0156250
        k(    5) = (  -0.0000000   0.0000000   0.5714286), wk =   0.0156250
        k(    6) = (  -0.0000000   0.0000000   0.7142857), wk =   0.0156250
        k(    7) = (  -0.0000000   0.0000000   0.8571429), wk =   0.0156250
        k(    8) = (  -0.0000000   0.0000000   1.0000000), wk =   0.0156250
        k(    9) = (  -0.0000000   0.2500000  -0.0000000), wk =   0.0312500
        k(   10) = (  -0.0000000   0.2500000   0.1428571), wk =   0.0312500
        k(   11) = (  -0.0000000   0.2500000   0.2857143), wk =   0.0312500
        k(   12) = (  -0.0000000   0.2500000   0.4285714), wk =   0.0312500
        k(   13) = (  -0.0000000   0.2500000   0.5714286), wk =   0.0312500
        k(   14) = (  -0.0000000   0.2500000   0.7142857), wk =   0.0312500
        k(   15) = (  -0.0000000   0.2500000   0.8571429), wk =   0.0312500
        k(   16) = (  -0.0000000   0.2500000   1.0000000), wk =   0.0312500
        k(   17) = (   0.0000000  -0.5000000   0.0000000), wk =   0.0156250
        k(   18) = (  -0.0000000  -0.5000000   0.1428571), wk =   0.0156250
        k(   19) = (  -0.0000000  -0.5000000   0.2857143), wk =   0.0156250
        k(   20) = (  -0.0000000  -0.5000000   0.4285714), wk =   0.0156250
        k(   21) = (  -0.0000000  -0.5000000   0.5714286), wk =   0.0156250
        k(   22) = (  -0.0000000  -0.5000000   0.7142857), wk =   0.0156250
        k(   23) = (  -0.0000000  -0.5000000   0.8571429), wk =   0.0156250
        k(   24) = (  -0.0000000  -0.5000000   1.0000000), wk =   0.0156250
        k(   25) = (   0.2500000  -0.0000000  -0.0000000), wk =   0.0312500
        k(   26) = (   0.2500000  -0.0000000   0.1428571), wk =   0.0312500
        k(   27) = (   0.2500000  -0.0000000   0.2857143), wk =   0.0312500
        k(   28) = (   0.2500000  -0.0000000   0.4285714), wk =   0.0312500
        k(   29) = (   0.2500000   0.0000000   0.5714286), wk =   0.0312500
        k(   30) = (   0.2500000  -0.0000000   0.7142857), wk =   0.0312500
        k(   31) = (   0.2500000  -0.0000000   0.8571429), wk =   0.0312500
        k(   32) = (   0.2500000  -0.0000000   1.0000000), wk =   0.0312500
        k(   33) = (   0.2500000   0.2500000  -0.0000000), wk =   0.0312500
        k(   34) = (   0.2500000   0.2500000   0.1428571), wk =   0.0312500
        k(   35) = (   0.2500000   0.2500000   0.2857143), wk =   0.0312500
        k(   36) = (   0.2500000   0.2500000   0.4285714), wk =   0.0312500
        k(   37) = (   0.2500000   0.2500000   0.5714286), wk =   0.0312500
        k(   38) = (   0.2500000   0.2500000   0.7142857), wk =   0.0312500
        k(   39) = (   0.2500000   0.2500000   0.8571429), wk =   0.0312500
        k(   40) = (   0.2500000   0.2500000   1.0000000), wk =   0.0312500
        k(   41) = (   0.2500000  -0.5000000   0.0000000), wk =   0.0312500
        k(   42) = (   0.2500000  -0.5000000   0.1428571), wk =   0.0312500
        k(   43) = (   0.2500000  -0.5000000   0.2857143), wk =   0.0312500
        k(   44) = (   0.2500000  -0.5000000   0.4285714), wk =   0.0312500
        k(   45) = (   0.2500000  -0.5000000   0.5714286), wk =   0.0312500
        k(   46) = (   0.2500000  -0.5000000   0.7142857), wk =   0.0312500
        k(   47) = (   0.2500000  -0.5000000   0.8571429), wk =   0.0312500
        k(   48) = (   0.2500000  -0.5000000   1.0000000), wk =   0.0312500
        k(   49) = (   0.2500000  -0.2500000  -0.0000000), wk =   0.0312500
        k(   50) = (   0.2500000  -0.2500000   0.1428571), wk =   0.0312500
        k(   51) = (   0.2500000  -0.2500000   0.2857143), wk =   0.0312500
        k(   52) = (   0.2500000  -0.2500000   0.4285714), wk =   0.0312500
        k(   53) = (   0.2500000  -0.2500000   0.5714286), wk =   0.0312500
        k(   54) = (   0.2500000  -0.2500000   0.7142857), wk =   0.0312500
        k(   55) = (   0.2500000  -0.2500000   0.8571429), wk =   0.0312500
        k(   56) = (   0.2500000  -0.2500000   1.0000000), wk =   0.0312500
        k(   57) = (  -0.5000000   0.0000000   0.0000000), wk =   0.0156250
        k(   58) = (  -0.5000000   0.0000000   0.1428571), wk =   0.0156250
        k(   59) = (  -0.5000000   0.0000000   0.2857143), wk =   0.0156250
        k(   60) = (  -0.5000000   0.0000000   0.4285714), wk =   0.0156250
        k(   61) = (  -0.5000000   0.0000000   0.5714286), wk =   0.0156250
        k(   62) = (  -0.5000000   0.0000000   0.7142857), wk =   0.0156250
        k(   63) = (  -0.5000000   0.0000000   0.8571429), wk =   0.0156250
        k(   64) = (  -0.5000000  -0.0000000   1.0000000), wk =   0.0156250
        k(   65) = (  -0.5000000   0.2500000  -0.0000000), wk =   0.0312500
        k(   66) = (  -0.5000000   0.2500000   0.1428571), wk =   0.0312500
        k(   67) = (  -0.5000000   0.2500000   0.2857143), wk =   0.0312500
        k(   68) = (  -0.5000000   0.2500000   0.4285714), wk =   0.0312500
        k(   69) = (  -0.5000000   0.2500000   0.5714286), wk =   0.0312500
        k(   70) = (  -0.5000000   0.2500000   0.7142857), wk =   0.0312500
        k(   71) = (  -0.5000000   0.2500000   0.8571429), wk =   0.0312500
        k(   72) = (  -0.5000000   0.2500000   1.0000000), wk =   0.0312500
        k(   73) = (  -0.5000000  -0.5000000   0.0000000), wk =   0.0156250
        k(   74) = (  -0.5000000  -0.5000000   0.1428571), wk =   0.0156250
        k(   75) = (  -0.5000000  -0.5000000   0.2857143), wk =   0.0156250
        k(   76) = (  -0.5000000  -0.5000000   0.4285714), wk =   0.0156250
        k(   77) = (  -0.5000000  -0.5000000   0.5714286), wk =   0.0156250
        k(   78) = (  -0.5000000  -0.5000000   0.7142857), wk =   0.0156250
        k(   79) = (  -0.5000000  -0.5000000   0.8571429), wk =   0.0156250
        k(   80) = (  -0.5000000  -0.5000000   1.0000000), wk =   0.0156250

     Dense  grid:  1097301 G-vectors     FFT dimensions: ( 135, 135, 144)

     Smooth grid:   364987 G-vectors     FFT dimensions: (  96,  96, 100)

     Dynamical RAM for                 wfc:       2.38 MB

     Dynamical RAM for     wfc (w. buffer):     192.72 MB

     Dynamical RAM for           str. fact:       0.39 MB

     Dynamical RAM for           local pot:       0.00 MB

     Dynamical RAM for          nlocal pot:       6.09 MB

     Dynamical RAM for                qrad:      20.97 MB

     Dynamical RAM for          rho,v,vnew:       1.23 MB

     Dynamical RAM for           G-vectors:       0.51 MB

     Dynamical RAM for          h,s,v(r/c):       2.20 MB

     Dynamical RAM for          <psi|beta>:       7.50 MB

     Dynamical RAM for                 psi:       9.52 MB

     Dynamical RAM for                hpsi:       9.52 MB

     Dynamical RAM for                spsi:       9.52 MB

     Dynamical RAM for      wfcinit/wfcrot:      13.41 MB

     Dynamical RAM for           addusdens:      31.53 MB

     Estimated static dynamical RAM per process >     223.83 MB

     Estimated max dynamical RAM per process >     262.08 MB

     Estimated total dynamical RAM >      32.76 GB

     Check: negative core charge=   -0.000002

     The potential is recalculated from file :
     ./temp/ZnO.save/charge-density

     Starting wfcs are  564 randomized atomic wfcs

     Band Structure Calculation
     Davidson diagonalization with overlap

     Computing kpt #:     1
     total cpu time spent up to now is       24.4 secs

     Computing kpt #:     2
     total cpu time spent up to now is       41.7 secs

     Computing kpt #:     3
     total cpu time spent up to now is       58.9 secs

     Computing kpt #:     4
     total cpu time spent up to now is       76.1 secs

     Computing kpt #:     5
     total cpu time spent up to now is       93.3 secs

     Computing kpt #:     6
     total cpu time spent up to now is      110.6 secs

     Computing kpt #:     7
     total cpu time spent up to now is      127.9 secs

     Computing kpt #:     8
     total cpu time spent up to now is      145.3 secs

     Computing kpt #:     9
     total cpu time spent up to now is      162.6 secs

     Computing kpt #:    10
     total cpu time spent up to now is      179.7 secs

     Computing kpt #:    11
     total cpu time spent up to now is      196.7 secs

     Computing kpt #:    12
     total cpu time spent up to now is      213.8 secs

     Computing kpt #:    13
     total cpu time spent up to now is      230.8 secs

     Computing kpt #:    14
     total cpu time spent up to now is      247.8 secs

     Computing kpt #:    15
     total cpu time spent up to now is      265.0 secs

     Computing kpt #:    16
     total cpu time spent up to now is      282.4 secs

     Computing kpt #:    17
     total cpu time spent up to now is      299.3 secs

     Computing kpt #:    18
     total cpu time spent up to now is      316.2 secs

     Computing kpt #:    19
     total cpu time spent up to now is      333.2 secs

     Computing kpt #:    20
     total cpu time spent up to now is      350.1 secs

     Computing kpt #:    21
     total cpu time spent up to now is      367.0 secs

     Computing kpt #:    22
     total cpu time spent up to now is      384.0 secs

     Computing kpt #:    23
     total cpu time spent up to now is      401.0 secs

     Computing kpt #:    24
     total cpu time spent up to now is      417.9 secs

     Computing kpt #:    25
     total cpu time spent up to now is      435.3 secs

     Computing kpt #:    26
     total cpu time spent up to now is      452.5 secs

     Computing kpt #:    27
     total cpu time spent up to now is      469.8 secs

     Computing kpt #:    28
     total cpu time spent up to now is      486.8 secs

     Computing kpt #:    29
     total cpu time spent up to now is      503.9 secs

     Computing kpt #:    30
     total cpu time spent up to now is      521.1 secs

     Computing kpt #:    31
     total cpu time spent up to now is      538.4 secs

     Computing kpt #:    32
     total cpu time spent up to now is      556.0 secs

     Computing kpt #:    33
     total cpu time spent up to now is      573.1 secs

     Computing kpt #:    34
     total cpu time spent up to now is      590.2 secs

     Computing kpt #:    35
     total cpu time spent up to now is      607.1 secs

     Computing kpt #:    36
     total cpu time spent up to now is      624.2 secs

     Computing kpt #:    37
     total cpu time spent up to now is      641.2 secs

     Computing kpt #:    38
     total cpu time spent up to now is      658.1 secs

     Computing kpt #:    39
     total cpu time spent up to now is      675.2 secs

     Computing kpt #:    40
     total cpu time spent up to now is      692.4 secs

     Computing kpt #:    41
     total cpu time spent up to now is      709.5 secs

     Computing kpt #:    42
     total cpu time spent up to now is      726.5 secs

     Computing kpt #:    43
     total cpu time spent up to now is      743.6 secs

     Computing kpt #:    44
     total cpu time spent up to now is      760.6 secs

     Computing kpt #:    45
     total cpu time spent up to now is      777.6 secs

     Computing kpt #:    46
     total cpu time spent up to now is      794.7 secs

     Computing kpt #:    47
     total cpu time spent up to now is      811.9 secs

     Computing kpt #:    48
     total cpu time spent up to now is      829.1 secs

     Computing kpt #:    49
     total cpu time spent up to now is      846.7 secs

     Computing kpt #:    50
     total cpu time spent up to now is      864.0 secs

     Computing kpt #:    51
     total cpu time spent up to now is      881.4 secs

     Computing kpt #:    52
     total cpu time spent up to now is      898.5 secs

     Computing kpt #:    53
     total cpu time spent up to now is      915.8 secs

     Computing kpt #:    54
     total cpu time spent up to now is      933.2 secs

     Computing kpt #:    55
     total cpu time spent up to now is      950.6 secs

     Computing kpt #:    56
     total cpu time spent up to now is      968.1 secs

     Computing kpt #:    57
     total cpu time spent up to now is      985.3 secs

     Computing kpt #:    58
     total cpu time spent up to now is     1002.5 secs

     Computing kpt #:    59
     total cpu time spent up to now is     1019.5 secs

     Computing kpt #:    60
     total cpu time spent up to now is     1036.6 secs

     Computing kpt #:    61
     total cpu time spent up to now is     1053.7 secs

     Computing kpt #:    62
     total cpu time spent up to now is     1070.8 secs

     Computing kpt #:    63
     total cpu time spent up to now is     1087.8 secs

     Computing kpt #:    64
     total cpu time spent up to now is     1105.0 secs

     Computing kpt #:    65
     total cpu time spent up to now is     1122.2 secs

     Computing kpt #:    66
     total cpu time spent up to now is     1139.2 secs

     Computing kpt #:    67
     total cpu time spent up to now is     1156.3 secs

     Computing kpt #:    68
     total cpu time spent up to now is     1173.2 secs

     Computing kpt #:    69
     total cpu time spent up to now is     1190.4 secs

     Computing kpt #:    70
     total cpu time spent up to now is     1207.5 secs

     Computing kpt #:    71
     total cpu time spent up to now is     1224.6 secs

     Computing kpt #:    72
     total cpu time spent up to now is     1241.7 secs

     Computing kpt #:    73
     total cpu time spent up to now is     1258.8 secs

     Computing kpt #:    74
     total cpu time spent up to now is     1276.0 secs

     Computing kpt #:    75
     total cpu time spent up to now is     1293.1 secs

     Computing kpt #:    76
     total cpu time spent up to now is     1310.2 secs

     Computing kpt #:    77
     total cpu time spent up to now is     1327.3 secs

     Computing kpt #:    78
     total cpu time spent up to now is     1344.6 secs

     Computing kpt #:    79
     total cpu time spent up to now is     1361.8 secs

     Computing kpt #:    80
     total cpu time spent up to now is     1378.9 secs

     ethr =  1.14E-12,  avg # of iterations = 13.2

     total cpu time spent up to now is     1378.9 secs

     End of band structure calculation

          k = 0.0000 0.0000 0.0000 ( 45709 PWs)   bands (ev):

  -115.0284-115.0261-115.0216-115.0203-115.0194-115.0194-115.0190-115.0173
  -115.0167-115.0159-115.0145-115.0138-115.0132-115.0120-115.0119-115.0117
  -115.0099-115.0092-115.0089-115.0082-115.0058-115.0057-115.0050-115.0044
  -115.0035-115.0033-115.0020-115.0017-114.9996-114.9959 -69.3878 -69.3853
   -69.3847 -69.3833 -69.3801 -69.3798 -69.3796 -69.3794 -69.3792 -69.3786
   -69.3785 -69.3778 -69.3767 -69.3766 -69.3758 -69.3753 -69.3752 -69.3743
   -69.3740 -69.3737 -69.3734 -69.3733 -69.3729 -69.3726 -69.3725 -69.3723
   -69.3722 -69.3720 -69.3718 -69.3717 -69.3714 -69.3713 -69.3710 -69.3705
   -69.3703 -69.3701 -69.3700 -69.3699 -69.3697 -69.3692 -69.3691 -69.3690
   -69.3689 -69.3678 -69.3675 -69.3673 -69.3673 -69.3669 -69.3662 -69.3660
   -69.3659 -69.3657 -69.3655 -69.3653 -69.3652 -69.3650 -69.3648 -69.3645
   -69.3644 -69.3643 -69.3639 -69.3636 -69.3633 -69.3632 -69.3629 -69.3626
   -69.3622 -69.3621 -69.3619 -69.3616 -69.3610 -69.3606 -69.3602 -69.3599
   -69.3593 -69.3590 -69.3589 -69.3588 -69.3584 -69.3580 -69.3580 -69.3573
   -69.3570 -69.3566 -69.3564 -69.3558 -69.3546 -69.3531 -69.3530 -69.3492
   -64.5195 -64.5147 -64.5051 -64.5041 -64.4955 -64.4906 -31.5065 -31.5041
   -31.5031 -31.5019 -31.5005 -31.4986 -31.4969 -31.4946 -31.4923 -31.4906
   -31.4887 -31.4853 -31.4833 -31.4802 -31.4784 -31.4766 -31.4739 -31.4714
    -9.7662  -9.4224  -9.4069  -9.3249  -9.3092  -9.3028  -9.2621  -9.2481
    -9.2296  -9.1266  -9.1203  -9.1002  -9.0895  -9.0849  -9.0613  -9.0541
    -9.0142  -9.0056  -8.9959  -8.9813  -8.9775  -8.9690  -8.9648  -8.9291
    -8.9174  -8.8736  -8.8524  -8.8378  -8.8344  -8.8071  -8.8027  -8.7969
    -8.7592  -8.7069  -8.6592  -8.5318   2.0226   2.0322   2.0414   2.0519
     2.0644   2.0788   2.0866   2.0940   2.1183   2.1391   2.1625   2.1672
     2.1789   2.2097   2.2215   2.2424   2.2745   2.2788   2.2834   2.3641
     2.4040   2.4297   2.4356   2.4378   2.4619   2.4641   2.4804   2.4894
     2.5013   2.5219   2.5315   2.5387   2.5458   2.5550   2.5625   2.5767
     2.5912   2.6008   2.6125   2.6224   2.6282   2.6461   2.6516   2.6626
     2.6797   2.6893   2.6958   2.7016   2.7177   2.7225   2.7379   2.7489
     2.7717   2.7746   2.7795   2.7807   2.7868   2.7884   2.7911   2.8004
     2.8044   2.8047   2.8153   2.8221   2.8307   2.8464   2.8527   2.8659
     2.8722   2.9010   2.9024   2.9128   2.9302   2.9531   2.9638   2.9838
     3.0239   3.0518   3.0737   3.0878   3.1012   3.1118   3.1276   3.1427
     3.1709   3.1757   3.1890   3.2239   3.2319   3.2374   3.2492   3.2899
     3.3010   3.3146   3.3431   3.3678   3.3875   3.4025   3.4191   3.4331
     3.4479   3.4811   3.4974   3.5106   3.5239   3.5290   3.5403   3.5445
     3.5542   3.5738   3.5812   3.5952   3.6006   3.6072   3.6192   3.6264
     3.6325   3.6348   3.6446   3.6551   3.6558   3.6599   3.6673   3.6725
     3.6819   3.6854   3.6872   3.6915   3.6970   3.7000   3.7044   3.7079
     3.7109   3.7247   3.7308   3.7405   3.7456   3.7549   3.7601   3.7652
     3.7714   3.7769   3.7946   3.8158   3.8704   3.8919   3.9089   3.9157
     3.9274   3.9591   3.9661   4.0596   4.0689   4.0917   4.1557   4.1757
     4.2004   4.2655   4.2883   4.3086   4.3204   4.3602   4.3885   4.3976
     4.4417   4.5476   4.5738   4.6017   4.6271   4.6761   4.7274   4.7710
     4.8094   4.8248   4.8403   4.8592   4.8864   4.9097   4.9542   4.9733
     5.0401   5.0606   5.1001   5.1481   5.1889   5.3154   5.3314   5.3486
     5.3645   5.5516   5.5853   5.6061   5.6708   5.7393   5.7641   5.8425
     5.8617   6.0214   6.0569   6.0848   6.0994   6.1126   6.1401   6.1733
     6.1929   6.2387   6.2511   6.2843   6.2968   6.3420   6.4011   6.4257
     6.4597   6.5089   6.5567   6.5919   6.6228   6.6483   6.6601   6.6626
     6.6853   6.6927   6.7152   6.7257   6.7424   6.7621   6.7760   6.7837
     6.7940   6.8153   6.8265   6.8454   6.8664   6.8775   6.8815   6.8994
     6.9209   7.0999   7.1340   7.1610   7.1691   7.1911   7.2012   7.2097
     7.2405   7.2980   7.3216   7.3694   7.3943   7.4398   7.4501   7.5787
     7.5935   7.6054   7.6131   7.8703   7.9615   7.9674

     occupation numbers 
     1.0000   1.0000   1.0000   1.0000   1.0000   1.0000   1.0000   1.0000
     1.0000   1.0000   1.0000   1.0000   1.0000   1.0000   1.0000   1.0000
     1.0000   1.0000   1.0000   1.0000   1.0000   1.0000   1.0000   1.0000
     1.0000   1.0000   1.0000   1.0000   1.0000   1.0000   1.0000   1.0000
     1.0000   1.0000   1.0000   1.0000   1.0000   1.0000   1.0000   1.0000
     1.0000   1.0000   1.0000   1.0000   1.0000   1.0000   1.0000   1.0000
     1.0000   1.0000   1.0000   1.0000   1.0000   1.0000   1.0000   1.0000
     1.0000   1.0000   1.0000   1.0000   1.0000   1.0000   1.0000   1.0000
     1.0000   1.0000   1.0000   1.0000   1.0000   1.0000   1.0000   1.0000
     1.0000   1.0000   1.0000   1.0000   1.0000   1.0000   1.0000   1.0000
     1.0000   1.0000   1.0000   1.0000   1.0000   1.0000   1.0000   1.0000
     1.0000   1.0000   1.0000   1.0000   1.0000   1.0000   1.0000   1.0000
     1.0000   1.0000   1.0000   1.0000   1.0000   1.0000   1.0000   1.0000
     1.0000   1.0000   1.0000   1.0000   1.0000   1.0000   1.0000   1.0000
     1.0000   1.0000   1.0000   1.0000   1.0000   1.0000   1.0000   1.0000
     1.0000   1.0000   1.0000   1.0000   1.0000   1.0000   1.0000   1.0000
     1.0000   1.0000   1.0000   1.0000   1.0000   1.0000   1.0000   1.0000
     1.0000   1.0000   1.0000   1.0000   1.0000   1.0000   1.0000   1.0000
     1.0000   1.0000   1.0000   1.0000   1.0000   1.0000   1.0000   1.0000
     1.0000   1.0000   1.0000   1.0000   1.0000   1.0000   1.0000   1.0000
     1.0000   1.0000   1.0000   1.0000   1.0000   1.0000   1.0000   1.0000
     1.0000   1.0000   1.0000   1.0000   1.0000   1.0000   1.0000   1.0000
     1.0000   1.0000   1.0000   1.0000   1.0000   1.0000   1.0000   1.0000
     1.0000   1.0000   1.0000   1.0000   1.0000   1.0000   1.0000   1.0000
     1.0000   1.0000   1.0000   1.0000   1.0000   1.0000   1.0000   1.0000
     1.0000   1.0000   1.0000   1.0000   1.0000   1.0000   1.0000   1.0000
     1.0000   1.0000   1.0000   1.0000   1.0000   1.0000   1.0000   1.0000
     1.0000   1.0000   1.0000   1.0000   1.0000   1.0000   1.0000   1.0000
     1.0000   1.0000   1.0000   1.0000   1.0000   1.0000   1.0000   1.0000
     1.0000   1.0000   1.0000   1.0000   1.0000   1.0000   1.0000   1.0000
     1.0000   1.0000   1.0000   1.0000   1.0000   1.0000   1.0000   1.0000
     1.0000   1.0000   1.0000   1.0000   1.0000   1.0000   1.0000   1.0000
     1.0000   1.0000   1.0000   1.0000   1.0000   1.0000   1.0000   1.0000
     1.0000   1.0000   1.0000   1.0000   1.0000   1.0000   1.0000   1.0000
     1.0000   1.0000   1.0000   1.0000   1.0000   1.0000   1.0000   1.0000
     1.0000   1.0000   1.0000   1.0000   1.0000   1.0000   1.0000   1.0000
     1.0000   1.0000   1.0000   1.0000   1.0000   1.0000   1.0000   1.0000
     1.0000   1.0000   1.0000   1.0000   1.0000   1.0000   1.0000   1.0000
     1.0000   1.0000   1.0000   1.0000   1.0000   1.0000   1.0000   1.0000
     1.0000   1.0000   1.0000   1.0000   1.0000   1.0000   1.0000   1.0000
     1.0000   1.0000   1.0000   1.0000   1.0000   1.0000   1.0000   1.0000
     1.0000   1.0000   1.0000   1.0000   1.0000   1.0000   1.0000   1.0000
     1.0000   1.0000   1.0000   1.0000   1.0000   1.0000   1.0000   1.0000
     1.0000   1.0000   1.0000   1.0000   1.0000   1.0000   1.0000   1.0000
     1.0000   1.0000   1.0000   1.0000   1.0000   1.0000   1.0000   1.0000
     1.0000   1.0000   1.0000   1.0000   1.0000   1.0000   1.0000   1.0000
     1.0000   1.0000   1.0000   1.0000   1.0000   1.0000   1.0000   1.0000
     1.0000   1.0000   1.0000   1.0000   1.0000   1.0000   1.0000   1.0000
     1.0000   1.0000   1.0000   1.0000   1.0000   1.0000   1.0000   1.0000
     1.0000   1.0000   1.0000   1.0000   1.0000   1.0000   1.0000   1.0000
     1.0000   1.0000   1.0000   1.0000   1.0000   1.0000   1.0000   1.0000
     1.0000   1.0000   1.0000   1.0000   1.0000   1.0000   1.0000   1.0000
     1.0000   1.0000   1.0000   1.0000   1.0000   1.0000   1.0000   1.0000
     1.0000   1.0000   1.0000   1.0000   1.0000   1.0000   1.0000   1.0000
     1.0000   1.0000   1.0000   1.0000   1.0000   1.0000

          k =-0.0000 0.0000 0.1321 ( 45661 PWs)   bands (ev):

  -115.0284-115.0261-115.0216-115.0203-115.0194-115.0194-115.0190-115.0173
  -115.0167-115.0159-115.0145-115.0138-115.0132-115.0120-115.0119-115.0117
  -115.0099-115.0092-115.0089-115.0082-115.0058-115.0057-115.0050-115.0044
  -115.0035-115.0033-115.0020-115.0017-114.9996-114.9959 -69.3878 -69.3853
   -69.3847 -69.3833 -69.3801 -69.3798 -69.3796 -69.3794 -69.3792 -69.3786
   -69.3785 -69.3778 -69.3767 -69.3766 -69.3758 -69.3753 -69.3752 -69.3743
   -69.3740 -69.3737 -69.3734 -69.3733 -69.3729 -69.3726 -69.3725 -69.3723
   -69.3722 -69.3720 -69.3718 -69.3717 -69.3714 -69.3713 -69.3710 -69.3705
   -69.3703 -69.3701 -69.3700 -69.3699 -69.3697 -69.3692 -69.3691 -69.3690
   -69.3689 -69.3678 -69.3675 -69.3673 -69.3673 -69.3669 -69.3662 -69.3660
   -69.3659 -69.3657 -69.3655 -69.3653 -69.3652 -69.3650 -69.3648 -69.3645
   -69.3644 -69.3643 -69.3639 -69.3636 -69.3633 -69.3632 -69.3629 -69.3626
   -69.3622 -69.3620 -69.3619 -69.3616 -69.3610 -69.3606 -69.3602 -69.3599
   -69.3593 -69.3590 -69.3589 -69.3588 -69.3584 -69.3580 -69.3580 -69.3573
   -69.3570 -69.3566 -69.3564 -69.3558 -69.3546 -69.3531 -69.3530 -69.3492
   -64.5195 -64.5147 -64.5051 -64.5041 -64.4955 -64.4906 -31.5065 -31.5041
   -31.5031 -31.5019 -31.5005 -31.4986 -31.4969 -31.4946 -31.4923 -31.4906
   -31.4887 -31.4853 -31.4833 -31.4802 -31.4784 -31.4766 -31.4739 -31.4714
    -9.7585  -9.4878  -9.3476  -9.3187  -9.3044  -9.2969  -9.2586  -9.2452
    -9.2252  -9.1606  -9.1279  -9.1237  -9.0966  -9.0769  -9.0549  -9.0444
    -9.0228  -9.0047  -8.9923  -8.9840  -8.9654  -8.9602  -8.9479  -8.9270
    -8.9184  -8.8742  -8.8528  -8.8385  -8.8367  -8.8098  -8.8036  -8.7986
    -8.7599  -8.7086  -8.6602  -8.5323   2.0275   2.0343   2.0435   2.0583
     2.0674   2.0801   2.0995   2.1056   2.1269   2.1487   2.1647   2.1769
     2.1873   2.2108   2.2227   2.2440   2.2708   2.2821   2.2975   2.3671
     2.4066   2.4293   2.4337   2.4377   2.4597   2.4660   2.4699   2.4816
     2.5032   2.5127   2.5263   2.5333   2.5405   2.5518   2.5593   2.5737
     2.5821   2.5901   2.6074   2.6198   2.6286   2.6432   2.6520   2.6647
     2.6779   2.6903   2.6972   2.7048   2.7219   2.7235   2.7364   2.7544
     2.7697   2.7702   2.7777   2.7836   2.7866   2.7898   2.7948   2.7982
     2.8041   2.8087   2.8163   2.8191   2.8321   2.8457   2.8488   2.8659
     2.8749   2.8996   2.9009   2.9137   2.9308   2.9492   2.9618   2.9760
     3.0171   3.0416   3.0587   3.0725   3.0817   3.1024   3.1168   3.1230
     3.1418   3.1592   3.1763   3.1960   3.2108   3.2302   3.2457   3.2759
     3.2938   3.3170   3.3444   3.3638   3.3871   3.4141   3.4297   3.4336
     3.4530   3.4686   3.4811   3.4997   3.5181   3.5291   3.5361   3.5473
     3.5612   3.5746   3.5889   3.6001   3.6059   3.6124   3.6179   3.6296
     3.6346   3.6387   3.6465   3.6520   3.6544   3.6614   3.6647   3.6711
     3.6753   3.6793   3.6832   3.6906   3.7028   3.7061   3.7139   3.7236
     3.7257   3.7330   3.7357   3.7447   3.7472   3.7519   3.7582   3.7656
     3.7720   3.7834   3.7998   3.8226   3.8617   3.8707   3.8842   3.9075
     3.9191   3.9530   3.9929   4.1131   4.1379   4.1551   4.1846   4.1992
     4.2233   4.2811   4.3040   4.3161   4.3291   4.3702   4.3922   4.4099
     4.4424   4.5426   4.5763   4.6038   4.6312   4.6831   4.7406   4.7702
     4.8112   4.8275   4.8432   4.8574   4.8923   4.9220   4.9475   4.9857
     5.0360   5.0627   5.1198   5.1374   5.1521   5.1851   5.2230   5.3712
     5.5087   5.5217   5.5842   5.6392   5.7199   5.7356   5.7794   5.8325
     5.9104   6.0175   6.0798   6.1016   6.1174   6.1338   6.1607   6.1810
     6.2047   6.2256   6.2438   6.2591   6.2692   6.2887   6.3133   6.3326
     6.3443   6.3729   6.3988   6.5591   6.5829   6.6007   6.6196   6.6467
     6.6758   6.6866   6.7015   6.7326   6.7526   6.7686   6.8021   6.8440
     6.8517   6.8685   6.8896   6.8977   6.9029   6.9213   6.9667   6.9780
     6.9989   7.1154   7.1459   7.1695   7.1799   7.1994   7.2121   7.2164
     7.2471   7.2950   7.3160   7.3609   7.3840   7.4277   7.4369   7.5252
     7.5323   7.6616   7.6702   7.7532   7.9553   7.9609

     occupation numbers 
     1.0000   1.0000   1.0000   1.0000   1.0000   1.0000   1.0000   1.0000
     1.0000   1.0000   1.0000   1.0000   1.0000   1.0000   1.0000   1.0000
     1.0000   1.0000   1.0000   1.0000   1.0000   1.0000   1.0000   1.0000
     1.0000   1.0000   1.0000   1.0000   1.0000   1.0000   1.0000   1.0000
     1.0000   1.0000   1.0000   1.0000   1.0000   1.0000   1.0000   1.0000
     1.0000   1.0000   1.0000   1.0000   1.0000   1.0000   1.0000   1.0000
     1.0000   1.0000   1.0000   1.0000   1.0000   1.0000   1.0000   1.0000
     1.0000   1.0000   1.0000   1.0000   1.0000   1.0000   1.0000   1.0000
     1.0000   1.0000   1.0000   1.0000   1.0000   1.0000   1.0000   1.0000
     1.0000   1.0000   1.0000   1.0000   1.0000   1.0000   1.0000   1.0000
     1.0000   1.0000   1.0000   1.0000   1.0000   1.0000   1.0000   1.0000
     1.0000   1.0000   1.0000   1.0000   1.0000   1.0000   1.0000   1.0000
     1.0000   1.0000   1.0000   1.0000   1.0000   1.0000   1.0000   1.0000
     1.0000   1.0000   1.0000   1.0000   1.0000   1.0000   1.0000   1.0000
     1.0000   1.0000   1.0000   1.0000   1.0000   1.0000   1.0000   1.0000
     1.0000   1.0000   1.0000   1.0000   1.0000   1.0000   1.0000   1.0000
     1.0000   1.0000   1.0000   1.0000   1.0000   1.0000   1.0000   1.0000
     1.0000   1.0000   1.0000   1.0000   1.0000   1.0000   1.0000   1.0000
     1.0000   1.0000   1.0000   1.0000   1.0000   1.0000   1.0000   1.0000
     1.0000   1.0000   1.0000   1.0000   1.0000   1.0000   1.0000   1.0000
     1.0000   1.0000   1.0000   1.0000   1.0000   1.0000   1.0000   1.0000
     1.0000   1.0000   1.0000   1.0000   1.0000   1.0000   1.0000   1.0000
     1.0000   1.0000   1.0000   1.0000   1.0000   1.0000   1.0000   1.0000
     1.0000   1.0000   1.0000   1.0000   1.0000   1.0000   1.0000   1.0000
     1.0000   1.0000   1.0000   1.0000   1.0000   1.0000   1.0000   1.0000
     1.0000   1.0000   1.0000   1.0000   1.0000   1.0000   1.0000   1.0000
     1.0000   1.0000   1.0000   1.0000   1.0000   1.0000   1.0000   1.0000
     1.0000   1.0000   1.0000   1.0000   1.0000   1.0000   1.0000   1.0000
     1.0000   1.0000   1.0000   1.0000   1.0000   1.0000   1.0000   1.0000
     1.0000   1.0000   1.0000   1.0000   1.0000   1.0000   1.0000   1.0000
     1.0000   1.0000   1.0000   1.0000   1.0000   1.0000   1.0000   1.0000
     1.0000   1.0000   1.0000   1.0000   1.0000   1.0000   1.0000   1.0000
     1.0000   1.0000   1.0000   1.0000   1.0000   1.0000   1.0000   1.0000
     1.0000   1.0000   1.0000   1.0000   1.0000   1.0000   1.0000   1.0000
     1.0000   1.0000   1.0000   1.0000   1.0000   1.0000   1.0000   1.0000
     1.0000   1.0000   1.0000   1.0000   1.0000   1.0000   1.0000   1.0000
     1.0000   1.0000   1.0000   1.0000   1.0000   1.0000   1.0000   1.0000
     1.0000   1.0000   1.0000   1.0000   1.0000   1.0000   1.0000   1.0000
     1.0000   1.0000   1.0000   1.0000   1.0000   1.0000   1.0000   1.0000
     1.0000   1.0000   1.0000   1.0000   1.0000   1.0000   1.0000   1.0000
     1.0000   1.0000   1.0000   1.0000   1.0000   1.0000   1.0000   1.0000
     1.0000   1.0000   1.0000   1.0000   1.0000   1.0000   1.0000   1.0000
     1.0000   1.0000   1.0000   1.0000   1.0000   1.0000   1.0000   1.0000
     1.0000   1.0000   1.0000   1.0000   1.0000   1.0000   1.0000   1.0000
     1.0000   1.0000   1.0000   1.0000   1.0000   1.0000   1.0000   1.0000
     1.0000   1.0000   1.0000   1.0000   1.0000   1.0000   1.0000   1.0000
     1.0000   1.0000   1.0000   1.0000   1.0000   1.0000   1.0000   1.0000
     1.0000   1.0000   1.0000   1.0000   1.0000   1.0000   1.0000   1.0000
     1.0000   1.0000   1.0000   1.0000   1.0000   1.0000   1.0000   1.0000
     1.0000   1.0000   1.0000   1.0000   1.0000   1.0000   1.0000   1.0000
     1.0000   1.0000   1.0000   1.0000   1.0000   1.0000   1.0000   1.0000
     1.0000   1.0000   1.0000   1.0000   1.0000   1.0000   1.0000   1.0000
     1.0000   1.0000   1.0000   1.0000   1.0000   1.0000   1.0000   1.0000
     1.0000   1.0000   1.0000   1.0000   1.0000   1.0000   1.0000   1.0000
     1.0000   1.0000   1.0000   1.0000   1.0000   1.0000

          k =-0.0000 0.0000 0.2642 ( 45585 PWs)   bands (ev):

  -115.0284-115.0261-115.0216-115.0203-115.0194-115.0194-115.0190-115.0173
  -115.0167-115.0159-115.0145-115.0138-115.0132-115.0120-115.0119-115.0117
  -115.0099-115.0092-115.0089-115.0082-115.0058-115.0057-115.0050-115.0044
  -115.0035-115.0033-115.0020-115.0017-114.9996-114.9959 -69.3878 -69.3853
   -69.3847 -69.3833 -69.3801 -69.3798 -69.3796 -69.3794 -69.3792 -69.3786
   -69.3785 -69.3778 -69.3767 -69.3766 -69.3758 -69.3753 -69.3752 -69.3743
   -69.3740 -69.3737 -69.3734 -69.3733 -69.3729 -69.3726 -69.3725 -69.3723
   -69.3722 -69.3720 -69.3718 -69.3717 -69.3714 -69.3713 -69.3710 -69.3705
   -69.3703 -69.3701 -69.3700 -69.3699 -69.3697 -69.3692 -69.3691 -69.3690
   -69.3689 -69.3678 -69.3675 -69.3673 -69.3673 -69.3669 -69.3662 -69.3660
   -69.3659 -69.3657 -69.3655 -69.3653 -69.3652 -69.3650 -69.3648 -69.3645
   -69.3644 -69.3643 -69.3639 -69.3636 -69.3633 -69.3632 -69.3629 -69.3626
   -69.3622 -69.3620 -69.3619 -69.3616 -69.3610 -69.3606 -69.3602 -69.3599
   -69.3593 -69.3590 -69.3589 -69.3588 -69.3584 -69.3580 -69.3580 -69.3573
   -69.3570 -69.3566 -69.3564 -69.3558 -69.3546 -69.3531 -69.3530 -69.3492
   -64.5195 -64.5147 -64.5051 -64.5041 -64.4955 -64.4906 -31.5065 -31.5041
   -31.5031 -31.5019 -31.5005 -31.4986 -31.4969 -31.4946 -31.4923 -31.4906
   -31.4887 -31.4853 -31.4833 -31.4802 -31.4784 -31.4766 -31.4739 -31.4714
    -9.7368  -9.5560  -9.3116  -9.3020  -9.2918  -9.2686  -9.2496  -9.2382
    -9.2131  -9.1980  -9.1618  -9.1525  -9.1255  -9.0827  -9.0650  -9.0341
    -9.0215  -8.9991  -8.9751  -8.9658  -8.9631  -8.9414  -8.9325  -8.9191
    -8.9129  -8.8767  -8.8540  -8.8426  -8.8394  -8.8172  -8.8073  -8.8010
    -8.7613  -8.7126  -8.6624  -8.5334   2.0378   2.0444   2.0521   2.0696
     2.0752   2.0860   2.1214   2.1242   2.1423   2.1647   2.1805   2.1880
     2.2131   2.2282   2.2394   2.2594   2.2775   2.2907   2.3199   2.3747
     2.4114   2.4138   2.4275   2.4309   2.4381   2.4475   2.4594   2.4696
     2.4822   2.4946   2.5058   2.5258   2.5374   2.5433   2.5583   2.5646
     2.5753   2.5916   2.5952   2.6158   2.6287   2.6377   2.6539   2.6692
     2.6770   2.6828   2.6895   2.7068   2.7239   2.7314   2.7428   2.7514
     2.7558   2.7674   2.7721   2.7812   2.7859   2.7874   2.7936   2.8000
     2.8092   2.8146   2.8184   2.8323   2.8377   2.8456   2.8538   2.8675
     2.8832   2.8981   2.9012   2.9126   2.9300   2.9399   2.9495   2.9568
     2.9923   3.0066   3.0145   3.0314   3.0383   3.0505   3.0632   3.0977
     3.1233   3.1363   3.1591   3.1670   3.1870   3.2146   3.2403   3.2539
     3.2844   3.3146   3.3208   3.3729   3.3825   3.3953   3.4291   3.4467
     3.4536   3.4720   3.4895   3.4979   3.5166   3.5263   3.5416   3.5506
     3.5594   3.5738   3.5953   3.5996   3.6030   3.6134   3.6155   3.6257
     3.6314   3.6351   3.6408   3.6510   3.6524   3.6581   3.6632   3.6703
     3.6747   3.6825   3.6918   3.7008   3.7137   3.7198   3.7247   3.7349
     3.7376   3.7418   3.7474   3.7536   3.7565   3.7611   3.7653   3.7669
     3.7874   3.7979   3.8078   3.8232   3.8414   3.8496   3.8744   3.8952
     3.9030   3.9360   4.0733   4.1954   4.2099   4.2179   4.2433   4.2781
     4.2951   4.3130   4.3249   4.3606   4.3742   4.3863   4.4328   4.4409
     4.4601   4.5277   4.5598   4.6155   4.6347   4.6722   4.7522   4.7689
     4.8175   4.8345   4.8531   4.8679   4.9045   4.9152   4.9325   4.9761
     5.0199   5.0367   5.0802   5.1025   5.1681   5.1906   5.2174   5.2953
     5.5562   5.6080   5.6465   5.6865   5.7210   5.7500   5.7845   5.8172
     5.9187   5.9526   6.0064   6.0235   6.0684   6.0854   6.1517   6.1649
     6.1745   6.2038   6.2214   6.2295   6.2392   6.2610   6.2733   6.2775
     6.3127   6.3305   6.4065   6.4744   6.4956   6.5206   6.5668   6.5791
     6.5893   6.6044   6.6162   6.6429   6.6935   6.8084   6.8634   6.9068
     6.9439   6.9538   6.9885   7.0211   7.0334   7.0554   7.0644   7.0849
     7.1055   7.1480   7.1783   7.1903   7.2079   7.2167   7.2324   7.2433
     7.2562   7.2921   7.3062   7.3399   7.3564   7.3963   7.4000   7.4623
     7.4649   7.5056   7.7217   7.7294   7.9387   7.9437

     occupation numbers 
     1.0000   1.0000   1.0000   1.0000   1.0000   1.0000   1.0000   1.0000
     1.0000   1.0000   1.0000   1.0000   1.0000   1.0000   1.0000   1.0000
     1.0000   1.0000   1.0000   1.0000   1.0000   1.0000   1.0000   1.0000
     1.0000   1.0000   1.0000   1.0000   1.0000   1.0000   1.0000   1.0000
     1.0000   1.0000   1.0000   1.0000   1.0000   1.0000   1.0000   1.0000
     1.0000   1.0000   1.0000   1.0000   1.0000   1.0000   1.0000   1.0000
     1.0000   1.0000   1.0000   1.0000   1.0000   1.0000   1.0000   1.0000
     1.0000   1.0000   1.0000   1.0000   1.0000   1.0000   1.0000   1.0000
     1.0000   1.0000   1.0000   1.0000   1.0000   1.0000   1.0000   1.0000
     1.0000   1.0000   1.0000   1.0000   1.0000   1.0000   1.0000   1.0000
     1.0000   1.0000   1.0000   1.0000   1.0000   1.0000   1.0000   1.0000
     1.0000   1.0000   1.0000   1.0000   1.0000   1.0000   1.0000   1.0000
     1.0000   1.0000   1.0000   1.0000   1.0000   1.0000   1.0000   1.0000
     1.0000   1.0000   1.0000   1.0000   1.0000   1.0000   1.0000   1.0000
     1.0000   1.0000   1.0000   1.0000   1.0000   1.0000   1.0000   1.0000
     1.0000   1.0000   1.0000   1.0000   1.0000   1.0000   1.0000   1.0000
     1.0000   1.0000   1.0000   1.0000   1.0000   1.0000   1.0000   1.0000
     1.0000   1.0000   1.0000   1.0000   1.0000   1.0000   1.0000   1.0000
     1.0000   1.0000   1.0000   1.0000   1.0000   1.0000   1.0000   1.0000
     1.0000   1.0000   1.0000   1.0000   1.0000   1.0000   1.0000   1.0000
     1.0000   1.0000   1.0000   1.0000   1.0000   1.0000   1.0000   1.0000
     1.0000   1.0000   1.0000   1.0000   1.0000   1.0000   1.0000   1.0000
     1.0000   1.0000   1.0000   1.0000   1.0000   1.0000   1.0000   1.0000
     1.0000   1.0000   1.0000   1.0000   1.0000   1.0000   1.0000   1.0000
     1.0000   1.0000   1.0000   1.0000   1.0000   1.0000   1.0000   1.0000
     1.0000   1.0000   1.0000   1.0000   1.0000   1.0000   1.0000   1.0000
     1.0000   1.0000   1.0000   1.0000   1.0000   1.0000   1.0000   1.0000
     1.0000   1.0000   1.0000   1.0000   1.0000   1.0000   1.0000   1.0000
     1.0000   1.0000   1.0000   1.0000   1.0000   1.0000   1.0000   1.0000
     1.0000   1.0000   1.0000   1.0000   1.0000   1.0000   1.0000   1.0000
     1.0000   1.0000   1.0000   1.0000   1.0000   1.0000   1.0000   1.0000
     1.0000   1.0000   1.0000   1.0000   1.0000   1.0000   1.0000   1.0000
     1.0000   1.0000   1.0000   1.0000   1.0000   1.0000   1.0000   1.0000
     1.0000   1.0000   1.0000   1.0000   1.0000   1.0000   1.0000   1.0000
     1.0000   1.0000   1.0000   1.0000   1.0000   1.0000   1.0000   1.0000
     1.0000   1.0000   1.0000   1.0000   1.0000   1.0000   1.0000   1.0000
     1.0000   1.0000   1.0000   1.0000   1.0000   1.0000   1.0000   1.0000
     1.0000   1.0000   1.0000   1.0000   1.0000   1.0000   1.0000   1.0000
     1.0000   1.0000   1.0000   1.0000   1.0000   1.0000   1.0000   1.0000
     1.0000   1.0000   1.0000   1.0000   1.0000   1.0000   1.0000   1.0000
     1.0000   1.0000   1.0000   1.0000   1.0000   1.0000   1.0000   1.0000
     1.0000   1.0000   1.0000   1.0000   1.0000   1.0000   1.0000   1.0000
     1.0000   1.0000   1.0000   1.0000   1.0000   1.0000   1.0000   1.0000
     1.0000   1.0000   1.0000   1.0000   1.0000   1.0000   1.0000   1.0000
     1.0000   1.0000   1.0000   1.0000   1.0000   1.0000   1.0000   1.0000
     1.0000   1.0000   1.0000   1.0000   1.0000   1.0000   1.0000   1.0000
     1.0000   1.0000   1.0000   1.0000   1.0000   1.0000   1.0000   1.0000
     1.0000   1.0000   1.0000   1.0000   1.0000   1.0000   1.0000   1.0000
     1.0000   1.0000   1.0000   1.0000   1.0000   1.0000   1.0000   1.0000
     1.0000   1.0000   1.0000   1.0000   1.0000   1.0000   1.0000   1.0000
     1.0000   1.0000   1.0000   1.0000   1.0000   1.0000   1.0000   1.0000
     1.0000   1.0000   1.0000   1.0000   1.0000   1.0000   1.0000   1.0000
     1.0000   1.0000   1.0000   1.0000   1.0000   1.0000   1.0000   1.0000
     1.0000   1.0000   1.0000   1.0000   1.0000   1.0000   1.0000   1.0000
     1.0000   1.0000   1.0000   1.0000   1.0000   1.0000

          k =-0.0000 0.0000 0.3964 ( 45625 PWs)   bands (ev):

  -115.0284-115.0261-115.0216-115.0203-115.0194-115.0194-115.0190-115.0173
  -115.0167-115.0159-115.0145-115.0138-115.0132-115.0120-115.0119-115.0117
  -115.0099-115.0092-115.0089-115.0082-115.0058-115.0057-115.0050-115.0044
  -115.0035-115.0033-115.0020-115.0017-114.9996-114.9959 -69.3878 -69.3853
   -69.3847 -69.3833 -69.3801 -69.3798 -69.3796 -69.3794 -69.3792 -69.3786
   -69.3785 -69.3778 -69.3767 -69.3766 -69.3758 -69.3753 -69.3752 -69.3743
   -69.3740 -69.3737 -69.3734 -69.3733 -69.3729 -69.3726 -69.3725 -69.3723
   -69.3722 -69.3720 -69.3718 -69.3717 -69.3714 -69.3713 -69.3710 -69.3705
   -69.3703 -69.3701 -69.3700 -69.3699 -69.3697 -69.3692 -69.3691 -69.3690
   -69.3689 -69.3678 -69.3675 -69.3673 -69.3673 -69.3669 -69.3662 -69.3660
   -69.3659 -69.3657 -69.3655 -69.3653 -69.3652 -69.3650 -69.3648 -69.3645
   -69.3644 -69.3643 -69.3639 -69.3636 -69.3633 -69.3632 -69.3629 -69.3626
   -69.3623 -69.3620 -69.3619 -69.3616 -69.3610 -69.3606 -69.3602 -69.3599
   -69.3593 -69.3590 -69.3589 -69.3588 -69.3584 -69.3580 -69.3580 -69.3573
   -69.3570 -69.3566 -69.3564 -69.3558 -69.3546 -69.3531 -69.3530 -69.3492
   -64.5195 -64.5147 -64.5051 -64.5041 -64.4955 -64.4906 -31.5065 -31.5041
   -31.5031 -31.5019 -31.5005 -31.4986 -31.4969 -31.4946 -31.4923 -31.4906
   -31.4887 -31.4853 -31.4833 -31.4802 -31.4784 -31.4766 -31.4739 -31.4714
    -9.7088  -9.6081  -9.2917  -9.2891  -9.2796  -9.2486  -9.2376  -9.2307
    -9.2301  -9.1943  -9.1825  -9.1717  -9.1481  -9.0969  -9.0791  -9.0531
    -8.9999  -8.9853  -8.9652  -8.9630  -8.9488  -8.9373  -8.9291  -8.9090
    -8.8999  -8.8800  -8.8551  -8.8477  -8.8397  -8.8257  -8.8116  -8.8020
    -8.7622  -8.7161  -8.6641  -8.5342   2.0466   2.0556   2.0630   2.0745
     2.0874   2.0935   2.1186   2.1320   2.1515   2.1712   2.1839   2.2106
     2.2550   2.2674   2.2764   2.2865   2.3012   2.3120   2.3272   2.3615
     2.3695   2.3916   2.4096   2.4216   2.4289   2.4328   2.4441   2.4474
     2.4649   2.4720   2.4872   2.5134   2.5343   2.5409   2.5549   2.5727
     2.5858   2.5910   2.6039   2.6195   2.6211   2.6404   2.6525   2.6714
     2.6776   2.6805   2.6864   2.7061   2.7174   2.7306   2.7326   2.7369
     2.7493   2.7596   2.7616   2.7779   2.7809   2.7888   2.7952   2.8019
     2.8125   2.8205   2.8313   2.8405   2.8529   2.8595   2.8657   2.8834
     2.8912   2.8976   2.9019   2.9105   2.9204   2.9298   2.9391   2.9422
     2.9579   2.9629   2.9750   2.9850   2.9988   3.0124   3.0205   3.0921
     3.1204   3.1277   3.1507   3.1575   3.1718   3.2064   3.2370   3.2440
     3.2741   3.3011   3.3154   3.3610   3.3716   3.3994   3.4139   3.4558
     3.4690   3.4811   3.4919   3.5077   3.5174   3.5282   3.5377   3.5574
     3.5685   3.5820   3.5868   3.5932   3.5980   3.6050   3.6109   3.6191
     3.6264   3.6280   3.6342   3.6469   3.6505   3.6574   3.6622   3.6698
     3.6834   3.6866   3.6959   3.7040   3.7197   3.7274   3.7342   3.7369
     3.7441   3.7495   3.7525   3.7582   3.7642   3.7733   3.7761   3.7835
     3.7979   3.8075   3.8135   3.8242   3.8344   3.8462   3.8647   3.8837
     3.8976   3.9128   4.1636   4.2232   4.2383   4.2536   4.2815   4.3133
     4.3275   4.3445   4.3584   4.3861   4.4306   4.4489   4.4775   4.4852
     4.5076   4.5561   4.5730   4.5854   4.6321   4.6553   4.6971   4.7400
     4.7471   4.7691   4.7783   4.8452   4.8950   4.9293   4.9521   5.0299
     5.0616   5.1008   5.1218   5.1488   5.1989   5.2191   5.2514   5.2962
     5.5583   5.5957   5.6618   5.7011   5.7158   5.7398   5.7827   5.8002
     5.8403   5.8562   5.8885   5.9145   5.9354   5.9691   6.0772   6.0885
     6.2024   6.2459   6.2737   6.2830   6.2901   6.3245   6.3350   6.3641
     6.3790   6.3847   6.4120   6.4221   6.4347   6.4725   6.4793   6.4964
     6.4996   6.5281   6.5322   6.5464   6.6842   6.8639   6.9058   6.9525
     6.9936   7.0008   7.0319   7.0954   7.1080   7.1217   7.1425   7.1535
     7.1775   7.1847   7.2024   7.2190   7.2325   7.2394   7.2503   7.2614
     7.2655   7.2775   7.2970   7.3085   7.3215   7.3305   7.3461   7.3645
     7.4063   7.4118   7.7626   7.7694   7.9209   7.9253

     occupation numbers 
     1.0000   1.0000   1.0000   1.0000   1.0000   1.0000   1.0000   1.0000
     1.0000   1.0000   1.0000   1.0000   1.0000   1.0000   1.0000   1.0000
     1.0000   1.0000   1.0000   1.0000   1.0000   1.0000   1.0000   1.0000
     1.0000   1.0000   1.0000   1.0000   1.0000   1.0000   1.0000   1.0000
     1.0000   1.0000   1.0000   1.0000   1.0000   1.0000   1.0000   1.0000
     1.0000   1.0000   1.0000   1.0000   1.0000   1.0000   1.0000   1.0000
     1.0000   1.0000   1.0000   1.0000   1.0000   1.0000   1.0000   1.0000
     1.0000   1.0000   1.0000   1.0000   1.0000   1.0000   1.0000   1.0000
     1.0000   1.0000   1.0000   1.0000   1.0000   1.0000   1.0000   1.0000
     1.0000   1.0000   1.0000   1.0000   1.0000   1.0000   1.0000   1.0000
     1.0000   1.0000   1.0000   1.0000   1.0000   1.0000   1.0000   1.0000
     1.0000   1.0000   1.0000   1.0000   1.0000   1.0000   1.0000   1.0000
     1.0000   1.0000   1.0000   1.0000   1.0000   1.0000   1.0000   1.0000
     1.0000   1.0000   1.0000   1.0000   1.0000   1.0000   1.0000   1.0000
     1.0000   1.0000   1.0000   1.0000   1.0000   1.0000   1.0000   1.0000
     1.0000   1.0000   1.0000   1.0000   1.0000   1.0000   1.0000   1.0000
     1.0000   1.0000   1.0000   1.0000   1.0000   1.0000   1.0000   1.0000
     1.0000   1.0000   1.0000   1.0000   1.0000   1.0000   1.0000   1.0000
     1.0000   1.0000   1.0000   1.0000   1.0000   1.0000   1.0000   1.0000
     1.0000   1.0000   1.0000   1.0000   1.0000   1.0000   1.0000   1.0000
     1.0000   1.0000   1.0000   1.0000   1.0000   1.0000   1.0000   1.0000
     1.0000   1.0000   1.0000   1.0000   1.0000   1.0000   1.0000   1.0000
     1.0000   1.0000   1.0000   1.0000   1.0000   1.0000   1.0000   1.0000
     1.0000   1.0000   1.0000   1.0000   1.0000   1.0000   1.0000   1.0000
     1.0000   1.0000   1.0000   1.0000   1.0000   1.0000   1.0000   1.0000
     1.0000   1.0000   1.0000   1.0000   1.0000   1.0000   1.0000   1.0000
     1.0000   1.0000   1.0000   1.0000   1.0000   1.0000   1.0000   1.0000
     1.0000   1.0000   1.0000   1.0000   1.0000   1.0000   1.0000   1.0000
     1.0000   1.0000   1.0000   1.0000   1.0000   1.0000   1.0000   1.0000
     1.0000   1.0000   1.0000   1.0000   1.0000   1.0000   1.0000   1.0000
     1.0000   1.0000   1.0000   1.0000   1.0000   1.0000   1.0000   1.0000
     1.0000   1.0000   1.0000   1.0000   1.0000   1.0000   1.0000   1.0000
     1.0000   1.0000   1.0000   1.0000   1.0000   1.0000   1.0000   1.0000
     1.0000   1.0000   1.0000   1.0000   1.0000   1.0000   1.0000   1.0000
     1.0000   1.0000   1.0000   1.0000   1.0000   1.0000   1.0000   1.0000
     1.0000   1.0000   1.0000   1.0000   1.0000   1.0000   1.0000   1.0000
     1.0000   1.0000   1.0000   1.0000   1.0000   1.0000   1.0000   1.0000
     1.0000   1.0000   1.0000   1.0000   1.0000   1.0000   1.0000   1.0000
     1.0000   1.0000   1.0000   1.0000   1.0000   1.0000   1.0000   1.0000
     1.0000   1.0000   1.0000   1.0000   1.0000   1.0000   1.0000   1.0000
     1.0000   1.0000   1.0000   1.0000   1.0000   1.0000   1.0000   1.0000
     1.0000   1.0000   1.0000   1.0000   1.0000   1.0000   1.0000   1.0000
     1.0000   1.0000   1.0000   1.0000   1.0000   1.0000   1.0000   1.0000
     1.0000   1.0000   1.0000   1.0000   1.0000   1.0000   1.0000   1.0000
     1.0000   1.0000   1.0000   1.0000   1.0000   1.0000   1.0000   1.0000
     1.0000   1.0000   1.0000   1.0000   1.0000   1.0000   1.0000   1.0000
     1.0000   1.0000   1.0000   1.0000   1.0000   1.0000   1.0000   1.0000
     1.0000   1.0000   1.0000   1.0000   1.0000   1.0000   1.0000   1.0000
     1.0000   1.0000   1.0000   1.0000   1.0000   1.0000   1.0000   1.0000
     1.0000   1.0000   1.0000   1.0000   1.0000   1.0000   1.0000   1.0000
     1.0000   1.0000   1.0000   1.0000   1.0000   1.0000   1.0000   1.0000
     1.0000   1.0000   1.0000   1.0000   1.0000   1.0000   1.0000   1.0000
     1.0000   1.0000   1.0000   1.0000   1.0000   1.0000   1.0000   1.0000
     1.0000   1.0000   1.0000   1.0000   1.0000   1.0000   1.0000   1.0000
     1.0000   1.0000   1.0000   1.0000   1.0000   1.0000

          k =-0.0000 0.0000 0.5285 ( 45625 PWs)   bands (ev):

  -115.0284-115.0261-115.0216-115.0203-115.0194-115.0194-115.0190-115.0173
  -115.0167-115.0159-115.0145-115.0138-115.0132-115.0120-115.0119-115.0117
  -115.0099-115.0092-115.0089-115.0082-115.0058-115.0057-115.0050-115.0044
  -115.0035-115.0033-115.0020-115.0017-114.9996-114.9959 -69.3878 -69.3853
   -69.3847 -69.3833 -69.3801 -69.3798 -69.3796 -69.3794 -69.3792 -69.3786
   -69.3785 -69.3778 -69.3767 -69.3766 -69.3758 -69.3753 -69.3752 -69.3743
   -69.3740 -69.3737 -69.3734 -69.3733 -69.3729 -69.3726 -69.3725 -69.3723
   -69.3722 -69.3720 -69.3718 -69.3717 -69.3714 -69.3713 -69.3710 -69.3705
   -69.3703 -69.3701 -69.3700 -69.3699 -69.3697 -69.3692 -69.3691 -69.3690
   -69.3689 -69.3678 -69.3675 -69.3673 -69.3673 -69.3669 -69.3662 -69.3660
   -69.3659 -69.3657 -69.3655 -69.3653 -69.3652 -69.3650 -69.3648 -69.3645
   -69.3644 -69.3643 -69.3639 -69.3636 -69.3633 -69.3632 -69.3629 -69.3626
   -69.3623 -69.3620 -69.3619 -69.3616 -69.3610 -69.3606 -69.3602 -69.3599
   -69.3593 -69.3590 -69.3589 -69.3588 -69.3584 -69.3580 -69.3580 -69.3573
   -69.3570 -69.3566 -69.3564 -69.3558 -69.3546 -69.3531 -69.3530 -69.3492
   -64.5195 -64.5147 -64.5051 -64.5041 -64.4955 -64.4906 -31.5065 -31.5041
   -31.5031 -31.5019 -31.5005 -31.4986 -31.4969 -31.4946 -31.4923 -31.4906
   -31.4887 -31.4853 -31.4833 -31.4802 -31.4784 -31.4766 -31.4739 -31.4714
    -9.7088  -9.6081  -9.2917  -9.2891  -9.2796  -9.2486  -9.2376  -9.2307
    -9.2301  -9.1943  -9.1825  -9.1717  -9.1481  -9.0969  -9.0791  -9.0531
    -8.9999  -8.9853  -8.9652  -8.9630  -8.9488  -8.9373  -8.9291  -8.9090
    -8.8999  -8.8800  -8.8551  -8.8477  -8.8397  -8.8257  -8.8116  -8.8020
    -8.7622  -8.7161  -8.6641  -8.5342   2.0466   2.0556   2.0630   2.0745
     2.0874   2.0935   2.1186   2.1320   2.1515   2.1712   2.1839   2.2106
     2.2550   2.2674   2.2764   2.2865   2.3012   2.3120   2.3272   2.3615
     2.3695   2.3916   2.4096   2.4216   2.4289   2.4328   2.4441   2.4474
     2.4649   2.4720   2.4872   2.5134   2.5343   2.5409   2.5549   2.5727
     2.5858   2.5910   2.6039   2.6195   2.6211   2.6404   2.6525   2.6714
     2.6776   2.6805   2.6864   2.7061   2.7174   2.7306   2.7326   2.7369
     2.7493   2.7596   2.7616   2.7779   2.7809   2.7888   2.7952   2.8019
     2.8125   2.8205   2.8313   2.8405   2.8529   2.8595   2.8657   2.8834
     2.8912   2.8976   2.9019   2.9105   2.9204   2.9298   2.9391   2.9422
     2.9579   2.9629   2.9750   2.9850   2.9988   3.0124   3.0205   3.0921
     3.1204   3.1277   3.1507   3.1575   3.1718   3.2064   3.2370   3.2440
     3.2741   3.3011   3.3154   3.3610   3.3716   3.3994   3.4139   3.4558
     3.4690   3.4811   3.4919   3.5077   3.5174   3.5282   3.5377   3.5574
     3.5685   3.5820   3.5868   3.5932   3.5980   3.6050   3.6109   3.6191
     3.6264   3.6280   3.6342   3.6469   3.6505   3.6574   3.6622   3.6698
     3.6834   3.6866   3.6959   3.7040   3.7197   3.7274   3.7342   3.7369
     3.7441   3.7495   3.7525   3.7582   3.7642   3.7733   3.7761   3.7835
     3.7979   3.8075   3.8135   3.8242   3.8344   3.8462   3.8647   3.8837
     3.8976   3.9128   4.1636   4.2232   4.2383   4.2536   4.2815   4.3133
     4.3275   4.3445   4.3584   4.3861   4.4306   4.4489   4.4775   4.4852
     4.5076   4.5561   4.5730   4.5854   4.6321   4.6553   4.6971   4.7400
     4.7471   4.7691   4.7783   4.8452   4.8950   4.9293   4.9521   5.0299
     5.0616   5.1008   5.1218   5.1488   5.1989   5.2191   5.2514   5.2962
     5.5583   5.5957   5.6618   5.7011   5.7158   5.7398   5.7827   5.8002
     5.8403   5.8562   5.8885   5.9145   5.9354   5.9691   6.0772   6.0885
     6.2024   6.2459   6.2737   6.2830   6.2901   6.3245   6.3350   6.3641
     6.3790   6.3847   6.4120   6.4221   6.4347   6.4725   6.4793   6.4964
     6.4996   6.5281   6.5322   6.5464   6.6842   6.8639   6.9058   6.9525
     6.9936   7.0008   7.0319   7.0954   7.1080   7.1217   7.1425   7.1535
     7.1775   7.1847   7.2024   7.2190   7.2325   7.2394   7.2503   7.2614
     7.2655   7.2775   7.2970   7.3085   7.3215   7.3305   7.3461   7.3645
     7.4063   7.4118   7.7626   7.7694   7.9209   7.9253

     occupation numbers 
     1.0000   1.0000   1.0000   1.0000   1.0000   1.0000   1.0000   1.0000
     1.0000   1.0000   1.0000   1.0000   1.0000   1.0000   1.0000   1.0000
     1.0000   1.0000   1.0000   1.0000   1.0000   1.0000   1.0000   1.0000
     1.0000   1.0000   1.0000   1.0000   1.0000   1.0000   1.0000   1.0000
     1.0000   1.0000   1.0000   1.0000   1.0000   1.0000   1.0000   1.0000
     1.0000   1.0000   1.0000   1.0000   1.0000   1.0000   1.0000   1.0000
     1.0000   1.0000   1.0000   1.0000   1.0000   1.0000   1.0000   1.0000
     1.0000   1.0000   1.0000   1.0000   1.0000   1.0000   1.0000   1.0000
     1.0000   1.0000   1.0000   1.0000   1.0000   1.0000   1.0000   1.0000
     1.0000   1.0000   1.0000   1.0000   1.0000   1.0000   1.0000   1.0000
     1.0000   1.0000   1.0000   1.0000   1.0000   1.0000   1.0000   1.0000
     1.0000   1.0000   1.0000   1.0000   1.0000   1.0000   1.0000   1.0000
     1.0000   1.0000   1.0000   1.0000   1.0000   1.0000   1.0000   1.0000
     1.0000   1.0000   1.0000   1.0000   1.0000   1.0000   1.0000   1.0000
     1.0000   1.0000   1.0000   1.0000   1.0000   1.0000   1.0000   1.0000
     1.0000   1.0000   1.0000   1.0000   1.0000   1.0000   1.0000   1.0000
     1.0000   1.0000   1.0000   1.0000   1.0000   1.0000   1.0000   1.0000
     1.0000   1.0000   1.0000   1.0000   1.0000   1.0000   1.0000   1.0000
     1.0000   1.0000   1.0000   1.0000   1.0000   1.0000   1.0000   1.0000
     1.0000   1.0000   1.0000   1.0000   1.0000   1.0000   1.0000   1.0000
     1.0000   1.0000   1.0000   1.0000   1.0000   1.0000   1.0000   1.0000
     1.0000   1.0000   1.0000   1.0000   1.0000   1.0000   1.0000   1.0000
     1.0000   1.0000   1.0000   1.0000   1.0000   1.0000   1.0000   1.0000
     1.0000   1.0000   1.0000   1.0000   1.0000   1.0000   1.0000   1.0000
     1.0000   1.0000   1.0000   1.0000   1.0000   1.0000   1.0000   1.0000
     1.0000   1.0000   1.0000   1.0000   1.0000   1.0000   1.0000   1.0000
     1.0000   1.0000   1.0000   1.0000   1.0000   1.0000   1.0000   1.0000
     1.0000   1.0000   1.0000   1.0000   1.0000   1.0000   1.0000   1.0000
     1.0000   1.0000   1.0000   1.0000   1.0000   1.0000   1.0000   1.0000
     1.0000   1.0000   1.0000   1.0000   1.0000   1.0000   1.0000   1.0000
     1.0000   1.0000   1.0000   1.0000   1.0000   1.0000   1.0000   1.0000
     1.0000   1.0000   1.0000   1.0000   1.0000   1.0000   1.0000   1.0000
     1.0000   1.0000   1.0000   1.0000   1.0000   1.0000   1.0000   1.0000
     1.0000   1.0000   1.0000   1.0000   1.0000   1.0000   1.0000   1.0000
     1.0000   1.0000   1.0000   1.0000   1.0000   1.0000   1.0000   1.0000
     1.0000   1.0000   1.0000   1.0000   1.0000   1.0000   1.0000   1.0000
     1.0000   1.0000   1.0000   1.0000   1.0000   1.0000   1.0000   1.0000
     1.0000   1.0000   1.0000   1.0000   1.0000   1.0000   1.0000   1.0000
     1.0000   1.0000   1.0000   1.0000   1.0000   1.0000   1.0000   1.0000
     1.0000   1.0000   1.0000   1.0000   1.0000   1.0000   1.0000   1.0000
     1.0000   1.0000   1.0000   1.0000   1.0000   1.0000   1.0000   1.0000
     1.0000   1.0000   1.0000   1.0000   1.0000   1.0000   1.0000   1.0000
     1.0000   1.0000   1.0000   1.0000   1.0000   1.0000   1.0000   1.0000
     1.0000   1.0000   1.0000   1.0000   1.0000   1.0000   1.0000   1.0000
     1.0000   1.0000   1.0000   1.0000   1.0000   1.0000   1.0000   1.0000
     1.0000   1.0000   1.0000   1.0000   1.0000   1.0000   1.0000   1.0000
     1.0000   1.0000   1.0000   1.0000   1.0000   1.0000   1.0000   1.0000
     1.0000   1.0000   1.0000   1.0000   1.0000   1.0000   1.0000   1.0000
     1.0000   1.0000   1.0000   1.0000   1.0000   1.0000   1.0000   1.0000
     1.0000   1.0000   1.0000   1.0000   1.0000   1.0000   1.0000   1.0000
     1.0000   1.0000   1.0000   1.0000   1.0000   1.0000   1.0000   1.0000
     1.0000   1.0000   1.0000   1.0000   1.0000   1.0000   1.0000   1.0000
     1.0000   1.0000   1.0000   1.0000   1.0000   1.0000   1.0000   1.0000
     1.0000   1.0000   1.0000   1.0000   1.0000   1.0000   1.0000   1.0000
     1.0000   1.0000   1.0000   1.0000   1.0000   1.0000

          k =-0.0000 0.0000 0.6606 ( 45585 PWs)   bands (ev):

  -115.0284-115.0261-115.0216-115.0203-115.0194-115.0194-115.0190-115.0173
  -115.0167-115.0159-115.0145-115.0138-115.0132-115.0120-115.0119-115.0117
  -115.0099-115.0092-115.0089-115.0082-115.0058-115.0057-115.0050-115.0044
  -115.0035-115.0033-115.0020-115.0017-114.9996-114.9959 -69.3878 -69.3853
   -69.3847 -69.3833 -69.3801 -69.3798 -69.3796 -69.3794 -69.3792 -69.3786
   -69.3785 -69.3778 -69.3767 -69.3766 -69.3758 -69.3753 -69.3752 -69.3743
   -69.3740 -69.3737 -69.3734 -69.3733 -69.3729 -69.3726 -69.3725 -69.3723
   -69.3722 -69.3720 -69.3718 -69.3717 -69.3714 -69.3713 -69.3710 -69.3705
   -69.3703 -69.3701 -69.3700 -69.3699 -69.3697 -69.3692 -69.3691 -69.3690
   -69.3689 -69.3678 -69.3675 -69.3673 -69.3673 -69.3669 -69.3662 -69.3660
   -69.3659 -69.3657 -69.3655 -69.3653 -69.3652 -69.3650 -69.3648 -69.3645
   -69.3644 -69.3643 -69.3639 -69.3636 -69.3633 -69.3632 -69.3629 -69.3626
[...]
     2.1327   2.1462   2.1512   2.1597   2.1651   2.1906   2.1959   2.2097
     2.2406   2.2468   2.2521   2.2690   2.2804   2.2825   2.3024   2.3202
     2.3441   2.3553   2.3659   2.3701   2.3958   2.4537   2.4595   2.4847
     2.4917   2.5116   2.5269   2.5347   2.5413   2.5581   2.5663   2.5767
     2.5839   2.5936   2.6039   2.6053   2.6171   2.6263   2.6330   2.6477
     2.6582   2.6633   2.6717   2.6780   2.6819   2.6823   2.6938   2.7099
     2.7170   2.7346   2.7406   2.7570   2.7599   2.7689   2.7773   2.7844
     2.7975   2.8100   2.8138   2.8206   2.8341   2.8427   2.8555   2.8805
     2.8887   2.9040   2.9105   2.9161   2.9238   2.9345   2.9370   2.9541
     2.9723   2.9807   2.9985   3.0266   3.0476   3.0568   3.0774   3.0857
     3.1042   3.1359   3.1479   3.1667   3.1869   3.2161   3.2304   3.2699
     3.2779   3.2973   3.3130   3.3503   3.3634   3.3884   3.4098   3.4437
     3.4497   3.4707   3.4865   3.5055   3.5121   3.5378   3.5440   3.5602
     3.5714   3.5835   3.5952   3.6020   3.6065   3.6218   3.6306   3.6324
     3.6388   3.6480   3.6565   3.6601   3.6743   3.6822   3.6890   3.6928
     3.6995   3.7100   3.7147   3.7206   3.7253   3.7357   3.7417   3.7422
     3.7435   3.7556   3.7637   3.7746   3.7799   3.7870   3.7906   3.8046
     3.8066   3.8302   3.8394   3.8433   3.8529   3.8626   3.8863   3.8935
     3.9061   3.9319   3.9489   3.9709   4.0439   4.0678   4.1383   4.1482
     4.1632   4.1772   4.2321   4.2494   4.2876   4.3441   4.3872   4.4219
     4.4770   4.4947   4.5133   4.5801   4.5985   4.6447   4.6586   4.7348
     4.7727   4.8686   5.0432   5.0867   5.1395   5.1871   5.2000   5.2388
     5.2847   5.3191   5.3490   5.3972   5.4247   5.4470   5.4649   5.4973
     5.5206   5.5470   5.5959   5.6551   5.6835   5.6983   5.7920   5.8462
     5.8974   5.9190   5.9586   5.9749   5.9871   6.0261   6.0489   6.0885
     6.1800   6.2839   6.3164   6.3499   6.3914   6.4543   6.4710   6.4795
     6.5039   6.5385   6.5437   6.5681   6.5864   6.6390   6.6626   6.6789
     6.6886   6.7084   6.7126   6.7254   6.7295   6.7582   6.7666   6.7730
     6.7810   6.7912   6.7987   6.8199   6.8438   6.8492   6.8635   6.8719
     6.8867   6.9033   6.9150   6.9549   6.9775   7.0208   7.0447   7.0709
     7.0741   7.1427   7.2302   7.3236   7.3362   7.3398   7.3524   7.3654
     7.3888   7.4178   7.6680   7.7345   7.7645   7.8100

     occupation numbers 
     1.0000   1.0000   1.0000   1.0000   1.0000   1.0000   1.0000   1.0000
     1.0000   1.0000   1.0000   1.0000   1.0000   1.0000   1.0000   1.0000
     1.0000   1.0000   1.0000   1.0000   1.0000   1.0000   1.0000   1.0000
     1.0000   1.0000   1.0000   1.0000   1.0000   1.0000   1.0000   1.0000
     1.0000   1.0000   1.0000   1.0000   1.0000   1.0000   1.0000   1.0000
     1.0000   1.0000   1.0000   1.0000   1.0000   1.0000   1.0000   1.0000
     1.0000   1.0000   1.0000   1.0000   1.0000   1.0000   1.0000   1.0000
     1.0000   1.0000   1.0000   1.0000   1.0000   1.0000   1.0000   1.0000
     1.0000   1.0000   1.0000   1.0000   1.0000   1.0000   1.0000   1.0000
     1.0000   1.0000   1.0000   1.0000   1.0000   1.0000   1.0000   1.0000
     1.0000   1.0000   1.0000   1.0000   1.0000   1.0000   1.0000   1.0000
     1.0000   1.0000   1.0000   1.0000   1.0000   1.0000   1.0000   1.0000
     1.0000   1.0000   1.0000   1.0000   1.0000   1.0000   1.0000   1.0000
     1.0000   1.0000   1.0000   1.0000   1.0000   1.0000   1.0000   1.0000
     1.0000   1.0000   1.0000   1.0000   1.0000   1.0000   1.0000   1.0000
     1.0000   1.0000   1.0000   1.0000   1.0000   1.0000   1.0000   1.0000
     1.0000   1.0000   1.0000   1.0000   1.0000   1.0000   1.0000   1.0000
     1.0000   1.0000   1.0000   1.0000   1.0000   1.0000   1.0000   1.0000
     1.0000   1.0000   1.0000   1.0000   1.0000   1.0000   1.0000   1.0000
     1.0000   1.0000   1.0000   1.0000   1.0000   1.0000   1.0000   1.0000
     1.0000   1.0000   1.0000   1.0000   1.0000   1.0000   1.0000   1.0000
     1.0000   1.0000   1.0000   1.0000   1.0000   1.0000   1.0000   1.0000
     1.0000   1.0000   1.0000   1.0000   1.0000   1.0000   1.0000   1.0000
     1.0000   1.0000   1.0000   1.0000   1.0000   1.0000   1.0000   1.0000
     1.0000   1.0000   1.0000   1.0000   1.0000   1.0000   1.0000   1.0000
     1.0000   1.0000   1.0000   1.0000   1.0000   1.0000   1.0000   1.0000
     1.0000   1.0000   1.0000   1.0000   1.0000   1.0000   1.0000   1.0000
     1.0000   1.0000   1.0000   1.0000   1.0000   1.0000   1.0000   1.0000
     1.0000   1.0000   1.0000   1.0000   1.0000   1.0000   1.0000   1.0000
     1.0000   1.0000   1.0000   1.0000   1.0000   1.0000   1.0000   1.0000
     1.0000   1.0000   1.0000   1.0000   1.0000   1.0000   1.0000   1.0000
     1.0000   1.0000   1.0000   1.0000   1.0000   1.0000   1.0000   1.0000
     1.0000   1.0000   1.0000   1.0000   1.0000   1.0000   1.0000   1.0000
     1.0000   1.0000   1.0000   1.0000   1.0000   1.0000   1.0000   1.0000
     1.0000   1.0000   1.0000   1.0000   1.0000   1.0000   1.0000   1.0000
     1.0000   1.0000   1.0000   1.0000   1.0000   1.0000   1.0000   1.0000
     1.0000   1.0000   1.0000   1.0000   1.0000   1.0000   1.0000   1.0000
     1.0000   1.0000   1.0000   1.0000   1.0000   1.0000   1.0000   1.0000
     1.0000   1.0000   1.0000   1.0000   1.0000   1.0000   1.0000   1.0000
     1.0000   1.0000   1.0000   1.0000   1.0000   1.0000   1.0000   1.0000
     1.0000   1.0000   1.0000   1.0000   1.0000   1.0000   1.0000   1.0000
     1.0000   1.0000   1.0000   1.0000   1.0000   1.0000   1.0000   1.0000
     1.0000   1.0000   1.0000   1.0000   1.0000   1.0000   1.0000   1.0000
     1.0000   1.0000   1.0000   1.0000   1.0000   1.0000   1.0000   1.0000
     1.0000   1.0000   1.0000   1.0000   1.0000   1.0000   1.0000   1.0000
     1.0000   1.0000   1.0000   1.0000   1.0000   1.0000   1.0000   1.0000
     1.0000   1.0000   1.0000   1.0000   1.0000   1.0000   1.0000   1.0000
     1.0000   1.0000   1.0000   1.0000   1.0000   1.0000   1.0000   1.0000
     1.0000   1.0000   1.0000   1.0000   1.0000   1.0000   1.0000   1.0000
     1.0000   1.0000   1.0000   1.0000   1.0000   1.0000   1.0000   1.0000
     1.0000   1.0000   1.0000   1.0000   1.0000   1.0000   1.0000   1.0000
     1.0000   1.0000   1.0000   1.0000   1.0000   1.0000   1.0000   1.0000
     1.0000   1.0000   1.0000   1.0000   1.0000   1.0000   1.0000   1.0000
     1.0000   1.0000   1.0000   1.0000   1.0000   1.0000   1.0000   1.0000
     1.0000   1.0000   1.0000   1.0000   1.0000   1.0000

     highest occupied level (ev):     7.9674



               ==================================================
                            POLARIZATION CALCULATION
                         !!! NOT THOROUGHLY TESTED !!!
               --------------------------------------------------


                     K-POINTS STRINGS USED IN CALCULATIONS
                     ~~~~~~~~~~~~~~~~~~~~~~~~~~~~~~~~~~~~~

       G-vector along string (2 pi/a): -0.00002  0.00001  0.92484
       Modulus of the vector (1/bohr):  0.31621
       Number of k-points per string:   8
       Number of different strings  :  10


                               IONIC POLARIZATION
                               ~~~~~~~~~~~~~~~~~~

        Note: (mod 1) means that the phases (angles ranging from
        -pi to pi) have been mapped to the interval [-1/2,+1/2) by
        dividing by 2*pi; (mod 2) refers to the interval [-1,+1)

  ============================================================================
    Ion    Species    Charge              Position                Phase
  ----------------------------------------------------------------------------
     1        Zn      20.000       0.1667  0.0974  0.2085    -0.14344 (mod 2)
     2        Zn      20.000       0.4998  0.0954  0.2082    -0.14951 (mod 2)
     3        Zn      20.000       0.8332  0.0974  0.2070    -0.17190 (mod 2)
     4        Zn      20.000       0.0000  0.3848  0.2079    -0.15385 (mod 2)
     5        Zn      20.000       0.3333  0.3848  0.2092    -0.12970 (mod 2)
     6        Zn      20.000       0.6669  0.3849  0.2090    -0.13384 (mod 2)
     7        Zn      20.000      -0.1649  0.6733  0.2082    -0.14853 (mod 2)
     8        Zn      20.000       0.1649  0.6733  0.2083    -0.14636 (mod 2)
     9        Zn      20.000       0.5002  0.6728  0.2063    -0.18409 (mod 2)
    10        Zn      20.000       0.1659  0.0952  0.7497    -0.13221 (mod 2)
    11        Zn      20.000       0.4994  0.0977  0.7496    -0.13422 (mod 2)
    12        Zn      20.000       0.3341  0.3847  0.7504    -0.12084 (mod 2)
    13        Zn      20.000       0.6659  0.3847  0.7505    -0.11837 (mod 2)
    14        Zn      20.000      -0.1687  0.6740  0.7491    -0.14436 (mod 2)
    15        Zn      20.000       0.1700  0.6740  0.7495    -0.13704 (mod 2)
    16        Zn      20.000      -0.0007  0.1929  0.4785     0.85162 (mod 2)
    17        Zn      20.000       0.3336  0.1927  0.4799     0.87688 (mod 2)
    18        Zn      20.000       0.6666  0.1925  0.4789     0.85860 (mod 2)
    19        Zn      20.000      -0.1666  0.4809  0.4794     0.86785 (mod 2)
    20        Zn      20.000       0.1668  0.4810  0.4793     0.86636 (mod 2)
    21        Zn      20.000       0.5001  0.4815  0.4785     0.85147 (mod 2)
    22        Zn      20.000      -0.3339  0.7690  0.4773     0.82914 (mod 2)
    23        Zn      20.000       0.3341  0.7697  0.4765     0.81419 (mod 2)
    24        Zn      20.000       0.0005  0.1923  1.0184     0.83684 (mod 2)
    25        Zn      20.000       0.3328  0.1930  1.0203     0.87265 (mod 2)
    26        Zn      20.000       0.6661  0.1933  1.0196     0.85993 (mod 2)
    27        Zn      20.000      -0.1667  0.4815  1.0192     0.85303 (mod 2)
    28        Zn      20.000       0.1669  0.4813  1.0198     0.86231 (mod 2)
    29        Zn      20.000       0.5002  0.4811  1.0200     0.86715 (mod 2)
    30        Zn      20.000       0.0001  0.7686  1.0184     0.83764 (mod 2)
    31        Mg      10.000       0.8325  0.0951  0.7498     0.93444 (mod 2)
    32        Mg      10.000       0.0012  0.3855  0.7505     0.94070 (mod 2)
    33        Mg      10.000       0.4999  0.6729  0.7488     0.92544 (mod 2)
    34        Mg      10.000       0.0001  0.7698  0.4808     0.44702 (mod 2)
    35        Mg      10.000      -0.3315  0.7699  1.0209    -0.55845 (mod 2)
    36        Mg      10.000       0.3319  0.7686  1.0208    -0.55900 (mod 2)
    37        O        6.000       0.1666  0.0962  0.0043     0.02412 (mod 2)
    38        O        6.000       0.4997  0.0956  0.0039     0.02159 (mod 2)
    39        O        6.000       0.8331  0.0959  0.0026     0.01411 (mod 2)
    40        O        6.000       0.0000  0.3847  0.0034     0.01868 (mod 2)
    41        O        6.000       0.3335  0.3852  0.0050     0.02751 (mod 2)
    42        O        6.000       0.6668  0.3852  0.0048     0.02662 (mod 2)
    43        O        6.000      -0.1660  0.6734  0.0043     0.02393 (mod 2)
    44        O        6.000       0.1659  0.6732  0.0045     0.02506 (mod 2)
    45        O        6.000       0.5004  0.6744  0.0020     0.01113 (mod 2)
    46        O        6.000       0.1663  0.0958  0.5446    -0.97780 (mod 2)
    47        O        6.000       0.5001  0.0963  0.5453    -0.97420 (mod 2)
    48        O        6.000       0.8331  0.0958  0.5454    -0.97345 (mod 2)
    49        O        6.000       0.0001  0.3850  0.5463    -0.96864 (mod 2)
    50        O        6.000       0.3336  0.3851  0.5456    -0.97271 (mod 2)
    51        O        6.000       0.6666  0.3849  0.5454    -0.97374 (mod 2)
    52        O        6.000      -0.1670  0.6737  0.5446    -0.97805 (mod 2)
    53        O        6.000       0.1673  0.6739  0.5446    -0.97775 (mod 2)
    54        O        6.000       0.4999  0.6737  0.5449    -0.97617 (mod 2)
    55        O        6.000      -0.0003  0.1927  0.2744    -0.47739 (mod 2)
    56        O        6.000       0.3336  0.1924  0.2752    -0.47297 (mod 2)
    57        O        6.000       0.6664  0.1923  0.2744    -0.47722 (mod 2)
    58        O        6.000      -0.1664  0.4810  0.2749    -0.47475 (mod 2)
    59        O        6.000       0.1664  0.4809  0.2748    -0.47485 (mod 2)
    60        O        6.000       0.5001  0.4812  0.2745    -0.47693 (mod 2)
    61        O        6.000      -0.3331  0.7697  0.2726    -0.48717 (mod 2)
    62        O        6.000       0.0000  0.7700  0.2768    -0.46394 (mod 2)
    63        O        6.000       0.3333  0.7698  0.2720    -0.49087 (mod 2)
    64        O        6.000      -0.0010  0.1927  0.8139     0.51643 (mod 2)
    65        O        6.000       0.3323  0.1922  0.8158     0.52702 (mod 2)
    66        O        6.000       0.6667  0.1923  0.8154     0.52446 (mod 2)
    67        O        6.000      -0.1664  0.4810  0.8149     0.52226 (mod 2)
    68        O        6.000       0.1674  0.4815  0.8155     0.52547 (mod 2)
    69        O        6.000       0.5001  0.4813  0.8155     0.52528 (mod 2)
    70        O        6.000      -0.3345  0.7693  0.8168     0.53267 (mod 2)
    71        O        6.000       0.0004  0.7695  0.8134     0.51370 (mod 2)
    72        O        6.000       0.3351  0.7701  0.8169     0.53285 (mod 2)
  ----------------------------------------------------------------------------
                                               IONIC PHASE:   0.63184 (mod 2)
  ============================================================================


                            ELECTRONIC POLARIZATION
                            ~~~~~~~~~~~~~~~~~~~~~~~

        Note: (mod 1) means that the phases (angles ranging from
        -pi to pi) have been mapped to the interval [-1/2,+1/2) by
        dividing by 2*pi; (mod 2) refers to the interval [-1,+1)

  ============================================================================
   Spin    String     Weight      First k-point in string         Phase
  ----------------------------------------------------------------------------
    up        1      0.062500      0.0000  0.0000  0.0000    -0.47969 (mod 1)
    up        2      0.125000     -0.0000  0.2887  0.0000    -0.48574 (mod 1)
    up        3      0.062500      0.0000 -0.5774 -0.0000    -0.48894 (mod 1)
    up        4      0.125000      0.2500  0.1443 -0.0000    -0.48582 (mod 1)
    up        5      0.125000      0.2500  0.4330  0.0000    -0.48902 (mod 1)
    up        6      0.125000      0.2500 -0.4330 -0.0000    -0.48904 (mod 1)
    up        7      0.125000      0.2500 -0.1443 -0.0000    -0.48584 (mod 1)
    up        8      0.062500     -0.5000 -0.2887  0.0000    -0.48904 (mod 1)
    up        9      0.125000     -0.5000  0.0000  0.0000    -0.48908 (mod 1)
    up       10      0.062500     -0.5000 -0.8661 -0.0000    -0.48906 (mod 1)
  ----------------------------------------------------------------------------
   down       1      0.062500      0.0000  0.0000  0.0000    -0.47969 (mod 1)
   down       2      0.125000     -0.0000  0.2887  0.0000    -0.48574 (mod 1)
   down       3      0.062500      0.0000 -0.5774 -0.0000    -0.48894 (mod 1)
   down       4      0.125000      0.2500  0.1443 -0.0000    -0.48582 (mod 1)
   down       5      0.125000      0.2500  0.4330  0.0000    -0.48902 (mod 1)
   down       6      0.125000      0.2500 -0.4330 -0.0000    -0.48904 (mod 1)
   down       7      0.125000      0.2500 -0.1443 -0.0000    -0.48584 (mod 1)
   down       8      0.062500     -0.5000 -0.2887  0.0000    -0.48904 (mod 1)
   down       9      0.125000     -0.5000  0.0000  0.0000    -0.48908 (mod 1)
   down      10      0.062500     -0.5000 -0.8661 -0.0000    -0.48906 (mod 1)
  ----------------------------------------------------------------------------
                                        Average phase (up):  -0.48724 (mod 1)
                                      Average phase (down):  -0.48724 (mod 1)
                                          ELECTRONIC PHASE:  -0.97448 (mod 2)
  ============================================================================


                               SUMMARY OF PHASES
                               ~~~~~~~~~~~~~~~~~

                          Ionic Phase:  0.63184 (mod 2)
                     Electronic Phase: -0.97448 (mod 2)
                          TOTAL PHASE: -0.34264 (mod 2)


                             VALUES OF POLARIZATION
                             ~~~~~~~~~~~~~~~~~~~~~~

        The calculation of phases done along the direction of vector 3
        of the reciprocal lattice gives the following contribution to
        the polarization vector (in different units, and being Omega
        the volume of the unit cell):

           P =  -6.8083501  (mod  39.7408570)  (e/Omega).bohr

           P =  -0.0011716  (mod   0.0068386)  e/bohr^2

           P =  -0.0669809  (mod   0.3909724)  C/m^2

        The polarization direction is:  ( 0.00002 ,-0.00002 , 1.00000 )


               ==================================================



     Writing output data file ZnO.save/
 
     init_run     :      2.57s CPU      5.19s WALL (       1 calls)
     electrons    :   1827.56s CPU   1864.65s WALL (       1 calls)

     Called by init_run:
     wfcinit      :      0.00s CPU      0.02s WALL (       1 calls)
     wfcinit:atom :      0.06s CPU      0.19s WALL (      80 calls)
     wfcinit:wfcr :     72.49s CPU     74.65s WALL (      80 calls)
     potinit      :      0.20s CPU      0.26s WALL (       1 calls)
     hinit0       :      1.60s CPU      3.86s WALL (       1 calls)

     Called by electrons:
     c_bands      :   1337.40s CPU   1372.56s WALL (       1 calls)
     v_of_rho     :      0.14s CPU      0.16s WALL (       1 calls)
     v_h          :      0.01s CPU      0.01s WALL (       1 calls)
     v_xc         :      0.13s CPU      0.15s WALL (       1 calls)
     newd         :      0.08s CPU      0.12s WALL (       1 calls)

     Called by c_bands:
     init_us_2    :      0.71s CPU      0.83s WALL (     220 calls)
     cegterg      :   1262.58s CPU   1293.36s WALL (      80 calls)

     Called by sum_band:

     Called by *egterg:
     h_psi        :    459.53s CPU    470.87s WALL (    1220 calls)
     s_psi        :     40.42s CPU     40.48s WALL (    1220 calls)
     g_psi        :      0.38s CPU      0.39s WALL (    1060 calls)
     cdiaghg      :    527.16s CPU    535.64s WALL (    1140 calls)
     cegterg:over :     92.51s CPU    104.67s WALL (    1060 calls)
     cegterg:upda :    101.80s CPU    102.05s WALL (    1060 calls)
     cegterg:last :     96.02s CPU     96.17s WALL (     320 calls)
     cdiaghg:chol :     35.19s CPU     35.62s WALL (    1140 calls)
     cdiaghg:inve :     15.93s CPU     15.99s WALL (    1140 calls)
     cdiaghg:para :    142.77s CPU    148.18s WALL (    2280 calls)

     Called by h_psi:
     h_psi:pot    :    458.46s CPU    469.73s WALL (    1220 calls)
     h_psi:calbec :     56.75s CPU     64.83s WALL (    1220 calls)
     vloc_psi     :    360.94s CPU    363.51s WALL (    1220 calls)
     add_vuspsi   :     40.75s CPU     41.38s WALL (    1220 calls)

     General routines
     calbec       :     69.70s CPU     79.01s WALL (    1360 calls)
     fft          :      1.54s CPU      3.72s WALL (      13 calls)
     ffts         :      0.01s CPU      0.01s WALL (       1 calls)
     fftw         :    357.01s CPU    359.57s WALL (  798236 calls)
     interpolate  :      0.02s CPU      0.02s WALL (       1 calls)
 
     Parallel routines
     fft_scatt_xy :     10.25s CPU     10.32s WALL (  798250 calls)
     fft_scatt_yz :    307.10s CPU    311.53s WALL (  798250 calls)
 
     PWSCF        :  31m42.93s CPU  32m44.57s WALL

 
   This run was terminated on:   2:43:47  15Jul2022            

=------------------------------------------------------------------------------=
   JOB DONE.
=------------------------------------------------------------------------------=
