
     Program PWSCF v.6.4.1 starts on 16Jun2022 at 16:19:17 

     This program is part of the open-source Quantum ESPRESSO suite
     for quantum simulation of materials; please cite
         "P. Giannozzi et al., J. Phys.:Condens. Matter 21 395502 (2009);
         "P. Giannozzi et al., J. Phys.:Condens. Matter 29 465901 (2017);
          URL http://www.quantum-espresso.org", 
     in publications or presentations arising from this work. More details at
     http://www.quantum-espresso.org/quote

     Parallel version (MPI), running on    64 processors

     MPI processes distributed on     1 nodes
     K-points division:     npool     =       4
     R & G space division:  proc/nbgrp/npool/nimage =      16
     Waiting for input...
     Reading input from standard input
Warning: card &IONS ignored
Warning: card   UPSCALE           = 100.D0, ignored
Warning: card / ignored
Warning: card &CELL ignored
Warning: card   CELL_DYNAMICS     = 'BFGS' ignored
Warning: card   PRESS_CONV_THR    = 0.5D0 ignored
Warning: card   CELL_DOFREE = 'ALL' ignored
Warning: card / ignored

     Current dimensions of program PWSCF are:
     Max number of different atomic species (ntypx) = 10
     Max number of k-points (npk) =  40000
     Max angular momentum in pseudopotentials (lmaxx) =  3

     Subspace diagonalization in iterative solution of the eigenvalue problem:
     one sub-group per band group will be used
     scalapack distributed-memory algorithm (size of sub-group:  2*  2 procs)

 
     Parallelization info
     --------------------
     sticks:   dense  smooth     PW     G-vecs:    dense   smooth      PW
     Min         104      56     17                 4844     1887     328
     Max         105      58     18                 4847     1890     330
     Sum        1675     913    283                77535    30219    5267
 


     bravais-lattice index     =            0
     lattice parameter (alat)  =       6.3885  a.u.
     unit-cell volume          =     312.3354 (a.u.)^3
     number of atoms/cell      =            4
     number of atomic types    =            2
     number of electrons       =        32.00
     number of Kohn-Sham states=           16
     kinetic-energy cutoff     =      80.0000  Ry
     charge density cutoff     =     600.0000  Ry
     convergence threshold     =      1.0E-06
     mixing beta               =       0.5000
     number of iterations used =            8  plain     mixing
     Exchange-correlation      = SLA  PW   PSX  PSC ( 1  4 10  8 0 0)
     Using LIBXC version       =    4   3   4

     celldm(1)=   6.388455  celldm(2)=   0.000000  celldm(3)=   0.000000
     celldm(4)=   0.000000  celldm(5)=   0.000000  celldm(6)=   0.000000

     crystal axes: (cart. coord. in units of alat)
               a(1) = (   1.000000   0.000000   0.000000 )  
               a(2) = (  -0.500000   0.866025   0.000000 )  
               a(3) = (   0.000000   0.000000   1.383258 )  

     reciprocal axes: (cart. coord. in units 2 pi/alat)
               b(1) = (  1.000000  0.577350 -0.000000 )  
               b(2) = ( -0.000000  1.154701 -0.000000 )  
               b(3) = ( -0.000000 -0.000000  0.722931 )  


     PseudoPot. # 1 for Mg read from file:
     ./GBRV_PBEsol/mg_pbesol_v1.4.uspp.F.UPF
     MD5 check sum: 4059f37963cf5867752dbf5ab2400678
     Pseudo is Ultrasoft, Zval = 10.0
     Generated by new atomic code, or converted to UPF format
     Using radial grid of  821 points,  7 beta functions with: 
                l(1) =   0
                l(2) =   0
                l(3) =   0
                l(4) =   1
                l(5) =   1
                l(6) =   2
                l(7) =   2
     Q(r) pseudized with  8 coefficients,  rinner =    1.200   1.200   1.200
                                                       1.200   1.200

     PseudoPot. # 2 for O  read from file:
     ./GBRV_PBEsol/o_pbesol_v1.2.uspp.F.UPF
     MD5 check sum: 501638753501ef6325af9037351f7734
     Pseudo is Ultrasoft + core correction, Zval =  6.0
     Generated by new atomic code, or converted to UPF format
     Using radial grid of  737 points,  5 beta functions with: 
                l(1) =   0
                l(2) =   0
                l(3) =   1
                l(4) =   1
                l(5) =   2
     Q(r) pseudized with  8 coefficients,  rinner =    0.900   0.900   0.900
                                                       0.900   0.900

     atomic species   valence    mass     pseudopotential
        Mg            10.00    24.30500     Mg( 1.00)
        O              6.00    15.99900     O ( 1.00)

     No symmetry found


                                    s                        frac. trans.

      isym =  1     identity                                     

 cryst.   s( 1) = (     1          0          0      )
                  (     0          1          0      )
                  (     0          0          1      )

 cart.    s( 1) = (  1.0000000  0.0000000  0.0000000 )
                  ( -0.0000000  1.0000000  0.0000000 )
                  (  0.0000000 -0.0000000  1.0000000 )


   Cartesian axes

     site n.     atom                  positions (alat units)
         1           O   tau(   1) = (   0.5000002   0.2886755   0.0101613  )
         2           O   tau(   2) = (   0.0000001   0.5773494   0.7017900  )
         3           Mg  tau(   3) = (   0.5000000   0.2886748   0.6035901  )
         4           Mg  tau(   4) = (  -0.0000001   0.5773511   1.2952189  )

   Crystallographic axes

     site n.     atom                  positions (cryst. coord.)
         1           O   tau(   1) = (  0.6666670  0.3333337  0.0073459  )
         2           O   tau(   2) = (  0.3333329  0.6666657  0.5073458  )
         3           Mg  tau(   3) = (  0.6666664  0.3333329  0.4363540  )
         4           Mg  tau(   4) = (  0.3333336  0.6666677  0.9363539  )

     number of k points=   260
                       cart. coord. in units 2pi/alat
        k(    1) = (   0.0000000   0.0000000   0.0000000), wk =   0.0039062
        k(    2) = (  -0.0000000  -0.0000000   0.0903664), wk =   0.0078125
        k(    3) = (  -0.0000000  -0.0000000   0.1807328), wk =   0.0078125
        k(    4) = (  -0.0000000  -0.0000000   0.2710992), wk =   0.0078125
        k(    5) = (   0.0000000   0.0000000  -0.3614655), wk =   0.0039062
        k(    6) = (  -0.0000000   0.1443376  -0.0000000), wk =   0.0078125
        k(    7) = (  -0.0000000   0.1443376   0.0903664), wk =   0.0078125
        k(    8) = (  -0.0000000   0.1443376   0.1807328), wk =   0.0078125
        k(    9) = (  -0.0000000   0.1443375   0.2710992), wk =   0.0078125
        k(   10) = (   0.0000000   0.1443376  -0.3614655), wk =   0.0078125
        k(   11) = (   0.0000000   0.1443376  -0.2710992), wk =   0.0078125
        k(   12) = (   0.0000000   0.1443376  -0.1807328), wk =   0.0078125
        k(   13) = (  -0.0000000   0.1443376  -0.0903664), wk =   0.0078125
        k(   14) = (  -0.0000000   0.2886751  -0.0000000), wk =   0.0078125
        k(   15) = (  -0.0000000   0.2886751   0.0903664), wk =   0.0078125
        k(   16) = (  -0.0000000   0.2886751   0.1807328), wk =   0.0078125
        k(   17) = (  -0.0000000   0.2886751   0.2710992), wk =   0.0078125
        k(   18) = (   0.0000000   0.2886752  -0.3614655), wk =   0.0078125
        k(   19) = (  -0.0000000   0.2886752  -0.2710992), wk =   0.0078125
        k(   20) = (  -0.0000000   0.2886752  -0.1807328), wk =   0.0078125
        k(   21) = (  -0.0000000   0.2886751  -0.0903664), wk =   0.0078125
        k(   22) = (  -0.0000000   0.4330127  -0.0000000), wk =   0.0078125
        k(   23) = (  -0.0000000   0.4330127   0.0903664), wk =   0.0078125
        k(   24) = (  -0.0000000   0.4330127   0.1807328), wk =   0.0078125
        k(   25) = (  -0.0000000   0.4330127   0.2710992), wk =   0.0078125
        k(   26) = (  -0.0000000   0.4330127  -0.3614655), wk =   0.0078125
        k(   27) = (  -0.0000000   0.4330127  -0.2710992), wk =   0.0078125
        k(   28) = (  -0.0000000   0.4330127  -0.1807328), wk =   0.0078125
        k(   29) = (  -0.0000000   0.4330127  -0.0903664), wk =   0.0078125
        k(   30) = (   0.0000000  -0.5773503   0.0000000), wk =   0.0039062
        k(   31) = (   0.0000000  -0.5773503   0.0903664), wk =   0.0078125
        k(   32) = (   0.0000000  -0.5773503   0.1807328), wk =   0.0078125
        k(   33) = (   0.0000000  -0.5773503   0.2710992), wk =   0.0078125
        k(   34) = (   0.0000001  -0.5773502  -0.3614655), wk =   0.0039062
        k(   35) = (   0.1250000   0.0721688  -0.0000000), wk =   0.0078125
        k(   36) = (   0.1250000   0.0721688   0.0903664), wk =   0.0078125
        k(   37) = (   0.1250000   0.0721688   0.1807328), wk =   0.0078125
        k(   38) = (   0.1250000   0.0721688   0.2710992), wk =   0.0078125
        k(   39) = (   0.1250000   0.0721688  -0.3614655), wk =   0.0078125
        k(   40) = (   0.1250000   0.0721688  -0.2710992), wk =   0.0078125
        k(   41) = (   0.1250000   0.0721688  -0.1807328), wk =   0.0078125
        k(   42) = (   0.1250000   0.0721688  -0.0903664), wk =   0.0078125
        k(   43) = (   0.1250000   0.2165063  -0.0000000), wk =   0.0078125
        k(   44) = (   0.1250000   0.2165063   0.0903664), wk =   0.0078125
        k(   45) = (   0.1250000   0.2165063   0.1807328), wk =   0.0078125
        k(   46) = (   0.1250000   0.2165063   0.2710992), wk =   0.0078125
        k(   47) = (   0.1250000   0.2165064  -0.3614655), wk =   0.0078125
        k(   48) = (   0.1250000   0.2165064  -0.2710992), wk =   0.0078125
        k(   49) = (   0.1250000   0.2165064  -0.1807328), wk =   0.0078125
        k(   50) = (   0.1250000   0.2165064  -0.0903664), wk =   0.0078125
        k(   51) = (   0.1250000   0.3608439  -0.0000000), wk =   0.0078125
        k(   52) = (   0.1250000   0.3608439   0.0903664), wk =   0.0078125
        k(   53) = (   0.1250000   0.3608439   0.1807328), wk =   0.0078125
        k(   54) = (   0.1250000   0.3608439   0.2710991), wk =   0.0078125
        k(   55) = (   0.1250000   0.3608440  -0.3614655), wk =   0.0078125
        k(   56) = (   0.1250000   0.3608439  -0.2710992), wk =   0.0078125
        k(   57) = (   0.1250000   0.3608439  -0.1807328), wk =   0.0078125
        k(   58) = (   0.1250000   0.3608439  -0.0903664), wk =   0.0078125
        k(   59) = (   0.1250000   0.5051815  -0.0000000), wk =   0.0078125
        k(   60) = (   0.1250000   0.5051815   0.0903664), wk =   0.0078125
        k(   61) = (   0.1250000   0.5051815   0.1807328), wk =   0.0078125
        k(   62) = (   0.1249999   0.5051815   0.2710991), wk =   0.0078125
        k(   63) = (   0.1250000   0.5051815  -0.3614655), wk =   0.0078125
        k(   64) = (   0.1250000   0.5051815  -0.2710992), wk =   0.0078125
        k(   65) = (   0.1250000   0.5051815  -0.1807328), wk =   0.0078125
        k(   66) = (   0.1250000   0.5051815  -0.0903664), wk =   0.0078125
        k(   67) = (   0.1250000  -0.5051815  -0.0000000), wk =   0.0078125
        k(   68) = (   0.1250000  -0.5051815   0.0903664), wk =   0.0078125
        k(   69) = (   0.1250000  -0.5051815   0.1807328), wk =   0.0078125
        k(   70) = (   0.1250000  -0.5051815   0.2710992), wk =   0.0078125
        k(   71) = (   0.1250001  -0.5051815  -0.3614655), wk =   0.0078125
        k(   72) = (   0.1250001  -0.5051815  -0.2710992), wk =   0.0078125
        k(   73) = (   0.1250000  -0.5051815  -0.1807328), wk =   0.0078125
        k(   74) = (   0.1250000  -0.5051815  -0.0903664), wk =   0.0078125
        k(   75) = (   0.1250000  -0.3608439  -0.0000000), wk =   0.0078125
        k(   76) = (   0.1250000  -0.3608439   0.0903664), wk =   0.0078125
        k(   77) = (   0.1250000  -0.3608440   0.1807328), wk =   0.0078125
        k(   78) = (   0.1250000  -0.3608440   0.2710992), wk =   0.0078125
        k(   79) = (   0.1250000  -0.3608439  -0.3614655), wk =   0.0078125
        k(   80) = (   0.1250000  -0.3608439  -0.2710992), wk =   0.0078125
        k(   81) = (   0.1250000  -0.3608439  -0.1807328), wk =   0.0078125
        k(   82) = (   0.1250000  -0.3608439  -0.0903664), wk =   0.0078125
        k(   83) = (   0.1250000  -0.2165064  -0.0000000), wk =   0.0078125
        k(   84) = (   0.1250000  -0.2165064   0.0903664), wk =   0.0078125
        k(   85) = (   0.1250000  -0.2165064   0.1807328), wk =   0.0078125
        k(   86) = (   0.1250000  -0.2165064   0.2710992), wk =   0.0078125
        k(   87) = (   0.1250000  -0.2165063  -0.3614655), wk =   0.0078125
        k(   88) = (   0.1250000  -0.2165063  -0.2710992), wk =   0.0078125
        k(   89) = (   0.1250000  -0.2165063  -0.1807328), wk =   0.0078125
        k(   90) = (   0.1250000  -0.2165064  -0.0903664), wk =   0.0078125
        k(   91) = (   0.1250000  -0.0721688  -0.0000000), wk =   0.0078125
        k(   92) = (   0.1250000  -0.0721688   0.0903664), wk =   0.0078125
        k(   93) = (   0.1250000  -0.0721688   0.1807328), wk =   0.0078125
        k(   94) = (   0.1250000  -0.0721688   0.2710992), wk =   0.0078125
        k(   95) = (   0.1250000  -0.0721688  -0.3614655), wk =   0.0078125
        k(   96) = (   0.1250000  -0.0721688  -0.2710992), wk =   0.0078125
        k(   97) = (   0.1250000  -0.0721688  -0.1807328), wk =   0.0078125
        k(   98) = (   0.1250000  -0.0721688  -0.0903664), wk =   0.0078125
        k(   99) = (   0.2500000   0.1443376  -0.0000000), wk =   0.0078125
        k(  100) = (   0.2500000   0.1443375   0.0903664), wk =   0.0078125
        k(  101) = (   0.2500000   0.1443375   0.1807328), wk =   0.0078125
        k(  102) = (   0.2500000   0.1443375   0.2710991), wk =   0.0078125
        k(  103) = (   0.2500000   0.1443376  -0.3614655), wk =   0.0078125
        k(  104) = (   0.2500000   0.1443376  -0.2710992), wk =   0.0078125
        k(  105) = (   0.2500000   0.1443376  -0.1807328), wk =   0.0078125
        k(  106) = (   0.2500000   0.1443376  -0.0903664), wk =   0.0078125
        k(  107) = (   0.2500000   0.2886751  -0.0000000), wk =   0.0078125
        k(  108) = (   0.2500000   0.2886751   0.0903664), wk =   0.0078125
        k(  109) = (   0.2500000   0.2886751   0.1807328), wk =   0.0078125
        k(  110) = (   0.2500000   0.2886751   0.2710991), wk =   0.0078125
        k(  111) = (   0.2500000   0.2886752  -0.3614655), wk =   0.0078125
        k(  112) = (   0.2500000   0.2886752  -0.2710992), wk =   0.0078125
        k(  113) = (   0.2500000   0.2886751  -0.1807328), wk =   0.0078125
        k(  114) = (   0.2500000   0.2886751  -0.0903664), wk =   0.0078125
        k(  115) = (   0.2500000   0.4330127  -0.0000000), wk =   0.0078125
        k(  116) = (   0.2500000   0.4330127   0.0903664), wk =   0.0078125
        k(  117) = (   0.2500000   0.4330127   0.1807328), wk =   0.0078125
        k(  118) = (   0.2500000   0.4330127   0.2710991), wk =   0.0078125
        k(  119) = (   0.2500000   0.4330127  -0.3614655), wk =   0.0078125
        k(  120) = (   0.2500000   0.4330127  -0.2710992), wk =   0.0078125
        k(  121) = (   0.2500000   0.4330127  -0.1807328), wk =   0.0078125
        k(  122) = (   0.2500000   0.4330127  -0.0903664), wk =   0.0078125
        k(  123) = (   0.2500000   0.5773503  -0.0000000), wk =   0.0078125
        k(  124) = (   0.2500000   0.5773503   0.0903664), wk =   0.0078125
        k(  125) = (   0.2499999   0.5773502   0.1807328), wk =   0.0078125
        k(  126) = (   0.2499999   0.5773502   0.2710991), wk =   0.0078125
        k(  127) = (   0.2500000   0.5773503  -0.3614655), wk =   0.0078125
        k(  128) = (   0.2500000   0.5773503  -0.2710992), wk =   0.0078125
        k(  129) = (   0.2500000   0.5773503  -0.1807328), wk =   0.0078125
        k(  130) = (   0.2500000   0.5773503  -0.0903664), wk =   0.0078125
        k(  131) = (   0.2500000  -0.4330127  -0.0000000), wk =   0.0078125
        k(  132) = (   0.2500000  -0.4330127   0.0903664), wk =   0.0078125
        k(  133) = (   0.2500000  -0.4330127   0.1807328), wk =   0.0078125
        k(  134) = (   0.2500000  -0.4330128   0.2710991), wk =   0.0078125
        k(  135) = (   0.2500001  -0.4330127  -0.3614655), wk =   0.0078125
        k(  136) = (   0.2500000  -0.4330127  -0.2710992), wk =   0.0078125
        k(  137) = (   0.2500000  -0.4330127  -0.1807328), wk =   0.0078125
        k(  138) = (   0.2500000  -0.4330127  -0.0903664), wk =   0.0078125
        k(  139) = (   0.2500000  -0.2886752  -0.0000000), wk =   0.0078125
        k(  140) = (   0.2500000  -0.2886752   0.0903664), wk =   0.0078125
        k(  141) = (   0.2500000  -0.2886752   0.1807328), wk =   0.0078125
        k(  142) = (   0.2500000  -0.2886752   0.2710991), wk =   0.0078125
        k(  143) = (   0.2500000  -0.2886751  -0.3614655), wk =   0.0078125
        k(  144) = (   0.2500000  -0.2886751  -0.2710992), wk =   0.0078125
        k(  145) = (   0.2500000  -0.2886751  -0.1807328), wk =   0.0078125
        k(  146) = (   0.2500000  -0.2886751  -0.0903664), wk =   0.0078125
        k(  147) = (   0.2500000  -0.1443376  -0.0000000), wk =   0.0078125
        k(  148) = (   0.2500000  -0.1443376   0.0903664), wk =   0.0078125
        k(  149) = (   0.2500000  -0.1443376   0.1807328), wk =   0.0078125
        k(  150) = (   0.2500000  -0.1443376   0.2710991), wk =   0.0078125
        k(  151) = (   0.2500000  -0.1443376  -0.3614655), wk =   0.0078125
        k(  152) = (   0.2500000  -0.1443376  -0.2710992), wk =   0.0078125
        k(  153) = (   0.2500000  -0.1443376  -0.1807328), wk =   0.0078125
        k(  154) = (   0.2500000  -0.1443376  -0.0903664), wk =   0.0078125
        k(  155) = (   0.2500000  -0.0000000  -0.0000000), wk =   0.0078125
        k(  156) = (   0.2500000  -0.0000000   0.0903664), wk =   0.0078125
        k(  157) = (   0.2500000  -0.0000000   0.1807328), wk =   0.0078125
        k(  158) = (   0.2500000  -0.0000000   0.2710991), wk =   0.0078125
        k(  159) = (   0.2500000   0.0000000  -0.3614655), wk =   0.0078125
        k(  160) = (   0.2500000   0.0000000  -0.2710992), wk =   0.0078125
        k(  161) = (   0.2500000   0.0000000  -0.1807328), wk =   0.0078125
        k(  162) = (   0.2500000  -0.0000000  -0.0903664), wk =   0.0078125
        k(  163) = (   0.3750000   0.2165063  -0.0000000), wk =   0.0078125
        k(  164) = (   0.3750000   0.2165063   0.0903664), wk =   0.0078125
        k(  165) = (   0.3750000   0.2165063   0.1807328), wk =   0.0078125
        k(  166) = (   0.3750000   0.2165063   0.2710991), wk =   0.0078125
        k(  167) = (   0.3750000   0.2165064  -0.3614655), wk =   0.0078125
        k(  168) = (   0.3750000   0.2165064  -0.2710992), wk =   0.0078125
        k(  169) = (   0.3750000   0.2165063  -0.1807328), wk =   0.0078125
        k(  170) = (   0.3750000   0.2165063  -0.0903664), wk =   0.0078125
        k(  171) = (   0.3750000   0.3608439  -0.0000000), wk =   0.0078125
        k(  172) = (   0.3750000   0.3608439   0.0903664), wk =   0.0078125
        k(  173) = (   0.3750000   0.3608439   0.1807328), wk =   0.0078125
        k(  174) = (   0.3750000   0.3608439   0.2710991), wk =   0.0078125
        k(  175) = (   0.3750000   0.3608439  -0.3614655), wk =   0.0078125
        k(  176) = (   0.3750000   0.3608439  -0.2710992), wk =   0.0078125
        k(  177) = (   0.3750000   0.3608439  -0.1807328), wk =   0.0078125
        k(  178) = (   0.3750000   0.3608439  -0.0903664), wk =   0.0078125
        k(  179) = (   0.3750000   0.5051815  -0.0000000), wk =   0.0078125
        k(  180) = (   0.3750000   0.5051815   0.0903664), wk =   0.0078125
        k(  181) = (   0.3750000   0.5051815   0.1807328), wk =   0.0078125
        k(  182) = (   0.3749999   0.5051814   0.2710991), wk =   0.0078125
        k(  183) = (   0.3750000   0.5051815  -0.3614655), wk =   0.0078125
        k(  184) = (   0.3750000   0.5051815  -0.2710992), wk =   0.0078125
        k(  185) = (   0.3750000   0.5051815  -0.1807328), wk =   0.0078125
        k(  186) = (   0.3750000   0.5051815  -0.0903664), wk =   0.0078125
        k(  187) = (   0.3750000   0.6495190  -0.0000000), wk =   0.0078125
        k(  188) = (   0.3750000   0.6495190   0.0903664), wk =   0.0078125
        k(  189) = (   0.3749999   0.6495190   0.1807328), wk =   0.0078125
        k(  190) = (   0.3749999   0.6495190   0.2710991), wk =   0.0078125
        k(  191) = (   0.3750000   0.6495191  -0.3614655), wk =   0.0078125
        k(  192) = (   0.3750000   0.6495191  -0.2710992), wk =   0.0078125
        k(  193) = (   0.3750000   0.6495191  -0.1807328), wk =   0.0078125
        k(  194) = (   0.3750000   0.6495191  -0.0903664), wk =   0.0078125
        k(  195) = (   0.3750000  -0.3608440  -0.0000000), wk =   0.0078125
        k(  196) = (   0.3750000  -0.3608440   0.0903664), wk =   0.0078125
        k(  197) = (   0.3750000  -0.3608440   0.1807328), wk =   0.0078125
        k(  198) = (   0.3750000  -0.3608440   0.2710991), wk =   0.0078125
        k(  199) = (   0.3750000  -0.3608439  -0.3614655), wk =   0.0078125
        k(  200) = (   0.3750000  -0.3608439  -0.2710992), wk =   0.0078125
        k(  201) = (   0.3750000  -0.3608439  -0.1807328), wk =   0.0078125
        k(  202) = (   0.3750000  -0.3608439  -0.0903664), wk =   0.0078125
        k(  203) = (   0.3750000  -0.2165064  -0.0000000), wk =   0.0078125
        k(  204) = (   0.3750000  -0.2165064   0.0903664), wk =   0.0078125
        k(  205) = (   0.3750000  -0.2165064   0.1807328), wk =   0.0078125
        k(  206) = (   0.3750000  -0.2165064   0.2710991), wk =   0.0078125
        k(  207) = (   0.3750000  -0.2165063  -0.3614655), wk =   0.0078125
        k(  208) = (   0.3750000  -0.2165064  -0.2710992), wk =   0.0078125
        k(  209) = (   0.3750000  -0.2165064  -0.1807328), wk =   0.0078125
        k(  210) = (   0.3750000  -0.2165064  -0.0903664), wk =   0.0078125
        k(  211) = (   0.3750000  -0.0721688  -0.0000000), wk =   0.0078125
        k(  212) = (   0.3750000  -0.0721688   0.0903664), wk =   0.0078125
        k(  213) = (   0.3750000  -0.0721688   0.1807328), wk =   0.0078125
        k(  214) = (   0.3750000  -0.0721688   0.2710991), wk =   0.0078125
        k(  215) = (   0.3750000  -0.0721688  -0.3614655), wk =   0.0078125
        k(  216) = (   0.3750000  -0.0721688  -0.2710992), wk =   0.0078125
        k(  217) = (   0.3750000  -0.0721688  -0.1807328), wk =   0.0078125
        k(  218) = (   0.3750000  -0.0721688  -0.0903664), wk =   0.0078125
        k(  219) = (   0.3750000   0.0721688  -0.0000000), wk =   0.0078125
        k(  220) = (   0.3750000   0.0721688   0.0903664), wk =   0.0078125
        k(  221) = (   0.3750000   0.0721687   0.1807328), wk =   0.0078125
        k(  222) = (   0.3750000   0.0721687   0.2710991), wk =   0.0078125
        k(  223) = (   0.3750000   0.0721688  -0.3614655), wk =   0.0078125
        k(  224) = (   0.3750000   0.0721688  -0.2710992), wk =   0.0078125
        k(  225) = (   0.3750000   0.0721688  -0.1807328), wk =   0.0078125
        k(  226) = (   0.3750000   0.0721688  -0.0903664), wk =   0.0078125
        k(  227) = (  -0.5000000  -0.2886751   0.0000000), wk =   0.0039062
        k(  228) = (  -0.5000000  -0.2886751   0.0903664), wk =   0.0078125
        k(  229) = (  -0.5000000  -0.2886751   0.1807328), wk =   0.0078125
        k(  230) = (  -0.5000000  -0.2886751   0.2710992), wk =   0.0078125
        k(  231) = (  -0.5000000  -0.2886751  -0.3614655), wk =   0.0039062
        k(  232) = (  -0.5000000  -0.1443375   0.0000000), wk =   0.0078125
        k(  233) = (  -0.5000000  -0.1443375   0.0903664), wk =   0.0078125
        k(  234) = (  -0.5000000  -0.1443376   0.1807328), wk =   0.0078125
        k(  235) = (  -0.5000000  -0.1443376   0.2710992), wk =   0.0078125
        k(  236) = (  -0.5000000  -0.1443375  -0.3614655), wk =   0.0078125
        k(  237) = (  -0.5000000  -0.1443375  -0.2710991), wk =   0.0078125
        k(  238) = (  -0.5000000  -0.1443375  -0.1807328), wk =   0.0078125
        k(  239) = (  -0.5000000  -0.1443375  -0.0903664), wk =   0.0078125
        k(  240) = (  -0.5000000   0.0000000   0.0000000), wk =   0.0078125
        k(  241) = (  -0.5000000   0.0000000   0.0903664), wk =   0.0078125
        k(  242) = (  -0.5000000   0.0000000   0.1807328), wk =   0.0078125
        k(  243) = (  -0.5000000   0.0000000   0.2710992), wk =   0.0078125
        k(  244) = (  -0.5000000   0.0000001  -0.3614655), wk =   0.0078125
        k(  245) = (  -0.5000000   0.0000001  -0.2710991), wk =   0.0078125
        k(  246) = (  -0.5000000   0.0000001  -0.1807328), wk =   0.0078125
        k(  247) = (  -0.5000000   0.0000000  -0.0903664), wk =   0.0078125
        k(  248) = (  -0.5000000   0.1443376   0.0000000), wk =   0.0078125
        k(  249) = (  -0.5000000   0.1443376   0.0903664), wk =   0.0078125
        k(  250) = (  -0.5000000   0.1443376   0.1807328), wk =   0.0078125
        k(  251) = (  -0.5000000   0.1443376   0.2710992), wk =   0.0078125
        k(  252) = (  -0.5000000   0.1443376  -0.3614655), wk =   0.0078125
        k(  253) = (  -0.5000000   0.1443376  -0.2710991), wk =   0.0078125
        k(  254) = (  -0.5000000   0.1443376  -0.1807328), wk =   0.0078125
        k(  255) = (  -0.5000000   0.1443376  -0.0903664), wk =   0.0078125
        k(  256) = (  -0.4999999  -0.8660254   0.0000000), wk =   0.0039062
        k(  257) = (  -0.4999999  -0.8660254   0.0903664), wk =   0.0078125
        k(  258) = (  -0.5000000  -0.8660254   0.1807328), wk =   0.0078125
        k(  259) = (  -0.5000000  -0.8660254   0.2710992), wk =   0.0078125
        k(  260) = (  -0.4999999  -0.8660254  -0.3614655), wk =   0.0039062

                       cryst. coord.
        k(    1) = (   0.0000000   0.0000000   0.0000000), wk =   0.0039062
        k(    2) = (   0.0000000  -0.0000000   0.1250000), wk =   0.0078125
        k(    3) = (   0.0000000  -0.0000000   0.2500000), wk =   0.0078125
        k(    4) = (   0.0000000  -0.0000000   0.3750000), wk =   0.0078125
        k(    5) = (  -0.0000000   0.0000000  -0.5000000), wk =   0.0039062
        k(    6) = (  -0.0000000   0.1250000  -0.0000000), wk =   0.0078125
        k(    7) = (   0.0000000   0.1250000   0.1250000), wk =   0.0078125
        k(    8) = (  -0.0000000   0.1250000   0.2500000), wk =   0.0078125
        k(    9) = (   0.0000000   0.1250000   0.3750000), wk =   0.0078125
        k(   10) = (  -0.0000000   0.1250000  -0.5000000), wk =   0.0078125
        k(   11) = (  -0.0000000   0.1250000  -0.3750000), wk =   0.0078125
        k(   12) = (  -0.0000000   0.1250000  -0.2500000), wk =   0.0078125
        k(   13) = (  -0.0000000   0.1250000  -0.1250000), wk =   0.0078125
        k(   14) = (  -0.0000000   0.2500000  -0.0000000), wk =   0.0078125
        k(   15) = (   0.0000000   0.2500000   0.1250000), wk =   0.0078125
        k(   16) = (   0.0000000   0.2500000   0.2500000), wk =   0.0078125
        k(   17) = (   0.0000000   0.2500000   0.3750000), wk =   0.0078125
        k(   18) = (  -0.0000000   0.2500000  -0.5000000), wk =   0.0078125
        k(   19) = (  -0.0000000   0.2500000  -0.3750000), wk =   0.0078125
        k(   20) = (  -0.0000000   0.2500000  -0.2500000), wk =   0.0078125
        k(   21) = (  -0.0000000   0.2500000  -0.1250000), wk =   0.0078125
        k(   22) = (   0.0000000   0.3750000   0.0000000), wk =   0.0078125
        k(   23) = (   0.0000000   0.3750000   0.1250000), wk =   0.0078125
        k(   24) = (   0.0000000   0.3750000   0.2500000), wk =   0.0078125
        k(   25) = (   0.0000000   0.3750000   0.3750000), wk =   0.0078125
        k(   26) = (  -0.0000000   0.3750000  -0.5000000), wk =   0.0078125
        k(   27) = (  -0.0000000   0.3750000  -0.3750000), wk =   0.0078125
        k(   28) = (  -0.0000000   0.3750000  -0.2500000), wk =   0.0078125
        k(   29) = (  -0.0000000   0.3750000  -0.1250000), wk =   0.0078125
        k(   30) = (   0.0000000  -0.5000000   0.0000000), wk =   0.0039062
        k(   31) = (  -0.0000000  -0.5000000   0.1250000), wk =   0.0078125
        k(   32) = (   0.0000000  -0.5000000   0.2500000), wk =   0.0078125
        k(   33) = (  -0.0000000  -0.5000000   0.3750000), wk =   0.0078125
        k(   34) = (  -0.0000000  -0.5000000  -0.5000000), wk =   0.0039062
        k(   35) = (   0.1250000   0.0000000  -0.0000000), wk =   0.0078125
        k(   36) = (   0.1250000  -0.0000000   0.1250000), wk =   0.0078125
        k(   37) = (   0.1250000   0.0000000   0.2500000), wk =   0.0078125
        k(   38) = (   0.1250000   0.0000000   0.3750000), wk =   0.0078125
        k(   39) = (   0.1250000  -0.0000000  -0.5000000), wk =   0.0078125
        k(   40) = (   0.1250000   0.0000000  -0.3750000), wk =   0.0078125
        k(   41) = (   0.1250000   0.0000000  -0.2500000), wk =   0.0078125
        k(   42) = (   0.1250000   0.0000000  -0.1250000), wk =   0.0078125
        k(   43) = (   0.1250000   0.1250000  -0.0000000), wk =   0.0078125
        k(   44) = (   0.1250000   0.1250000   0.1250000), wk =   0.0078125
        k(   45) = (   0.1250000   0.1250000   0.2500000), wk =   0.0078125
        k(   46) = (   0.1250000   0.1250000   0.3750000), wk =   0.0078125
        k(   47) = (   0.1250000   0.1250000  -0.5000000), wk =   0.0078125
        k(   48) = (   0.1250000   0.1250000  -0.3750000), wk =   0.0078125
        k(   49) = (   0.1250000   0.1250000  -0.2500000), wk =   0.0078125
        k(   50) = (   0.1250000   0.1250000  -0.1250000), wk =   0.0078125
        k(   51) = (   0.1250000   0.2500000  -0.0000000), wk =   0.0078125
        k(   52) = (   0.1250000   0.2500000   0.1250000), wk =   0.0078125
        k(   53) = (   0.1250000   0.2500000   0.2500000), wk =   0.0078125
        k(   54) = (   0.1250000   0.2500000   0.3750000), wk =   0.0078125
        k(   55) = (   0.1250000   0.2500000  -0.5000000), wk =   0.0078125
        k(   56) = (   0.1250000   0.2500000  -0.3750000), wk =   0.0078125
        k(   57) = (   0.1250000   0.2500000  -0.2500000), wk =   0.0078125
        k(   58) = (   0.1250000   0.2500000  -0.1250000), wk =   0.0078125
        k(   59) = (   0.1250000   0.3750000  -0.0000000), wk =   0.0078125
        k(   60) = (   0.1250000   0.3750000   0.1250000), wk =   0.0078125
        k(   61) = (   0.1250000   0.3750000   0.2500000), wk =   0.0078125
        k(   62) = (   0.1250000   0.3750000   0.3750000), wk =   0.0078125
        k(   63) = (   0.1250000   0.3750000  -0.5000000), wk =   0.0078125
        k(   64) = (   0.1250000   0.3750000  -0.3750000), wk =   0.0078125
        k(   65) = (   0.1250000   0.3750000  -0.2500000), wk =   0.0078125
        k(   66) = (   0.1250000   0.3750000  -0.1250000), wk =   0.0078125
        k(   67) = (   0.1250000  -0.5000000  -0.0000000), wk =   0.0078125
        k(   68) = (   0.1250000  -0.5000000   0.1250000), wk =   0.0078125
        k(   69) = (   0.1250000  -0.5000000   0.2500000), wk =   0.0078125
        k(   70) = (   0.1250000  -0.5000000   0.3750000), wk =   0.0078125
        k(   71) = (   0.1250000  -0.5000000  -0.5000000), wk =   0.0078125
        k(   72) = (   0.1250000  -0.5000000  -0.3750000), wk =   0.0078125
        k(   73) = (   0.1250000  -0.5000000  -0.2500000), wk =   0.0078125
        k(   74) = (   0.1250000  -0.5000000  -0.1250000), wk =   0.0078125
        k(   75) = (   0.1250000  -0.3750000  -0.0000000), wk =   0.0078125
        k(   76) = (   0.1250000  -0.3750000   0.1250000), wk =   0.0078125
        k(   77) = (   0.1250000  -0.3750000   0.2500000), wk =   0.0078125
        k(   78) = (   0.1250000  -0.3750000   0.3750000), wk =   0.0078125
        k(   79) = (   0.1250000  -0.3750000  -0.5000000), wk =   0.0078125
        k(   80) = (   0.1250000  -0.3750000  -0.3750000), wk =   0.0078125
        k(   81) = (   0.1250000  -0.3750000  -0.2500000), wk =   0.0078125
        k(   82) = (   0.1250000  -0.3750000  -0.1250000), wk =   0.0078125
        k(   83) = (   0.1250000  -0.2500000  -0.0000000), wk =   0.0078125
        k(   84) = (   0.1250000  -0.2500000   0.1250000), wk =   0.0078125
        k(   85) = (   0.1250000  -0.2500000   0.2500000), wk =   0.0078125
        k(   86) = (   0.1250000  -0.2500000   0.3750000), wk =   0.0078125
        k(   87) = (   0.1250000  -0.2500000  -0.5000000), wk =   0.0078125
        k(   88) = (   0.1250000  -0.2500000  -0.3750000), wk =   0.0078125
        k(   89) = (   0.1250000  -0.2500000  -0.2500000), wk =   0.0078125
        k(   90) = (   0.1250000  -0.2500000  -0.1250000), wk =   0.0078125
        k(   91) = (   0.1250000  -0.1250000  -0.0000000), wk =   0.0078125
        k(   92) = (   0.1250000  -0.1250000   0.1250000), wk =   0.0078125
        k(   93) = (   0.1250000  -0.1250000   0.2500000), wk =   0.0078125
        k(   94) = (   0.1250000  -0.1250000   0.3750000), wk =   0.0078125
        k(   95) = (   0.1250000  -0.1250000  -0.5000000), wk =   0.0078125
        k(   96) = (   0.1250000  -0.1250000  -0.3750000), wk =   0.0078125
        k(   97) = (   0.1250000  -0.1250000  -0.2500000), wk =   0.0078125
        k(   98) = (   0.1250000  -0.1250000  -0.1250000), wk =   0.0078125
        k(   99) = (   0.2500000   0.0000000  -0.0000000), wk =   0.0078125
        k(  100) = (   0.2500000   0.0000000   0.1250000), wk =   0.0078125
        k(  101) = (   0.2500000  -0.0000000   0.2500000), wk =   0.0078125
        k(  102) = (   0.2500000   0.0000000   0.3750000), wk =   0.0078125
        k(  103) = (   0.2500000   0.0000000  -0.5000000), wk =   0.0078125
        k(  104) = (   0.2500000   0.0000000  -0.3750000), wk =   0.0078125
        k(  105) = (   0.2500000   0.0000000  -0.2500000), wk =   0.0078125
        k(  106) = (   0.2500000  -0.0000000  -0.1250000), wk =   0.0078125
        k(  107) = (   0.2500000   0.1250000   0.0000000), wk =   0.0078125
        k(  108) = (   0.2500000   0.1250000   0.1250000), wk =   0.0078125
        k(  109) = (   0.2500000   0.1250000   0.2500000), wk =   0.0078125
        k(  110) = (   0.2500000   0.1250000   0.3750000), wk =   0.0078125
        k(  111) = (   0.2500000   0.1250000  -0.5000000), wk =   0.0078125
        k(  112) = (   0.2500000   0.1250000  -0.3750000), wk =   0.0078125
        k(  113) = (   0.2500000   0.1250000  -0.2500000), wk =   0.0078125
        k(  114) = (   0.2500000   0.1250000  -0.1250000), wk =   0.0078125
        k(  115) = (   0.2500000   0.2500000  -0.0000000), wk =   0.0078125
        k(  116) = (   0.2500000   0.2500000   0.1250000), wk =   0.0078125
        k(  117) = (   0.2500000   0.2500000   0.2500000), wk =   0.0078125
        k(  118) = (   0.2500000   0.2500000   0.3750000), wk =   0.0078125
        k(  119) = (   0.2500000   0.2500000  -0.5000000), wk =   0.0078125
        k(  120) = (   0.2500000   0.2500000  -0.3750000), wk =   0.0078125
        k(  121) = (   0.2500000   0.2500000  -0.2500000), wk =   0.0078125
        k(  122) = (   0.2500000   0.2500000  -0.1250000), wk =   0.0078125
        k(  123) = (   0.2500000   0.3750000  -0.0000000), wk =   0.0078125
        k(  124) = (   0.2500000   0.3750000   0.1250000), wk =   0.0078125
        k(  125) = (   0.2500000   0.3750000   0.2500000), wk =   0.0078125
        k(  126) = (   0.2500000   0.3750000   0.3750000), wk =   0.0078125
        k(  127) = (   0.2500000   0.3750000  -0.5000000), wk =   0.0078125
        k(  128) = (   0.2500000   0.3750000  -0.3750000), wk =   0.0078125
        k(  129) = (   0.2500000   0.3750000  -0.2500000), wk =   0.0078125
        k(  130) = (   0.2500000   0.3750000  -0.1250000), wk =   0.0078125
        k(  131) = (   0.2500000  -0.5000000  -0.0000000), wk =   0.0078125
        k(  132) = (   0.2500000  -0.5000000   0.1250000), wk =   0.0078125
        k(  133) = (   0.2500000  -0.5000000   0.2500000), wk =   0.0078125
        k(  134) = (   0.2500000  -0.5000000   0.3750000), wk =   0.0078125
        k(  135) = (   0.2500000  -0.5000000  -0.5000000), wk =   0.0078125
        k(  136) = (   0.2500000  -0.5000000  -0.3750000), wk =   0.0078125
        k(  137) = (   0.2500000  -0.5000000  -0.2500000), wk =   0.0078125
        k(  138) = (   0.2500000  -0.5000000  -0.1250000), wk =   0.0078125
        k(  139) = (   0.2500000  -0.3750000  -0.0000000), wk =   0.0078125
        k(  140) = (   0.2500000  -0.3750000   0.1250000), wk =   0.0078125
        k(  141) = (   0.2500000  -0.3750000   0.2500000), wk =   0.0078125
        k(  142) = (   0.2500000  -0.3750000   0.3750000), wk =   0.0078125
        k(  143) = (   0.2500000  -0.3750000  -0.5000000), wk =   0.0078125
        k(  144) = (   0.2500000  -0.3750000  -0.3750000), wk =   0.0078125
        k(  145) = (   0.2500000  -0.3750000  -0.2500000), wk =   0.0078125
        k(  146) = (   0.2500000  -0.3750000  -0.1250000), wk =   0.0078125
        k(  147) = (   0.2500000  -0.2500000  -0.0000000), wk =   0.0078125
        k(  148) = (   0.2500000  -0.2500000   0.1250000), wk =   0.0078125
        k(  149) = (   0.2500000  -0.2500000   0.2500000), wk =   0.0078125
        k(  150) = (   0.2500000  -0.2500000   0.3750000), wk =   0.0078125
        k(  151) = (   0.2500000  -0.2500000  -0.5000000), wk =   0.0078125
        k(  152) = (   0.2500000  -0.2500000  -0.3750000), wk =   0.0078125
        k(  153) = (   0.2500000  -0.2500000  -0.2500000), wk =   0.0078125
        k(  154) = (   0.2500000  -0.2500000  -0.1250000), wk =   0.0078125
        k(  155) = (   0.2500000  -0.1250000  -0.0000000), wk =   0.0078125
        k(  156) = (   0.2500000  -0.1250000   0.1250000), wk =   0.0078125
        k(  157) = (   0.2500000  -0.1250000   0.2500000), wk =   0.0078125
        k(  158) = (   0.2500000  -0.1250000   0.3750000), wk =   0.0078125
        k(  159) = (   0.2500000  -0.1250000  -0.5000000), wk =   0.0078125
        k(  160) = (   0.2500000  -0.1250000  -0.3750000), wk =   0.0078125
        k(  161) = (   0.2500000  -0.1250000  -0.2500000), wk =   0.0078125
        k(  162) = (   0.2500000  -0.1250000  -0.1250000), wk =   0.0078125
        k(  163) = (   0.3750000   0.0000000  -0.0000000), wk =   0.0078125
        k(  164) = (   0.3750000   0.0000000   0.1250000), wk =   0.0078125
        k(  165) = (   0.3750000  -0.0000000   0.2500000), wk =   0.0078125
        k(  166) = (   0.3750000  -0.0000000   0.3750000), wk =   0.0078125
        k(  167) = (   0.3750000  -0.0000000  -0.5000000), wk =   0.0078125
        k(  168) = (   0.3750000   0.0000000  -0.3750000), wk =   0.0078125
        k(  169) = (   0.3750000   0.0000000  -0.2500000), wk =   0.0078125
        k(  170) = (   0.3750000   0.0000000  -0.1250000), wk =   0.0078125
        k(  171) = (   0.3750000   0.1250000  -0.0000000), wk =   0.0078125
        k(  172) = (   0.3750000   0.1250000   0.1250000), wk =   0.0078125
        k(  173) = (   0.3750000   0.1250000   0.2500000), wk =   0.0078125
        k(  174) = (   0.3750000   0.1250000   0.3750000), wk =   0.0078125
        k(  175) = (   0.3750000   0.1250000  -0.5000000), wk =   0.0078125
        k(  176) = (   0.3750000   0.1250000  -0.3750000), wk =   0.0078125
        k(  177) = (   0.3750000   0.1250000  -0.2500000), wk =   0.0078125
        k(  178) = (   0.3750000   0.1250000  -0.1250000), wk =   0.0078125
        k(  179) = (   0.3750000   0.2500000   0.0000000), wk =   0.0078125
        k(  180) = (   0.3750000   0.2500000   0.1250000), wk =   0.0078125
        k(  181) = (   0.3750000   0.2500000   0.2500000), wk =   0.0078125
        k(  182) = (   0.3750000   0.2500000   0.3750000), wk =   0.0078125
        k(  183) = (   0.3750000   0.2500000  -0.5000000), wk =   0.0078125
        k(  184) = (   0.3750000   0.2500000  -0.3750000), wk =   0.0078125
        k(  185) = (   0.3750000   0.2500000  -0.2500000), wk =   0.0078125
        k(  186) = (   0.3750000   0.2500000  -0.1250000), wk =   0.0078125
        k(  187) = (   0.3750000   0.3750000  -0.0000000), wk =   0.0078125
        k(  188) = (   0.3750000   0.3750000   0.1250000), wk =   0.0078125
        k(  189) = (   0.3750000   0.3750000   0.2500000), wk =   0.0078125
        k(  190) = (   0.3750000   0.3750000   0.3750000), wk =   0.0078125
        k(  191) = (   0.3750000   0.3750000  -0.5000000), wk =   0.0078125
        k(  192) = (   0.3750000   0.3750000  -0.3750000), wk =   0.0078125
        k(  193) = (   0.3750000   0.3750000  -0.2500000), wk =   0.0078125
        k(  194) = (   0.3750000   0.3750000  -0.1250000), wk =   0.0078125
        k(  195) = (   0.3750000  -0.5000000  -0.0000000), wk =   0.0078125
        k(  196) = (   0.3750000  -0.5000000   0.1250000), wk =   0.0078125
        k(  197) = (   0.3750000  -0.5000000   0.2500000), wk =   0.0078125
        k(  198) = (   0.3750000  -0.5000000   0.3750000), wk =   0.0078125
        k(  199) = (   0.3750000  -0.5000000  -0.5000000), wk =   0.0078125
        k(  200) = (   0.3750000  -0.5000000  -0.3750000), wk =   0.0078125
        k(  201) = (   0.3750000  -0.5000000  -0.2500000), wk =   0.0078125
        k(  202) = (   0.3750000  -0.5000000  -0.1250000), wk =   0.0078125
        k(  203) = (   0.3750000  -0.3750000  -0.0000000), wk =   0.0078125
        k(  204) = (   0.3750000  -0.3750000   0.1250000), wk =   0.0078125
        k(  205) = (   0.3750000  -0.3750000   0.2500000), wk =   0.0078125
        k(  206) = (   0.3750000  -0.3750000   0.3750000), wk =   0.0078125
        k(  207) = (   0.3750000  -0.3750000  -0.5000000), wk =   0.0078125
        k(  208) = (   0.3750000  -0.3750000  -0.3750000), wk =   0.0078125
        k(  209) = (   0.3750000  -0.3750000  -0.2500000), wk =   0.0078125
        k(  210) = (   0.3750000  -0.3750000  -0.1250000), wk =   0.0078125
        k(  211) = (   0.3750000  -0.2500000  -0.0000000), wk =   0.0078125
        k(  212) = (   0.3750000  -0.2500000   0.1250000), wk =   0.0078125
        k(  213) = (   0.3750000  -0.2500000   0.2500000), wk =   0.0078125
        k(  214) = (   0.3750000  -0.2500000   0.3750000), wk =   0.0078125
        k(  215) = (   0.3750000  -0.2500000  -0.5000000), wk =   0.0078125
        k(  216) = (   0.3750000  -0.2500000  -0.3750000), wk =   0.0078125
        k(  217) = (   0.3750000  -0.2500000  -0.2500000), wk =   0.0078125
        k(  218) = (   0.3750000  -0.2500000  -0.1250000), wk =   0.0078125
        k(  219) = (   0.3750000  -0.1250000  -0.0000000), wk =   0.0078125
        k(  220) = (   0.3750000  -0.1250000   0.1250000), wk =   0.0078125
        k(  221) = (   0.3750000  -0.1250000   0.2500000), wk =   0.0078125
        k(  222) = (   0.3750000  -0.1250000   0.3750000), wk =   0.0078125
        k(  223) = (   0.3750000  -0.1250000  -0.5000000), wk =   0.0078125
        k(  224) = (   0.3750000  -0.1250000  -0.3750000), wk =   0.0078125
        k(  225) = (   0.3750000  -0.1250000  -0.2500000), wk =   0.0078125
        k(  226) = (   0.3750000  -0.1250000  -0.1250000), wk =   0.0078125
        k(  227) = (  -0.5000000  -0.0000000   0.0000000), wk =   0.0039062
        k(  228) = (  -0.5000000  -0.0000000   0.1250000), wk =   0.0078125
        k(  229) = (  -0.5000000   0.0000000   0.2500000), wk =   0.0078125
        k(  230) = (  -0.5000000   0.0000000   0.3750000), wk =   0.0078125
        k(  231) = (  -0.5000000   0.0000000  -0.5000000), wk =   0.0039062
        k(  232) = (  -0.5000000   0.1250000   0.0000000), wk =   0.0078125
        k(  233) = (  -0.5000000   0.1250000   0.1250000), wk =   0.0078125
        k(  234) = (  -0.5000000   0.1250000   0.2500000), wk =   0.0078125
        k(  235) = (  -0.5000000   0.1250000   0.3750000), wk =   0.0078125
        k(  236) = (  -0.5000000   0.1250000  -0.5000000), wk =   0.0078125
        k(  237) = (  -0.5000000   0.1250000  -0.3750000), wk =   0.0078125
        k(  238) = (  -0.5000000   0.1250000  -0.2500000), wk =   0.0078125
        k(  239) = (  -0.5000000   0.1250000  -0.1250000), wk =   0.0078125
        k(  240) = (  -0.5000000   0.2500000   0.0000000), wk =   0.0078125
        k(  241) = (  -0.5000000   0.2500000   0.1250000), wk =   0.0078125
        k(  242) = (  -0.5000000   0.2500000   0.2500000), wk =   0.0078125
        k(  243) = (  -0.5000000   0.2500000   0.3750000), wk =   0.0078125
        k(  244) = (  -0.5000000   0.2500000  -0.5000000), wk =   0.0078125
        k(  245) = (  -0.5000000   0.2500000  -0.3750000), wk =   0.0078125
        k(  246) = (  -0.5000000   0.2500000  -0.2500000), wk =   0.0078125
        k(  247) = (  -0.5000000   0.2500000  -0.1250000), wk =   0.0078125
        k(  248) = (  -0.5000000   0.3750000   0.0000000), wk =   0.0078125
        k(  249) = (  -0.5000000   0.3750000   0.1250000), wk =   0.0078125
        k(  250) = (  -0.5000000   0.3750000   0.2500000), wk =   0.0078125
        k(  251) = (  -0.5000000   0.3750000   0.3750000), wk =   0.0078125
        k(  252) = (  -0.5000000   0.3750000  -0.5000000), wk =   0.0078125
        k(  253) = (  -0.5000000   0.3750000  -0.3750000), wk =   0.0078125
        k(  254) = (  -0.5000000   0.3750000  -0.2500000), wk =   0.0078125
        k(  255) = (  -0.5000000   0.3750000  -0.1250000), wk =   0.0078125
        k(  256) = (  -0.5000000  -0.5000000   0.0000000), wk =   0.0039062
        k(  257) = (  -0.5000000  -0.5000000   0.1250000), wk =   0.0078125
        k(  258) = (  -0.5000000  -0.5000000   0.2500000), wk =   0.0078125
        k(  259) = (  -0.5000000  -0.5000000   0.3750000), wk =   0.0078125
        k(  260) = (  -0.5000000  -0.5000000  -0.5000000), wk =   0.0039062

     Dense  grid:    77535 G-vectors     FFT dimensions: (  50,  50,  72)

     Smooth grid:    30219 G-vectors     FFT dimensions: (  40,  40,  54)

     Dynamical RAM for                 wfc:       0.06 MB

     Dynamical RAM for     wfc (w. buffer):       3.79 MB

     Dynamical RAM for           str. fact:       0.15 MB

     Dynamical RAM for           local pot:       0.00 MB

     Dynamical RAM for          nlocal pot:       0.23 MB

     Dynamical RAM for                qrad:       5.33 MB

     Dynamical RAM for          rho,v,vnew:       0.51 MB

     Dynamical RAM for               rhoin:       0.17 MB

     Dynamical RAM for            rho*nmix:       1.18 MB

     Dynamical RAM for           G-vectors:       0.29 MB

     Dynamical RAM for          h,s,v(r/c):       0.05 MB

     Dynamical RAM for          <psi|beta>:       0.02 MB

     Dynamical RAM for                 psi:       0.23 MB

     Dynamical RAM for                hpsi:       0.23 MB

     Dynamical RAM for                spsi:       0.23 MB

     Dynamical RAM for      wfcinit/wfcrot:       0.14 MB

     Dynamical RAM for           addusdens:       3.88 MB

     Dynamical RAM for          addusforce:       4.03 MB

     Dynamical RAM for         addusstress:       4.09 MB

     Estimated static dynamical RAM per process >      12.34 MB

     Estimated max dynamical RAM per process >      16.43 MB

     Estimated total dynamical RAM >       1.03 GB

     Check: negative core charge=   -0.000003

     Initial potential from superposition of free atoms

     starting charge   31.39954, renormalised to   32.00000
     Starting wfcs are   18 randomized atomic wfcs

     total cpu time spent up to now is        1.3 secs

     Self-consistent Calculation

     iteration #  1     ecut=    80.00 Ry     beta= 0.50
     Davidson diagonalization with overlap
     ethr =  1.00E-02,  avg # of iterations =  2.0

     total cpu time spent up to now is        2.0 secs

     total energy              =    -314.90203878 Ry
     Harris-Foulkes estimate   =    -315.45772099 Ry
     estimated scf accuracy    <       0.87758610 Ry

     iteration #  2     ecut=    80.00 Ry     beta= 0.50
     Davidson diagonalization with overlap
     ethr =  2.74E-03,  avg # of iterations =  2.8

     total cpu time spent up to now is        3.1 secs

     total energy              =    -315.13686964 Ry
     Harris-Foulkes estimate   =    -315.24438719 Ry
     estimated scf accuracy    <       0.24803292 Ry

     iteration #  3     ecut=    80.00 Ry     beta= 0.50
     Davidson diagonalization with overlap
     ethr =  7.75E-04,  avg # of iterations =  2.0

     total cpu time spent up to now is        3.8 secs

     total energy              =    -315.17898713 Ry
     Harris-Foulkes estimate   =    -315.18191326 Ry
     estimated scf accuracy    <       0.00939601 Ry

     iteration #  4     ecut=    80.00 Ry     beta= 0.50
     Davidson diagonalization with overlap
     ethr =  2.94E-05,  avg # of iterations =  1.9

     total cpu time spent up to now is        4.4 secs

     total energy              =    -315.17956504 Ry
     Harris-Foulkes estimate   =    -315.17960387 Ry
     estimated scf accuracy    <       0.00050766 Ry

     iteration #  5     ecut=    80.00 Ry     beta= 0.50
     Davidson diagonalization with overlap
     ethr =  1.59E-06,  avg # of iterations =  2.0

     total cpu time spent up to now is        5.1 secs

     total energy              =    -315.17962068 Ry
     Harris-Foulkes estimate   =    -315.17962166 Ry
     estimated scf accuracy    <       0.00002131 Ry

     iteration #  6     ecut=    80.00 Ry     beta= 0.50
     Davidson diagonalization with overlap
     ethr =  6.66E-08,  avg # of iterations =  2.5

     total cpu time spent up to now is        5.9 secs

     End of self-consistent calculation

          k = 0.0000 0.0000 0.0000 (  3727 PWs)   bands (ev):

   -66.6045 -66.5977 -33.6322 -33.5747 -33.5747 -33.5738 -33.5608 -33.5608
   -11.3136 -10.2781   1.6350   3.8939   3.8939   4.4197   4.4197   5.1786

     occupation numbers 
     1.0000   1.0000   1.0000   1.0000   1.0000   1.0000   1.0000   1.0000
     1.0000   1.0000   1.0000   1.0000   1.0000   1.0000   1.0000   1.0000

          k =-0.0000-0.0000 0.0904 (  3757 PWs)   bands (ev):

   -66.6043 -66.5980 -33.6301 -33.5761 -33.5741 -33.5741 -33.5613 -33.5613
   -11.2762 -10.3197   1.7204   3.9127   3.9127   4.3985   4.3985   4.9033

     occupation numbers 
     1.0000   1.0000   1.0000   1.0000   1.0000   1.0000   1.0000   1.0000
     1.0000   1.0000   1.0000   1.0000   1.0000   1.0000   1.0000   1.0000

          k =-0.0000-0.0000 0.1807 (  3757 PWs)   bands (ev):

   -66.6035 -66.5987 -33.6240 -33.5826 -33.5726 -33.5726 -33.5628 -33.5628
   -11.1688 -10.4371   1.9737   3.9669   3.9669   4.2872   4.3387   4.3387

     occupation numbers 
     1.0000   1.0000   1.0000   1.0000   1.0000   1.0000   1.0000   1.0000
     1.0000   1.0000   1.0000   1.0000   1.0000   1.0000   1.0000   1.0000

          k =-0.0000-0.0000 0.2711 (  3757 PWs)   bands (ev):

   -66.6024 -66.5998 -33.6146 -33.5923 -33.5704 -33.5704 -33.5651 -33.5651
   -11.0059 -10.6100   2.3850   3.5892   4.0494   4.0494   4.2506   4.2506

     occupation numbers 
     1.0000   1.0000   1.0000   1.0000   1.0000   1.0000   1.0000   1.0000
     1.0000   1.0000   1.0000   1.0000   1.0000   1.0000   1.0000   1.0000

          k = 0.0000 0.0000-0.3615 (  3758 PWs)   bands (ev):

   -66.6011 -66.6011 -33.6035 -33.6035 -33.5678 -33.5678 -33.5677 -33.5677
   -10.8100 -10.8100   2.9348   2.9349   4.1488   4.1488   4.1488   4.1489

     occupation numbers 
     1.0000   1.0000   1.0000   1.0000   1.0000   1.0000   1.0000   1.0000
     1.0000   1.0000   1.0000   1.0000   1.0000   1.0000   1.0000   1.0000

          k =-0.0000 0.1443-0.0000 (  3768 PWs)   bands (ev):

   -66.6041 -66.5978 -33.6300 -33.5777 -33.5759 -33.5756 -33.5644 -33.5611
   -11.2331 -10.2638   1.7742   3.5650   3.7888   4.0052   4.4508   5.0915

     occupation numbers 
     1.0000   1.0000   1.0000   1.0000   1.0000   1.0000   1.0000   1.0000
     1.0000   1.0000   1.0000   1.0000   1.0000   1.0000   1.0000   1.0000

          k =-0.0000 0.1443 0.0904 (  3770 PWs)   bands (ev):

   -66.6039 -66.5980 -33.6282 -33.5785 -33.5770 -33.5753 -33.5642 -33.5617
   -11.1975 -10.3020   1.8355   3.5918   3.8120   3.9274   4.4234   4.9664

     occupation numbers 
     1.0000   1.0000   1.0000   1.0000   1.0000   1.0000   1.0000   1.0000
     1.0000   1.0000   1.0000   1.0000   1.0000   1.0000   1.0000   1.0000

          k =-0.0000 0.1443 0.1807 (  3765 PWs)   bands (ev):

   -66.6032 -66.5987 -33.6230 -33.5856 -33.5750 -33.5737 -33.5646 -33.5633
   -11.0957 -10.4103   2.0194   3.5357   3.8246   3.8789   4.3465   4.6961

     occupation numbers 
     1.0000   1.0000   1.0000   1.0000   1.0000   1.0000   1.0000   1.0000
     1.0000   1.0000   1.0000   1.0000   1.0000   1.0000   1.0000   1.0000

          k =-0.0000 0.1443 0.2711 (  3750 PWs)   bands (ev):

   -66.6022 -66.5997 -33.6150 -33.5950 -33.5722 -33.5713 -33.5663 -33.5657
   -10.9417 -10.5707   2.3211   3.1647   3.9581   3.9813   4.2341   4.4187

     occupation numbers 
     1.0000   1.0000   1.0000   1.0000   1.0000   1.0000   1.0000   1.0000
     1.0000   1.0000   1.0000   1.0000   1.0000   1.0000   1.0000   1.0000

          k = 0.0000 0.1443-0.3615 (  3746 PWs)   bands (ev):

   -66.6010 -66.6009 -33.6053 -33.6053 -33.5691 -33.5690 -33.5685 -33.5685
   -10.7575 -10.7575   2.7200   2.7201   4.1056   4.1056   4.1705   4.1706

     occupation numbers 
     1.0000   1.0000   1.0000   1.0000   1.0000   1.0000   1.0000   1.0000
     1.0000   1.0000   1.0000   1.0000   1.0000   1.0000   1.0000   1.0000

          k = 0.0000 0.1443-0.2711 (  3750 PWs)   bands (ev):

   -66.6022 -66.5997 -33.6150 -33.5950 -33.5722 -33.5713 -33.5663 -33.5657
   -10.9417 -10.5707   2.3211   3.1647   3.9581   3.9813   4.2341   4.4187

     occupation numbers 
     1.0000   1.0000   1.0000   1.0000   1.0000   1.0000   1.0000   1.0000
     1.0000   1.0000   1.0000   1.0000   1.0000   1.0000   1.0000   1.0000

          k = 0.0000 0.1443-0.1807 (  3765 PWs)   bands (ev):

   -66.6032 -66.5987 -33.6230 -33.5856 -33.5750 -33.5737 -33.5646 -33.5633
   -11.0957 -10.4103   2.0194   3.5357   3.8246   3.8789   4.3465   4.6961

     occupation numbers 
     1.0000   1.0000   1.0000   1.0000   1.0000   1.0000   1.0000   1.0000
     1.0000   1.0000   1.0000   1.0000   1.0000   1.0000   1.0000   1.0000

          k =-0.0000 0.1443-0.0904 (  3770 PWs)   bands (ev):

   -66.6039 -66.5980 -33.6282 -33.5785 -33.5770 -33.5753 -33.5642 -33.5617
   -11.1975 -10.3020   1.8355   3.5918   3.8120   3.9275   4.4234   4.9664

     occupation numbers 
     1.0000   1.0000   1.0000   1.0000   1.0000   1.0000   1.0000   1.0000
     1.0000   1.0000   1.0000   1.0000   1.0000   1.0000   1.0000   1.0000

          k =-0.0000 0.2887-0.0000 (  3782 PWs)   bands (ev):

   -66.6031 -66.5980 -33.6240 -33.5851 -33.5808 -33.5788 -33.5728 -33.5619
   -11.0212 -10.2423   2.1607   2.7281   3.4534   3.5837   4.4815   4.8249

     occupation numbers 
     1.0000   1.0000   1.0000   1.0000   1.0000   1.0000   1.0000   1.0000
     1.0000   1.0000   1.0000   1.0000   1.0000   1.0000   1.0000   1.0000

          k =-0.0000 0.2887 0.0904 (  3778 PWs)   bands (ev):

   -66.6029 -66.5982 -33.6233 -33.5857 -33.5832 -33.5781 -33.5705 -33.5625
   -10.9912 -10.2712   2.0982   2.8019   3.4226   3.6140   4.4428   4.8131

     occupation numbers 
     1.0000   1.0000   1.0000   1.0000   1.0000   1.0000   1.0000   1.0000
     1.0000   1.0000   1.0000   1.0000   1.0000   1.0000   1.0000   1.0000

          k =-0.0000 0.2887 0.1807 (  3770 PWs)   bands (ev):

   -66.6023 -66.5987 -33.6209 -33.5935 -33.5801 -33.5763 -33.5685 -33.5644
   -10.9057 -10.3540   2.0355   2.7433   3.5450   3.7018   4.3348   4.7342

     occupation numbers 
     1.0000   1.0000   1.0000   1.0000   1.0000   1.0000   1.0000   1.0000
     1.0000   1.0000   1.0000   1.0000   1.0000   1.0000   1.0000   1.0000

          k =-0.0000 0.2887 0.2711 (  3760 PWs)   bands (ev):

   -66.6015 -66.5996 -33.6166 -33.6022 -33.5756 -33.5736 -33.5689 -33.5671
   -10.7781 -10.4791   2.0759   2.4886   3.8373   3.8745   4.1792   4.5386

     occupation numbers 
     1.0000   1.0000   1.0000   1.0000   1.0000   1.0000   1.0000   1.0000
     1.0000   1.0000   1.0000   1.0000   1.0000   1.0000   1.0000   1.0000

          k = 0.0000 0.2887-0.3615 (  3752 PWs)   bands (ev):

   -66.6006 -66.6005 -33.6102 -33.6102 -33.5716 -33.5715 -33.5703 -33.5703
   -10.6281 -10.6280   2.2367   2.2367   4.0041   4.0042   4.2351   4.2351

     occupation numbers 
     1.0000   1.0000   1.0000   1.0000   1.0000   1.0000   1.0000   1.0000
     1.0000   1.0000   1.0000   1.0000   1.0000   1.0000   1.0000   1.0000

          k =-0.0000 0.2887-0.2711 (  3760 PWs)   bands (ev):

   -66.6015 -66.5996 -33.6166 -33.6022 -33.5756 -33.5736 -33.5689 -33.5671
   -10.7781 -10.4791   2.0759   2.4886   3.8373   3.8745   4.1792   4.5386

     occupation numbers 
     1.0000   1.0000   1.0000   1.0000   1.0000   1.0000   1.0000   1.0000
     1.0000   1.0000   1.0000   1.0000   1.0000   1.0000   1.0000   1.0000

          k =-0.0000 0.2887-0.1807 (  3770 PWs)   bands (ev):

   -66.6023 -66.5987 -33.6209 -33.5935 -33.5801 -33.5763 -33.5685 -33.5644
   -10.9057 -10.3540   2.0355   2.7433   3.5450   3.7018   4.3348   4.7342

     occupation numbers 
     1.0000   1.0000   1.0000   1.0000   1.0000   1.0000   1.0000   1.0000
     1.0000   1.0000   1.0000   1.0000   1.0000   1.0000   1.0000   1.0000

          k =-0.0000 0.2887-0.0904 (  3778 PWs)   bands (ev):

   -66.6029 -66.5982 -33.6233 -33.5857 -33.5832 -33.5781 -33.5705 -33.5625
   -10.9912 -10.2712   2.0982   2.8019   3.4226   3.6140   4.4428   4.8131

     occupation numbers 
     1.0000   1.0000   1.0000   1.0000   1.0000   1.0000   1.0000   1.0000
     1.0000   1.0000   1.0000   1.0000   1.0000   1.0000   1.0000   1.0000

          k =-0.0000 0.4330-0.0000 (  3762 PWs)   bands (ev):

   -66.6018 -66.5985 -33.6162 -33.5924 -33.5883 -33.5816 -33.5805 -33.5628
   -10.7646 -10.2589   1.9981   2.7098   3.0551   3.4130   4.4110   4.4830

     occupation numbers 
     1.0000   1.0000   1.0000   1.0000   1.0000   1.0000   1.0000   1.0000
     1.0000   1.0000   1.0000   1.0000   1.0000   1.0000   1.0000   1.0000

          k =-0.0000 0.4330 0.0904 (  3779 PWs)   bands (ev):

   -66.6017 -66.5986 -33.6174 -33.5944 -33.5892 -33.5808 -33.5766 -33.5635
   -10.7431 -10.2753   1.8919   2.6481   3.1501   3.4482   4.4354   4.4926

     occupation numbers 
     1.0000   1.0000   1.0000   1.0000   1.0000   1.0000   1.0000   1.0000
     1.0000   1.0000   1.0000   1.0000   1.0000   1.0000   1.0000   1.0000

          k =-0.0000 0.4330 0.1807 (  3788 PWs)   bands (ev):

   -66.6013 -66.5989 -33.6191 -33.6025 -33.5836 -33.5788 -33.5726 -33.5655
   -10.6825 -10.3236   1.7438   2.3529   3.5073   3.5505   4.3037   4.5936

     occupation numbers 
     1.0000   1.0000   1.0000   1.0000   1.0000   1.0000   1.0000   1.0000
     1.0000   1.0000   1.0000   1.0000   1.0000   1.0000   1.0000   1.0000

          k =-0.0000 0.4330 0.2711 (  3780 PWs)   bands (ev):

   -66.6008 -66.5995 -33.6189 -33.6102 -33.5776 -33.5758 -33.5714 -33.5686
   -10.5943 -10.3996   1.6984   2.0291   3.7093   3.9319   4.1156   4.5434

     occupation numbers 
     1.0000   1.0000   1.0000   1.0000   1.0000   1.0000   1.0000   1.0000
     1.0000   1.0000   1.0000   1.0000   1.0000   1.0000   1.0000   1.0000

          k =-0.0000 0.4330-0.3615 (  3770 PWs)   bands (ev):

   -66.6001 -66.6001 -33.6159 -33.6159 -33.5732 -33.5732 -33.5722 -33.5722
   -10.4944 -10.4944   1.7955   1.7956   3.9065   3.9065   4.3053   4.3054

     occupation numbers 
     1.0000   1.0000   1.0000   1.0000   1.0000   1.0000   1.0000   1.0000
     1.0000   1.0000   1.0000   1.0000   1.0000   1.0000   1.0000   1.0000

          k =-0.0000 0.4330-0.2711 (  3780 PWs)   bands (ev):

   -66.6008 -66.5995 -33.6189 -33.6102 -33.5776 -33.5758 -33.5714 -33.5686
   -10.5943 -10.3996   1.6984   2.0291   3.7093   3.9319   4.1156   4.5434

     occupation numbers 
     1.0000   1.0000   1.0000   1.0000   1.0000   1.0000   1.0000   1.0000
     1.0000   1.0000   1.0000   1.0000   1.0000   1.0000   1.0000   1.0000

          k =-0.0000 0.4330-0.1807 (  3788 PWs)   bands (ev):

   -66.6013 -66.5989 -33.6191 -33.6025 -33.5836 -33.5788 -33.5726 -33.5655
   -10.6825 -10.3236   1.7438   2.3529   3.5073   3.5505   4.3037   4.5936

     occupation numbers 
     1.0000   1.0000   1.0000   1.0000   1.0000   1.0000   1.0000   1.0000
     1.0000   1.0000   1.0000   1.0000   1.0000   1.0000   1.0000   1.0000

          k =-0.0000 0.4330-0.0904 (  3779 PWs)   bands (ev):

   -66.6017 -66.5986 -33.6174 -33.5944 -33.5892 -33.5808 -33.5766 -33.5635
   -10.7431 -10.2753   1.8919   2.6481   3.1501   3.4482   4.4354   4.4926

     occupation numbers 
     1.0000   1.0000   1.0000   1.0000   1.0000   1.0000   1.0000   1.0000
     1.0000   1.0000   1.0000   1.0000   1.0000   1.0000   1.0000   1.0000

          k = 0.0000-0.5774 0.0000 (  3794 PWs)   bands (ev):

   -66.6011 -66.5988 -33.6117 -33.5951 -33.5931 -33.5837 -33.5827 -33.5632
   -10.6227 -10.2993   1.7332   2.8841   3.0840   3.3485   4.1094   4.4789

     occupation numbers 
     1.0000   1.0000   1.0000   1.0000   1.0000   1.0000   1.0000   1.0000
     1.0000   1.0000   1.0000   1.0000   1.0000   1.0000   1.0000   1.0000

          k = 0.0000-0.5774 0.0904 (  3768 PWs)   bands (ev):

   -66.6010 -66.5989 -33.6144 -33.5985 -33.5913 -33.5819 -33.5795 -33.5639
   -10.6072 -10.3080   1.6624   2.6647   3.2360   3.3854   4.2682   4.4281

     occupation numbers 
     1.0000   1.0000   1.0000   1.0000   1.0000   1.0000   1.0000   1.0000
     1.0000   1.0000   1.0000   1.0000   1.0000   1.0000   1.0000   1.0000

          k = 0.0000-0.5774 0.1807 (  3792 PWs)   bands (ev):

   -66.6008 -66.5992 -33.6183 -33.6067 -33.5843 -33.5798 -33.5747 -33.5661
   -10.5642 -10.3345   1.5485   2.2532   3.4926   3.5878   4.2877   4.4845

     occupation numbers 
     1.0000   1.0000   1.0000   1.0000   1.0000   1.0000   1.0000   1.0000
     1.0000   1.0000   1.0000   1.0000   1.0000   1.0000   1.0000   1.0000

          k = 0.0000-0.5774 0.2711 (  3778 PWs)   bands (ev):

   -66.6004 -66.5995 -33.6200 -33.6138 -33.5779 -33.5767 -33.5726 -33.5692
   -10.5035 -10.3788   1.5164   1.8777   3.6594   3.9910   4.0882   4.5205

     occupation numbers 
     1.0000   1.0000   1.0000   1.0000   1.0000   1.0000   1.0000   1.0000
     1.0000   1.0000   1.0000   1.0000   1.0000   1.0000   1.0000   1.0000

          k = 0.0000-0.5774-0.3615 (  3784 PWs)   bands (ev):

   -66.6000 -66.5999 -33.6184 -33.6184 -33.5737 -33.5737 -33.5729 -33.5729
   -10.4378 -10.4377   1.6227   1.6227   3.8671   3.8671   4.3347   4.3347

     occupation numbers 
     1.0000   1.0000   1.0000   1.0000   1.0000   1.0000   1.0000   1.0000
     1.0000   1.0000   1.0000   1.0000   1.0000   1.0000   1.0000   1.0000

          k = 0.1250 0.0722-0.0000 (  3768 PWs)   bands (ev):

   -66.6041 -66.5978 -33.6300 -33.5777 -33.5759 -33.5756 -33.5644 -33.5611
   -11.2331 -10.2638   1.7742   3.5650   3.7888   4.0052   4.4508   5.0915

     occupation numbers 
     1.0000   1.0000   1.0000   1.0000   1.0000   1.0000   1.0000   1.0000
     1.0000   1.0000   1.0000   1.0000   1.0000   1.0000   1.0000   1.0000

          k = 0.1250 0.0722 0.0904 (  3770 PWs)   bands (ev):

   -66.6039 -66.5980 -33.6282 -33.5785 -33.5770 -33.5753 -33.5642 -33.5617
   -11.1975 -10.3020   1.8355   3.5918   3.8120   3.9275   4.4234   4.9664

     occupation numbers 
     1.0000   1.0000   1.0000   1.0000   1.0000   1.0000   1.0000   1.0000
     1.0000   1.0000   1.0000   1.0000   1.0000   1.0000   1.0000   1.0000

          k = 0.1250 0.0722 0.1807 (  3765 PWs)   bands (ev):

   -66.6032 -66.5987 -33.6230 -33.5856 -33.5750 -33.5737 -33.5646 -33.5633
   -11.0957 -10.4103   2.0194   3.5357   3.8246   3.8789   4.3465   4.6961

     occupation numbers 
     1.0000   1.0000   1.0000   1.0000   1.0000   1.0000   1.0000   1.0000
     1.0000   1.0000   1.0000   1.0000   1.0000   1.0000   1.0000   1.0000

          k = 0.1250 0.0722 0.2711 (  3750 PWs)   bands (ev):

   -66.6022 -66.5997 -33.6150 -33.5950 -33.5722 -33.5713 -33.5663 -33.5657
   -10.9417 -10.5707   2.3211   3.1647   3.9581   3.9813   4.2341   4.4187

     occupation numbers 
     1.0000   1.0000   1.0000   1.0000   1.0000   1.0000   1.0000   1.0000
     1.0000   1.0000   1.0000   1.0000   1.0000   1.0000   1.0000   1.0000

          k = 0.1250 0.0722-0.3615 (  3746 PWs)   bands (ev):

   -66.6010 -66.6009 -33.6053 -33.6053 -33.5691 -33.5690 -33.5685 -33.5685
   -10.7575 -10.7575   2.7200   2.7201   4.1056   4.1056   4.1705   4.1706

     occupation numbers 
     1.0000   1.0000   1.0000   1.0000   1.0000   1.0000   1.0000   1.0000
     1.0000   1.0000   1.0000   1.0000   1.0000   1.0000   1.0000   1.0000

          k = 0.1250 0.0722-0.2711 (  3750 PWs)   bands (ev):

   -66.6022 -66.5997 -33.6150 -33.5950 -33.5722 -33.5713 -33.5663 -33.5657
   -10.9417 -10.5707   2.3211   3.1647   3.9581   3.9813   4.2341   4.4187

     occupation numbers 
     1.0000   1.0000   1.0000   1.0000   1.0000   1.0000   1.0000   1.0000
     1.0000   1.0000   1.0000   1.0000   1.0000   1.0000   1.0000   1.0000

          k = 0.1250 0.0722-0.1807 (  3765 PWs)   bands (ev):

   -66.6032 -66.5987 -33.6230 -33.5856 -33.5750 -33.5737 -33.5646 -33.5633
   -11.0957 -10.4103   2.0194   3.5357   3.8246   3.8789   4.3465   4.6961

     occupation numbers 
     1.0000   1.0000   1.0000   1.0000   1.0000   1.0000   1.0000   1.0000
     1.0000   1.0000   1.0000   1.0000   1.0000   1.0000   1.0000   1.0000

          k = 0.1250 0.0722-0.0904 (  3770 PWs)   bands (ev):

   -66.6039 -66.5980 -33.6282 -33.5785 -33.5770 -33.5753 -33.5642 -33.5617
   -11.1975 -10.3020   1.8355   3.5918   3.8120   3.9274   4.4234   4.9664

     occupation numbers 
     1.0000   1.0000   1.0000   1.0000   1.0000   1.0000   1.0000   1.0000
     1.0000   1.0000   1.0000   1.0000   1.0000   1.0000   1.0000   1.0000

          k = 0.1250 0.2165-0.0000 (  3783 PWs)   bands (ev):

   -66.6034 -66.5979 -33.6259 -33.5821 -33.5795 -33.5787 -33.5696 -33.5621
   -11.0866 -10.2460   2.0385   3.0906   3.2778   3.8841   4.3991   4.9150

     occupation numbers 
     1.0000   1.0000   1.0000   1.0000   1.0000   1.0000   1.0000   1.0000
     1.0000   1.0000   1.0000   1.0000   1.0000   1.0000   1.0000   1.0000

          k = 0.1250 0.2165 0.0904 (  3784 PWs)   bands (ev):

   -66.6032 -66.5981 -33.6248 -33.5833 -33.5810 -33.5781 -33.5681 -33.5627
   -11.0548 -10.2779   2.0378   3.0574   3.3741   3.8326   4.3617   4.8852

     occupation numbers 
     1.0000   1.0000   1.0000   1.0000   1.0000   1.0000   1.0000   1.0000
     1.0000   1.0000   1.0000   1.0000   1.0000   1.0000   1.0000   1.0000

          k = 0.1250 0.2165 0.1807 (  3764 PWs)   bands (ev):

   -66.6026 -66.5987 -33.6215 -33.5910 -33.5781 -33.5763 -33.5668 -33.5645
   -10.9639 -10.3688   2.0695   2.9185   3.6203   3.7744   4.2584   4.7745

     occupation numbers 
     1.0000   1.0000   1.0000   1.0000   1.0000   1.0000   1.0000   1.0000
     1.0000   1.0000   1.0000   1.0000   1.0000   1.0000   1.0000   1.0000

          k = 0.1250 0.2165 0.2711 (  3759 PWs)   bands (ev):

   -66.6017 -66.5996 -33.6160 -33.5999 -33.5743 -33.5737 -33.5676 -33.5671
   -10.8276 -10.5052   2.1834   2.6652   3.8196   3.9340   4.1178   4.5659

     occupation numbers 
     1.0000   1.0000   1.0000   1.0000   1.0000   1.0000   1.0000   1.0000
     1.0000   1.0000   1.0000   1.0000   1.0000   1.0000   1.0000   1.0000

          k = 0.1250 0.2165-0.3615 (  3756 PWs)   bands (ev):

   -66.6007 -66.6006 -33.6086 -33.6086 -33.5712 -33.5712 -33.5696 -33.5695
   -10.6665 -10.6664   2.3927   2.3927   3.9444   3.9445   4.2794   4.2794

     occupation numbers 
     1.0000   1.0000   1.0000   1.0000   1.0000   1.0000   1.0000   1.0000
     1.0000   1.0000   1.0000   1.0000   1.0000   1.0000   1.0000   1.0000

          k = 0.1250 0.2165-0.2711 (  3759 PWs)   bands (ev):

   -66.6017 -66.5996 -33.6160 -33.5999 -33.5743 -33.5737 -33.5676 -33.5671
   -10.8276 -10.5052   2.1834   2.6652   3.8196   3.9340   4.1178   4.5659

     occupation numbers 
     1.0000   1.0000   1.0000   1.0000   1.0000   1.0000   1.0000   1.0000
     1.0000   1.0000   1.0000   1.0000   1.0000   1.0000   1.0000   1.0000

          k = 0.1250 0.2165-0.1807 (  3764 PWs)   bands (ev):

   -66.6026 -66.5987 -33.6215 -33.5910 -33.5781 -33.5763 -33.5668 -33.5645
   -10.9639 -10.3688   2.0695   2.9185   3.6203   3.7744   4.2584   4.7745

     occupation numbers 
     1.0000   1.0000   1.0000   1.0000   1.0000   1.0000   1.0000   1.0000
     1.0000   1.0000   1.0000   1.0000   1.0000   1.0000   1.0000   1.0000

          k = 0.1250 0.2165-0.0904 (  3784 PWs)   bands (ev):

   -66.6032 -66.5981 -33.6248 -33.5833 -33.5810 -33.5781 -33.5681 -33.5627
   -11.0548 -10.2779   2.0378   3.0574   3.3741   3.8326   4.3617   4.8852

     occupation numbers 
     1.0000   1.0000   1.0000   1.0000   1.0000   1.0000   1.0000   1.0000
     1.0000   1.0000   1.0000   1.0000   1.0000   1.0000   1.0000   1.0000

          k = 0.1250 0.3608-0.0000 (  3771 PWs)   bands (ev):

   -66.6022 -66.5983 -33.6188 -33.5886 -33.5859 -33.5831 -33.5763 -33.5637
   -10.8493 -10.2457   2.3194   2.5154   3.0150   3.5822   4.3361   4.5740

     occupation numbers 
     1.0000   1.0000   1.0000   1.0000   1.0000   1.0000   1.0000   1.0000
     1.0000   1.0000   1.0000   1.0000   1.0000   1.0000   1.0000   1.0000

          k = 0.1250 0.3608 0.0904 (  3778 PWs)   bands (ev):

   -66.6021 -66.5984 -33.6192 -33.5914 -33.5862 -33.5819 -33.5735 -33.5644
   -10.8246 -10.2665   2.1759   2.4975   3.2145   3.5208   4.2791   4.6399

     occupation numbers 
     1.0000   1.0000   1.0000   1.0000   1.0000   1.0000   1.0000   1.0000
     1.0000   1.0000   1.0000   1.0000   1.0000   1.0000   1.0000   1.0000

          k = 0.1250 0.3608 0.1807 (  3770 PWs)   bands (ev):

   -66.6016 -66.5989 -33.6193 -33.5995 -33.5819 -33.5794 -33.5703 -33.5663
   -10.7550 -10.3269   1.9987   2.3736   3.4274   3.6471   4.1329   4.7099

     occupation numbers 
     1.0000   1.0000   1.0000   1.0000   1.0000   1.0000   1.0000   1.0000
     1.0000   1.0000   1.0000   1.0000   1.0000   1.0000   1.0000   1.0000

          k = 0.1250 0.3608 0.2711 (  3771 PWs)   bands (ev):

   -66.6010 -66.5995 -33.6178 -33.6074 -33.5777 -33.5755 -33.5701 -33.5686
   -10.6524 -10.4203   1.9328   2.1724   3.5139   3.8912   4.0894   4.6471

     occupation numbers 
     1.0000   1.0000   1.0000   1.0000   1.0000   1.0000   1.0000   1.0000
     1.0000   1.0000   1.0000   1.0000   1.0000   1.0000   1.0000   1.0000

          k = 0.1250 0.3608-0.3615 (  3774 PWs)   bands (ev):

   -66.6003 -66.6002 -33.6137 -33.6137 -33.5742 -33.5742 -33.5706 -33.5706
   -10.5345 -10.5344   1.9998   1.9998   3.6908   3.6909   4.4233   4.4233

     occupation numbers 
     1.0000   1.0000   1.0000   1.0000   1.0000   1.0000   1.0000   1.0000
     1.0000   1.0000   1.0000   1.0000   1.0000   1.0000   1.0000   1.0000

          k = 0.1250 0.3608-0.2711 (  3771 PWs)   bands (ev):

   -66.6010 -66.5995 -33.6178 -33.6074 -33.5777 -33.5755 -33.5701 -33.5686
   -10.6524 -10.4203   1.9328   2.1724   3.5139   3.8912   4.0894   4.6471

     occupation numbers 
     1.0000   1.0000   1.0000   1.0000   1.0000   1.0000   1.0000   1.0000
     1.0000   1.0000   1.0000   1.0000   1.0000   1.0000   1.0000   1.0000

          k = 0.1250 0.3608-0.1807 (  3770 PWs)   bands (ev):

   -66.6016 -66.5989 -33.6193 -33.5995 -33.5819 -33.5794 -33.5703 -33.5663
   -10.7550 -10.3269   1.9987   2.3736   3.4274   3.6471   4.1329   4.7099

     occupation numbers 
     1.0000   1.0000   1.0000   1.0000   1.0000   1.0000   1.0000   1.0000
     1.0000   1.0000   1.0000   1.0000   1.0000   1.0000   1.0000   1.0000

          k = 0.1250 0.3608-0.0904 (  3778 PWs)   bands (ev):

   -66.6021 -66.5984 -33.6192 -33.5915 -33.5862 -33.5819 -33.5735 -33.5644
   -10.8246 -10.2665   2.1759   2.4975   3.2145   3.5208   4.2791   4.6399

     occupation numbers 
     1.0000   1.0000   1.0000   1.0000   1.0000   1.0000   1.0000   1.0000
     1.0000   1.0000   1.0000   1.0000   1.0000   1.0000   1.0000   1.0000

          k = 0.1250 0.5052-0.0000 (  3776 PWs)   bands (ev):

   -66.6011 -66.5988 -33.6116 -33.5939 -33.5924 -33.5848 -33.5821 -33.5647
   -10.6291 -10.2938   1.8598   2.8981   3.0745   3.2702   4.1522   4.3020

     occupation numbers 
     1.0000   1.0000   1.0000   1.0000   1.0000   1.0000   1.0000   1.0000
     1.0000   1.0000   1.0000   1.0000   1.0000   1.0000   1.0000   1.0000

          k = 0.1250 0.5052 0.0904 (  3776 PWs)   bands (ev):

   -66.6010 -66.5989 -33.6139 -33.5983 -33.5902 -33.5831 -33.5786 -33.5655
   -10.6132 -10.3031   1.8069   2.6633   3.1029   3.4433   4.1928   4.3498

     occupation numbers 
     1.0000   1.0000   1.0000   1.0000   1.0000   1.0000   1.0000   1.0000
     1.0000   1.0000   1.0000   1.0000   1.0000   1.0000   1.0000   1.0000

          k = 0.1250 0.5052 0.1807 (  3784 PWs)   bands (ev):

   -66.6008 -66.5992 -33.6175 -33.6062 -33.5849 -33.5797 -33.5741 -33.5674
   -10.5692 -10.3311   1.7080   2.3062   3.1232   3.8281   4.0348   4.5607

     occupation numbers 
     1.0000   1.0000   1.0000   1.0000   1.0000   1.0000   1.0000   1.0000
     1.0000   1.0000   1.0000   1.0000   1.0000   1.0000   1.0000   1.0000

          k = 0.1250 0.5052 0.2711 (  3773 PWs)   bands (ev):

   -66.6004 -66.5995 -33.6191 -33.6132 -33.5803 -33.5751 -33.5729 -33.5695
   -10.5067 -10.3774   1.6684   1.9750   3.2752   3.7773   4.2243   4.6383

     occupation numbers 
     1.0000   1.0000   1.0000   1.0000   1.0000   1.0000   1.0000   1.0000
     1.0000   1.0000   1.0000   1.0000   1.0000   1.0000   1.0000   1.0000

          k = 0.1250 0.5052-0.3615 (  3786 PWs)   bands (ev):

   -66.6000 -66.5999 -33.6177 -33.6177 -33.5763 -33.5763 -33.5711 -33.5711
   -10.4387 -10.4387   1.7526   1.7526   3.5107   3.5107   4.5146   4.5146

     occupation numbers 
     1.0000   1.0000   1.0000   1.0000   1.0000   1.0000   1.0000   1.0000
     1.0000   1.0000   1.0000   1.0000   1.0000   1.0000   1.0000   1.0000

          k = 0.1250 0.5052-0.2711 (  3773 PWs)   bands (ev):

   -66.6004 -66.5995 -33.6191 -33.6132 -33.5803 -33.5751 -33.5729 -33.5695
   -10.5067 -10.3774   1.6684   1.9750   3.2752   3.7773   4.2243   4.6383

     occupation numbers 
     1.0000   1.0000   1.0000   1.0000   1.0000   1.0000   1.0000   1.0000
     1.0000   1.0000   1.0000   1.0000   1.0000   1.0000   1.0000   1.0000

          k = 0.1250 0.5052-0.1807 (  3784 PWs)   bands (ev):

   -66.6008 -66.5992 -33.6175 -33.6062 -33.5849 -33.5797 -33.5741 -33.5674
   -10.5692 -10.3311   1.7080   2.3062   3.1232   3.8281   4.0348   4.5607

     occupation numbers 
     1.0000   1.0000   1.0000   1.0000   1.0000   1.0000   1.0000   1.0000
     1.0000   1.0000   1.0000   1.0000   1.0000   1.0000   1.0000   1.0000

          k = 0.1250 0.5052-0.0904 (  3776 PWs)   bands (ev):

   -66.6010 -66.5989 -33.6139 -33.5983 -33.5902 -33.5831 -33.5786 -33.5655
   -10.6132 -10.3031   1.8069   2.6633   3.1029   3.4433   4.1928   4.3498

     occupation numbers 
     1.0000   1.0000   1.0000   1.0000   1.0000   1.0000   1.0000   1.0000
     1.0000   1.0000   1.0000   1.0000   1.0000   1.0000   1.0000   1.0000

          k = 0.1250-0.5052-0.0000 (  3776 PWs)   bands (ev):

   -66.6011 -66.5988 -33.6116 -33.5939 -33.5924 -33.5848 -33.5821 -33.5647
   -10.6291 -10.2938   1.8598   2.8981   3.0745   3.2702   4.1522   4.3020

     occupation numbers 
     1.0000   1.0000   1.0000   1.0000   1.0000   1.0000   1.0000   1.0000
     1.0000   1.0000   1.0000   1.0000   1.0000   1.0000   1.0000   1.0000

          k = 0.1250-0.5052 0.0904 (  3776 PWs)   bands (ev):

   -66.6010 -66.5989 -33.6139 -33.5983 -33.5902 -33.5831 -33.5786 -33.5655
   -10.6132 -10.3031   1.8069   2.6633   3.1029   3.4433   4.1928   4.3498

     occupation numbers 
     1.0000   1.0000   1.0000   1.0000   1.0000   1.0000   1.0000   1.0000
     1.0000   1.0000   1.0000   1.0000   1.0000   1.0000   1.0000   1.0000

          k = 0.1250-0.5052 0.1807 (  3784 PWs)   bands (ev):

   -66.6008 -66.5992 -33.6175 -33.6062 -33.5849 -33.5797 -33.5741 -33.5674
   -10.5692 -10.3311   1.7080   2.3062   3.1232   3.8281   4.0348   4.5607

     occupation numbers 
     1.0000   1.0000   1.0000   1.0000   1.0000   1.0000   1.0000   1.0000
     1.0000   1.0000   1.0000   1.0000   1.0000   1.0000   1.0000   1.0000

          k = 0.1250-0.5052 0.2711 (  3773 PWs)   bands (ev):

   -66.6004 -66.5995 -33.6191 -33.6132 -33.5803 -33.5751 -33.5729 -33.5695
   -10.5067 -10.3774   1.6684   1.9750   3.2752   3.7773   4.2243   4.6383

     occupation numbers 
     1.0000   1.0000   1.0000   1.0000   1.0000   1.0000   1.0000   1.0000
     1.0000   1.0000   1.0000   1.0000   1.0000   1.0000   1.0000   1.0000

          k = 0.1250-0.5052-0.3615 (  3786 PWs)   bands (ev):

   -66.6000 -66.5999 -33.6177 -33.6177 -33.5763 -33.5763 -33.5711 -33.5711
   -10.4387 -10.4387   1.7526   1.7526   3.5107   3.5107   4.5146   4.5146

     occupation numbers 
     1.0000   1.0000   1.0000   1.0000   1.0000   1.0000   1.0000   1.0000
     1.0000   1.0000   1.0000   1.0000   1.0000   1.0000   1.0000   1.0000

          k = 0.1250-0.5052-0.2711 (  3773 PWs)   bands (ev):

   -66.6004 -66.5995 -33.6191 -33.6132 -33.5803 -33.5751 -33.5729 -33.5695
   -10.5067 -10.3774   1.6684   1.9750   3.2752   3.7773   4.2243   4.6383

     occupation numbers 
     1.0000   1.0000   1.0000   1.0000   1.0000   1.0000   1.0000   1.0000
     1.0000   1.0000   1.0000   1.0000   1.0000   1.0000   1.0000   1.0000

          k = 0.1250-0.5052-0.1807 (  3784 PWs)   bands (ev):

   -66.6008 -66.5992 -33.6175 -33.6062 -33.5849 -33.5797 -33.5741 -33.5674
   -10.5692 -10.3311   1.7080   2.3062   3.1232   3.8281   4.0348   4.5607

     occupation numbers 
     1.0000   1.0000   1.0000   1.0000   1.0000   1.0000   1.0000   1.0000
     1.0000   1.0000   1.0000   1.0000   1.0000   1.0000   1.0000   1.0000

          k = 0.1250-0.5052-0.0904 (  3776 PWs)   bands (ev):

   -66.6010 -66.5989 -33.6139 -33.5983 -33.5902 -33.5831 -33.5786 -33.5655
   -10.6132 -10.3031   1.8069   2.6633   3.1029   3.4433   4.1928   4.3498

     occupation numbers 
     1.0000   1.0000   1.0000   1.0000   1.0000   1.0000   1.0000   1.0000
     1.0000   1.0000   1.0000   1.0000   1.0000   1.0000   1.0000   1.0000

          k = 0.1250-0.3608-0.0000 (  3771 PWs)   bands (ev):

   -66.6022 -66.5983 -33.6188 -33.5886 -33.5859 -33.5831 -33.5763 -33.5637
   -10.8493 -10.2457   2.3194   2.5154   3.0150   3.5822   4.3361   4.5740

     occupation numbers 
     1.0000   1.0000   1.0000   1.0000   1.0000   1.0000   1.0000   1.0000
     1.0000   1.0000   1.0000   1.0000   1.0000   1.0000   1.0000   1.0000

          k = 0.1250-0.3608 0.0904 (  3778 PWs)   bands (ev):

   -66.6021 -66.5984 -33.6192 -33.5915 -33.5862 -33.5819 -33.5735 -33.5644
   -10.8246 -10.2665   2.1759   2.4975   3.2145   3.5208   4.2791   4.6399

     occupation numbers 
     1.0000   1.0000   1.0000   1.0000   1.0000   1.0000   1.0000   1.0000
     1.0000   1.0000   1.0000   1.0000   1.0000   1.0000   1.0000   1.0000

          k = 0.1250-0.3608 0.1807 (  3770 PWs)   bands (ev):

   -66.6016 -66.5989 -33.6193 -33.5995 -33.5819 -33.5794 -33.5703 -33.5663
   -10.7550 -10.3269   1.9987   2.3736   3.4274   3.6471   4.1329   4.7099

     occupation numbers 
     1.0000   1.0000   1.0000   1.0000   1.0000   1.0000   1.0000   1.0000
     1.0000   1.0000   1.0000   1.0000   1.0000   1.0000   1.0000   1.0000

          k = 0.1250-0.3608 0.2711 (  3771 PWs)   bands (ev):

   -66.6010 -66.5995 -33.6178 -33.6074 -33.5777 -33.5755 -33.5701 -33.5686
   -10.6524 -10.4203   1.9328   2.1724   3.5139   3.8912   4.0894   4.6471

     occupation numbers 
     1.0000   1.0000   1.0000   1.0000   1.0000   1.0000   1.0000   1.0000
     1.0000   1.0000   1.0000   1.0000   1.0000   1.0000   1.0000   1.0000

          k = 0.1250-0.3608-0.3615 (  3774 PWs)   bands (ev):

   -66.6003 -66.6002 -33.6137 -33.6137 -33.5742 -33.5742 -33.5706 -33.5706
   -10.5345 -10.5344   1.9998   1.9998   3.6908   3.6909   4.4233   4.4233

[...]
     1.0000   1.0000   1.0000   1.0000   1.0000   1.0000   1.0000   1.0000

          k =-0.5000-0.1443 0.0904 (  3776 PWs)   bands (ev):

   -66.6010 -66.5989 -33.6139 -33.5983 -33.5902 -33.5831 -33.5786 -33.5655
   -10.6132 -10.3031   1.8069   2.6633   3.1029   3.4433   4.1928   4.3498

     occupation numbers 
     1.0000   1.0000   1.0000   1.0000   1.0000   1.0000   1.0000   1.0000
     1.0000   1.0000   1.0000   1.0000   1.0000   1.0000   1.0000   1.0000

          k =-0.5000-0.1443 0.1807 (  3784 PWs)   bands (ev):

   -66.6008 -66.5992 -33.6175 -33.6062 -33.5849 -33.5797 -33.5741 -33.5674
   -10.5691 -10.3311   1.7080   2.3062   3.1232   3.8281   4.0348   4.5607

     occupation numbers 
     1.0000   1.0000   1.0000   1.0000   1.0000   1.0000   1.0000   1.0000
     1.0000   1.0000   1.0000   1.0000   1.0000   1.0000   1.0000   1.0000

          k =-0.5000-0.1443 0.2711 (  3773 PWs)   bands (ev):

   -66.6004 -66.5995 -33.6191 -33.6132 -33.5803 -33.5751 -33.5729 -33.5695
   -10.5067 -10.3774   1.6684   1.9750   3.2752   3.7773   4.2243   4.6383

     occupation numbers 
     1.0000   1.0000   1.0000   1.0000   1.0000   1.0000   1.0000   1.0000
     1.0000   1.0000   1.0000   1.0000   1.0000   1.0000   1.0000   1.0000

          k =-0.5000-0.1443-0.3615 (  3786 PWs)   bands (ev):

   -66.6000 -66.5999 -33.6177 -33.6177 -33.5763 -33.5763 -33.5711 -33.5711
   -10.4387 -10.4387   1.7526   1.7526   3.5107   3.5107   4.5146   4.5146

     occupation numbers 
     1.0000   1.0000   1.0000   1.0000   1.0000   1.0000   1.0000   1.0000
     1.0000   1.0000   1.0000   1.0000   1.0000   1.0000   1.0000   1.0000

          k =-0.5000-0.1443-0.2711 (  3773 PWs)   bands (ev):

   -66.6004 -66.5995 -33.6191 -33.6132 -33.5803 -33.5751 -33.5729 -33.5695
   -10.5067 -10.3774   1.6684   1.9750   3.2752   3.7773   4.2243   4.6383

     occupation numbers 
     1.0000   1.0000   1.0000   1.0000   1.0000   1.0000   1.0000   1.0000
     1.0000   1.0000   1.0000   1.0000   1.0000   1.0000   1.0000   1.0000

          k =-0.5000-0.1443-0.1807 (  3784 PWs)   bands (ev):

   -66.6008 -66.5992 -33.6175 -33.6062 -33.5849 -33.5797 -33.5741 -33.5674
   -10.5691 -10.3311   1.7080   2.3062   3.1232   3.8281   4.0348   4.5607

     occupation numbers 
     1.0000   1.0000   1.0000   1.0000   1.0000   1.0000   1.0000   1.0000
     1.0000   1.0000   1.0000   1.0000   1.0000   1.0000   1.0000   1.0000

          k =-0.5000-0.1443-0.0904 (  3776 PWs)   bands (ev):

   -66.6010 -66.5989 -33.6139 -33.5983 -33.5902 -33.5831 -33.5786 -33.5655
   -10.6132 -10.3031   1.8069   2.6633   3.1029   3.4433   4.1928   4.3498

     occupation numbers 
     1.0000   1.0000   1.0000   1.0000   1.0000   1.0000   1.0000   1.0000
     1.0000   1.0000   1.0000   1.0000   1.0000   1.0000   1.0000   1.0000

          k =-0.5000 0.0000 0.0000 (  3781 PWs)   bands (ev):

   -66.6011 -66.5988 -33.6115 -33.5930 -33.5892 -33.5887 -33.5805 -33.5666
   -10.6354 -10.2886   2.0370   2.7606   3.0743   3.3399   4.0666   4.1995

     occupation numbers 
     1.0000   1.0000   1.0000   1.0000   1.0000   1.0000   1.0000   1.0000
     1.0000   1.0000   1.0000   1.0000   1.0000   1.0000   1.0000   1.0000

          k =-0.5000 0.0000 0.0904 (  3779 PWs)   bands (ev):

   -66.6010 -66.5989 -33.6134 -33.5981 -33.5877 -33.5858 -33.5771 -33.5674
   -10.6191 -10.2984   2.0501   2.4585   3.1854   3.4293   3.9937   4.3584

     occupation numbers 
     1.0000   1.0000   1.0000   1.0000   1.0000   1.0000   1.0000   1.0000
     1.0000   1.0000   1.0000   1.0000   1.0000   1.0000   1.0000   1.0000

          k =-0.5000 0.0000 0.1807 (  3776 PWs)   bands (ev):

   -66.6008 -66.5992 -33.6167 -33.6059 -33.5852 -33.5800 -33.5725 -33.5696
   -10.5739 -10.3277   2.0521   2.1439   2.9904   3.7355   3.9539   4.5943

     occupation numbers 
     1.0000   1.0000   1.0000   1.0000   1.0000   1.0000   1.0000   1.0000
     1.0000   1.0000   1.0000   1.0000   1.0000   1.0000   1.0000   1.0000

          k =-0.5000 0.0000 0.2711 (  3786 PWs)   bands (ev):

   -66.6004 -66.5995 -33.6182 -33.6126 -33.5817 -33.5755 -33.5720 -33.5700
   -10.5097 -10.3761   1.9610   1.9863   3.0001   3.4811   4.3377   4.6998

     occupation numbers 
     1.0000   1.0000   1.0000   1.0000   1.0000   1.0000   1.0000   1.0000
     1.0000   1.0000   1.0000   1.0000   1.0000   1.0000   1.0000   1.0000

          k =-0.5000 0.0000-0.3615 (  3768 PWs)   bands (ev):

   -66.6000 -66.5999 -33.6169 -33.6169 -33.5778 -33.5778 -33.5704 -33.5704
   -10.4397 -10.4396   1.9214   1.9214   3.1998   3.1999   4.6111   4.6111

     occupation numbers 
     1.0000   1.0000   1.0000   1.0000   1.0000   1.0000   1.0000   1.0000
     1.0000   1.0000   1.0000   1.0000   1.0000   1.0000   1.0000   1.0000

          k =-0.5000 0.0000-0.2711 (  3786 PWs)   bands (ev):

   -66.6004 -66.5995 -33.6182 -33.6126 -33.5817 -33.5755 -33.5720 -33.5700
   -10.5097 -10.3761   1.9610   1.9863   3.0001   3.4811   4.3377   4.6998

     occupation numbers 
     1.0000   1.0000   1.0000   1.0000   1.0000   1.0000   1.0000   1.0000
     1.0000   1.0000   1.0000   1.0000   1.0000   1.0000   1.0000   1.0000

          k =-0.5000 0.0000-0.1807 (  3776 PWs)   bands (ev):

   -66.6008 -66.5992 -33.6167 -33.6059 -33.5852 -33.5800 -33.5725 -33.5696
   -10.5739 -10.3277   2.0521   2.1439   2.9904   3.7355   3.9539   4.5943

     occupation numbers 
     1.0000   1.0000   1.0000   1.0000   1.0000   1.0000   1.0000   1.0000
     1.0000   1.0000   1.0000   1.0000   1.0000   1.0000   1.0000   1.0000

          k =-0.5000 0.0000-0.0904 (  3779 PWs)   bands (ev):

   -66.6010 -66.5989 -33.6134 -33.5981 -33.5877 -33.5858 -33.5771 -33.5674
   -10.6191 -10.2984   2.0501   2.4585   3.1854   3.4293   3.9937   4.3584

     occupation numbers 
     1.0000   1.0000   1.0000   1.0000   1.0000   1.0000   1.0000   1.0000
     1.0000   1.0000   1.0000   1.0000   1.0000   1.0000   1.0000   1.0000

          k =-0.5000 0.1443 0.0000 (  3776 PWs)   bands (ev):

   -66.6011 -66.5988 -33.6116 -33.5939 -33.5924 -33.5848 -33.5821 -33.5647
   -10.6291 -10.2938   1.8598   2.8981   3.0745   3.2702   4.1522   4.3020

     occupation numbers 
     1.0000   1.0000   1.0000   1.0000   1.0000   1.0000   1.0000   1.0000
     1.0000   1.0000   1.0000   1.0000   1.0000   1.0000   1.0000   1.0000

          k =-0.5000 0.1443 0.0904 (  3776 PWs)   bands (ev):

   -66.6010 -66.5989 -33.6139 -33.5983 -33.5902 -33.5831 -33.5786 -33.5655
   -10.6132 -10.3031   1.8069   2.6633   3.1029   3.4433   4.1928   4.3498

     occupation numbers 
     1.0000   1.0000   1.0000   1.0000   1.0000   1.0000   1.0000   1.0000
     1.0000   1.0000   1.0000   1.0000   1.0000   1.0000   1.0000   1.0000

          k =-0.5000 0.1443 0.1807 (  3784 PWs)   bands (ev):

   -66.6008 -66.5992 -33.6175 -33.6062 -33.5849 -33.5797 -33.5741 -33.5674
   -10.5691 -10.3311   1.7080   2.3062   3.1232   3.8281   4.0348   4.5607

     occupation numbers 
     1.0000   1.0000   1.0000   1.0000   1.0000   1.0000   1.0000   1.0000
     1.0000   1.0000   1.0000   1.0000   1.0000   1.0000   1.0000   1.0000

          k =-0.5000 0.1443 0.2711 (  3773 PWs)   bands (ev):

   -66.6004 -66.5995 -33.6191 -33.6132 -33.5803 -33.5751 -33.5729 -33.5695
   -10.5067 -10.3774   1.6684   1.9750   3.2752   3.7773   4.2243   4.6383

     occupation numbers 
     1.0000   1.0000   1.0000   1.0000   1.0000   1.0000   1.0000   1.0000
     1.0000   1.0000   1.0000   1.0000   1.0000   1.0000   1.0000   1.0000

          k =-0.5000 0.1443-0.3615 (  3786 PWs)   bands (ev):

   -66.6000 -66.5999 -33.6177 -33.6177 -33.5763 -33.5763 -33.5711 -33.5711
   -10.4387 -10.4387   1.7526   1.7526   3.5107   3.5107   4.5146   4.5146

     occupation numbers 
     1.0000   1.0000   1.0000   1.0000   1.0000   1.0000   1.0000   1.0000
     1.0000   1.0000   1.0000   1.0000   1.0000   1.0000   1.0000   1.0000

          k =-0.5000 0.1443-0.2711 (  3773 PWs)   bands (ev):

   -66.6004 -66.5995 -33.6191 -33.6132 -33.5803 -33.5751 -33.5729 -33.5695
   -10.5067 -10.3774   1.6684   1.9750   3.2752   3.7773   4.2243   4.6383

     occupation numbers 
     1.0000   1.0000   1.0000   1.0000   1.0000   1.0000   1.0000   1.0000
     1.0000   1.0000   1.0000   1.0000   1.0000   1.0000   1.0000   1.0000

          k =-0.5000 0.1443-0.1807 (  3784 PWs)   bands (ev):

   -66.6008 -66.5992 -33.6175 -33.6062 -33.5849 -33.5797 -33.5741 -33.5674
   -10.5691 -10.3311   1.7080   2.3062   3.1232   3.8281   4.0348   4.5607

     occupation numbers 
     1.0000   1.0000   1.0000   1.0000   1.0000   1.0000   1.0000   1.0000
     1.0000   1.0000   1.0000   1.0000   1.0000   1.0000   1.0000   1.0000

          k =-0.5000 0.1443-0.0904 (  3776 PWs)   bands (ev):

   -66.6010 -66.5989 -33.6139 -33.5983 -33.5902 -33.5831 -33.5786 -33.5655
   -10.6132 -10.3031   1.8069   2.6633   3.1029   3.4433   4.1928   4.3498

     occupation numbers 
     1.0000   1.0000   1.0000   1.0000   1.0000   1.0000   1.0000   1.0000
     1.0000   1.0000   1.0000   1.0000   1.0000   1.0000   1.0000   1.0000

          k =-0.5000-0.8660 0.0000 (  3794 PWs)   bands (ev):

   -66.6011 -66.5988 -33.6117 -33.5951 -33.5931 -33.5837 -33.5827 -33.5632
   -10.6227 -10.2993   1.7332   2.8841   3.0840   3.3485   4.1094   4.4789

     occupation numbers 
     1.0000   1.0000   1.0000   1.0000   1.0000   1.0000   1.0000   1.0000
     1.0000   1.0000   1.0000   1.0000   1.0000   1.0000   1.0000   1.0000

          k =-0.5000-0.8660 0.0904 (  3768 PWs)   bands (ev):

   -66.6010 -66.5989 -33.6144 -33.5985 -33.5913 -33.5819 -33.5795 -33.5639
   -10.6072 -10.3080   1.6624   2.6647   3.2361   3.3854   4.2682   4.4281

     occupation numbers 
     1.0000   1.0000   1.0000   1.0000   1.0000   1.0000   1.0000   1.0000
     1.0000   1.0000   1.0000   1.0000   1.0000   1.0000   1.0000   1.0000

          k =-0.5000-0.8660 0.1807 (  3792 PWs)   bands (ev):

   -66.6008 -66.5992 -33.6183 -33.6067 -33.5843 -33.5798 -33.5747 -33.5661
   -10.5642 -10.3345   1.5485   2.2532   3.4926   3.5878   4.2877   4.4845

     occupation numbers 
     1.0000   1.0000   1.0000   1.0000   1.0000   1.0000   1.0000   1.0000
     1.0000   1.0000   1.0000   1.0000   1.0000   1.0000   1.0000   1.0000

          k =-0.5000-0.8660 0.2711 (  3778 PWs)   bands (ev):

   -66.6004 -66.5995 -33.6200 -33.6138 -33.5779 -33.5767 -33.5726 -33.5692
   -10.5035 -10.3788   1.5164   1.8777   3.6594   3.9910   4.0882   4.5205

     occupation numbers 
     1.0000   1.0000   1.0000   1.0000   1.0000   1.0000   1.0000   1.0000
     1.0000   1.0000   1.0000   1.0000   1.0000   1.0000   1.0000   1.0000

          k =-0.5000-0.8660-0.3615 (  3784 PWs)   bands (ev):

   -66.6000 -66.5999 -33.6184 -33.6184 -33.5737 -33.5737 -33.5729 -33.5729
   -10.4378 -10.4377   1.6227   1.6227   3.8671   3.8671   4.3347   4.3347

     occupation numbers 
     1.0000   1.0000   1.0000   1.0000   1.0000   1.0000   1.0000   1.0000
     1.0000   1.0000   1.0000   1.0000   1.0000   1.0000   1.0000   1.0000

     highest occupied level (ev):     5.1786

!    total energy              =    -315.17962589 Ry
     Harris-Foulkes estimate   =    -315.17962505 Ry
     estimated scf accuracy    <       0.00000078 Ry

     The total energy is the sum of the following terms:

     one-electron contribution =    -210.44195649 Ry
     hartree contribution      =     111.72651829 Ry
     xc contribution           =     -48.07049712 Ry
     ewald contribution        =    -168.39369057 Ry

     convergence has been achieved in   6 iterations

     Forces acting on atoms (cartesian axes, Ry/au):

     atom    1 type  2   force =     0.00000031    0.00000111   -0.00487154
     atom    2 type  2   force =    -0.00000015    0.00000143   -0.00487086
     atom    3 type  1   force =    -0.00000265    0.00000109    0.00487242
     atom    4 type  1   force =     0.00000249   -0.00000363    0.00486998
     The non-local contrib.  to forces
     atom    1 type  2   force =    -0.00000057   -0.00000137    0.07052661
     atom    2 type  2   force =    -0.00000059    0.00000218    0.07052656
     atom    3 type  1   force =     0.00000064   -0.00000225    0.14791832
     atom    4 type  1   force =     0.00000113   -0.00000084    0.14791511
     The ionic contribution  to forces
     atom    1 type  2   force =    -0.00000756    0.00002116   -0.97273953
     atom    2 type  2   force =    -0.00000300    0.00000202   -0.97274099
     atom    3 type  1   force =     0.00000344   -0.00001461    0.97274083
     atom    4 type  1   force =     0.00000712   -0.00000857    0.97273969
     The local contribution  to forces
     atom    1 type  2   force =     0.00000926   -0.00002007    0.89702145
     atom    2 type  2   force =     0.00000159   -0.00000051    0.89701284
     atom    3 type  1   force =    -0.00000135    0.00001563   -1.11513388
     atom    4 type  1   force =    -0.00000876    0.00001111   -1.11511989
     The core correction contribution to forces
     atom    1 type  2   force =     0.00000002   -0.00000000   -0.00009131
     atom    2 type  2   force =     0.00000000   -0.00000001   -0.00009132
     atom    3 type  1   force =     0.00000000    0.00000000    0.00000000
     atom    4 type  1   force =     0.00000000    0.00000000    0.00000000
     The Hubbard contrib.    to forces
     atom    1 type  2   force =     0.00000000    0.00000000    0.00000000
     atom    2 type  2   force =     0.00000000    0.00000000    0.00000000
     atom    3 type  1   force =     0.00000000    0.00000000    0.00000000
     atom    4 type  1   force =     0.00000000    0.00000000    0.00000000
     The SCF correction term to forces
     atom    1 type  2   force =     0.00000000    0.00000000    0.00000000
     atom    2 type  2   force =     0.00000000    0.00000000    0.00000000
     atom    3 type  1   force =     0.00000000    0.00000000    0.00000000
     atom    4 type  1   force =     0.00000000    0.00000000    0.00000000

     Total force =     0.000000     Total SCF correction =     0.000000


     Computing stress (Cartesian axis) and pressure

          total   stress  (Ry/bohr**3)                   (kbar)     P=    4.94
   0.00003426   0.00000000  -0.00000000          5.04      0.00     -0.00
   0.00000000   0.00003426  -0.00000000          0.00      5.04     -0.00
  -0.00000000  -0.00000000   0.00003226         -0.00     -0.00      4.74

     kinetic stress (kbar)  19453.13     -0.00     -0.00
                               -0.00  19453.12     -0.00
                               -0.00     -0.00  19505.54

     local   stress (kbar)  -7089.45     -0.02      0.01
                               -0.02  -7089.48     -0.03
                                0.01     -0.03 -12011.89

     nonloc. stress (kbar)   5344.77      0.00      0.00
                                0.00   5344.77      0.00
                                0.00      0.00   5306.84

     hartree stress (kbar)  16743.18      0.01     -0.00
                                0.01  16743.20      0.01
                               -0.00      0.01  19135.06

     exc-cor stress (kbar)  -6915.57      0.00     -0.00
                                0.00  -6915.57      0.00
                               -0.00      0.00  -6917.47

     corecor stress (kbar)   -254.84     -0.00      0.00
                               -0.00   -254.84     -0.00
                                0.00     -0.00   -254.89

     ewald   stress (kbar) -27276.19      0.01     -0.01
                                0.01 -27276.16      0.02
                               -0.01      0.02 -24758.44

     hubbard stress (kbar)      0.00      0.00      0.00
                                0.00      0.00      0.00
                                0.00      0.00      0.00

     london  stress (kbar)      0.00      0.00      0.00
                                0.00      0.00      0.00
                                0.00      0.00      0.00

     DFT-D3  stress (kbar)      0.00      0.00      0.00
                                0.00      0.00      0.00
                                0.00      0.00      0.00

     XDM     stress (kbar)      0.00      0.00      0.00
                                0.00      0.00      0.00
                                0.00      0.00      0.00

     dft-nl  stress (kbar)      0.00      0.00      0.00
                                0.00      0.00      0.00
                                0.00      0.00      0.00

     TS-vdW  stress (kbar)      0.00      0.00      0.00
                                0.00      0.00      0.00
                                0.00      0.00      0.00



     Writing output data file ZnO.save/
 
     init_run     :      0.38s CPU      0.92s WALL (       1 calls)
     electrons    :      4.05s CPU      4.61s WALL (       1 calls)
     forces       :      0.13s CPU      0.14s WALL (       1 calls)
     stress       :      0.24s CPU      0.25s WALL (       1 calls)

     Called by init_run:
     wfcinit      :      0.24s CPU      0.54s WALL (       1 calls)
     wfcinit:atom :      0.00s CPU      0.00s WALL (      65 calls)
     wfcinit:wfcr :      0.23s CPU      0.52s WALL (      65 calls)
     potinit      :      0.06s CPU      0.07s WALL (       1 calls)
     hinit0       :      0.07s CPU      0.24s WALL (       1 calls)

     Called by electrons:
     c_bands      :      3.31s CPU      3.59s WALL (       6 calls)
     sum_band     :      0.51s CPU      0.54s WALL (       6 calls)
     v_of_rho     :      0.19s CPU      0.21s WALL (       7 calls)
     v_h          :      0.00s CPU      0.00s WALL (       7 calls)
     v_xc         :      0.24s CPU      0.26s WALL (       9 calls)
     newd         :      0.03s CPU      0.07s WALL (       7 calls)
     mix_rho      :      0.01s CPU      0.25s WALL (       6 calls)

     Called by c_bands:
     init_us_2    :      0.07s CPU      0.07s WALL (     975 calls)
     cegterg      :      2.99s CPU      3.15s WALL (     390 calls)

     Called by sum_band:
     sum_band:bec :      0.00s CPU      0.01s WALL (     390 calls)
     addusdens    :      0.03s CPU      0.03s WALL (       6 calls)

     Called by *egterg:
     h_psi        :      1.93s CPU      2.03s WALL (    1302 calls)
     s_psi        :      0.07s CPU      0.07s WALL (    1302 calls)
     g_psi        :      0.00s CPU      0.00s WALL (     847 calls)
     cdiaghg      :      0.74s CPU      1.05s WALL (    1237 calls)
     cegterg:over :      0.22s CPU      0.26s WALL (     847 calls)
     cegterg:upda :      0.10s CPU      0.10s WALL (     847 calls)
     cegterg:last :      0.05s CPU      0.06s WALL (     390 calls)
     cdiaghg:chol :      0.06s CPU      0.18s WALL (    1237 calls)
     cdiaghg:inve :      0.02s CPU      0.04s WALL (    1237 calls)
     cdiaghg:para :      0.07s CPU      0.08s WALL (    2474 calls)

     Called by h_psi:
     h_psi:pot    :      1.93s CPU      2.02s WALL (    1302 calls)
     h_psi:calbec :      0.12s CPU      0.13s WALL (    1302 calls)
     vloc_psi     :      1.74s CPU      1.81s WALL (    1302 calls)
     add_vuspsi   :      0.07s CPU      0.08s WALL (    1302 calls)

     General routines
     calbec       :      0.19s CPU      0.21s WALL (    2017 calls)
     fft          :      0.03s CPU      0.15s WALL (     114 calls)
     ffts         :      0.00s CPU      0.00s WALL (      13 calls)
     fftw         :      1.99s CPU      2.06s WALL (   38566 calls)
     interpolate  :      0.00s CPU      0.01s WALL (       7 calls)
 
     Parallel routines
     fft_scatt_xy :      0.31s CPU      0.33s WALL (   38693 calls)
     fft_scatt_yz :      1.00s CPU      1.05s WALL (   38693 calls)
 
     PWSCF        :      5.34s CPU      7.36s WALL

 
   This run was terminated on:  16:19:25  16Jun2022            

=------------------------------------------------------------------------------=
   JOB DONE.
=------------------------------------------------------------------------------=
