
     Program PWSCF v.6.4.1 starts on 15Jun2022 at 20:44:33 

     This program is part of the open-source Quantum ESPRESSO suite
     for quantum simulation of materials; please cite
         "P. Giannozzi et al., J. Phys.:Condens. Matter 21 395502 (2009);
         "P. Giannozzi et al., J. Phys.:Condens. Matter 29 465901 (2017);
          URL http://www.quantum-espresso.org", 
     in publications or presentations arising from this work. More details at
     http://www.quantum-espresso.org/quote

     Parallel version (MPI), running on    64 processors

     MPI processes distributed on     1 nodes
     K-points division:     npool     =       4
     R & G space division:  proc/nbgrp/npool/nimage =      16
     Waiting for input...
     Reading input from standard input
Warning: card &IONS ignored
Warning: card   UPSCALE           = 100.D0, ignored
Warning: card / ignored
Warning: card &CELL ignored
Warning: card   CELL_DYNAMICS     = 'BFGS' ignored
Warning: card   PRESS_CONV_THR    = 0.5D0 ignored
Warning: card   CELL_DOFREE = 'ALL' ignored
Warning: card / ignored

     Current dimensions of program PWSCF are:
     Max number of different atomic species (ntypx) = 10
     Max number of k-points (npk) =  40000
     Max angular momentum in pseudopotentials (lmaxx) =  3

     Subspace diagonalization in iterative solution of the eigenvalue problem:
     one sub-group per band group will be used
     scalapack distributed-memory algorithm (size of sub-group:  2*  2 procs)

 
     Parallelization info
     --------------------
     sticks:   dense  smooth     PW     G-vecs:    dense   smooth      PW
     Min         103      55     17                 4845     1885     325
     Max         104      56     19                 4850     1888     327
     Sum        1663     889    283                77559    30171    5207
 


     bravais-lattice index     =            0
     lattice parameter (alat)  =       6.3426  a.u.
     unit-cell volume          =     312.2337 (a.u.)^3
     number of atoms/cell      =            4
     number of atomic types    =            2
     number of electrons       =        52.00
     number of Kohn-Sham states=           26
     kinetic-energy cutoff     =      80.0000  Ry
     charge density cutoff     =     600.0000  Ry
     convergence threshold     =      1.0E-06
     mixing beta               =       0.5000
     number of iterations used =            8  plain     mixing
     Exchange-correlation      = SLA  PW   PSX  PSC ( 1  4 10  8 0 0)
     Using LIBXC version       =    4   3   4

     celldm(1)=   6.342648  celldm(2)=   0.000000  celldm(3)=   0.000000
     celldm(4)=   0.000000  celldm(5)=   0.000000  celldm(6)=   0.000000

     crystal axes: (cart. coord. in units of alat)
               a(1) = (   1.000000   0.000000  -0.000000 )  
               a(2) = (  -0.500000   0.866025   0.000000 )  
               a(3) = (  -0.000000   0.000000   1.412984 )  

     reciprocal axes: (cart. coord. in units 2 pi/alat)
               b(1) = (  1.000000  0.577350  0.000000 )  
               b(2) = ( -0.000000  1.154700 -0.000000 )  
               b(3) = (  0.000000 -0.000000  0.707722 )  


     PseudoPot. # 1 for Zn read from file:
     ./GBRV_PBEsol/zn_pbesol_v1.uspp.F.UPF
     MD5 check sum: 7d8615e52efe7c1e2b1899de8658bae2
     Pseudo is Ultrasoft, Zval = 20.0
     Generated by new atomic code, or converted to UPF format
     Using radial grid of  943 points,  6 beta functions with: 
                l(1) =   0
                l(2) =   0
                l(3) =   1
                l(4) =   1
                l(5) =   2
                l(6) =   2
     Q(r) pseudized with  8 coefficients,  rinner =    1.100   1.100   1.100
                                                       1.100   1.100

     PseudoPot. # 2 for O  read from file:
     ./GBRV_PBEsol/o_pbesol_v1.2.uspp.F.UPF
     MD5 check sum: 501638753501ef6325af9037351f7734
     Pseudo is Ultrasoft + core correction, Zval =  6.0
     Generated by new atomic code, or converted to UPF format
     Using radial grid of  737 points,  5 beta functions with: 
                l(1) =   0
                l(2) =   0
                l(3) =   1
                l(4) =   1
                l(5) =   2
     Q(r) pseudized with  8 coefficients,  rinner =    0.900   0.900   0.900
                                                       0.900   0.900

     atomic species   valence    mass     pseudopotential
        Zn            20.00    65.38000     Zn( 1.00)
        O              6.00    15.99900     O ( 1.00)

     No symmetry found


                                    s                        frac. trans.

      isym =  1     identity                                     

 cryst.   s( 1) = (     1          0          0      )
                  (     0          1          0      )
                  (     0          0          1      )

 cart.    s( 1) = (  1.0000000 -0.0000000  0.0000000 )
                  ( -0.0000000  1.0000000  0.0000000 )
                  (  0.0000000 -0.0000000  1.0000000 )


   Cartesian axes

     site n.     atom                  positions (alat units)
         1           O   tau(   1) = (   0.5000002   0.2886755   0.0103796  )
         2           O   tau(   2) = (   0.0000000   0.5773495   0.7168717  )
         3           Zn  tau(   3) = (   0.5000000   0.2886748   0.6448214  )
         4           Zn  tau(   4) = (  -0.0000003   0.5773513   1.3513135  )

   Crystallographic axes

     site n.     atom                  positions (cryst. coord.)
         1           O   tau(   1) = (  0.6666670  0.3333337  0.0073459  )
         2           O   tau(   2) = (  0.3333329  0.6666657  0.5073458  )
         3           Zn  tau(   3) = (  0.6666664  0.3333329  0.4563542  )
         4           Zn  tau(   4) = (  0.3333337  0.6666677  0.9563542  )

     number of k points=   260
                       cart. coord. in units 2pi/alat
        k(    1) = (   0.0000000   0.0000000   0.0000000), wk =   0.0039062
        k(    2) = (   0.0000000  -0.0000000   0.0884652), wk =   0.0078125
        k(    3) = (   0.0000000  -0.0000000   0.1769305), wk =   0.0078125
        k(    4) = (   0.0000000  -0.0000000   0.2653957), wk =   0.0078125
        k(    5) = (  -0.0000000   0.0000000  -0.3538610), wk =   0.0039062
        k(    6) = (  -0.0000000   0.1443376  -0.0000000), wk =   0.0078125
        k(    7) = (  -0.0000000   0.1443375   0.0884652), wk =   0.0078125
        k(    8) = (  -0.0000000   0.1443375   0.1769305), wk =   0.0078125
        k(    9) = (   0.0000000   0.1443375   0.2653957), wk =   0.0078125
        k(   10) = (  -0.0000000   0.1443376  -0.3538610), wk =   0.0078125
        k(   11) = (  -0.0000000   0.1443376  -0.2653957), wk =   0.0078125
        k(   12) = (  -0.0000000   0.1443376  -0.1769305), wk =   0.0078125
        k(   13) = (  -0.0000000   0.1443376  -0.0884652), wk =   0.0078125
        k(   14) = (  -0.0000000   0.2886751  -0.0000000), wk =   0.0078125
        k(   15) = (  -0.0000000   0.2886751   0.0884652), wk =   0.0078125
        k(   16) = (  -0.0000000   0.2886751   0.1769305), wk =   0.0078125
        k(   17) = (  -0.0000000   0.2886751   0.2653957), wk =   0.0078125
        k(   18) = (  -0.0000000   0.2886751  -0.3538610), wk =   0.0078125
        k(   19) = (  -0.0000000   0.2886751  -0.2653957), wk =   0.0078125
        k(   20) = (  -0.0000000   0.2886751  -0.1769305), wk =   0.0078125
        k(   21) = (  -0.0000000   0.2886751  -0.0884653), wk =   0.0078125
        k(   22) = (  -0.0000000   0.4330127  -0.0000000), wk =   0.0078125
        k(   23) = (  -0.0000000   0.4330127   0.0884652), wk =   0.0078125
        k(   24) = (  -0.0000000   0.4330127   0.1769305), wk =   0.0078125
        k(   25) = (  -0.0000000   0.4330126   0.2653957), wk =   0.0078125
        k(   26) = (  -0.0000000   0.4330127  -0.3538610), wk =   0.0078125
        k(   27) = (  -0.0000000   0.4330127  -0.2653957), wk =   0.0078125
        k(   28) = (  -0.0000000   0.4330127  -0.1769305), wk =   0.0078125
        k(   29) = (  -0.0000000   0.4330127  -0.0884653), wk =   0.0078125
        k(   30) = (   0.0000000  -0.5773502   0.0000000), wk =   0.0039062
        k(   31) = (   0.0000000  -0.5773502   0.0884653), wk =   0.0078125
        k(   32) = (   0.0000000  -0.5773502   0.1769305), wk =   0.0078125
        k(   33) = (   0.0000000  -0.5773502   0.2653957), wk =   0.0078125
        k(   34) = (   0.0000000  -0.5773502  -0.3538609), wk =   0.0039062
        k(   35) = (   0.1250000   0.0721688   0.0000000), wk =   0.0078125
        k(   36) = (   0.1250000   0.0721688   0.0884652), wk =   0.0078125
        k(   37) = (   0.1250000   0.0721688   0.1769305), wk =   0.0078125
        k(   38) = (   0.1250000   0.0721688   0.2653957), wk =   0.0078125
        k(   39) = (   0.1250000   0.0721688  -0.3538610), wk =   0.0078125
        k(   40) = (   0.1250000   0.0721688  -0.2653957), wk =   0.0078125
        k(   41) = (   0.1250000   0.0721688  -0.1769305), wk =   0.0078125
        k(   42) = (   0.1250000   0.0721688  -0.0884652), wk =   0.0078125
        k(   43) = (   0.1250000   0.2165063  -0.0000000), wk =   0.0078125
        k(   44) = (   0.1250000   0.2165063   0.0884652), wk =   0.0078125
        k(   45) = (   0.1250000   0.2165063   0.1769305), wk =   0.0078125
        k(   46) = (   0.1250000   0.2165063   0.2653957), wk =   0.0078125
        k(   47) = (   0.1250000   0.2165064  -0.3538610), wk =   0.0078125
        k(   48) = (   0.1250000   0.2165064  -0.2653957), wk =   0.0078125
        k(   49) = (   0.1250000   0.2165063  -0.1769305), wk =   0.0078125
        k(   50) = (   0.1250000   0.2165063  -0.0884652), wk =   0.0078125
        k(   51) = (   0.1250000   0.3608439  -0.0000000), wk =   0.0078125
        k(   52) = (   0.1250000   0.3608439   0.0884652), wk =   0.0078125
        k(   53) = (   0.1250000   0.3608439   0.1769305), wk =   0.0078125
        k(   54) = (   0.1250000   0.3608439   0.2653957), wk =   0.0078125
        k(   55) = (   0.1250000   0.3608439  -0.3538610), wk =   0.0078125
        k(   56) = (   0.1250000   0.3608439  -0.2653957), wk =   0.0078125
        k(   57) = (   0.1250000   0.3608439  -0.1769305), wk =   0.0078125
        k(   58) = (   0.1250000   0.3608439  -0.0884653), wk =   0.0078125
        k(   59) = (   0.1250000   0.5051814  -0.0000000), wk =   0.0078125
        k(   60) = (   0.1250000   0.5051814   0.0884652), wk =   0.0078125
        k(   61) = (   0.1250000   0.5051814   0.1769305), wk =   0.0078125
        k(   62) = (   0.1250000   0.5051814   0.2653957), wk =   0.0078125
        k(   63) = (   0.1250000   0.5051815  -0.3538610), wk =   0.0078125
        k(   64) = (   0.1250000   0.5051815  -0.2653957), wk =   0.0078125
        k(   65) = (   0.1250000   0.5051815  -0.1769305), wk =   0.0078125
        k(   66) = (   0.1250000   0.5051815  -0.0884653), wk =   0.0078125
        k(   67) = (   0.1250000  -0.5051814   0.0000000), wk =   0.0078125
        k(   68) = (   0.1250000  -0.5051815   0.0884653), wk =   0.0078125
        k(   69) = (   0.1250000  -0.5051815   0.1769305), wk =   0.0078125
        k(   70) = (   0.1250000  -0.5051815   0.2653958), wk =   0.0078125
        k(   71) = (   0.1250000  -0.5051814  -0.3538609), wk =   0.0078125
        k(   72) = (   0.1250000  -0.5051814  -0.2653957), wk =   0.0078125
        k(   73) = (   0.1250000  -0.5051814  -0.1769305), wk =   0.0078125
        k(   74) = (   0.1250000  -0.5051814  -0.0884652), wk =   0.0078125
        k(   75) = (   0.1250000  -0.3608439   0.0000000), wk =   0.0078125
        k(   76) = (   0.1250000  -0.3608439   0.0884653), wk =   0.0078125
        k(   77) = (   0.1250000  -0.3608439   0.1769305), wk =   0.0078125
        k(   78) = (   0.1250000  -0.3608439   0.2653957), wk =   0.0078125
        k(   79) = (   0.1250000  -0.3608439  -0.3538609), wk =   0.0078125
        k(   80) = (   0.1250000  -0.3608439  -0.2653957), wk =   0.0078125
        k(   81) = (   0.1250000  -0.3608439  -0.1769305), wk =   0.0078125
        k(   82) = (   0.1250000  -0.3608439  -0.0884652), wk =   0.0078125
        k(   83) = (   0.1250000  -0.2165063   0.0000000), wk =   0.0078125
        k(   84) = (   0.1250000  -0.2165063   0.0884653), wk =   0.0078125
        k(   85) = (   0.1250000  -0.2165064   0.1769305), wk =   0.0078125
        k(   86) = (   0.1250000  -0.2165064   0.2653957), wk =   0.0078125
        k(   87) = (   0.1250000  -0.2165063  -0.3538610), wk =   0.0078125
        k(   88) = (   0.1250000  -0.2165063  -0.2653957), wk =   0.0078125
        k(   89) = (   0.1250000  -0.2165063  -0.1769305), wk =   0.0078125
        k(   90) = (   0.1250000  -0.2165063  -0.0884652), wk =   0.0078125
        k(   91) = (   0.1250000  -0.0721688   0.0000000), wk =   0.0078125
        k(   92) = (   0.1250000  -0.0721688   0.0884653), wk =   0.0078125
        k(   93) = (   0.1250000  -0.0721688   0.1769305), wk =   0.0078125
        k(   94) = (   0.1250000  -0.0721688   0.2653957), wk =   0.0078125
        k(   95) = (   0.1250000  -0.0721688  -0.3538610), wk =   0.0078125
        k(   96) = (   0.1250000  -0.0721688  -0.2653957), wk =   0.0078125
        k(   97) = (   0.1250000  -0.0721688  -0.1769305), wk =   0.0078125
        k(   98) = (   0.1250000  -0.0721688  -0.0884652), wk =   0.0078125
        k(   99) = (   0.2500000   0.1443376   0.0000000), wk =   0.0078125
        k(  100) = (   0.2500000   0.1443375   0.0884652), wk =   0.0078125
        k(  101) = (   0.2500000   0.1443375   0.1769305), wk =   0.0078125
        k(  102) = (   0.2500000   0.1443375   0.2653957), wk =   0.0078125
        k(  103) = (   0.2500000   0.1443376  -0.3538610), wk =   0.0078125
        k(  104) = (   0.2500000   0.1443376  -0.2653957), wk =   0.0078125
        k(  105) = (   0.2500000   0.1443376  -0.1769305), wk =   0.0078125
        k(  106) = (   0.2500000   0.1443376  -0.0884652), wk =   0.0078125
        k(  107) = (   0.2500000   0.2886751   0.0000000), wk =   0.0078125
        k(  108) = (   0.2500000   0.2886751   0.0884652), wk =   0.0078125
        k(  109) = (   0.2500000   0.2886751   0.1769305), wk =   0.0078125
        k(  110) = (   0.2500000   0.2886751   0.2653957), wk =   0.0078125
        k(  111) = (   0.2500000   0.2886751  -0.3538610), wk =   0.0078125
        k(  112) = (   0.2500000   0.2886751  -0.2653957), wk =   0.0078125
        k(  113) = (   0.2500000   0.2886751  -0.1769305), wk =   0.0078125
        k(  114) = (   0.2500000   0.2886751  -0.0884652), wk =   0.0078125
        k(  115) = (   0.2500000   0.4330127  -0.0000000), wk =   0.0078125
        k(  116) = (   0.2500000   0.4330127   0.0884652), wk =   0.0078125
        k(  117) = (   0.2500000   0.4330127   0.1769305), wk =   0.0078125
        k(  118) = (   0.2500000   0.4330126   0.2653957), wk =   0.0078125
        k(  119) = (   0.2500000   0.4330127  -0.3538610), wk =   0.0078125
        k(  120) = (   0.2500000   0.4330127  -0.2653957), wk =   0.0078125
        k(  121) = (   0.2500000   0.4330127  -0.1769305), wk =   0.0078125
        k(  122) = (   0.2500000   0.4330127  -0.0884652), wk =   0.0078125
        k(  123) = (   0.2500000   0.5773502  -0.0000000), wk =   0.0078125
        k(  124) = (   0.2500000   0.5773502   0.0884652), wk =   0.0078125
        k(  125) = (   0.2500000   0.5773502   0.1769305), wk =   0.0078125
        k(  126) = (   0.2500000   0.5773502   0.2653957), wk =   0.0078125
        k(  127) = (   0.2500000   0.5773503  -0.3538610), wk =   0.0078125
        k(  128) = (   0.2500000   0.5773502  -0.2653957), wk =   0.0078125
        k(  129) = (   0.2500000   0.5773502  -0.1769305), wk =   0.0078125
        k(  130) = (   0.2500000   0.5773502  -0.0884653), wk =   0.0078125
        k(  131) = (   0.2500000  -0.4330127   0.0000000), wk =   0.0078125
        k(  132) = (   0.2500000  -0.4330127   0.0884653), wk =   0.0078125
        k(  133) = (   0.2500000  -0.4330127   0.1769305), wk =   0.0078125
        k(  134) = (   0.2500000  -0.4330127   0.2653958), wk =   0.0078125
        k(  135) = (   0.2500000  -0.4330126  -0.3538609), wk =   0.0078125
        k(  136) = (   0.2500000  -0.4330127  -0.2653957), wk =   0.0078125
        k(  137) = (   0.2500000  -0.4330127  -0.1769305), wk =   0.0078125
        k(  138) = (   0.2500000  -0.4330127  -0.0884652), wk =   0.0078125
        k(  139) = (   0.2500000  -0.2886751   0.0000000), wk =   0.0078125
        k(  140) = (   0.2500000  -0.2886751   0.0884653), wk =   0.0078125
        k(  141) = (   0.2500000  -0.2886751   0.1769305), wk =   0.0078125
        k(  142) = (   0.2500000  -0.2886751   0.2653957), wk =   0.0078125
        k(  143) = (   0.2500000  -0.2886751  -0.3538609), wk =   0.0078125
        k(  144) = (   0.2500000  -0.2886751  -0.2653957), wk =   0.0078125
        k(  145) = (   0.2500000  -0.2886751  -0.1769305), wk =   0.0078125
        k(  146) = (   0.2500000  -0.2886751  -0.0884652), wk =   0.0078125
        k(  147) = (   0.2500000  -0.1443376   0.0000000), wk =   0.0078125
        k(  148) = (   0.2500000  -0.1443376   0.0884653), wk =   0.0078125
        k(  149) = (   0.2500000  -0.1443376   0.1769305), wk =   0.0078125
        k(  150) = (   0.2500000  -0.1443376   0.2653957), wk =   0.0078125
        k(  151) = (   0.2500000  -0.1443375  -0.3538609), wk =   0.0078125
        k(  152) = (   0.2500000  -0.1443375  -0.2653957), wk =   0.0078125
        k(  153) = (   0.2500000  -0.1443375  -0.1769305), wk =   0.0078125
        k(  154) = (   0.2500000  -0.1443376  -0.0884652), wk =   0.0078125
        k(  155) = (   0.2500000  -0.0000000   0.0000000), wk =   0.0078125
        k(  156) = (   0.2500000  -0.0000000   0.0884653), wk =   0.0078125
        k(  157) = (   0.2500000  -0.0000000   0.1769305), wk =   0.0078125
        k(  158) = (   0.2500000  -0.0000000   0.2653957), wk =   0.0078125
        k(  159) = (   0.2500000   0.0000000  -0.3538610), wk =   0.0078125
        k(  160) = (   0.2500000   0.0000000  -0.2653957), wk =   0.0078125
        k(  161) = (   0.2500000   0.0000000  -0.1769305), wk =   0.0078125
        k(  162) = (   0.2500000   0.0000000  -0.0884652), wk =   0.0078125
        k(  163) = (   0.3750000   0.2165063   0.0000000), wk =   0.0078125
        k(  164) = (   0.3750000   0.2165063   0.0884653), wk =   0.0078125
        k(  165) = (   0.3750000   0.2165063   0.1769305), wk =   0.0078125
        k(  166) = (   0.3750000   0.2165063   0.2653957), wk =   0.0078125
        k(  167) = (   0.3750000   0.2165064  -0.3538610), wk =   0.0078125
        k(  168) = (   0.3750000   0.2165064  -0.2653957), wk =   0.0078125
        k(  169) = (   0.3750000   0.2165063  -0.1769305), wk =   0.0078125
        k(  170) = (   0.3750000   0.2165063  -0.0884652), wk =   0.0078125
        k(  171) = (   0.3750000   0.3608439   0.0000000), wk =   0.0078125
        k(  172) = (   0.3750000   0.3608439   0.0884652), wk =   0.0078125
        k(  173) = (   0.3750000   0.3608439   0.1769305), wk =   0.0078125
        k(  174) = (   0.3750000   0.3608439   0.2653957), wk =   0.0078125
        k(  175) = (   0.3750000   0.3608439  -0.3538610), wk =   0.0078125
        k(  176) = (   0.3750000   0.3608439  -0.2653957), wk =   0.0078125
        k(  177) = (   0.3750000   0.3608439  -0.1769305), wk =   0.0078125
        k(  178) = (   0.3750000   0.3608439  -0.0884652), wk =   0.0078125
        k(  179) = (   0.3750000   0.5051814  -0.0000000), wk =   0.0078125
        k(  180) = (   0.3750000   0.5051814   0.0884652), wk =   0.0078125
        k(  181) = (   0.3750000   0.5051814   0.1769305), wk =   0.0078125
        k(  182) = (   0.3750000   0.5051814   0.2653957), wk =   0.0078125
        k(  183) = (   0.3750000   0.5051815  -0.3538610), wk =   0.0078125
        k(  184) = (   0.3750000   0.5051815  -0.2653957), wk =   0.0078125
        k(  185) = (   0.3750000   0.5051815  -0.1769305), wk =   0.0078125
        k(  186) = (   0.3750000   0.5051814  -0.0884652), wk =   0.0078125
        k(  187) = (   0.3750000   0.6495190  -0.0000000), wk =   0.0078125
        k(  188) = (   0.3750000   0.6495190   0.0884652), wk =   0.0078125
        k(  189) = (   0.3750000   0.6495190   0.1769305), wk =   0.0078125
        k(  190) = (   0.3750000   0.6495190   0.2653957), wk =   0.0078125
        k(  191) = (   0.3750000   0.6495190  -0.3538610), wk =   0.0078125
        k(  192) = (   0.3750000   0.6495190  -0.2653957), wk =   0.0078125
        k(  193) = (   0.3750000   0.6495190  -0.1769305), wk =   0.0078125
        k(  194) = (   0.3750000   0.6495190  -0.0884652), wk =   0.0078125
        k(  195) = (   0.3750000  -0.3608439   0.0000000), wk =   0.0078125
        k(  196) = (   0.3750000  -0.3608439   0.0884653), wk =   0.0078125
        k(  197) = (   0.3750000  -0.3608439   0.1769305), wk =   0.0078125
        k(  198) = (   0.3750000  -0.3608439   0.2653958), wk =   0.0078125
        k(  199) = (   0.3750000  -0.3608439  -0.3538609), wk =   0.0078125
        k(  200) = (   0.3750000  -0.3608439  -0.2653957), wk =   0.0078125
        k(  201) = (   0.3750000  -0.3608439  -0.1769304), wk =   0.0078125
        k(  202) = (   0.3750000  -0.3608439  -0.0884652), wk =   0.0078125
        k(  203) = (   0.3750000  -0.2165063   0.0000000), wk =   0.0078125
        k(  204) = (   0.3750000  -0.2165063   0.0884653), wk =   0.0078125
        k(  205) = (   0.3750000  -0.2165064   0.1769305), wk =   0.0078125
        k(  206) = (   0.3750000  -0.2165064   0.2653958), wk =   0.0078125
        k(  207) = (   0.3750000  -0.2165063  -0.3538609), wk =   0.0078125
        k(  208) = (   0.3750000  -0.2165063  -0.2653957), wk =   0.0078125
        k(  209) = (   0.3750000  -0.2165063  -0.1769305), wk =   0.0078125
        k(  210) = (   0.3750000  -0.2165063  -0.0884652), wk =   0.0078125
        k(  211) = (   0.3750000  -0.0721688   0.0000000), wk =   0.0078125
        k(  212) = (   0.3750000  -0.0721688   0.0884653), wk =   0.0078125
        k(  213) = (   0.3750000  -0.0721688   0.1769305), wk =   0.0078125
        k(  214) = (   0.3750000  -0.0721688   0.2653957), wk =   0.0078125
        k(  215) = (   0.3750000  -0.0721688  -0.3538609), wk =   0.0078125
        k(  216) = (   0.3750000  -0.0721688  -0.2653957), wk =   0.0078125
        k(  217) = (   0.3750000  -0.0721688  -0.1769305), wk =   0.0078125
        k(  218) = (   0.3750000  -0.0721688  -0.0884652), wk =   0.0078125
        k(  219) = (   0.3750000   0.0721688   0.0000000), wk =   0.0078125
        k(  220) = (   0.3750000   0.0721688   0.0884653), wk =   0.0078125
        k(  221) = (   0.3750000   0.0721688   0.1769305), wk =   0.0078125
        k(  222) = (   0.3750000   0.0721688   0.2653957), wk =   0.0078125
        k(  223) = (   0.3750000   0.0721688  -0.3538610), wk =   0.0078125
        k(  224) = (   0.3750000   0.0721688  -0.2653957), wk =   0.0078125
        k(  225) = (   0.3750000   0.0721688  -0.1769305), wk =   0.0078125
        k(  226) = (   0.3750000   0.0721688  -0.0884652), wk =   0.0078125
        k(  227) = (  -0.5000000  -0.2886751  -0.0000000), wk =   0.0039062
        k(  228) = (  -0.5000000  -0.2886751   0.0884652), wk =   0.0078125
        k(  229) = (  -0.5000000  -0.2886751   0.1769305), wk =   0.0078125
        k(  230) = (  -0.5000000  -0.2886751   0.2653957), wk =   0.0078125
        k(  231) = (  -0.5000000  -0.2886751  -0.3538610), wk =   0.0039062
        k(  232) = (  -0.5000000  -0.1443375  -0.0000000), wk =   0.0078125
        k(  233) = (  -0.5000000  -0.1443376   0.0884652), wk =   0.0078125
        k(  234) = (  -0.5000000  -0.1443376   0.1769305), wk =   0.0078125
        k(  235) = (  -0.5000000  -0.1443376   0.2653957), wk =   0.0078125
        k(  236) = (  -0.5000000  -0.1443375  -0.3538610), wk =   0.0078125
        k(  237) = (  -0.5000000  -0.1443375  -0.2653957), wk =   0.0078125
        k(  238) = (  -0.5000000  -0.1443375  -0.1769305), wk =   0.0078125
        k(  239) = (  -0.5000000  -0.1443375  -0.0884653), wk =   0.0078125
        k(  240) = (  -0.5000000   0.0000000  -0.0000000), wk =   0.0078125
        k(  241) = (  -0.5000000  -0.0000000   0.0884652), wk =   0.0078125
        k(  242) = (  -0.5000000  -0.0000000   0.1769305), wk =   0.0078125
        k(  243) = (  -0.5000000  -0.0000000   0.2653957), wk =   0.0078125
        k(  244) = (  -0.5000000   0.0000000  -0.3538610), wk =   0.0078125
        k(  245) = (  -0.5000000   0.0000000  -0.2653957), wk =   0.0078125
        k(  246) = (  -0.5000000   0.0000000  -0.1769305), wk =   0.0078125
        k(  247) = (  -0.5000000   0.0000000  -0.0884653), wk =   0.0078125
        k(  248) = (  -0.5000000   0.1443376  -0.0000000), wk =   0.0078125
        k(  249) = (  -0.5000000   0.1443376   0.0884652), wk =   0.0078125
        k(  250) = (  -0.5000000   0.1443375   0.1769305), wk =   0.0078125
        k(  251) = (  -0.5000000   0.1443375   0.2653957), wk =   0.0078125
        k(  252) = (  -0.5000000   0.1443376  -0.3538610), wk =   0.0078125
        k(  253) = (  -0.5000000   0.1443376  -0.2653958), wk =   0.0078125
        k(  254) = (  -0.5000000   0.1443376  -0.1769305), wk =   0.0078125
        k(  255) = (  -0.5000000   0.1443376  -0.0884653), wk =   0.0078125
        k(  256) = (  -0.5000000  -0.8660253   0.0000000), wk =   0.0039062
        k(  257) = (  -0.5000000  -0.8660253   0.0884653), wk =   0.0078125
        k(  258) = (  -0.5000000  -0.8660253   0.1769305), wk =   0.0078125
        k(  259) = (  -0.5000000  -0.8660254   0.2653957), wk =   0.0078125
        k(  260) = (  -0.5000000  -0.8660253  -0.3538610), wk =   0.0039062

                       cryst. coord.
        k(    1) = (   0.0000000   0.0000000   0.0000000), wk =   0.0039062
        k(    2) = (   0.0000000  -0.0000000   0.1250000), wk =   0.0078125
        k(    3) = (   0.0000000  -0.0000000   0.2500000), wk =   0.0078125
        k(    4) = (   0.0000000  -0.0000000   0.3750000), wk =   0.0078125
        k(    5) = (  -0.0000000   0.0000000  -0.5000000), wk =   0.0039062
        k(    6) = (  -0.0000000   0.1250000   0.0000000), wk =   0.0078125
        k(    7) = (  -0.0000000   0.1250000   0.1250000), wk =   0.0078125
        k(    8) = (   0.0000000   0.1250000   0.2500000), wk =   0.0078125
        k(    9) = (   0.0000000   0.1250000   0.3750000), wk =   0.0078125
        k(   10) = (   0.0000000   0.1250000  -0.5000000), wk =   0.0078125
        k(   11) = (  -0.0000000   0.1250000  -0.3750000), wk =   0.0078125
        k(   12) = (  -0.0000000   0.1250000  -0.2500000), wk =   0.0078125
        k(   13) = (   0.0000000   0.1250000  -0.1250000), wk =   0.0078125
        k(   14) = (  -0.0000000   0.2500000   0.0000000), wk =   0.0078125
        k(   15) = (  -0.0000000   0.2500000   0.1250000), wk =   0.0078125
        k(   16) = (  -0.0000000   0.2500000   0.2500000), wk =   0.0078125
        k(   17) = (  -0.0000000   0.2500000   0.3750000), wk =   0.0078125
        k(   18) = (  -0.0000000   0.2500000  -0.5000000), wk =   0.0078125
        k(   19) = (  -0.0000000   0.2500000  -0.3750000), wk =   0.0078125
        k(   20) = (   0.0000000   0.2500000  -0.2500000), wk =   0.0078125
        k(   21) = (   0.0000000   0.2500000  -0.1250000), wk =   0.0078125
        k(   22) = (  -0.0000000   0.3750000   0.0000000), wk =   0.0078125
        k(   23) = (  -0.0000000   0.3750000   0.1250000), wk =   0.0078125
        k(   24) = (  -0.0000000   0.3750000   0.2500000), wk =   0.0078125
        k(   25) = (  -0.0000000   0.3750000   0.3750000), wk =   0.0078125
        k(   26) = (  -0.0000000   0.3750000  -0.5000000), wk =   0.0078125
        k(   27) = (   0.0000000   0.3750000  -0.3750000), wk =   0.0078125
        k(   28) = (  -0.0000000   0.3750000  -0.2500000), wk =   0.0078125
        k(   29) = (  -0.0000000   0.3750000  -0.1250000), wk =   0.0078125
        k(   30) = (   0.0000000  -0.5000000  -0.0000000), wk =   0.0039062
        k(   31) = (   0.0000000  -0.5000000   0.1250000), wk =   0.0078125
        k(   32) = (  -0.0000000  -0.5000000   0.2500000), wk =   0.0078125
        k(   33) = (  -0.0000000  -0.5000000   0.3750000), wk =   0.0078125
        k(   34) = (   0.0000000  -0.5000000  -0.5000000), wk =   0.0039062
        k(   35) = (   0.1250000   0.0000000   0.0000000), wk =   0.0078125
        k(   36) = (   0.1250000   0.0000000   0.1250000), wk =   0.0078125
        k(   37) = (   0.1250000   0.0000000   0.2500000), wk =   0.0078125
        k(   38) = (   0.1250000   0.0000000   0.3750000), wk =   0.0078125
        k(   39) = (   0.1250000   0.0000000  -0.5000000), wk =   0.0078125
        k(   40) = (   0.1250000  -0.0000000  -0.3750000), wk =   0.0078125
        k(   41) = (   0.1250000   0.0000000  -0.2500000), wk =   0.0078125
        k(   42) = (   0.1250000   0.0000000  -0.1250000), wk =   0.0078125
        k(   43) = (   0.1250000   0.1250000   0.0000000), wk =   0.0078125
        k(   44) = (   0.1250000   0.1250000   0.1250000), wk =   0.0078125
        k(   45) = (   0.1250000   0.1250000   0.2500000), wk =   0.0078125
        k(   46) = (   0.1250000   0.1250000   0.3750000), wk =   0.0078125
        k(   47) = (   0.1250000   0.1250000  -0.5000000), wk =   0.0078125
        k(   48) = (   0.1250000   0.1250000  -0.3750000), wk =   0.0078125
        k(   49) = (   0.1250000   0.1250000  -0.2500000), wk =   0.0078125
        k(   50) = (   0.1250000   0.1250000  -0.1250000), wk =   0.0078125
        k(   51) = (   0.1250000   0.2500000   0.0000000), wk =   0.0078125
        k(   52) = (   0.1250000   0.2500000   0.1250000), wk =   0.0078125
        k(   53) = (   0.1250000   0.2500000   0.2500000), wk =   0.0078125
        k(   54) = (   0.1250000   0.2500000   0.3750000), wk =   0.0078125
        k(   55) = (   0.1250000   0.2500000  -0.5000000), wk =   0.0078125
        k(   56) = (   0.1250000   0.2500000  -0.3750000), wk =   0.0078125
        k(   57) = (   0.1250000   0.2500000  -0.2500000), wk =   0.0078125
        k(   58) = (   0.1250000   0.2500000  -0.1250000), wk =   0.0078125
        k(   59) = (   0.1250000   0.3750000   0.0000000), wk =   0.0078125
        k(   60) = (   0.1250000   0.3750000   0.1250000), wk =   0.0078125
        k(   61) = (   0.1250000   0.3750000   0.2500000), wk =   0.0078125
        k(   62) = (   0.1250000   0.3750000   0.3750000), wk =   0.0078125
        k(   63) = (   0.1250000   0.3750000  -0.5000000), wk =   0.0078125
        k(   64) = (   0.1250000   0.3750000  -0.3750000), wk =   0.0078125
        k(   65) = (   0.1250000   0.3750000  -0.2500000), wk =   0.0078125
        k(   66) = (   0.1250000   0.3750000  -0.1250000), wk =   0.0078125
        k(   67) = (   0.1250000  -0.5000000   0.0000000), wk =   0.0078125
        k(   68) = (   0.1250000  -0.5000000   0.1250000), wk =   0.0078125
        k(   69) = (   0.1250000  -0.5000000   0.2500000), wk =   0.0078125
        k(   70) = (   0.1250000  -0.5000000   0.3750000), wk =   0.0078125
        k(   71) = (   0.1250000  -0.5000000  -0.5000000), wk =   0.0078125
        k(   72) = (   0.1250000  -0.5000000  -0.3750000), wk =   0.0078125
        k(   73) = (   0.1250000  -0.5000000  -0.2500000), wk =   0.0078125
        k(   74) = (   0.1250000  -0.5000000  -0.1250000), wk =   0.0078125
        k(   75) = (   0.1250000  -0.3750000  -0.0000000), wk =   0.0078125
        k(   76) = (   0.1250000  -0.3750000   0.1250000), wk =   0.0078125
        k(   77) = (   0.1250000  -0.3750000   0.2500000), wk =   0.0078125
        k(   78) = (   0.1250000  -0.3750000   0.3750000), wk =   0.0078125
        k(   79) = (   0.1250000  -0.3750000  -0.5000000), wk =   0.0078125
        k(   80) = (   0.1250000  -0.3750000  -0.3750000), wk =   0.0078125
        k(   81) = (   0.1250000  -0.3750000  -0.2500000), wk =   0.0078125
        k(   82) = (   0.1250000  -0.3750000  -0.1250000), wk =   0.0078125
        k(   83) = (   0.1250000  -0.2500000   0.0000000), wk =   0.0078125
        k(   84) = (   0.1250000  -0.2500000   0.1250000), wk =   0.0078125
        k(   85) = (   0.1250000  -0.2500000   0.2500000), wk =   0.0078125
        k(   86) = (   0.1250000  -0.2500000   0.3750000), wk =   0.0078125
        k(   87) = (   0.1250000  -0.2500000  -0.5000000), wk =   0.0078125
        k(   88) = (   0.1250000  -0.2500000  -0.3750000), wk =   0.0078125
        k(   89) = (   0.1250000  -0.2500000  -0.2500000), wk =   0.0078125
        k(   90) = (   0.1250000  -0.2500000  -0.1250000), wk =   0.0078125
        k(   91) = (   0.1250000  -0.1250000   0.0000000), wk =   0.0078125
        k(   92) = (   0.1250000  -0.1250000   0.1250000), wk =   0.0078125
        k(   93) = (   0.1250000  -0.1250000   0.2500000), wk =   0.0078125
        k(   94) = (   0.1250000  -0.1250000   0.3750000), wk =   0.0078125
        k(   95) = (   0.1250000  -0.1250000  -0.5000000), wk =   0.0078125
        k(   96) = (   0.1250000  -0.1250000  -0.3750000), wk =   0.0078125
        k(   97) = (   0.1250000  -0.1250000  -0.2500000), wk =   0.0078125
        k(   98) = (   0.1250000  -0.1250000  -0.1250000), wk =   0.0078125
        k(   99) = (   0.2500000   0.0000000   0.0000000), wk =   0.0078125
        k(  100) = (   0.2500000   0.0000000   0.1250000), wk =   0.0078125
        k(  101) = (   0.2500000   0.0000000   0.2500000), wk =   0.0078125
        k(  102) = (   0.2500000   0.0000000   0.3750000), wk =   0.0078125
        k(  103) = (   0.2500000   0.0000000  -0.5000000), wk =   0.0078125
        k(  104) = (   0.2500000   0.0000000  -0.3750000), wk =   0.0078125
        k(  105) = (   0.2500000   0.0000000  -0.2500000), wk =   0.0078125
        k(  106) = (   0.2500000   0.0000000  -0.1250000), wk =   0.0078125
        k(  107) = (   0.2500000   0.1250000   0.0000000), wk =   0.0078125
        k(  108) = (   0.2500000   0.1250000   0.1250000), wk =   0.0078125
        k(  109) = (   0.2500000   0.1250000   0.2500000), wk =   0.0078125
        k(  110) = (   0.2500000   0.1250000   0.3750000), wk =   0.0078125
        k(  111) = (   0.2500000   0.1250000  -0.5000000), wk =   0.0078125
        k(  112) = (   0.2500000   0.1250000  -0.3750000), wk =   0.0078125
        k(  113) = (   0.2500000   0.1250000  -0.2500000), wk =   0.0078125
        k(  114) = (   0.2500000   0.1250000  -0.1250000), wk =   0.0078125
        k(  115) = (   0.2500000   0.2500000   0.0000000), wk =   0.0078125
        k(  116) = (   0.2500000   0.2500000   0.1250000), wk =   0.0078125
        k(  117) = (   0.2500000   0.2500000   0.2500000), wk =   0.0078125
        k(  118) = (   0.2500000   0.2500000   0.3750000), wk =   0.0078125
        k(  119) = (   0.2500000   0.2500000  -0.5000000), wk =   0.0078125
        k(  120) = (   0.2500000   0.2500000  -0.3750000), wk =   0.0078125
        k(  121) = (   0.2500000   0.2500000  -0.2500000), wk =   0.0078125
        k(  122) = (   0.2500000   0.2500000  -0.1250000), wk =   0.0078125
        k(  123) = (   0.2500000   0.3750000   0.0000000), wk =   0.0078125
        k(  124) = (   0.2500000   0.3750000   0.1250000), wk =   0.0078125
        k(  125) = (   0.2500000   0.3750000   0.2500000), wk =   0.0078125
        k(  126) = (   0.2500000   0.3750000   0.3750000), wk =   0.0078125
        k(  127) = (   0.2500000   0.3750000  -0.5000000), wk =   0.0078125
        k(  128) = (   0.2500000   0.3750000  -0.3750000), wk =   0.0078125
        k(  129) = (   0.2500000   0.3750000  -0.2500000), wk =   0.0078125
        k(  130) = (   0.2500000   0.3750000  -0.1250000), wk =   0.0078125
        k(  131) = (   0.2500000  -0.5000000   0.0000000), wk =   0.0078125
        k(  132) = (   0.2500000  -0.5000000   0.1250000), wk =   0.0078125
        k(  133) = (   0.2500000  -0.5000000   0.2500000), wk =   0.0078125
        k(  134) = (   0.2500000  -0.5000000   0.3750000), wk =   0.0078125
        k(  135) = (   0.2500000  -0.5000000  -0.5000000), wk =   0.0078125
        k(  136) = (   0.2500000  -0.5000000  -0.3750000), wk =   0.0078125
        k(  137) = (   0.2500000  -0.5000000  -0.2500000), wk =   0.0078125
        k(  138) = (   0.2500000  -0.5000000  -0.1250000), wk =   0.0078125
        k(  139) = (   0.2500000  -0.3750000  -0.0000000), wk =   0.0078125
        k(  140) = (   0.2500000  -0.3750000   0.1250000), wk =   0.0078125
        k(  141) = (   0.2500000  -0.3750000   0.2500000), wk =   0.0078125
        k(  142) = (   0.2500000  -0.3750000   0.3750000), wk =   0.0078125
        k(  143) = (   0.2500000  -0.3750000  -0.5000000), wk =   0.0078125
        k(  144) = (   0.2500000  -0.3750000  -0.3750000), wk =   0.0078125
        k(  145) = (   0.2500000  -0.3750000  -0.2500000), wk =   0.0078125
        k(  146) = (   0.2500000  -0.3750000  -0.1250000), wk =   0.0078125
        k(  147) = (   0.2500000  -0.2500000   0.0000000), wk =   0.0078125
        k(  148) = (   0.2500000  -0.2500000   0.1250000), wk =   0.0078125
        k(  149) = (   0.2500000  -0.2500000   0.2500000), wk =   0.0078125
        k(  150) = (   0.2500000  -0.2500000   0.3750000), wk =   0.0078125
        k(  151) = (   0.2500000  -0.2500000  -0.5000000), wk =   0.0078125
        k(  152) = (   0.2500000  -0.2500000  -0.3750000), wk =   0.0078125
        k(  153) = (   0.2500000  -0.2500000  -0.2500000), wk =   0.0078125
        k(  154) = (   0.2500000  -0.2500000  -0.1250000), wk =   0.0078125
        k(  155) = (   0.2500000  -0.1250000   0.0000000), wk =   0.0078125
        k(  156) = (   0.2500000  -0.1250000   0.1250000), wk =   0.0078125
        k(  157) = (   0.2500000  -0.1250000   0.2500000), wk =   0.0078125
        k(  158) = (   0.2500000  -0.1250000   0.3750000), wk =   0.0078125
        k(  159) = (   0.2500000  -0.1250000  -0.5000000), wk =   0.0078125
        k(  160) = (   0.2500000  -0.1250000  -0.3750000), wk =   0.0078125
        k(  161) = (   0.2500000  -0.1250000  -0.2500000), wk =   0.0078125
        k(  162) = (   0.2500000  -0.1250000  -0.1250000), wk =   0.0078125
        k(  163) = (   0.3750000   0.0000000   0.0000000), wk =   0.0078125
        k(  164) = (   0.3750000  -0.0000000   0.1250000), wk =   0.0078125
        k(  165) = (   0.3750000   0.0000000   0.2500000), wk =   0.0078125
        k(  166) = (   0.3750000   0.0000000   0.3750000), wk =   0.0078125
        k(  167) = (   0.3750000   0.0000000  -0.5000000), wk =   0.0078125
        k(  168) = (   0.3750000   0.0000000  -0.3750000), wk =   0.0078125
        k(  169) = (   0.3750000   0.0000000  -0.2500000), wk =   0.0078125
        k(  170) = (   0.3750000   0.0000000  -0.1250000), wk =   0.0078125
        k(  171) = (   0.3750000   0.1250000   0.0000000), wk =   0.0078125
        k(  172) = (   0.3750000   0.1250000   0.1250000), wk =   0.0078125
        k(  173) = (   0.3750000   0.1250000   0.2500000), wk =   0.0078125
        k(  174) = (   0.3750000   0.1250000   0.3750000), wk =   0.0078125
        k(  175) = (   0.3750000   0.1250000  -0.5000000), wk =   0.0078125
        k(  176) = (   0.3750000   0.1250000  -0.3750000), wk =   0.0078125
        k(  177) = (   0.3750000   0.1250000  -0.2500000), wk =   0.0078125
        k(  178) = (   0.3750000   0.1250000  -0.1250000), wk =   0.0078125
        k(  179) = (   0.3750000   0.2500000   0.0000000), wk =   0.0078125
        k(  180) = (   0.3750000   0.2500000   0.1250000), wk =   0.0078125
        k(  181) = (   0.3750000   0.2500000   0.2500000), wk =   0.0078125
        k(  182) = (   0.3750000   0.2500000   0.3750000), wk =   0.0078125
        k(  183) = (   0.3750000   0.2500000  -0.5000000), wk =   0.0078125
        k(  184) = (   0.3750000   0.2500000  -0.3750000), wk =   0.0078125
        k(  185) = (   0.3750000   0.2500000  -0.2500000), wk =   0.0078125
        k(  186) = (   0.3750000   0.2500000  -0.1250000), wk =   0.0078125
        k(  187) = (   0.3750000   0.3750000   0.0000000), wk =   0.0078125
        k(  188) = (   0.3750000   0.3750000   0.1250000), wk =   0.0078125
        k(  189) = (   0.3750000   0.3750000   0.2500000), wk =   0.0078125
        k(  190) = (   0.3750000   0.3750000   0.3750000), wk =   0.0078125
        k(  191) = (   0.3750000   0.3750000  -0.5000000), wk =   0.0078125
        k(  192) = (   0.3750000   0.3750000  -0.3750000), wk =   0.0078125
        k(  193) = (   0.3750000   0.3750000  -0.2500000), wk =   0.0078125
        k(  194) = (   0.3750000   0.3750000  -0.1250000), wk =   0.0078125
        k(  195) = (   0.3750000  -0.5000000  -0.0000000), wk =   0.0078125
        k(  196) = (   0.3750000  -0.5000000   0.1250000), wk =   0.0078125
        k(  197) = (   0.3750000  -0.5000000   0.2500000), wk =   0.0078125
        k(  198) = (   0.3750000  -0.5000000   0.3750000), wk =   0.0078125
        k(  199) = (   0.3750000  -0.5000000  -0.5000000), wk =   0.0078125
        k(  200) = (   0.3750000  -0.5000000  -0.3750000), wk =   0.0078125
        k(  201) = (   0.3750000  -0.5000000  -0.2500000), wk =   0.0078125
        k(  202) = (   0.3750000  -0.5000000  -0.1250000), wk =   0.0078125
        k(  203) = (   0.3750000  -0.3750000   0.0000000), wk =   0.0078125
        k(  204) = (   0.3750000  -0.3750000   0.1250000), wk =   0.0078125
        k(  205) = (   0.3750000  -0.3750000   0.2500000), wk =   0.0078125
        k(  206) = (   0.3750000  -0.3750000   0.3750000), wk =   0.0078125
        k(  207) = (   0.3750000  -0.3750000  -0.5000000), wk =   0.0078125
        k(  208) = (   0.3750000  -0.3750000  -0.3750000), wk =   0.0078125
        k(  209) = (   0.3750000  -0.3750000  -0.2500000), wk =   0.0078125
        k(  210) = (   0.3750000  -0.3750000  -0.1250000), wk =   0.0078125
        k(  211) = (   0.3750000  -0.2500000   0.0000000), wk =   0.0078125
        k(  212) = (   0.3750000  -0.2500000   0.1250000), wk =   0.0078125
        k(  213) = (   0.3750000  -0.2500000   0.2500000), wk =   0.0078125
        k(  214) = (   0.3750000  -0.2500000   0.3750000), wk =   0.0078125
        k(  215) = (   0.3750000  -0.2500000  -0.5000000), wk =   0.0078125
        k(  216) = (   0.3750000  -0.2500000  -0.3750000), wk =   0.0078125
        k(  217) = (   0.3750000  -0.2500000  -0.2500000), wk =   0.0078125
        k(  218) = (   0.3750000  -0.2500000  -0.1250000), wk =   0.0078125
        k(  219) = (   0.3750000  -0.1250000   0.0000000), wk =   0.0078125
        k(  220) = (   0.3750000  -0.1250000   0.1250000), wk =   0.0078125
        k(  221) = (   0.3750000  -0.1250000   0.2500000), wk =   0.0078125
        k(  222) = (   0.3750000  -0.1250000   0.3750000), wk =   0.0078125
        k(  223) = (   0.3750000  -0.1250000  -0.5000000), wk =   0.0078125
        k(  224) = (   0.3750000  -0.1250000  -0.3750000), wk =   0.0078125
        k(  225) = (   0.3750000  -0.1250000  -0.2500000), wk =   0.0078125
        k(  226) = (   0.3750000  -0.1250000  -0.1250000), wk =   0.0078125
        k(  227) = (  -0.5000000  -0.0000000  -0.0000000), wk =   0.0039062
        k(  228) = (  -0.5000000  -0.0000000   0.1250000), wk =   0.0078125
        k(  229) = (  -0.5000000  -0.0000000   0.2500000), wk =   0.0078125
        k(  230) = (  -0.5000000  -0.0000000   0.3750000), wk =   0.0078125
        k(  231) = (  -0.5000000  -0.0000000  -0.5000000), wk =   0.0039062
        k(  232) = (  -0.5000000   0.1250000  -0.0000000), wk =   0.0078125
        k(  233) = (  -0.5000000   0.1250000   0.1250000), wk =   0.0078125
        k(  234) = (  -0.5000000   0.1250000   0.2500000), wk =   0.0078125
        k(  235) = (  -0.5000000   0.1250000   0.3750000), wk =   0.0078125
        k(  236) = (  -0.5000000   0.1250000  -0.5000000), wk =   0.0078125
        k(  237) = (  -0.5000000   0.1250000  -0.3750000), wk =   0.0078125
        k(  238) = (  -0.5000000   0.1250000  -0.2500000), wk =   0.0078125
        k(  239) = (  -0.5000000   0.1250000  -0.1250000), wk =   0.0078125
        k(  240) = (  -0.5000000   0.2500000  -0.0000000), wk =   0.0078125
        k(  241) = (  -0.5000000   0.2500000   0.1250000), wk =   0.0078125
        k(  242) = (  -0.5000000   0.2500000   0.2500000), wk =   0.0078125
        k(  243) = (  -0.5000000   0.2500000   0.3750000), wk =   0.0078125
        k(  244) = (  -0.5000000   0.2500000  -0.5000000), wk =   0.0078125
        k(  245) = (  -0.5000000   0.2500000  -0.3750000), wk =   0.0078125
        k(  246) = (  -0.5000000   0.2500000  -0.2500000), wk =   0.0078125
        k(  247) = (  -0.5000000   0.2500000  -0.1250000), wk =   0.0078125
        k(  248) = (  -0.5000000   0.3750000  -0.0000000), wk =   0.0078125
        k(  249) = (  -0.5000000   0.3750000   0.1250000), wk =   0.0078125
        k(  250) = (  -0.5000000   0.3750000   0.2500000), wk =   0.0078125
        k(  251) = (  -0.5000000   0.3750000   0.3750000), wk =   0.0078125
        k(  252) = (  -0.5000000   0.3750000  -0.5000000), wk =   0.0078125
        k(  253) = (  -0.5000000   0.3750000  -0.3750000), wk =   0.0078125
        k(  254) = (  -0.5000000   0.3750000  -0.2500000), wk =   0.0078125
        k(  255) = (  -0.5000000   0.3750000  -0.1250000), wk =   0.0078125
        k(  256) = (  -0.5000000  -0.5000000  -0.0000000), wk =   0.0039062
        k(  257) = (  -0.5000000  -0.5000000   0.1250000), wk =   0.0078125
        k(  258) = (  -0.5000000  -0.5000000   0.2500000), wk =   0.0078125
        k(  259) = (  -0.5000000  -0.5000000   0.3750000), wk =   0.0078125
        k(  260) = (  -0.5000000  -0.5000000  -0.5000000), wk =   0.0039062

     Dense  grid:    77559 G-vectors     FFT dimensions: (  50,  50,  72)

     Smooth grid:    30171 G-vectors     FFT dimensions: (  40,  40,  54)

     Dynamical RAM for                 wfc:       0.09 MB

     Dynamical RAM for     wfc (w. buffer):       6.15 MB

     Dynamical RAM for           str. fact:       0.15 MB

     Dynamical RAM for           local pot:       0.00 MB

     Dynamical RAM for          nlocal pot:       0.22 MB

     Dynamical RAM for                qrad:       3.97 MB

     Dynamical RAM for          rho,v,vnew:       0.51 MB

     Dynamical RAM for               rhoin:       0.17 MB

     Dynamical RAM for            rho*nmix:       1.18 MB

     Dynamical RAM for           G-vectors:       0.29 MB

     Dynamical RAM for          h,s,v(r/c):       0.12 MB

     Dynamical RAM for          <psi|beta>:       0.02 MB

     Dynamical RAM for                 psi:       0.37 MB

     Dynamical RAM for                hpsi:       0.37 MB

     Dynamical RAM for                spsi:       0.37 MB

     Dynamical RAM for      wfcinit/wfcrot:       0.27 MB

     Dynamical RAM for           addusdens:       3.53 MB

     Dynamical RAM for          addusforce:       3.68 MB

     Dynamical RAM for         addusstress:       3.74 MB

     Estimated static dynamical RAM per process >      13.34 MB

     Estimated max dynamical RAM per process >      17.09 MB

     Estimated total dynamical RAM >       1.07 GB

     Check: negative core charge=   -0.000003

     Initial potential from superposition of free atoms

     starting charge   51.99974, renormalised to   52.00000
     Starting wfcs are   34 randomized atomic wfcs

     total cpu time spent up to now is        1.2 secs

     Self-consistent Calculation

     iteration #  1     ecut=    80.00 Ry     beta= 0.50
     Davidson diagonalization with overlap
     ethr =  1.00E-02,  avg # of iterations =  1.0

     total cpu time spent up to now is        2.0 secs

     total energy              =    -986.75528404 Ry
     Harris-Foulkes estimate   =    -987.27674893 Ry
     estimated scf accuracy    <       0.81950946 Ry

     iteration #  2     ecut=    80.00 Ry     beta= 0.50
     Davidson diagonalization with overlap
     ethr =  1.58E-03,  avg # of iterations =  3.0

     total cpu time spent up to now is        3.4 secs

     total energy              =    -986.99697912 Ry
     Harris-Foulkes estimate   =    -987.16365617 Ry
     estimated scf accuracy    <       0.38409609 Ry

     iteration #  3     ecut=    80.00 Ry     beta= 0.50
     Davidson diagonalization with overlap
     ethr =  7.39E-04,  avg # of iterations =  2.1

     total cpu time spent up to now is        4.6 secs

     total energy              =    -987.06607356 Ry
     Harris-Foulkes estimate   =    -987.06835921 Ry
     estimated scf accuracy    <       0.00683705 Ry

     iteration #  4     ecut=    80.00 Ry     beta= 0.50
     Davidson diagonalization with overlap
     ethr =  1.31E-05,  avg # of iterations =  2.0

     total cpu time spent up to now is        5.7 secs

     total energy              =    -987.06666213 Ry
     Harris-Foulkes estimate   =    -987.06710687 Ry
     estimated scf accuracy    <       0.00151544 Ry

     iteration #  5     ecut=    80.00 Ry     beta= 0.50
     Davidson diagonalization with overlap
     ethr =  2.91E-06,  avg # of iterations =  2.0

     total cpu time spent up to now is        6.9 secs

     total energy              =    -987.06681811 Ry
     Harris-Foulkes estimate   =    -987.06682668 Ry
     estimated scf accuracy    <       0.00001716 Ry

     iteration #  6     ecut=    80.00 Ry     beta= 0.50
     Davidson diagonalization with overlap
     ethr =  3.30E-08,  avg # of iterations =  2.1

     total cpu time spent up to now is        8.0 secs

     total energy              =    -987.06682121 Ry
     Harris-Foulkes estimate   =    -987.06682057 Ry
     estimated scf accuracy    <       0.00000353 Ry

     iteration #  7     ecut=    80.00 Ry     beta= 0.50
     Davidson diagonalization with overlap
     ethr =  6.80E-09,  avg # of iterations =  2.0

     total cpu time spent up to now is        9.0 secs

     End of self-consistent calculation

          k = 0.0000 0.0000 0.0000 (  3727 PWs)   bands (ev):

  -114.0646-114.0642 -68.4578 -68.4523 -68.4077 -68.4077 -68.4062 -68.4062
    -8.9879  -7.9665   3.1699   3.1699   3.1992   3.1992   3.8975   4.1614
     4.4268   4.4268   4.7477   4.7477   5.1312   8.3479   8.3479   8.4295
     9.0228   9.0228

     occupation numbers 
     1.0000   1.0000   1.0000   1.0000   1.0000   1.0000   1.0000   1.0000
     1.0000   1.0000   1.0000   1.0000   1.0000   1.0000   1.0000   1.0000
     1.0000   1.0000   1.0000   1.0000   1.0000   1.0000   1.0000   1.0000
     1.0000   1.0000

          k = 0.0000-0.0000 0.0885 (  3751 PWs)   bands (ev):

  -114.0645-114.0642 -68.4575 -68.4525 -68.4076 -68.4076 -68.4063 -68.4063
    -8.9503  -8.0061   3.1641   3.1641   3.1900   3.1900   3.7595   4.0921
     4.4472   4.4472   4.7427   4.7427   5.3650   8.1442   8.3773   8.3773
     9.0017   9.0017

     occupation numbers 
     1.0000   1.0000   1.0000   1.0000   1.0000   1.0000   1.0000   1.0000
     1.0000   1.0000   1.0000   1.0000   1.0000   1.0000   1.0000   1.0000
     1.0000   1.0000   1.0000   1.0000   1.0000   1.0000   1.0000   1.0000
     1.0000   1.0000

          k = 0.0000-0.0000 0.1769 (  3758 PWs)   bands (ev):

  -114.0645-114.0642 -68.4570 -68.4531 -68.4075 -68.4075 -68.4064 -68.4064
    -8.8424  -8.1189   3.1504   3.1504   3.1682   3.1682   3.5550   3.9117
     4.5008   4.5008   4.7252   4.7252   5.8413   7.6759   8.4599   8.4599
     8.9393   8.9393

     occupation numbers 
     1.0000   1.0000   1.0000   1.0000   1.0000   1.0000   1.0000   1.0000
     1.0000   1.0000   1.0000   1.0000   1.0000   1.0000   1.0000   1.0000
     1.0000   1.0000   1.0000   1.0000   1.0000   1.0000   1.0000   1.0000
     1.0000   1.0000

          k = 0.0000-0.0000 0.2654 (  3752 PWs)   bands (ev):

  -114.0644-114.0643 -68.4561 -68.4540 -68.4073 -68.4073 -68.4067 -68.4067
    -8.6791  -8.2871   3.1378   3.1378   3.1465   3.1465   3.4638   3.6922
     4.5702   4.5702   4.6907   4.6907   6.3449   7.2362   8.5797   8.5797
     8.8399   8.8399

     occupation numbers 
     1.0000   1.0000   1.0000   1.0000   1.0000   1.0000   1.0000   1.0000
     1.0000   1.0000   1.0000   1.0000   1.0000   1.0000   1.0000   1.0000
     1.0000   1.0000   1.0000   1.0000   1.0000   1.0000   1.0000   1.0000
     1.0000   1.0000

          k =-0.0000 0.0000-0.3539 (  3758 PWs)   bands (ev):

  -114.0644-114.0643 -68.4550 -68.4550 -68.4070 -68.4070 -68.4070 -68.4070
    -8.4843  -8.4841   3.1352   3.1352   3.1352   3.1352   3.5198   3.5199
     4.6375   4.6375   4.6375   4.6375   6.8073   6.8073   8.7139   8.7140
     8.7141   8.7141

     occupation numbers 
     1.0000   1.0000   1.0000   1.0000   1.0000   1.0000   1.0000   1.0000
     1.0000   1.0000   1.0000   1.0000   1.0000   1.0000   1.0000   1.0000
     1.0000   1.0000   1.0000   1.0000   1.0000   1.0000   1.0000   1.0000
     1.0000   1.0000

          k =-0.0000 0.1443-0.0000 (  3755 PWs)   bands (ev):

  -114.0645-114.0642 -68.4575 -68.4525 -68.4079 -68.4077 -68.4065 -68.4063
    -8.9004  -7.9426   3.1139   3.1885   3.2387   3.3010   3.8325   4.1650
     4.4058   4.4082   4.7598   4.9723   5.1351   7.7964   8.0851   8.1940
     8.3923   8.8502

     occupation numbers 
     1.0000   1.0000   1.0000   1.0000   1.0000   1.0000   1.0000   1.0000
     1.0000   1.0000   1.0000   1.0000   1.0000   1.0000   1.0000   1.0000
     1.0000   1.0000   1.0000   1.0000   1.0000   1.0000   1.0000   1.0000
     1.0000   1.0000

          k =-0.0000 0.1443 0.0885 (  3755 PWs)   bands (ev):

  -114.0645-114.0642 -68.4573 -68.4527 -68.4078 -68.4077 -68.4066 -68.4063
    -8.8645  -7.9790   3.1024   3.1675   3.2339   3.2900   3.7272   4.0811
     4.4298   4.4430   4.7532   4.8628   5.4422   7.7723   7.9241   8.1180
     8.6450   8.8256

     occupation numbers 
     1.0000   1.0000   1.0000   1.0000   1.0000   1.0000   1.0000   1.0000
     1.0000   1.0000   1.0000   1.0000   1.0000   1.0000   1.0000   1.0000
     1.0000   1.0000   1.0000   1.0000   1.0000   1.0000   1.0000   1.0000
     1.0000   1.0000

          k =-0.0000 0.1443 0.1769 (  3752 PWs)   bands (ev):

  -114.0645-114.0642 -68.4568 -68.4532 -68.4077 -68.4076 -68.4067 -68.4065
    -8.7617  -8.0829   3.0693   3.1137   3.2231   3.2638   3.5692   3.8936
     4.4864   4.5161   4.7313   4.7946   5.9187   7.4241   8.0224   8.2104
     8.7534   8.7682

     occupation numbers 
     1.0000   1.0000   1.0000   1.0000   1.0000   1.0000   1.0000   1.0000
     1.0000   1.0000   1.0000   1.0000   1.0000   1.0000   1.0000   1.0000
     1.0000   1.0000   1.0000   1.0000   1.0000   1.0000   1.0000   1.0000
     1.0000   1.0000

          k = 0.0000 0.1443 0.2654 (  3751 PWs)   bands (ev):

  -114.0644-114.0643 -68.4560 -68.4540 -68.4074 -68.4073 -68.4069 -68.4067
    -8.6070  -8.2390   3.0303   3.0606   3.2152   3.2361   3.5046   3.6906
     4.5599   4.5978   4.6911   4.7400   6.3712   7.0820   8.2435   8.3447
     8.6393   8.6934

     occupation numbers 
     1.0000   1.0000   1.0000   1.0000   1.0000   1.0000   1.0000   1.0000
     1.0000   1.0000   1.0000   1.0000   1.0000   1.0000   1.0000   1.0000
     1.0000   1.0000   1.0000   1.0000   1.0000   1.0000   1.0000   1.0000
     1.0000   1.0000

          k =-0.0000 0.1443-0.3539 (  3736 PWs)   bands (ev):

  -114.0644-114.0643 -68.4550 -68.4550 -68.4072 -68.4071 -68.4071 -68.4070
    -8.4234  -8.4232   3.0267   3.0268   3.2184   3.2185   3.5481   3.5482
     4.6322   4.6322   4.6751   4.6752   6.7496   6.7497   8.4928   8.4929
     8.4961   8.4963

     occupation numbers 
     1.0000   1.0000   1.0000   1.0000   1.0000   1.0000   1.0000   1.0000
     1.0000   1.0000   1.0000   1.0000   1.0000   1.0000   1.0000   1.0000
     1.0000   1.0000   1.0000   1.0000   1.0000   1.0000   1.0000   1.0000
     1.0000   1.0000

          k =-0.0000 0.1443-0.2654 (  3751 PWs)   bands (ev):

  -114.0644-114.0643 -68.4560 -68.4540 -68.4074 -68.4073 -68.4069 -68.4067
    -8.6070  -8.2390   3.0303   3.0605   3.2152   3.2361   3.5046   3.6906
     4.5599   4.5978   4.6911   4.7400   6.3712   7.0821   8.2435   8.3447
     8.6393   8.6934

     occupation numbers 
     1.0000   1.0000   1.0000   1.0000   1.0000   1.0000   1.0000   1.0000
     1.0000   1.0000   1.0000   1.0000   1.0000   1.0000   1.0000   1.0000
     1.0000   1.0000   1.0000   1.0000   1.0000   1.0000   1.0000   1.0000
     1.0000   1.0000

          k =-0.0000 0.1443-0.1769 (  3752 PWs)   bands (ev):

  -114.0645-114.0642 -68.4568 -68.4532 -68.4077 -68.4076 -68.4067 -68.4065
    -8.7617  -8.0829   3.0693   3.1137   3.2231   3.2638   3.5692   3.8936
     4.4864   4.5161   4.7313   4.7946   5.9187   7.4241   8.0224   8.2104
     8.7534   8.7682

     occupation numbers 
     1.0000   1.0000   1.0000   1.0000   1.0000   1.0000   1.0000   1.0000
     1.0000   1.0000   1.0000   1.0000   1.0000   1.0000   1.0000   1.0000
     1.0000   1.0000   1.0000   1.0000   1.0000   1.0000   1.0000   1.0000
     1.0000   1.0000

          k =-0.0000 0.1443-0.0885 (  3755 PWs)   bands (ev):

  -114.0645-114.0642 -68.4573 -68.4527 -68.4078 -68.4077 -68.4066 -68.4063
    -8.8645  -7.9790   3.1024   3.1675   3.2339   3.2900   3.7272   4.0811
     4.4298   4.4430   4.7532   4.8628   5.4422   7.7723   7.9240   8.1180
     8.6450   8.8256

     occupation numbers 
     1.0000   1.0000   1.0000   1.0000   1.0000   1.0000   1.0000   1.0000
     1.0000   1.0000   1.0000   1.0000   1.0000   1.0000   1.0000   1.0000
     1.0000   1.0000   1.0000   1.0000   1.0000   1.0000   1.0000   1.0000
     1.0000   1.0000

          k =-0.0000 0.2887-0.0000 (  3774 PWs)   bands (ev):

  -114.0645-114.0642 -68.4570 -68.4530 -68.4083 -68.4080 -68.4072 -68.4064
    -8.6707  -7.8976   2.9928   3.2301   3.4561   3.5384   3.7955   4.1188
     4.3804   4.4157   4.7832   5.0715   5.5062   6.6845   7.1491   7.4609
     8.2524   8.4101

     occupation numbers 
     1.0000   1.0000   1.0000   1.0000   1.0000   1.0000   1.0000   1.0000
     1.0000   1.0000   1.0000   1.0000   1.0000   1.0000   1.0000   1.0000
     1.0000   1.0000   1.0000   1.0000   1.0000   1.0000   1.0000   1.0000
     1.0000   1.0000

          k =-0.0000 0.2887 0.0885 (  3769 PWs)   bands (ev):

  -114.0645-114.0642 -68.4568 -68.4531 -68.4083 -68.4079 -68.4072 -68.4064
    -8.6401  -7.9249   2.9749   3.1794   3.4516   3.5253   3.7232   4.0248
     4.4035   4.4698   4.7727   4.9893   5.7091   6.7689   7.0550   7.5019
     8.3790   8.3957

     occupation numbers 
     1.0000   1.0000   1.0000   1.0000   1.0000   1.0000   1.0000   1.0000
     1.0000   1.0000   1.0000   1.0000   1.0000   1.0000   1.0000   1.0000
     1.0000   1.0000   1.0000   1.0000   1.0000   1.0000   1.0000   1.0000
     1.0000   1.0000

          k =-0.0000 0.2887 0.1769 (  3764 PWs)   bands (ev):

  -114.0644-114.0642 -68.4564 -68.4535 -68.4081 -68.4077 -68.4073 -68.4066
    -8.5530  -8.0040   2.9235   3.0533   3.4419   3.4946   3.6131   3.8439
     4.4637   4.5646   4.7413   4.9017   5.9919   6.7072   7.2664   7.6165
     8.2879   8.5843

     occupation numbers 
     1.0000   1.0000   1.0000   1.0000   1.0000   1.0000   1.0000   1.0000
     1.0000   1.0000   1.0000   1.0000   1.0000   1.0000   1.0000   1.0000
     1.0000   1.0000   1.0000   1.0000   1.0000   1.0000   1.0000   1.0000
     1.0000   1.0000

          k =-0.0000 0.2887 0.2654 (  3761 PWs)   bands (ev):

  -114.0644-114.0643 -68.4557 -68.4542 -68.4079 -68.4075 -68.4075 -68.4069
    -8.4236  -8.1256   2.8646   2.9304   3.4356   3.4625   3.5623   3.6795
     4.5419   4.6617   4.6897   4.8298   6.1926   6.5204   7.7822   7.7832
     8.1457   8.5587

     occupation numbers 
     1.0000   1.0000   1.0000   1.0000   1.0000   1.0000   1.0000   1.0000
     1.0000   1.0000   1.0000   1.0000   1.0000   1.0000   1.0000   1.0000
     1.0000   1.0000   1.0000   1.0000   1.0000   1.0000   1.0000   1.0000
     1.0000   1.0000

          k =-0.0000 0.2887-0.3539 (  3780 PWs)   bands (ev):

  -114.0644-114.0643 -68.4550 -68.4550 -68.4077 -68.4077 -68.4072 -68.4072
    -8.2731  -8.2729   2.8600   2.8601   3.4414   3.4414   3.5829   3.5829
     4.6211   4.6211   4.7516   4.7516   6.3548   6.3548   7.9687   7.9688
     8.2662   8.2662

     occupation numbers 
     1.0000   1.0000   1.0000   1.0000   1.0000   1.0000   1.0000   1.0000
     1.0000   1.0000   1.0000   1.0000   1.0000   1.0000   1.0000   1.0000
     1.0000   1.0000   1.0000   1.0000   1.0000   1.0000   1.0000   1.0000
     1.0000   1.0000

          k =-0.0000 0.2887-0.2654 (  3761 PWs)   bands (ev):

  -114.0644-114.0643 -68.4557 -68.4542 -68.4079 -68.4075 -68.4075 -68.4069
    -8.4236  -8.1256   2.8646   2.9304   3.4356   3.4625   3.5623   3.6795
     4.5419   4.6617   4.6897   4.8298   6.1926   6.5204   7.7822   7.7832
     8.1457   8.5588

     occupation numbers 
     1.0000   1.0000   1.0000   1.0000   1.0000   1.0000   1.0000   1.0000
     1.0000   1.0000   1.0000   1.0000   1.0000   1.0000   1.0000   1.0000
     1.0000   1.0000   1.0000   1.0000   1.0000   1.0000   1.0000   1.0000
     1.0000   1.0000

          k =-0.0000 0.2887-0.1769 (  3764 PWs)   bands (ev):

  -114.0644-114.0642 -68.4564 -68.4535 -68.4081 -68.4077 -68.4073 -68.4066
    -8.5530  -8.0040   2.9235   3.0533   3.4419   3.4946   3.6131   3.8439
     4.4637   4.5646   4.7413   4.9017   5.9919   6.7072   7.2663   7.6165
     8.2879   8.5843

     occupation numbers 
     1.0000   1.0000   1.0000   1.0000   1.0000   1.0000   1.0000   1.0000
     1.0000   1.0000   1.0000   1.0000   1.0000   1.0000   1.0000   1.0000
     1.0000   1.0000   1.0000   1.0000   1.0000   1.0000   1.0000   1.0000
     1.0000   1.0000

          k =-0.0000 0.2887-0.0885 (  3769 PWs)   bands (ev):

  -114.0645-114.0642 -68.4568 -68.4531 -68.4083 -68.4079 -68.4072 -68.4064
    -8.6401  -7.9249   2.9749   3.1794   3.4516   3.5253   3.7232   4.0248
     4.4035   4.4698   4.7727   4.9893   5.7091   6.7689   7.0549   7.5019
     8.3790   8.3957

     occupation numbers 
     1.0000   1.0000   1.0000   1.0000   1.0000   1.0000   1.0000   1.0000
     1.0000   1.0000   1.0000   1.0000   1.0000   1.0000   1.0000   1.0000
     1.0000   1.0000   1.0000   1.0000   1.0000   1.0000   1.0000   1.0000
     1.0000   1.0000

          k =-0.0000 0.4330-0.0000 (  3768 PWs)   bands (ev):

  -114.0644-114.0642 -68.4563 -68.4536 -68.4088 -68.4082 -68.4078 -68.4065
    -8.3953  -7.8899   2.9710   3.2979   3.7408   3.7815   3.8790   4.0822
     4.4024   4.4886   4.8012   4.9679   5.6268   6.0087   6.3428   6.8041
     7.9342   8.0000

     occupation numbers 
     1.0000   1.0000   1.0000   1.0000   1.0000   1.0000   1.0000   1.0000
     1.0000   1.0000   1.0000   1.0000   1.0000   1.0000   1.0000   1.0000
     1.0000   1.0000   1.0000   1.0000   1.0000   1.0000   1.0000   1.0000
     1.0000   1.0000

          k =-0.0000 0.4330 0.0885 (  3769 PWs)   bands (ev):

  -114.0644-114.0642 -68.4562 -68.4537 -68.4087 -68.4081 -68.4078 -68.4065
    -8.3728  -7.9051   2.9420   3.2334   3.7348   3.7705   3.8023   4.0055
     4.4222   4.5361   4.7859   4.9470   5.5874   5.9833   6.5954   6.8558
     7.8978   8.1488

     occupation numbers 
     1.0000   1.0000   1.0000   1.0000   1.0000   1.0000   1.0000   1.0000
     1.0000   1.0000   1.0000   1.0000   1.0000   1.0000   1.0000   1.0000
     1.0000   1.0000   1.0000   1.0000   1.0000   1.0000   1.0000   1.0000
     1.0000   1.0000

          k =-0.0000 0.4330 0.1769 (  3768 PWs)   bands (ev):

  -114.0644-114.0642 -68.4559 -68.4540 -68.4086 -68.4079 -68.4079 -68.4067
    -8.3098  -7.9503   2.8630   3.0687   3.6852   3.7210   3.7451   3.8540
     4.4739   4.6237   4.7442   4.9043   5.5834   5.8730   6.9978   7.1855
     7.7917   8.4195

     occupation numbers 
     1.0000   1.0000   1.0000   1.0000   1.0000   1.0000   1.0000   1.0000
     1.0000   1.0000   1.0000   1.0000   1.0000   1.0000   1.0000   1.0000
     1.0000   1.0000   1.0000   1.0000   1.0000   1.0000   1.0000   1.0000
     1.0000   1.0000

          k =-0.0000 0.4330 0.2654 (  3763 PWs)   bands (ev):

  -114.0644-114.0643 -68.4555 -68.4545 -68.4084 -68.4080 -68.4076 -68.4070
    -8.2189  -8.0235   2.7842   2.8919   3.6303   3.7087   3.7204   3.7229
     4.5425   4.6848   4.7104   4.8517   5.6258   5.7697   7.1981   7.6259
     7.8200   8.5234

     occupation numbers 
     1.0000   1.0000   1.0000   1.0000   1.0000   1.0000   1.0000   1.0000
     1.0000   1.0000   1.0000   1.0000   1.0000   1.0000   1.0000   1.0000
     1.0000   1.0000   1.0000   1.0000   1.0000   1.0000   1.0000   1.0000
     1.0000   1.0000

          k =-0.0000 0.4330-0.3539 (  3776 PWs)   bands (ev):

  -114.0643-114.0643 -68.4550 -68.4550 -68.4082 -68.4082 -68.4073 -68.4073
    -8.1176  -8.1174   2.7845   2.7846   3.6458   3.6458   3.7072   3.7072
     4.6155   4.6155   4.7872   4.7872   5.6896   5.6896   7.4189   7.4190
     8.3114   8.3115

     occupation numbers 
     1.0000   1.0000   1.0000   1.0000   1.0000   1.0000   1.0000   1.0000
     1.0000   1.0000   1.0000   1.0000   1.0000   1.0000   1.0000   1.0000
     1.0000   1.0000   1.0000   1.0000   1.0000   1.0000   1.0000   1.0000
     1.0000   1.0000

          k =-0.0000 0.4330-0.2654 (  3763 PWs)   bands (ev):

  -114.0644-114.0643 -68.4555 -68.4545 -68.4084 -68.4080 -68.4076 -68.4070
    -8.2189  -8.0235   2.7842   2.8919   3.6303   3.7087   3.7204   3.7229
     4.5425   4.6848   4.7104   4.8517   5.6257   5.7697   7.1981   7.6259
     7.8200   8.5234

     occupation numbers 
     1.0000   1.0000   1.0000   1.0000   1.0000   1.0000   1.0000   1.0000
     1.0000   1.0000   1.0000   1.0000   1.0000   1.0000   1.0000   1.0000
     1.0000   1.0000   1.0000   1.0000   1.0000   1.0000   1.0000   1.0000
     1.0000   1.0000

          k =-0.0000 0.4330-0.1769 (  3768 PWs)   bands (ev):

  -114.0644-114.0642 -68.4559 -68.4540 -68.4086 -68.4079 -68.4079 -68.4067
    -8.3098  -7.9503   2.8630   3.0687   3.6852   3.7210   3.7451   3.8540
     4.4739   4.6237   4.7442   4.9043   5.5834   5.8730   6.9978   7.1855
     7.7917   8.4195

     occupation numbers 
     1.0000   1.0000   1.0000   1.0000   1.0000   1.0000   1.0000   1.0000
     1.0000   1.0000   1.0000   1.0000   1.0000   1.0000   1.0000   1.0000
     1.0000   1.0000   1.0000   1.0000   1.0000   1.0000   1.0000   1.0000
     1.0000   1.0000

          k =-0.0000 0.4330-0.0885 (  3769 PWs)   bands (ev):

  -114.0644-114.0642 -68.4562 -68.4537 -68.4087 -68.4081 -68.4078 -68.4065
    -8.3728  -7.9051   2.9420   3.2334   3.7348   3.7705   3.8023   4.0055
     4.4222   4.5361   4.7859   4.9470   5.5874   5.9834   6.5954   6.8558
     7.8978   8.1488

     occupation numbers 
     1.0000   1.0000   1.0000   1.0000   1.0000   1.0000   1.0000   1.0000
     1.0000   1.0000   1.0000   1.0000   1.0000   1.0000   1.0000   1.0000
     1.0000   1.0000   1.0000   1.0000   1.0000   1.0000   1.0000   1.0000
     1.0000   1.0000

          k = 0.0000-0.5774 0.0000 (  3786 PWs)   bands (ev):

  -114.0644-114.0642 -68.4558 -68.4540 -68.4089 -68.4083 -68.4081 -68.4065
    -8.2457  -7.9196   3.0215   3.3081   3.8741   3.8853   3.8874   4.2061
     4.4516   4.5739   4.8071   4.8280   5.3246   5.5840   6.5000   6.5341
     7.7218   7.8162

     occupation numbers 
     1.0000   1.0000   1.0000   1.0000   1.0000   1.0000   1.0000   1.0000
     1.0000   1.0000   1.0000   1.0000   1.0000   1.0000   1.0000   1.0000
     1.0000   1.0000   1.0000   1.0000   1.0000   1.0000   1.0000   1.0000
     1.0000   1.0000

          k = 0.0000-0.5774 0.0885 (  3762 PWs)   bands (ev):

  -114.0644-114.0642 -68.4557 -68.4541 -68.4089 -68.4082 -68.4081 -68.4066
    -8.2291  -7.9272   2.9811   3.2488   3.8140   3.8669   3.8807   4.1237
     4.4660   4.6050   4.7882   4.8220   5.3226   5.5207   6.5590   6.7948
     7.6834   7.9782

     occupation numbers 
     1.0000   1.0000   1.0000   1.0000   1.0000   1.0000   1.0000   1.0000
     1.0000   1.0000   1.0000   1.0000   1.0000   1.0000   1.0000   1.0000
     1.0000   1.0000   1.0000   1.0000   1.0000   1.0000   1.0000   1.0000
     1.0000   1.0000

          k = 0.0000-0.5774 0.1769 (  3770 PWs)   bands (ev):

  -114.0644-114.0643 -68.4555 -68.4543 -68.4088 -68.4081 -68.4080 -68.4068
    -8.1832  -7.9510   2.8759   3.0887   3.7094   3.8509   3.8638   3.9539
     4.5044   4.6601   4.7404   4.8068   5.3318   5.4452   6.7183   7.3517
     7.5714   8.3032

     occupation numbers 
     1.0000   1.0000   1.0000   1.0000   1.0000   1.0000   1.0000   1.0000
     1.0000   1.0000   1.0000   1.0000   1.0000   1.0000   1.0000   1.0000
     1.0000   1.0000   1.0000   1.0000   1.0000   1.0000   1.0000   1.0000
     1.0000   1.0000

          k = 0.0000-0.5774 0.2654 (  3778 PWs)   bands (ev):

  -114.0643-114.0643 -68.4553 -68.4546 -68.4086 -68.4083 -68.4077 -68.4070
    -8.1193  -7.9930   2.7795   2.8997   3.6740   3.8050   3.8375   3.8456
     4.5574   4.6800   4.7095   4.7832   5.3551   5.4058   6.9378   7.3960
     7.9374   8.4943

     occupation numbers 
     1.0000   1.0000   1.0000   1.0000   1.0000   1.0000   1.0000   1.0000
     1.0000   1.0000   1.0000   1.0000   1.0000   1.0000   1.0000   1.0000
     1.0000   1.0000   1.0000   1.0000   1.0000   1.0000   1.0000   1.0000
     1.0000   1.0000

          k = 0.0000-0.5774-0.3539 (  3776 PWs)   bands (ev):

  -114.0643-114.0643 -68.4550 -68.4550 -68.4085 -68.4085 -68.4074 -68.4074
    -8.0516  -8.0514   2.7794   2.7794   3.7099   3.7100   3.8351   3.8351
     4.6174   4.6174   4.7505   4.7505   5.3805   5.3806   7.1756   7.1757
     8.3659   8.3660

     occupation numbers 
     1.0000   1.0000   1.0000   1.0000   1.0000   1.0000   1.0000   1.0000
     1.0000   1.0000   1.0000   1.0000   1.0000   1.0000   1.0000   1.0000
     1.0000   1.0000   1.0000   1.0000   1.0000   1.0000   1.0000   1.0000
     1.0000   1.0000

          k = 0.1250 0.0722 0.0000 (  3755 PWs)   bands (ev):

  -114.0645-114.0642 -68.4575 -68.4525 -68.4079 -68.4078 -68.4065 -68.4063
    -8.9004  -7.9426   3.1139   3.1885   3.2387   3.3010   3.8325   4.1650
     4.4058   4.4081   4.7598   4.9723   5.1351   7.7964   8.0851   8.1940
     8.3923   8.8502

     occupation numbers 
     1.0000   1.0000   1.0000   1.0000   1.0000   1.0000   1.0000   1.0000
     1.0000   1.0000   1.0000   1.0000   1.0000   1.0000   1.0000   1.0000
     1.0000   1.0000   1.0000   1.0000   1.0000   1.0000   1.0000   1.0000
     1.0000   1.0000

          k = 0.1250 0.0722 0.0885 (  3755 PWs)   bands (ev):

  -114.0645-114.0642 -68.4573 -68.4527 -68.4078 -68.4077 -68.4066 -68.4063
    -8.8645  -7.9790   3.1024   3.1675   3.2339   3.2900   3.7272   4.0811
     4.4297   4.4430   4.7532   4.8628   5.4422   7.7723   7.9240   8.1180
     8.6450   8.8256

     occupation numbers 
     1.0000   1.0000   1.0000   1.0000   1.0000   1.0000   1.0000   1.0000
     1.0000   1.0000   1.0000   1.0000   1.0000   1.0000   1.0000   1.0000
     1.0000   1.0000   1.0000   1.0000   1.0000   1.0000   1.0000   1.0000
     1.0000   1.0000

          k = 0.1250 0.0722 0.1769 (  3752 PWs)   bands (ev):

  -114.0645-114.0642 -68.4568 -68.4532 -68.4077 -68.4076 -68.4067 -68.4065
    -8.7617  -8.0829   3.0693   3.1137   3.2231   3.2638   3.5692   3.8936
     4.4864   4.5161   4.7313   4.7946   5.9187   7.4241   8.0224   8.2104
     8.7534   8.7682

     occupation numbers 
     1.0000   1.0000   1.0000   1.0000   1.0000   1.0000   1.0000   1.0000
     1.0000   1.0000   1.0000   1.0000   1.0000   1.0000   1.0000   1.0000
     1.0000   1.0000   1.0000   1.0000   1.0000   1.0000   1.0000   1.0000
     1.0000   1.0000

          k = 0.1250 0.0722 0.2654 (  3751 PWs)   bands (ev):

  -114.0644-114.0643 -68.4560 -68.4540 -68.4074 -68.4073 -68.4069 -68.4067
    -8.6070  -8.2390   3.0303   3.0605   3.2152   3.2361   3.5046   3.6906
     4.5599   4.5978   4.6911   4.7400   6.3712   7.0821   8.2435   8.3447
     8.6393   8.6934

     occupation numbers 
     1.0000   1.0000   1.0000   1.0000   1.0000   1.0000   1.0000   1.0000
     1.0000   1.0000   1.0000   1.0000   1.0000   1.0000   1.0000   1.0000
     1.0000   1.0000   1.0000   1.0000   1.0000   1.0000   1.0000   1.0000
     1.0000   1.0000

          k = 0.1250 0.0722-0.3539 (  3736 PWs)   bands (ev):

  -114.0644-114.0643 -68.4550 -68.4550 -68.4072 -68.4071 -68.4071 -68.4070
    -8.4234  -8.4232   3.0267   3.0268   3.2184   3.2185   3.5481   3.5482
     4.6322   4.6322   4.6751   4.6752   6.7496   6.7497   8.4928   8.4929
     8.4961   8.4963

     occupation numbers 
     1.0000   1.0000   1.0000   1.0000   1.0000   1.0000   1.0000   1.0000
     1.0000   1.0000   1.0000   1.0000   1.0000   1.0000   1.0000   1.0000
     1.0000   1.0000   1.0000   1.0000   1.0000   1.0000   1.0000   1.0000
     1.0000   1.0000

          k = 0.1250 0.0722-0.2654 (  3751 PWs)   bands (ev):

  -114.0644-114.0643 -68.4560 -68.4540 -68.4074 -68.4073 -68.4069 -68.4067
    -8.6070  -8.2390   3.0303   3.0606   3.2152   3.2361   3.5046   3.6906
     4.5599   4.5978   4.6911   4.7400   6.3712   7.0820   8.2435   8.3447
     8.6393   8.6934

     occupation numbers 
     1.0000   1.0000   1.0000   1.0000   1.0000   1.0000   1.0000   1.0000
     1.0000   1.0000   1.0000   1.0000   1.0000   1.0000   1.0000   1.0000
     1.0000   1.0000   1.0000   1.0000   1.0000   1.0000   1.0000   1.0000
     1.0000   1.0000

          k = 0.1250 0.0722-0.1769 (  3752 PWs)   bands (ev):

  -114.0645-114.0642 -68.4568 -68.4532 -68.4077 -68.4076 -68.4067 -68.4065
    -8.7617  -8.0829   3.0693   3.1137   3.2231   3.2638   3.5692   3.8936
     4.4864   4.5161   4.7313   4.7946   5.9187   7.4241   8.0224   8.2104
     8.7534   8.7682

     occupation numbers 
     1.0000   1.0000   1.0000   1.0000   1.0000   1.0000   1.0000   1.0000
     1.0000   1.0000   1.0000   1.0000   1.0000   1.0000   1.0000   1.0000
     1.0000   1.0000   1.0000   1.0000   1.0000   1.0000   1.0000   1.0000
     1.0000   1.0000

          k = 0.1250 0.0722-0.0885 (  3755 PWs)   bands (ev):

  -114.0645-114.0642 -68.4573 -68.4527 -68.4078 -68.4077 -68.4066 -68.4063
    -8.8645  -7.9790   3.1024   3.1675   3.2339   3.2900   3.7272   4.0811
     4.4297   4.4430   4.7532   4.8628   5.4422   7.7723   7.9241   8.1180
     8.6450   8.8256

     occupation numbers 
     1.0000   1.0000   1.0000   1.0000   1.0000   1.0000   1.0000   1.0000
     1.0000   1.0000   1.0000   1.0000   1.0000   1.0000   1.0000   1.0000
     1.0000   1.0000   1.0000   1.0000   1.0000   1.0000   1.0000   1.0000
     1.0000   1.0000

          k = 0.1250 0.2165-0.0000 (  3785 PWs)   bands (ev):

  -114.0645-114.0642 -68.4572 -68.4528 -68.4082 -68.4080 -68.4069 -68.4064
    -8.7415  -7.9083   3.0504   3.1888   3.4036   3.4411   3.8029   4.1382
     4.3844   4.4043   4.7763   5.0829   5.3674   7.1166   7.2719   7.6812
     8.3113   8.4676

     occupation numbers 
     1.0000   1.0000   1.0000   1.0000   1.0000   1.0000   1.0000   1.0000
     1.0000   1.0000   1.0000   1.0000   1.0000   1.0000   1.0000   1.0000
     1.0000   1.0000   1.0000   1.0000   1.0000   1.0000   1.0000   1.0000
     1.0000   1.0000

          k = 0.1250 0.2165 0.0885 (  3777 PWs)   bands (ev):

  -114.0645-114.0642 -68.4570 -68.4530 -68.4081 -68.4080 -68.4070 -68.4065
    -8.7091  -7.9385   3.0369   3.1455   3.3962   3.4294   3.7244   4.0439
     4.4062   4.4574   4.7674   4.9722   5.6311   7.1750   7.2093   7.6426
     8.4364   8.4760

     occupation numbers 
     1.0000   1.0000   1.0000   1.0000   1.0000   1.0000   1.0000   1.0000
     1.0000   1.0000   1.0000   1.0000   1.0000   1.0000   1.0000   1.0000
     1.0000   1.0000   1.0000   1.0000   1.0000   1.0000   1.0000   1.0000
     1.0000   1.0000

          k = 0.1250 0.2165 0.1769 (  3769 PWs)   bands (ev):

  -114.0645-114.0642 -68.4565 -68.4534 -68.4080 -68.4078 -68.4071 -68.4066
    -8.6168  -8.0256   2.9983   3.0342   3.3795   3.4040   3.6050   3.8576
     4.4654   4.5490   4.7400   4.8794   6.0117   6.9487   7.4951   7.7026
     8.3458   8.6612

     occupation numbers 
     1.0000   1.0000   1.0000   1.0000   1.0000   1.0000   1.0000   1.0000
     1.0000   1.0000   1.0000   1.0000   1.0000   1.0000   1.0000   1.0000
     1.0000   1.0000   1.0000   1.0000   1.0000   1.0000   1.0000   1.0000
     1.0000   1.0000

          k = 0.1250 0.2165 0.2654 (  3757 PWs)   bands (ev):

  -114.0644-114.0643 -68.4558 -68.4542 -68.4077 -68.4075 -68.4072 -68.4069
    -8.4791  -8.1583   2.9332   2.9446   3.3654   3.3795   3.5507   3.6817
     4.5434   4.6392   4.6958   4.8091   6.3059   6.7269   7.8485   7.9215
     8.2079   8.6262

     occupation numbers 
     1.0000   1.0000   1.0000   1.0000   1.0000   1.0000   1.0000   1.0000
     1.0000   1.0000   1.0000   1.0000   1.0000   1.0000   1.0000   1.0000
     1.0000   1.0000   1.0000   1.0000   1.0000   1.0000   1.0000   1.0000
     1.0000   1.0000

          k = 0.1250 0.2165-0.3539 (  3752 PWs)   bands (ev):

  -114.0644-114.0643 -68.4550 -68.4550 -68.4075 -68.4075 -68.4072 -68.4071
    -8.3178  -8.3176   2.9071   2.9071   3.3646   3.3646   3.5749   3.5750
     4.6207   4.6207   4.7347   4.7347   6.5257   6.5257   8.0241   8.0242
     8.3557   8.3558

     occupation numbers 
     1.0000   1.0000   1.0000   1.0000   1.0000   1.0000   1.0000   1.0000
     1.0000   1.0000   1.0000   1.0000   1.0000   1.0000   1.0000   1.0000
     1.0000   1.0000   1.0000   1.0000   1.0000   1.0000   1.0000   1.0000
     1.0000   1.0000

          k = 0.1250 0.2165-0.2654 (  3757 PWs)   bands (ev):

  -114.0644-114.0643 -68.4558 -68.4542 -68.4077 -68.4075 -68.4072 -68.4069
    -8.4791  -8.1583   2.9332   2.9446   3.3654   3.3795   3.5507   3.6817
     4.5434   4.6392   4.6958   4.8091   6.3059   6.7269   7.8485   7.9215
     8.2079   8.6262

     occupation numbers 
     1.0000   1.0000   1.0000   1.0000   1.0000   1.0000   1.0000   1.0000
     1.0000   1.0000   1.0000   1.0000   1.0000   1.0000   1.0000   1.0000
     1.0000   1.0000   1.0000   1.0000   1.0000   1.0000   1.0000   1.0000
     1.0000   1.0000

          k = 0.1250 0.2165-0.1769 (  3769 PWs)   bands (ev):

  -114.0645-114.0642 -68.4565 -68.4534 -68.4080 -68.4078 -68.4071 -68.4066
    -8.6168  -8.0256   2.9983   3.0342   3.3795   3.4040   3.6050   3.8576
     4.4654   4.5490   4.7400   4.8794   6.0117   6.9487   7.4951   7.7026
     8.3458   8.6612

     occupation numbers 
     1.0000   1.0000   1.0000   1.0000   1.0000   1.0000   1.0000   1.0000
     1.0000   1.0000   1.0000   1.0000   1.0000   1.0000   1.0000   1.0000
     1.0000   1.0000   1.0000   1.0000   1.0000   1.0000   1.0000   1.0000
     1.0000   1.0000

          k = 0.1250 0.2165-0.0885 (  3777 PWs)   bands (ev):

  -114.0645-114.0642 -68.4570 -68.4530 -68.4081 -68.4080 -68.4070 -68.4065
    -8.7091  -7.9385   3.0369   3.1455   3.3962   3.4294   3.7244   4.0439
     4.4062   4.4574   4.7674   4.9722   5.6311   7.1750   7.2093   7.6426
     8.4364   8.4760

     occupation numbers 
     1.0000   1.0000   1.0000   1.0000   1.0000   1.0000   1.0000   1.0000
     1.0000   1.0000   1.0000   1.0000   1.0000   1.0000   1.0000   1.0000
     1.0000   1.0000   1.0000   1.0000   1.0000   1.0000   1.0000   1.0000
     1.0000   1.0000

          k = 0.1250 0.3608-0.0000 (  3767 PWs)   bands (ev):

  -114.0644-114.0642 -68.4565 -68.4534 -68.4085 -68.4083 -68.4075 -68.4065
    -8.4855  -7.8845   3.0292   3.2915   3.6196   3.6487   3.8993   4.0718
     4.3722   4.4596   4.7961   5.0290   5.7798   6.2338   6.5214   6.8248
     7.8942   8.0989

     occupation numbers 
     1.0000   1.0000   1.0000   1.0000   1.0000   1.0000   1.0000   1.0000
     1.0000   1.0000   1.0000   1.0000   1.0000   1.0000   1.0000   1.0000
     1.0000   1.0000   1.0000   1.0000   1.0000   1.0000   1.0000   1.0000
     1.0000   1.0000

          k = 0.1250 0.3608 0.0885 (  3777 PWs)   bands (ev):

  -114.0644-114.0642 -68.4564 -68.4535 -68.4085 -68.4082 -68.4075 -68.4066
    -8.4600  -7.9038   3.0067   3.2245   3.6115   3.6369   3.8293   3.9878
     4.3976   4.5096   4.7836   4.9922   5.7842   6.3286   6.6212   6.8581
     7.8512   8.2574

     occupation numbers 
     1.0000   1.0000   1.0000   1.0000   1.0000   1.0000   1.0000   1.0000
     1.0000   1.0000   1.0000   1.0000   1.0000   1.0000   1.0000   1.0000
     1.0000   1.0000   1.0000   1.0000   1.0000   1.0000   1.0000   1.0000
     1.0000   1.0000

[...]

  -114.0644-114.0643 -68.4556 -68.4543 -68.4086 -68.4084 -68.4078 -68.4071
    -8.1928  -7.9461   3.1250   3.1807   3.7014   3.7103   3.8348   3.9158
     4.4994   4.5769   4.7883   4.9257   5.5529   5.7377   5.9921   6.9226
     7.5364   8.3501

     occupation numbers 
     1.0000   1.0000   1.0000   1.0000   1.0000   1.0000   1.0000   1.0000
     1.0000   1.0000   1.0000   1.0000   1.0000   1.0000   1.0000   1.0000
     1.0000   1.0000   1.0000   1.0000   1.0000   1.0000   1.0000   1.0000
     1.0000   1.0000

          k =-0.5000-0.0000 0.2654 (  3785 PWs)   bands (ev):

  -114.0643-114.0643 -68.4553 -68.4546 -68.4083 -68.4083 -68.4078 -68.4074
    -8.1258  -7.9916   2.9976   3.0000   3.6531   3.6641   3.8044   3.8518
     4.5338   4.5832   4.8090   4.8885   5.5821   5.6815   6.1989   6.7162
     8.1335   8.5999

     occupation numbers 
     1.0000   1.0000   1.0000   1.0000   1.0000   1.0000   1.0000   1.0000
     1.0000   1.0000   1.0000   1.0000   1.0000   1.0000   1.0000   1.0000
     1.0000   1.0000   1.0000   1.0000   1.0000   1.0000   1.0000   1.0000
     1.0000   1.0000

          k =-0.5000 0.0000-0.3539 (  3790 PWs)   bands (ev):

  -114.0643-114.0643 -68.4550 -68.4550 -68.4082 -68.4082 -68.4077 -68.4077
    -8.0544  -8.0541   2.9346   2.9347   3.6410   3.6410   3.8146   3.8147
     4.5639   4.5639   4.8478   4.8478   5.6271   5.6272   6.4594   6.4595
     8.5343   8.5344

     occupation numbers 
     1.0000   1.0000   1.0000   1.0000   1.0000   1.0000   1.0000   1.0000
     1.0000   1.0000   1.0000   1.0000   1.0000   1.0000   1.0000   1.0000
     1.0000   1.0000   1.0000   1.0000   1.0000   1.0000   1.0000   1.0000
     1.0000   1.0000

          k =-0.5000 0.0000-0.2654 (  3785 PWs)   bands (ev):

  -114.0643-114.0643 -68.4553 -68.4546 -68.4083 -68.4083 -68.4078 -68.4074
    -8.1258  -7.9916   2.9976   3.0000   3.6531   3.6641   3.8044   3.8518
     4.5338   4.5832   4.8090   4.8885   5.5821   5.6815   6.1989   6.7162
     8.1335   8.5999

     occupation numbers 
     1.0000   1.0000   1.0000   1.0000   1.0000   1.0000   1.0000   1.0000
     1.0000   1.0000   1.0000   1.0000   1.0000   1.0000   1.0000   1.0000
     1.0000   1.0000   1.0000   1.0000   1.0000   1.0000   1.0000   1.0000
     1.0000   1.0000

          k =-0.5000 0.0000-0.1769 (  3788 PWs)   bands (ev):

  -114.0644-114.0643 -68.4556 -68.4543 -68.4086 -68.4084 -68.4078 -68.4071
    -8.1928  -7.9461   3.1250   3.1807   3.7014   3.7103   3.8348   3.9158
     4.4994   4.5769   4.7883   4.9257   5.5529   5.7377   5.9921   6.9226
     7.5364   8.3501

     occupation numbers 
     1.0000   1.0000   1.0000   1.0000   1.0000   1.0000   1.0000   1.0000
     1.0000   1.0000   1.0000   1.0000   1.0000   1.0000   1.0000   1.0000
     1.0000   1.0000   1.0000   1.0000   1.0000   1.0000   1.0000   1.0000
     1.0000   1.0000

          k =-0.5000 0.0000-0.0885 (  3780 PWs)   bands (ev):

  -114.0644-114.0642 -68.4557 -68.4541 -68.4087 -68.4084 -68.4078 -68.4069
    -8.2406  -7.9198   3.2241   3.3711   3.7229   3.7831   3.9302   4.0092
     4.4665   4.5360   4.7979   4.9559   5.5601   5.7085   5.9661   6.8605
     7.1450   7.9816

     occupation numbers 
     1.0000   1.0000   1.0000   1.0000   1.0000   1.0000   1.0000   1.0000
     1.0000   1.0000   1.0000   1.0000   1.0000   1.0000   1.0000   1.0000
     1.0000   1.0000   1.0000   1.0000   1.0000   1.0000   1.0000   1.0000
     1.0000   1.0000

          k =-0.5000 0.1443-0.0000 (  3777 PWs)   bands (ev):

  -114.0644-114.0642 -68.4558 -68.4540 -68.4089 -68.4084 -68.4080 -68.4066
    -8.2519  -7.9154   3.1313   3.3644   3.8002   3.8416   3.9521   4.1660
     4.4407   4.5333   4.8085   4.8839   5.4279   5.7014   6.1588   6.6188
     7.4628   7.8071

     occupation numbers 
     1.0000   1.0000   1.0000   1.0000   1.0000   1.0000   1.0000   1.0000
     1.0000   1.0000   1.0000   1.0000   1.0000   1.0000   1.0000   1.0000
     1.0000   1.0000   1.0000   1.0000   1.0000   1.0000   1.0000   1.0000
     1.0000   1.0000

          k =-0.5000 0.1443 0.0885 (  3776 PWs)   bands (ev):

  -114.0644-114.0642 -68.4557 -68.4541 -68.4088 -68.4083 -68.4080 -68.4067
    -8.2349  -7.9234   3.0920   3.3026   3.7683   3.8262   3.9121   4.0794
     4.4621   4.5640   4.7941   4.8777   5.4142   5.6502   6.2056   6.8857
     7.4125   7.9843

     occupation numbers 
     1.0000   1.0000   1.0000   1.0000   1.0000   1.0000   1.0000   1.0000
     1.0000   1.0000   1.0000   1.0000   1.0000   1.0000   1.0000   1.0000
     1.0000   1.0000   1.0000   1.0000   1.0000   1.0000   1.0000   1.0000
     1.0000   1.0000

          k =-0.5000 0.1443 0.1769 (  3773 PWs)   bands (ev):

  -114.0644-114.0643 -68.4556 -68.4543 -68.4087 -68.4082 -68.4080 -68.4069
    -8.1881  -7.9485   2.9825   3.1393   3.6900   3.8049   3.8626   3.9262
     4.5016   4.6092   4.7702   4.8602   5.4139   5.5695   6.3575   7.2628
     7.4732   8.3338

     occupation numbers 
     1.0000   1.0000   1.0000   1.0000   1.0000   1.0000   1.0000   1.0000
     1.0000   1.0000   1.0000   1.0000   1.0000   1.0000   1.0000   1.0000
     1.0000   1.0000   1.0000   1.0000   1.0000   1.0000   1.0000   1.0000
     1.0000   1.0000

          k =-0.5000 0.1443 0.2654 (  3784 PWs)   bands (ev):

  -114.0643-114.0643 -68.4553 -68.4546 -68.4085 -68.4082 -68.4078 -68.4072
    -8.1226  -7.9923   2.8705   2.9574   3.6563   3.7501   3.8241   3.8479
     4.5454   4.6165   4.7725   4.8334   5.4390   5.5129   6.5803   7.0716
     8.0567   8.5582

     occupation numbers 
     1.0000   1.0000   1.0000   1.0000   1.0000   1.0000   1.0000   1.0000
     1.0000   1.0000   1.0000   1.0000   1.0000   1.0000   1.0000   1.0000
     1.0000   1.0000   1.0000   1.0000   1.0000   1.0000   1.0000   1.0000
     1.0000   1.0000

          k =-0.5000 0.1443-0.3539 (  3790 PWs)   bands (ev):

  -114.0643-114.0643 -68.4550 -68.4550 -68.4084 -68.4083 -68.4075 -68.4075
    -8.0530  -8.0528   2.8522   2.8522   3.6812   3.6812   3.8241   3.8242
     4.5873   4.5873   4.8011   4.8011   5.4732   5.4732   6.8309   6.8310
     8.4665   8.4666

     occupation numbers 
     1.0000   1.0000   1.0000   1.0000   1.0000   1.0000   1.0000   1.0000
     1.0000   1.0000   1.0000   1.0000   1.0000   1.0000   1.0000   1.0000
     1.0000   1.0000   1.0000   1.0000   1.0000   1.0000   1.0000   1.0000
     1.0000   1.0000

          k =-0.5000 0.1443-0.2654 (  3784 PWs)   bands (ev):

  -114.0643-114.0643 -68.4553 -68.4546 -68.4085 -68.4082 -68.4078 -68.4072
    -8.1226  -7.9923   2.8705   2.9574   3.6563   3.7501   3.8241   3.8479
     4.5454   4.6165   4.7725   4.8334   5.4390   5.5129   6.5803   7.0716
     8.0567   8.5582

     occupation numbers 
     1.0000   1.0000   1.0000   1.0000   1.0000   1.0000   1.0000   1.0000
     1.0000   1.0000   1.0000   1.0000   1.0000   1.0000   1.0000   1.0000
     1.0000   1.0000   1.0000   1.0000   1.0000   1.0000   1.0000   1.0000
     1.0000   1.0000

          k =-0.5000 0.1443-0.1769 (  3773 PWs)   bands (ev):

  -114.0644-114.0643 -68.4556 -68.4543 -68.4087 -68.4082 -68.4080 -68.4069
    -8.1881  -7.9485   2.9825   3.1393   3.6900   3.8049   3.8626   3.9262
     4.5016   4.6092   4.7702   4.8602   5.4140   5.5695   6.3575   7.2628
     7.4732   8.3338

     occupation numbers 
     1.0000   1.0000   1.0000   1.0000   1.0000   1.0000   1.0000   1.0000
     1.0000   1.0000   1.0000   1.0000   1.0000   1.0000   1.0000   1.0000
     1.0000   1.0000   1.0000   1.0000   1.0000   1.0000   1.0000   1.0000
     1.0000   1.0000

          k =-0.5000 0.1443-0.0885 (  3776 PWs)   bands (ev):

  -114.0644-114.0642 -68.4557 -68.4541 -68.4088 -68.4083 -68.4080 -68.4067
    -8.2349  -7.9234   3.0920   3.3026   3.7683   3.8262   3.9121   4.0794
     4.4621   4.5640   4.7941   4.8777   5.4142   5.6501   6.2056   6.8857
     7.4125   7.9843

     occupation numbers 
     1.0000   1.0000   1.0000   1.0000   1.0000   1.0000   1.0000   1.0000
     1.0000   1.0000   1.0000   1.0000   1.0000   1.0000   1.0000   1.0000
     1.0000   1.0000   1.0000   1.0000   1.0000   1.0000   1.0000   1.0000
     1.0000   1.0000

          k =-0.5000-0.8660 0.0000 (  3786 PWs)   bands (ev):

  -114.0644-114.0642 -68.4558 -68.4540 -68.4089 -68.4083 -68.4081 -68.4065
    -8.2457  -7.9196   3.0215   3.3081   3.8740   3.8853   3.8874   4.2061
     4.4516   4.5739   4.8071   4.8280   5.3246   5.5840   6.5000   6.5341
     7.7218   7.8162

     occupation numbers 
     1.0000   1.0000   1.0000   1.0000   1.0000   1.0000   1.0000   1.0000
     1.0000   1.0000   1.0000   1.0000   1.0000   1.0000   1.0000   1.0000
     1.0000   1.0000   1.0000   1.0000   1.0000   1.0000   1.0000   1.0000
     1.0000   1.0000

          k =-0.5000-0.8660 0.0885 (  3762 PWs)   bands (ev):

  -114.0644-114.0642 -68.4557 -68.4541 -68.4089 -68.4082 -68.4081 -68.4066
    -8.2291  -7.9272   2.9811   3.2488   3.8141   3.8669   3.8807   4.1237
     4.4660   4.6050   4.7882   4.8220   5.3226   5.5207   6.5590   6.7948
     7.6834   7.9782

     occupation numbers 
     1.0000   1.0000   1.0000   1.0000   1.0000   1.0000   1.0000   1.0000
     1.0000   1.0000   1.0000   1.0000   1.0000   1.0000   1.0000   1.0000
     1.0000   1.0000   1.0000   1.0000   1.0000   1.0000   1.0000   1.0000
     1.0000   1.0000

          k =-0.5000-0.8660 0.1769 (  3770 PWs)   bands (ev):

  -114.0644-114.0643 -68.4555 -68.4543 -68.4088 -68.4081 -68.4080 -68.4068
    -8.1832  -7.9510   2.8759   3.0887   3.7094   3.8509   3.8638   3.9539
     4.5044   4.6601   4.7404   4.8068   5.3318   5.4452   6.7183   7.3517
     7.5714   8.3032

     occupation numbers 
     1.0000   1.0000   1.0000   1.0000   1.0000   1.0000   1.0000   1.0000
     1.0000   1.0000   1.0000   1.0000   1.0000   1.0000   1.0000   1.0000
     1.0000   1.0000   1.0000   1.0000   1.0000   1.0000   1.0000   1.0000
     1.0000   1.0000

          k =-0.5000-0.8660 0.2654 (  3778 PWs)   bands (ev):

  -114.0643-114.0643 -68.4553 -68.4546 -68.4086 -68.4083 -68.4077 -68.4070
    -8.1193  -7.9930   2.7795   2.8996   3.6740   3.8050   3.8375   3.8456
     4.5574   4.6800   4.7095   4.7832   5.3551   5.4058   6.9378   7.3960
     7.9374   8.4943

     occupation numbers 
     1.0000   1.0000   1.0000   1.0000   1.0000   1.0000   1.0000   1.0000
     1.0000   1.0000   1.0000   1.0000   1.0000   1.0000   1.0000   1.0000
     1.0000   1.0000   1.0000   1.0000   1.0000   1.0000   1.0000   1.0000
     1.0000   1.0000

          k =-0.5000-0.8660-0.3539 (  3776 PWs)   bands (ev):

  -114.0643-114.0643 -68.4550 -68.4550 -68.4085 -68.4085 -68.4074 -68.4074
    -8.0516  -8.0514   2.7794   2.7794   3.7099   3.7100   3.8351   3.8351
     4.6174   4.6174   4.7505   4.7505   5.3805   5.3806   7.1756   7.1757
     8.3659   8.3660

     occupation numbers 
     1.0000   1.0000   1.0000   1.0000   1.0000   1.0000   1.0000   1.0000
     1.0000   1.0000   1.0000   1.0000   1.0000   1.0000   1.0000   1.0000
     1.0000   1.0000   1.0000   1.0000   1.0000   1.0000   1.0000   1.0000
     1.0000   1.0000

     highest occupied level (ev):     9.0228

!    total energy              =    -987.06682143 Ry
     Harris-Foulkes estimate   =    -987.06682146 Ry
     estimated scf accuracy    <       0.00000007 Ry

     The total energy is the sum of the following terms:

     one-electron contribution =    -796.28781926 Ry
     hartree contribution      =     420.12570281 Ry
     xc contribution           =     -98.08662322 Ry
     ewald contribution        =    -512.81808176 Ry

     convergence has been achieved in   7 iterations

     Forces acting on atoms (cartesian axes, Ry/au):

     atom    1 type  2   force =    -0.00000119    0.00000103    0.01086432
     atom    2 type  2   force =    -0.00000090    0.00000103    0.01086539
     atom    3 type  1   force =     0.00000102   -0.00000086   -0.01085398
     atom    4 type  1   force =     0.00000107   -0.00000120   -0.01087572
     The non-local contrib.  to forces
     atom    1 type  2   force =     0.00000123   -0.00000327    0.05781181
     atom    2 type  2   force =     0.00000019    0.00000017    0.05781645
     atom    3 type  1   force =     0.00000059   -0.00000517    0.14005105
     atom    4 type  1   force =     0.00000267   -0.00000287    0.14004364
     The ionic contribution  to forces
     atom    1 type  2   force =    -0.00001896    0.00004093   -0.82274554
     atom    2 type  2   force =    -0.00000230    0.00001281   -0.82274482
     atom    3 type  1   force =     0.00000102   -0.00002339    0.82274973
     atom    4 type  1   force =     0.00002025   -0.00003035    0.82274063
     The local contribution  to forces
     atom    1 type  2   force =     0.00001733   -0.00003821    0.77626864
     atom    2 type  2   force =     0.00000323   -0.00001237    0.77626291
     atom    3 type  1   force =    -0.00000206    0.00002808   -0.97387152
     atom    4 type  1   force =    -0.00002287    0.00003317   -0.97382357
     The core correction contribution to forces
     atom    1 type  2   force =    -0.00000001    0.00000001   -0.00031710
     atom    2 type  2   force =     0.00000001   -0.00000001   -0.00031715
     atom    3 type  1   force =     0.00000000    0.00000000    0.00000000
     atom    4 type  1   force =     0.00000000    0.00000000    0.00000000
     The Hubbard contrib.    to forces
     atom    1 type  2   force =     0.00000000    0.00000000    0.00000000
     atom    2 type  2   force =     0.00000000    0.00000000    0.00000000
     atom    3 type  1   force =     0.00000000    0.00000000    0.00000000
     atom    4 type  1   force =     0.00000000    0.00000000    0.00000000
     The SCF correction term to forces
     atom    1 type  2   force =     0.00000000    0.00000000    0.00000000
     atom    2 type  2   force =     0.00000000    0.00000000    0.00000000
     atom    3 type  1   force =     0.00000000    0.00000000    0.00000000
     atom    4 type  1   force =     0.00000000    0.00000000    0.00000000

     Total force =     0.000000     Total SCF correction =     0.000000


     Computing stress (Cartesian axis) and pressure

          total   stress  (Ry/bohr**3)                   (kbar)     P=   -2.39
  -0.00001203   0.00000000   0.00000000         -1.77      0.00      0.00
   0.00000000  -0.00001203  -0.00000001          0.00     -1.77     -0.00
   0.00000000  -0.00000001  -0.00002475          0.00     -0.00     -3.64

     kinetic stress (kbar)  34473.89     -0.00      0.00
                               -0.00  34473.89     -0.00
                                0.00     -0.00  34891.04

     local   stress (kbar)  -2186.88     -0.05      0.02
                               -0.05  -2187.05     -0.05
                                0.02     -0.05  -6466.70

     nonloc. stress (kbar)  -1681.93      0.00     -0.00
                                0.00  -1681.93      0.00
                               -0.00      0.00  -1847.82

     hartree stress (kbar)  64912.14      0.02     -0.01
                                0.02  64912.22      0.02
                               -0.01      0.02  68112.65

     exc-cor stress (kbar) -14451.18      0.00     -0.00
                                0.00 -14451.18      0.00
                               -0.00      0.00 -14457.36

     corecor stress (kbar)   -254.11      0.00     -0.00
                                0.00   -254.11      0.00
                               -0.00      0.00   -254.91

     ewald   stress (kbar) -80813.71      0.03     -0.01
                                0.03 -80813.62      0.03
                               -0.01      0.03 -79980.54

     hubbard stress (kbar)      0.00      0.00      0.00
                                0.00      0.00      0.00
                                0.00      0.00      0.00

     london  stress (kbar)      0.00      0.00      0.00
                                0.00      0.00      0.00
                                0.00      0.00      0.00

     DFT-D3  stress (kbar)      0.00      0.00      0.00
                                0.00      0.00      0.00
                                0.00      0.00      0.00

     XDM     stress (kbar)      0.00      0.00      0.00
                                0.00      0.00      0.00
                                0.00      0.00      0.00

     dft-nl  stress (kbar)      0.00      0.00      0.00
                                0.00      0.00      0.00
                                0.00      0.00      0.00

     TS-vdW  stress (kbar)      0.00      0.00      0.00
                                0.00      0.00      0.00
                                0.00      0.00      0.00



     Writing output data file ZnO.save/
 
     init_run     :      0.55s CPU      0.85s WALL (       1 calls)
     electrons    :      7.38s CPU      7.89s WALL (       1 calls)
     forces       :      0.15s CPU      0.16s WALL (       1 calls)
     stress       :      0.27s CPU      0.28s WALL (       1 calls)

     Called by init_run:
     wfcinit      :      0.41s CPU      0.57s WALL (       1 calls)
     wfcinit:atom :      0.00s CPU      0.00s WALL (      65 calls)
     wfcinit:wfcr :      0.39s CPU      0.55s WALL (      65 calls)
     potinit      :      0.06s CPU      0.08s WALL (       1 calls)
     hinit0       :      0.07s CPU      0.15s WALL (       1 calls)

     Called by electrons:
     c_bands      :      6.23s CPU      6.65s WALL (       7 calls)
     sum_band     :      0.90s CPU      0.94s WALL (       7 calls)
     v_of_rho     :      0.22s CPU      0.24s WALL (       8 calls)
     v_h          :      0.00s CPU      0.00s WALL (       8 calls)
     v_xc         :      0.27s CPU      0.29s WALL (      10 calls)
     newd         :      0.03s CPU      0.05s WALL (       8 calls)
     mix_rho      :      0.01s CPU      0.02s WALL (       7 calls)

     Called by c_bands:
     init_us_2    :      0.07s CPU      0.08s WALL (    1105 calls)
     cegterg      :      5.90s CPU      6.15s WALL (     455 calls)

     Called by sum_band:
     sum_band:bec :      0.01s CPU      0.01s WALL (     455 calls)
     addusdens    :      0.03s CPU      0.03s WALL (       7 calls)

     Called by *egterg:
     h_psi        :      3.77s CPU      3.90s WALL (    1467 calls)
     s_psi        :      0.11s CPU      0.11s WALL (    1467 calls)
     g_psi        :      0.01s CPU      0.01s WALL (     947 calls)
     cdiaghg      :      1.54s CPU      1.72s WALL (    1402 calls)
     cegterg:over :      0.35s CPU      0.41s WALL (     947 calls)
     cegterg:upda :      0.19s CPU      0.19s WALL (     947 calls)
     cegterg:last :      0.13s CPU      0.13s WALL (     455 calls)
     cdiaghg:chol :      0.14s CPU      0.19s WALL (    1402 calls)
     cdiaghg:inve :      0.02s CPU      0.03s WALL (    1402 calls)
     cdiaghg:para :      0.14s CPU      0.16s WALL (    2804 calls)

     Called by h_psi:
     h_psi:pot    :      3.76s CPU      3.89s WALL (    1467 calls)
     h_psi:calbec :      0.20s CPU      0.21s WALL (    1467 calls)
     vloc_psi     :      3.45s CPU      3.55s WALL (    1467 calls)
     add_vuspsi   :      0.11s CPU      0.12s WALL (    1467 calls)

     General routines
     calbec       :      0.32s CPU      0.34s WALL (    2247 calls)
     fft          :      0.04s CPU      0.07s WALL (     127 calls)
     ffts         :      0.00s CPU      0.00s WALL (      15 calls)
     fftw         :      3.93s CPU      4.05s WALL (   74134 calls)
     interpolate  :      0.00s CPU      0.01s WALL (       8 calls)
 
     Parallel routines
     fft_scatt_xy :      0.61s CPU      0.63s WALL (   74276 calls)
     fft_scatt_yz :      2.00s CPU      2.06s WALL (   74276 calls)
 
     PWSCF        :      8.67s CPU     10.47s WALL

 
   This run was terminated on:  20:44:44  15Jun2022            

=------------------------------------------------------------------------------=
   JOB DONE.
=------------------------------------------------------------------------------=
