
     Program PWSCF v.6.4.1 starts on  8Jun2022 at 16:33:32 

     This program is part of the open-source Quantum ESPRESSO suite
     for quantum simulation of materials; please cite
         "P. Giannozzi et al., J. Phys.:Condens. Matter 21 395502 (2009);
         "P. Giannozzi et al., J. Phys.:Condens. Matter 29 465901 (2017);
          URL http://www.quantum-espresso.org", 
     in publications or presentations arising from this work. More details at
     http://www.quantum-espresso.org/quote

     Parallel version (MPI), running on    64 processors

     MPI processes distributed on     1 nodes
     K-points division:     npool     =       4
     R & G space division:  proc/nbgrp/npool/nimage =      16
     Waiting for input...
     Reading input from standard input

     Current dimensions of program PWSCF are:
     Max number of different atomic species (ntypx) = 10
     Max number of k-points (npk) =  40000
     Max angular momentum in pseudopotentials (lmaxx) =  3

     Subspace diagonalization in iterative solution of the eigenvalue problem:
     one sub-group per band group will be used
     scalapack distributed-memory algorithm (size of sub-group:  2*  2 procs)

 
     Parallelization info
     --------------------
     sticks:   dense  smooth     PW     G-vecs:    dense   smooth      PW
     Min          95      51     15                 4937     1921     333
     Max          96      52     16                 4944     1926     340
     Sum        1531     823    253                79067    30771    5395
 


     bravais-lattice index     =            0
     lattice parameter (alat)  =       6.1103  a.u.
     unit-cell volume          =     318.8455 (a.u.)^3
     number of atoms/cell      =            4
     number of atomic types    =            2
     number of electrons       =        32.00
     number of Kohn-Sham states=           16
     kinetic-energy cutoff     =      80.0000  Ry
     charge density cutoff     =     600.0000  Ry
     convergence threshold     =      1.0E-06
     mixing beta               =       0.5000
     number of iterations used =            8  plain     mixing
     Exchange-correlation      = SLA  PW   PSX  PSC ( 1  4 10  8 0 0)
     Using LIBXC version       =    4   3   4
     nstep                     =          200


     celldm(1)=   6.110292  celldm(2)=   0.000000  celldm(3)=   0.000000
     celldm(4)=   0.000000  celldm(5)=   0.000000  celldm(6)=   0.000000

     crystal axes: (cart. coord. in units of alat)
               a(1) = (   1.000000  -0.000000  -0.000000 )  
               a(2) = (  -0.500000   0.866025  -0.000000 )  
               a(3) = (  -0.000000  -0.000000   1.613853 )  

     reciprocal axes: (cart. coord. in units 2 pi/alat)
               b(1) = (  1.000000  0.577350  0.000000 )  
               b(2) = (  0.000000  1.154701  0.000000 )  
               b(3) = (  0.000000  0.000000  0.619635 )  


     PseudoPot. # 1 for Mg read from file:
     ./GBRV_PBEsol/mg_pbesol_v1.4.uspp.F.UPF
     MD5 check sum: 4059f37963cf5867752dbf5ab2400678
     Pseudo is Ultrasoft, Zval = 10.0
     Generated by new atomic code, or converted to UPF format
     Using radial grid of  821 points,  7 beta functions with: 
                l(1) =   0
                l(2) =   0
                l(3) =   0
                l(4) =   1
                l(5) =   1
                l(6) =   2
                l(7) =   2
     Q(r) pseudized with  8 coefficients,  rinner =    1.200   1.200   1.200
                                                       1.200   1.200

     PseudoPot. # 2 for O  read from file:
     ./GBRV_PBEsol/o_pbesol_v1.2.uspp.F.UPF
     MD5 check sum: 501638753501ef6325af9037351f7734
     Pseudo is Ultrasoft + core correction, Zval =  6.0
     Generated by new atomic code, or converted to UPF format
     Using radial grid of  737 points,  5 beta functions with: 
                l(1) =   0
                l(2) =   0
                l(3) =   1
                l(4) =   1
                l(5) =   2
     Q(r) pseudized with  8 coefficients,  rinner =    0.900   0.900   0.900
                                                       0.900   0.900

     atomic species   valence    mass     pseudopotential
        Mg            10.00    24.30500     Mg( 1.00)
        O              6.00    15.99900     O ( 1.00)

     No symmetry found


                                    s                        frac. trans.

      isym =  1     identity                                     

 cryst.   s( 1) = (     1          0          0      )
                  (     0          1          0      )
                  (     0          0          1      )

 cart.    s( 1) = (  1.0000000  0.0000000 -0.0000000 )
                  ( -0.0000000  1.0000000  0.0000000 )
                  ( -0.0000000 -0.0000000  1.0000000 )


   Cartesian axes

     site n.     atom                  positions (alat units)
         1           O   tau(   1) = (   0.5000001   0.2886754   0.0118550  )
         2           O   tau(   2) = (  -0.0000000   0.5773492   0.8187812  )
         3           Mg  tau(   3) = (   0.4999999   0.2886746   0.9785659  )
         4           Mg  tau(   4) = (  -0.0000004   0.5773508   1.7854921  )

   Crystallographic axes

     site n.     atom                  positions (cryst. coord.)
         1           O   tau(   1) = (  0.6666670  0.3333337  0.0073459  )
         2           O   tau(   2) = (  0.3333329  0.6666657  0.5073458  )
         3           Mg  tau(   3) = (  0.6666664  0.3333329  0.6063540  )
         4           Mg  tau(   4) = (  0.3333336  0.6666677  1.1063539  )

     number of k points=   260
                       cart. coord. in units 2pi/alat
        k(    1) = (   0.0000000   0.0000000   0.0000000), wk =   0.0039062
        k(    2) = (   0.0000000   0.0000000   0.0774544), wk =   0.0078125
        k(    3) = (   0.0000000   0.0000000   0.1549088), wk =   0.0078125
        k(    4) = (   0.0000000   0.0000000   0.2323632), wk =   0.0078125
        k(    5) = (  -0.0000000  -0.0000000  -0.3098176), wk =   0.0039062
        k(    6) = (   0.0000000   0.1443376   0.0000000), wk =   0.0078125
        k(    7) = (   0.0000000   0.1443376   0.0774544), wk =   0.0078125
        k(    8) = (   0.0000000   0.1443376   0.1549088), wk =   0.0078125
        k(    9) = (   0.0000000   0.1443376   0.2323633), wk =   0.0078125
        k(   10) = (  -0.0000000   0.1443375  -0.3098176), wk =   0.0078125
        k(   11) = (  -0.0000000   0.1443376  -0.2323632), wk =   0.0078125
        k(   12) = (  -0.0000000   0.1443376  -0.1549088), wk =   0.0078125
        k(   13) = (  -0.0000000   0.1443376  -0.0774544), wk =   0.0078125
        k(   14) = (   0.0000000   0.2886752   0.0000000), wk =   0.0078125
        k(   15) = (   0.0000000   0.2886752   0.0774545), wk =   0.0078125
        k(   16) = (   0.0000000   0.2886752   0.1549089), wk =   0.0078125
        k(   17) = (   0.0000000   0.2886752   0.2323633), wk =   0.0078125
        k(   18) = (  -0.0000000   0.2886751  -0.3098176), wk =   0.0078125
        k(   19) = (  -0.0000000   0.2886752  -0.2323632), wk =   0.0078125
        k(   20) = (  -0.0000000   0.2886752  -0.1549088), wk =   0.0078125
        k(   21) = (  -0.0000000   0.2886752  -0.0774544), wk =   0.0078125
        k(   22) = (   0.0000000   0.4330128   0.0000001), wk =   0.0078125
        k(   23) = (   0.0000000   0.4330128   0.0774545), wk =   0.0078125
        k(   24) = (   0.0000000   0.4330128   0.1549089), wk =   0.0078125
        k(   25) = (   0.0000000   0.4330128   0.2323633), wk =   0.0078125
        k(   26) = (  -0.0000000   0.4330127  -0.3098176), wk =   0.0078125
        k(   27) = (  -0.0000000   0.4330127  -0.2323632), wk =   0.0078125
        k(   28) = (  -0.0000000   0.4330128  -0.1549088), wk =   0.0078125
        k(   29) = (  -0.0000000   0.4330128  -0.0774543), wk =   0.0078125
        k(   30) = (  -0.0000000  -0.5773504  -0.0000001), wk =   0.0039062
        k(   31) = (  -0.0000000  -0.5773504   0.0774543), wk =   0.0078125
        k(   32) = (   0.0000000  -0.5773503   0.1549087), wk =   0.0078125
        k(   33) = (   0.0000000  -0.5773503   0.2323631), wk =   0.0078125
        k(   34) = (  -0.0000000  -0.5773504  -0.3098177), wk =   0.0039062
        k(   35) = (   0.1250000   0.0721688   0.0000000), wk =   0.0078125
        k(   36) = (   0.1250000   0.0721688   0.0774544), wk =   0.0078125
        k(   37) = (   0.1250000   0.0721688   0.1549088), wk =   0.0078125
        k(   38) = (   0.1250000   0.0721688   0.2323633), wk =   0.0078125
        k(   39) = (   0.1250000   0.0721688  -0.3098176), wk =   0.0078125
        k(   40) = (   0.1250000   0.0721688  -0.2323632), wk =   0.0078125
        k(   41) = (   0.1250000   0.0721688  -0.1549088), wk =   0.0078125
        k(   42) = (   0.1250000   0.0721688  -0.0774544), wk =   0.0078125
        k(   43) = (   0.1250000   0.2165064   0.0000000), wk =   0.0078125
        k(   44) = (   0.1250000   0.2165064   0.0774545), wk =   0.0078125
        k(   45) = (   0.1250000   0.2165064   0.1549089), wk =   0.0078125
        k(   46) = (   0.1250000   0.2165064   0.2323633), wk =   0.0078125
        k(   47) = (   0.1250000   0.2165063  -0.3098176), wk =   0.0078125
        k(   48) = (   0.1250000   0.2165064  -0.2323632), wk =   0.0078125
        k(   49) = (   0.1250000   0.2165064  -0.1549088), wk =   0.0078125
        k(   50) = (   0.1250000   0.2165064  -0.0774544), wk =   0.0078125
        k(   51) = (   0.1250000   0.3608440   0.0000001), wk =   0.0078125
        k(   52) = (   0.1250000   0.3608440   0.0774545), wk =   0.0078125
        k(   53) = (   0.1250000   0.3608440   0.1549089), wk =   0.0078125
        k(   54) = (   0.1250000   0.3608440   0.2323633), wk =   0.0078125
        k(   55) = (   0.1250000   0.3608439  -0.3098176), wk =   0.0078125
        k(   56) = (   0.1250000   0.3608440  -0.2323632), wk =   0.0078125
        k(   57) = (   0.1250000   0.3608440  -0.1549088), wk =   0.0078125
        k(   58) = (   0.1250000   0.3608440  -0.0774543), wk =   0.0078125
        k(   59) = (   0.1250000   0.5051816   0.0000001), wk =   0.0078125
        k(   60) = (   0.1250000   0.5051816   0.0774545), wk =   0.0078125
        k(   61) = (   0.1250000   0.5051816   0.1549089), wk =   0.0078125
        k(   62) = (   0.1250000   0.5051816   0.2323633), wk =   0.0078125
        k(   63) = (   0.1250000   0.5051815  -0.3098176), wk =   0.0078125
        k(   64) = (   0.1250000   0.5051815  -0.2323631), wk =   0.0078125
        k(   65) = (   0.1250000   0.5051816  -0.1549087), wk =   0.0078125
        k(   66) = (   0.1250000   0.5051816  -0.0774543), wk =   0.0078125
        k(   67) = (   0.1250000  -0.5051816  -0.0000001), wk =   0.0078125
        k(   68) = (   0.1250000  -0.5051816   0.0774543), wk =   0.0078125
        k(   69) = (   0.1250000  -0.5051816   0.1549088), wk =   0.0078125
        k(   70) = (   0.1250000  -0.5051815   0.2323632), wk =   0.0078125
        k(   71) = (   0.1250000  -0.5051816  -0.3098177), wk =   0.0078125
        k(   72) = (   0.1250000  -0.5051816  -0.2323633), wk =   0.0078125
        k(   73) = (   0.1250000  -0.5051816  -0.1549089), wk =   0.0078125
        k(   74) = (   0.1250000  -0.5051816  -0.0774545), wk =   0.0078125
        k(   75) = (   0.1250000  -0.3608440  -0.0000000), wk =   0.0078125
        k(   76) = (   0.1250000  -0.3608440   0.0774544), wk =   0.0078125
        k(   77) = (   0.1250000  -0.3608440   0.1549088), wk =   0.0078125
        k(   78) = (   0.1250000  -0.3608439   0.2323632), wk =   0.0078125
        k(   79) = (   0.1250000  -0.3608440  -0.3098177), wk =   0.0078125
        k(   80) = (   0.1250000  -0.3608440  -0.2323633), wk =   0.0078125
        k(   81) = (   0.1250000  -0.3608440  -0.1549089), wk =   0.0078125
        k(   82) = (   0.1250000  -0.3608440  -0.0774545), wk =   0.0078125
        k(   83) = (   0.1250000  -0.2165064  -0.0000000), wk =   0.0078125
        k(   84) = (   0.1250000  -0.2165064   0.0774544), wk =   0.0078125
        k(   85) = (   0.1250000  -0.2165064   0.1549088), wk =   0.0078125
        k(   86) = (   0.1250000  -0.2165064   0.2323632), wk =   0.0078125
        k(   87) = (   0.1250000  -0.2165064  -0.3098177), wk =   0.0078125
        k(   88) = (   0.1250000  -0.2165064  -0.2323633), wk =   0.0078125
        k(   89) = (   0.1250000  -0.2165064  -0.1549088), wk =   0.0078125
        k(   90) = (   0.1250000  -0.2165064  -0.0774544), wk =   0.0078125
        k(   91) = (   0.1250000  -0.0721688   0.0000000), wk =   0.0078125
        k(   92) = (   0.1250000  -0.0721688   0.0774544), wk =   0.0078125
        k(   93) = (   0.1250000  -0.0721688   0.1549088), wk =   0.0078125
        k(   94) = (   0.1250000  -0.0721688   0.2323632), wk =   0.0078125
        k(   95) = (   0.1250000  -0.0721688  -0.3098176), wk =   0.0078125
        k(   96) = (   0.1250000  -0.0721688  -0.2323632), wk =   0.0078125
        k(   97) = (   0.1250000  -0.0721688  -0.1549088), wk =   0.0078125
        k(   98) = (   0.1250000  -0.0721688  -0.0774544), wk =   0.0078125
        k(   99) = (   0.2500000   0.1443376   0.0000000), wk =   0.0078125
        k(  100) = (   0.2500000   0.1443376   0.0774545), wk =   0.0078125
        k(  101) = (   0.2500000   0.1443376   0.1549089), wk =   0.0078125
        k(  102) = (   0.2500000   0.1443376   0.2323633), wk =   0.0078125
        k(  103) = (   0.2500000   0.1443376  -0.3098176), wk =   0.0078125
        k(  104) = (   0.2500000   0.1443376  -0.2323632), wk =   0.0078125
        k(  105) = (   0.2500000   0.1443376  -0.1549088), wk =   0.0078125
        k(  106) = (   0.2500000   0.1443376  -0.0774544), wk =   0.0078125
        k(  107) = (   0.2500000   0.2886752   0.0000001), wk =   0.0078125
        k(  108) = (   0.2500000   0.2886752   0.0774545), wk =   0.0078125
        k(  109) = (   0.2500000   0.2886752   0.1549089), wk =   0.0078125
        k(  110) = (   0.2500000   0.2886752   0.2323633), wk =   0.0078125
        k(  111) = (   0.2500000   0.2886751  -0.3098176), wk =   0.0078125
        k(  112) = (   0.2500000   0.2886752  -0.2323632), wk =   0.0078125
        k(  113) = (   0.2500000   0.2886752  -0.1549088), wk =   0.0078125
        k(  114) = (   0.2500000   0.2886752  -0.0774543), wk =   0.0078125
        k(  115) = (   0.2500000   0.4330128   0.0000001), wk =   0.0078125
        k(  116) = (   0.2500000   0.4330128   0.0774545), wk =   0.0078125
        k(  117) = (   0.2500000   0.4330128   0.1549089), wk =   0.0078125
        k(  118) = (   0.2500000   0.4330128   0.2323633), wk =   0.0078125
        k(  119) = (   0.2500000   0.4330127  -0.3098176), wk =   0.0078125
        k(  120) = (   0.2500000   0.4330127  -0.2323631), wk =   0.0078125
        k(  121) = (   0.2500000   0.4330128  -0.1549087), wk =   0.0078125
        k(  122) = (   0.2500000   0.4330128  -0.0774543), wk =   0.0078125
        k(  123) = (   0.2500000   0.5773504   0.0000001), wk =   0.0078125
        k(  124) = (   0.2500000   0.5773504   0.0774545), wk =   0.0078125
        k(  125) = (   0.2500000   0.5773504   0.1549089), wk =   0.0078125
        k(  126) = (   0.2500000   0.5773504   0.2323633), wk =   0.0078125
        k(  127) = (   0.2500000   0.5773503  -0.3098175), wk =   0.0078125
        k(  128) = (   0.2500000   0.5773503  -0.2323631), wk =   0.0078125
        k(  129) = (   0.2500000   0.5773504  -0.1549087), wk =   0.0078125
        k(  130) = (   0.2500000   0.5773504  -0.0774543), wk =   0.0078125
        k(  131) = (   0.2500000  -0.4330128  -0.0000000), wk =   0.0078125
        k(  132) = (   0.2500000  -0.4330128   0.0774544), wk =   0.0078125
        k(  133) = (   0.2500000  -0.4330128   0.1549088), wk =   0.0078125
        k(  134) = (   0.2500000  -0.4330127   0.2323632), wk =   0.0078125
        k(  135) = (   0.2500000  -0.4330128  -0.3098177), wk =   0.0078125
        k(  136) = (   0.2500000  -0.4330128  -0.2323633), wk =   0.0078125
        k(  137) = (   0.2500000  -0.4330128  -0.1549089), wk =   0.0078125
        k(  138) = (   0.2500000  -0.4330128  -0.0774545), wk =   0.0078125
        k(  139) = (   0.2500000  -0.2886752  -0.0000000), wk =   0.0078125
        k(  140) = (   0.2500000  -0.2886752   0.0774544), wk =   0.0078125
        k(  141) = (   0.2500000  -0.2886752   0.1549088), wk =   0.0078125
        k(  142) = (   0.2500000  -0.2886751   0.2323632), wk =   0.0078125
        k(  143) = (   0.2500000  -0.2886752  -0.3098177), wk =   0.0078125
        k(  144) = (   0.2500000  -0.2886752  -0.2323633), wk =   0.0078125
        k(  145) = (   0.2500000  -0.2886752  -0.1549088), wk =   0.0078125
        k(  146) = (   0.2500000  -0.2886752  -0.0774544), wk =   0.0078125
        k(  147) = (   0.2500000  -0.1443376   0.0000000), wk =   0.0078125
        k(  148) = (   0.2500000  -0.1443376   0.0774544), wk =   0.0078125
        k(  149) = (   0.2500000  -0.1443376   0.1549088), wk =   0.0078125
        k(  150) = (   0.2500000  -0.1443376   0.2323632), wk =   0.0078125
        k(  151) = (   0.2500000  -0.1443376  -0.3098176), wk =   0.0078125
        k(  152) = (   0.2500000  -0.1443376  -0.2323632), wk =   0.0078125
        k(  153) = (   0.2500000  -0.1443376  -0.1549088), wk =   0.0078125
        k(  154) = (   0.2500000  -0.1443376  -0.0774544), wk =   0.0078125
        k(  155) = (   0.2500000   0.0000000   0.0000000), wk =   0.0078125
        k(  156) = (   0.2500000   0.0000000   0.0774544), wk =   0.0078125
        k(  157) = (   0.2500000   0.0000000   0.1549088), wk =   0.0078125
        k(  158) = (   0.2500000   0.0000000   0.2323633), wk =   0.0078125
        k(  159) = (   0.2500000  -0.0000000  -0.3098176), wk =   0.0078125
        k(  160) = (   0.2500000  -0.0000000  -0.2323632), wk =   0.0078125
        k(  161) = (   0.2500000  -0.0000000  -0.1549088), wk =   0.0078125
        k(  162) = (   0.2500000  -0.0000000  -0.0774544), wk =   0.0078125
        k(  163) = (   0.3750000   0.2165064   0.0000001), wk =   0.0078125
        k(  164) = (   0.3750000   0.2165064   0.0774545), wk =   0.0078125
        k(  165) = (   0.3750000   0.2165064   0.1549089), wk =   0.0078125
        k(  166) = (   0.3750000   0.2165064   0.2323633), wk =   0.0078125
        k(  167) = (   0.3750000   0.2165063  -0.3098176), wk =   0.0078125
        k(  168) = (   0.3750000   0.2165064  -0.2323632), wk =   0.0078125
        k(  169) = (   0.3750000   0.2165064  -0.1549088), wk =   0.0078125
        k(  170) = (   0.3750000   0.2165064  -0.0774543), wk =   0.0078125
        k(  171) = (   0.3750000   0.3608440   0.0000001), wk =   0.0078125
        k(  172) = (   0.3750000   0.3608440   0.0774545), wk =   0.0078125
        k(  173) = (   0.3750000   0.3608440   0.1549089), wk =   0.0078125
        k(  174) = (   0.3750000   0.3608440   0.2323633), wk =   0.0078125
        k(  175) = (   0.3750000   0.3608439  -0.3098176), wk =   0.0078125
        k(  176) = (   0.3750000   0.3608440  -0.2323631), wk =   0.0078125
        k(  177) = (   0.3750000   0.3608440  -0.1549087), wk =   0.0078125
        k(  178) = (   0.3750000   0.3608440  -0.0774543), wk =   0.0078125
        k(  179) = (   0.3750000   0.5051816   0.0000001), wk =   0.0078125
        k(  180) = (   0.3750000   0.5051816   0.0774545), wk =   0.0078125
        k(  181) = (   0.3750000   0.5051816   0.1549089), wk =   0.0078125
        k(  182) = (   0.3750000   0.5051816   0.2323633), wk =   0.0078125
        k(  183) = (   0.3750000   0.5051815  -0.3098175), wk =   0.0078125
        k(  184) = (   0.3750000   0.5051815  -0.2323631), wk =   0.0078125
        k(  185) = (   0.3750000   0.5051816  -0.1549087), wk =   0.0078125
        k(  186) = (   0.3750000   0.5051816  -0.0774543), wk =   0.0078125
        k(  187) = (   0.3750000   0.6495192   0.0000001), wk =   0.0078125
        k(  188) = (   0.3750000   0.6495192   0.0774545), wk =   0.0078125
        k(  189) = (   0.3750000   0.6495192   0.1549090), wk =   0.0078125
        k(  190) = (   0.3750000   0.6495192   0.2323634), wk =   0.0078125
        k(  191) = (   0.3750000   0.6495191  -0.3098175), wk =   0.0078125
        k(  192) = (   0.3750000   0.6495191  -0.2323631), wk =   0.0078125
        k(  193) = (   0.3750000   0.6495192  -0.1549087), wk =   0.0078125
        k(  194) = (   0.3750000   0.6495192  -0.0774543), wk =   0.0078125
        k(  195) = (   0.3750000  -0.3608440  -0.0000000), wk =   0.0078125
        k(  196) = (   0.3750000  -0.3608440   0.0774544), wk =   0.0078125
        k(  197) = (   0.3750000  -0.3608440   0.1549088), wk =   0.0078125
        k(  198) = (   0.3750000  -0.3608439   0.2323632), wk =   0.0078125
        k(  199) = (   0.3750000  -0.3608440  -0.3098177), wk =   0.0078125
        k(  200) = (   0.3750000  -0.3608440  -0.2323632), wk =   0.0078125
        k(  201) = (   0.3750000  -0.3608440  -0.1549088), wk =   0.0078125
        k(  202) = (   0.3750000  -0.3608440  -0.0774544), wk =   0.0078125
        k(  203) = (   0.3750000  -0.2165064   0.0000000), wk =   0.0078125
        k(  204) = (   0.3750000  -0.2165064   0.0774544), wk =   0.0078125
        k(  205) = (   0.3750000  -0.2165064   0.1549088), wk =   0.0078125
        k(  206) = (   0.3750000  -0.2165063   0.2323632), wk =   0.0078125
        k(  207) = (   0.3750000  -0.2165064  -0.3098176), wk =   0.0078125
        k(  208) = (   0.3750000  -0.2165064  -0.2323632), wk =   0.0078125
        k(  209) = (   0.3750000  -0.2165064  -0.1549088), wk =   0.0078125
        k(  210) = (   0.3750000  -0.2165064  -0.0774544), wk =   0.0078125
        k(  211) = (   0.3750000  -0.0721688   0.0000000), wk =   0.0078125
        k(  212) = (   0.3750000  -0.0721688   0.0774544), wk =   0.0078125
        k(  213) = (   0.3750000  -0.0721688   0.1549088), wk =   0.0078125
        k(  214) = (   0.3750000  -0.0721688   0.2323633), wk =   0.0078125
        k(  215) = (   0.3750000  -0.0721688  -0.3098176), wk =   0.0078125
        k(  216) = (   0.3750000  -0.0721688  -0.2323632), wk =   0.0078125
        k(  217) = (   0.3750000  -0.0721688  -0.1549088), wk =   0.0078125
        k(  218) = (   0.3750000  -0.0721688  -0.0774544), wk =   0.0078125
        k(  219) = (   0.3750000   0.0721688   0.0000000), wk =   0.0078125
        k(  220) = (   0.3750000   0.0721688   0.0774545), wk =   0.0078125
        k(  221) = (   0.3750000   0.0721688   0.1549089), wk =   0.0078125
        k(  222) = (   0.3750000   0.0721688   0.2323633), wk =   0.0078125
        k(  223) = (   0.3750000   0.0721688  -0.3098176), wk =   0.0078125
        k(  224) = (   0.3750000   0.0721688  -0.2323632), wk =   0.0078125
        k(  225) = (   0.3750000   0.0721688  -0.1549088), wk =   0.0078125
        k(  226) = (   0.3750000   0.0721688  -0.0774544), wk =   0.0078125
        k(  227) = (  -0.5000000  -0.2886752  -0.0000001), wk =   0.0039062
        k(  228) = (  -0.5000000  -0.2886752   0.0774543), wk =   0.0078125
        k(  229) = (  -0.5000000  -0.2886752   0.1549087), wk =   0.0078125
        k(  230) = (  -0.5000000  -0.2886752   0.2323631), wk =   0.0078125
        k(  231) = (  -0.5000000  -0.2886752  -0.3098177), wk =   0.0039062
        k(  232) = (  -0.5000000  -0.1443376  -0.0000001), wk =   0.0078125
        k(  233) = (  -0.5000000  -0.1443376   0.0774543), wk =   0.0078125
        k(  234) = (  -0.5000000  -0.1443376   0.1549088), wk =   0.0078125
        k(  235) = (  -0.5000000  -0.1443376   0.2323632), wk =   0.0078125
        k(  236) = (  -0.5000000  -0.1443376  -0.3098177), wk =   0.0078125
        k(  237) = (  -0.5000000  -0.1443376  -0.2323633), wk =   0.0078125
        k(  238) = (  -0.5000000  -0.1443376  -0.1549089), wk =   0.0078125
        k(  239) = (  -0.5000000  -0.1443376  -0.0774545), wk =   0.0078125
        k(  240) = (  -0.5000000  -0.0000000  -0.0000000), wk =   0.0078125
        k(  241) = (  -0.5000000   0.0000000   0.0774544), wk =   0.0078125
        k(  242) = (  -0.5000000   0.0000000   0.1549088), wk =   0.0078125
        k(  243) = (  -0.5000000   0.0000000   0.2323632), wk =   0.0078125
        k(  244) = (  -0.5000000  -0.0000001  -0.3098177), wk =   0.0078125
        k(  245) = (  -0.5000000  -0.0000000  -0.2323633), wk =   0.0078125
        k(  246) = (  -0.5000000  -0.0000000  -0.1549089), wk =   0.0078125
        k(  247) = (  -0.5000000  -0.0000000  -0.0774545), wk =   0.0078125
        k(  248) = (  -0.5000000   0.1443376  -0.0000000), wk =   0.0078125
        k(  249) = (  -0.5000000   0.1443376   0.0774544), wk =   0.0078125
        k(  250) = (  -0.5000000   0.1443376   0.1549088), wk =   0.0078125
        k(  251) = (  -0.5000000   0.1443376   0.2323632), wk =   0.0078125
        k(  252) = (  -0.5000000   0.1443375  -0.3098177), wk =   0.0078125
        k(  253) = (  -0.5000000   0.1443375  -0.2323633), wk =   0.0078125
        k(  254) = (  -0.5000000   0.1443376  -0.1549089), wk =   0.0078125
        k(  255) = (  -0.5000000   0.1443376  -0.0774544), wk =   0.0078125
        k(  256) = (  -0.5000000  -0.8660256  -0.0000002), wk =   0.0039062
        k(  257) = (  -0.5000000  -0.8660256   0.0774542), wk =   0.0078125
        k(  258) = (  -0.5000000  -0.8660255   0.1549086), wk =   0.0078125
        k(  259) = (  -0.5000000  -0.8660255   0.2323631), wk =   0.0078125
        k(  260) = (  -0.5000000  -0.8660256  -0.3098178), wk =   0.0039062

                       cryst. coord.
        k(    1) = (   0.0000000   0.0000000   0.0000000), wk =   0.0039062
        k(    2) = (  -0.0000000  -0.0000000   0.1250000), wk =   0.0078125
        k(    3) = (  -0.0000000  -0.0000000   0.2500000), wk =   0.0078125
        k(    4) = (  -0.0000000  -0.0000000   0.3750000), wk =   0.0078125
        k(    5) = (   0.0000000   0.0000000  -0.5000000), wk =   0.0039062
        k(    6) = (  -0.0000000   0.1250000   0.0000000), wk =   0.0078125
        k(    7) = (   0.0000000   0.1250000   0.1250000), wk =   0.0078125
        k(    8) = (   0.0000000   0.1250000   0.2500000), wk =   0.0078125
        k(    9) = (   0.0000000   0.1250000   0.3750000), wk =   0.0078125
        k(   10) = (  -0.0000000   0.1250000  -0.5000000), wk =   0.0078125
        k(   11) = (  -0.0000000   0.1250000  -0.3750000), wk =   0.0078125
        k(   12) = (   0.0000000   0.1250000  -0.2500000), wk =   0.0078125
        k(   13) = (  -0.0000000   0.1250000  -0.1250000), wk =   0.0078125
        k(   14) = (  -0.0000000   0.2500000   0.0000000), wk =   0.0078125
        k(   15) = (   0.0000000   0.2500000   0.1250000), wk =   0.0078125
        k(   16) = (   0.0000000   0.2500000   0.2500000), wk =   0.0078125
        k(   17) = (   0.0000000   0.2500000   0.3750000), wk =   0.0078125
        k(   18) = (   0.0000000   0.2500000  -0.5000000), wk =   0.0078125
        k(   19) = (  -0.0000000   0.2500000  -0.3750000), wk =   0.0078125
        k(   20) = (  -0.0000000   0.2500000  -0.2500000), wk =   0.0078125
        k(   21) = (  -0.0000000   0.2500000  -0.1250000), wk =   0.0078125
        k(   22) = (   0.0000000   0.3750000  -0.0000000), wk =   0.0078125
        k(   23) = (  -0.0000000   0.3750000   0.1250000), wk =   0.0078125
        k(   24) = (   0.0000000   0.3750000   0.2500000), wk =   0.0078125
        k(   25) = (   0.0000000   0.3750000   0.3750000), wk =   0.0078125
        k(   26) = (  -0.0000000   0.3750000  -0.5000000), wk =   0.0078125
        k(   27) = (   0.0000000   0.3750000  -0.3750000), wk =   0.0078125
        k(   28) = (   0.0000000   0.3750000  -0.2500000), wk =   0.0078125
        k(   29) = (   0.0000000   0.3750000  -0.1250000), wk =   0.0078125
        k(   30) = (   0.0000000  -0.5000000  -0.0000000), wk =   0.0039062
        k(   31) = (  -0.0000000  -0.5000000   0.1250000), wk =   0.0078125
        k(   32) = (   0.0000000  -0.5000000   0.2500000), wk =   0.0078125
        k(   33) = (  -0.0000000  -0.5000000   0.3750000), wk =   0.0078125
        k(   34) = (  -0.0000000  -0.5000000  -0.5000000), wk =   0.0039062
        k(   35) = (   0.1250000  -0.0000000  -0.0000000), wk =   0.0078125
        k(   36) = (   0.1250000  -0.0000000   0.1250000), wk =   0.0078125
        k(   37) = (   0.1250000   0.0000000   0.2500000), wk =   0.0078125
        k(   38) = (   0.1250000  -0.0000000   0.3750000), wk =   0.0078125
        k(   39) = (   0.1250000  -0.0000000  -0.5000000), wk =   0.0078125
        k(   40) = (   0.1250000   0.0000000  -0.3750000), wk =   0.0078125
        k(   41) = (   0.1250000  -0.0000000  -0.2500000), wk =   0.0078125
        k(   42) = (   0.1250000  -0.0000000  -0.1250000), wk =   0.0078125
        k(   43) = (   0.1250000   0.1250000  -0.0000000), wk =   0.0078125
        k(   44) = (   0.1250000   0.1250000   0.1250000), wk =   0.0078125
        k(   45) = (   0.1250000   0.1250000   0.2500000), wk =   0.0078125
        k(   46) = (   0.1250000   0.1250000   0.3750000), wk =   0.0078125
        k(   47) = (   0.1250000   0.1250000  -0.5000000), wk =   0.0078125
        k(   48) = (   0.1250000   0.1250000  -0.3750000), wk =   0.0078125
        k(   49) = (   0.1250000   0.1250000  -0.2500000), wk =   0.0078125
        k(   50) = (   0.1250000   0.1250000  -0.1250000), wk =   0.0078125
        k(   51) = (   0.1250000   0.2500000   0.0000000), wk =   0.0078125
        k(   52) = (   0.1250000   0.2500000   0.1250000), wk =   0.0078125
        k(   53) = (   0.1250000   0.2500000   0.2500000), wk =   0.0078125
        k(   54) = (   0.1250000   0.2500000   0.3750000), wk =   0.0078125
        k(   55) = (   0.1250000   0.2500000  -0.5000000), wk =   0.0078125
        k(   56) = (   0.1250000   0.2500000  -0.3750000), wk =   0.0078125
        k(   57) = (   0.1250000   0.2500000  -0.2500000), wk =   0.0078125
        k(   58) = (   0.1250000   0.2500000  -0.1250000), wk =   0.0078125
        k(   59) = (   0.1250000   0.3750000  -0.0000000), wk =   0.0078125
        k(   60) = (   0.1250000   0.3750000   0.1250000), wk =   0.0078125
        k(   61) = (   0.1250000   0.3750000   0.2500000), wk =   0.0078125
        k(   62) = (   0.1250000   0.3750000   0.3750000), wk =   0.0078125
        k(   63) = (   0.1250000   0.3750000  -0.5000000), wk =   0.0078125
        k(   64) = (   0.1250000   0.3750000  -0.3750000), wk =   0.0078125
        k(   65) = (   0.1250000   0.3750000  -0.2500000), wk =   0.0078125
        k(   66) = (   0.1250000   0.3750000  -0.1250000), wk =   0.0078125
        k(   67) = (   0.1250000  -0.5000000  -0.0000000), wk =   0.0078125
        k(   68) = (   0.1250000  -0.5000000   0.1250000), wk =   0.0078125
        k(   69) = (   0.1250000  -0.5000000   0.2500000), wk =   0.0078125
        k(   70) = (   0.1250000  -0.5000000   0.3750000), wk =   0.0078125
        k(   71) = (   0.1250000  -0.5000000  -0.5000000), wk =   0.0078125
        k(   72) = (   0.1250000  -0.5000000  -0.3750000), wk =   0.0078125
        k(   73) = (   0.1250000  -0.5000000  -0.2500000), wk =   0.0078125
        k(   74) = (   0.1250000  -0.5000000  -0.1250000), wk =   0.0078125
        k(   75) = (   0.1250000  -0.3750000   0.0000000), wk =   0.0078125
        k(   76) = (   0.1250000  -0.3750000   0.1250000), wk =   0.0078125
        k(   77) = (   0.1250000  -0.3750000   0.2500000), wk =   0.0078125
        k(   78) = (   0.1250000  -0.3750000   0.3750000), wk =   0.0078125
        k(   79) = (   0.1250000  -0.3750000  -0.5000000), wk =   0.0078125
        k(   80) = (   0.1250000  -0.3750000  -0.3750000), wk =   0.0078125
        k(   81) = (   0.1250000  -0.3750000  -0.2500000), wk =   0.0078125
        k(   82) = (   0.1250000  -0.3750000  -0.1250000), wk =   0.0078125
        k(   83) = (   0.1250000  -0.2500000  -0.0000000), wk =   0.0078125
        k(   84) = (   0.1250000  -0.2500000   0.1250000), wk =   0.0078125
        k(   85) = (   0.1250000  -0.2500000   0.2500000), wk =   0.0078125
        k(   86) = (   0.1250000  -0.2500000   0.3750000), wk =   0.0078125
        k(   87) = (   0.1250000  -0.2500000  -0.5000000), wk =   0.0078125
        k(   88) = (   0.1250000  -0.2500000  -0.3750000), wk =   0.0078125
        k(   89) = (   0.1250000  -0.2500000  -0.2500000), wk =   0.0078125
        k(   90) = (   0.1250000  -0.2500000  -0.1250000), wk =   0.0078125
        k(   91) = (   0.1250000  -0.1250000  -0.0000000), wk =   0.0078125
        k(   92) = (   0.1250000  -0.1250000   0.1250000), wk =   0.0078125
        k(   93) = (   0.1250000  -0.1250000   0.2500000), wk =   0.0078125
        k(   94) = (   0.1250000  -0.1250000   0.3750000), wk =   0.0078125
        k(   95) = (   0.1250000  -0.1250000  -0.5000000), wk =   0.0078125
        k(   96) = (   0.1250000  -0.1250000  -0.3750000), wk =   0.0078125
        k(   97) = (   0.1250000  -0.1250000  -0.2500000), wk =   0.0078125
        k(   98) = (   0.1250000  -0.1250000  -0.1250000), wk =   0.0078125
        k(   99) = (   0.2500000  -0.0000000  -0.0000000), wk =   0.0078125
        k(  100) = (   0.2500000  -0.0000000   0.1250000), wk =   0.0078125
        k(  101) = (   0.2500000  -0.0000000   0.2500000), wk =   0.0078125
        k(  102) = (   0.2500000   0.0000000   0.3750000), wk =   0.0078125
        k(  103) = (   0.2500000  -0.0000000  -0.5000000), wk =   0.0078125
        k(  104) = (   0.2500000  -0.0000000  -0.3750000), wk =   0.0078125
        k(  105) = (   0.2500000  -0.0000000  -0.2500000), wk =   0.0078125
        k(  106) = (   0.2500000   0.0000000  -0.1250000), wk =   0.0078125
        k(  107) = (   0.2500000   0.1250000  -0.0000000), wk =   0.0078125
        k(  108) = (   0.2500000   0.1250000   0.1250000), wk =   0.0078125
        k(  109) = (   0.2500000   0.1250000   0.2500000), wk =   0.0078125
        k(  110) = (   0.2500000   0.1250000   0.3750000), wk =   0.0078125
        k(  111) = (   0.2500000   0.1250000  -0.5000000), wk =   0.0078125
        k(  112) = (   0.2500000   0.1250000  -0.3750000), wk =   0.0078125
        k(  113) = (   0.2500000   0.1250000  -0.2500000), wk =   0.0078125
        k(  114) = (   0.2500000   0.1250000  -0.1250000), wk =   0.0078125
        k(  115) = (   0.2500000   0.2500000  -0.0000000), wk =   0.0078125
        k(  116) = (   0.2500000   0.2500000   0.1250000), wk =   0.0078125
        k(  117) = (   0.2500000   0.2500000   0.2500000), wk =   0.0078125
        k(  118) = (   0.2500000   0.2500000   0.3750000), wk =   0.0078125
        k(  119) = (   0.2500000   0.2500000  -0.5000000), wk =   0.0078125
        k(  120) = (   0.2500000   0.2500000  -0.3750000), wk =   0.0078125
        k(  121) = (   0.2500000   0.2500000  -0.2500000), wk =   0.0078125
        k(  122) = (   0.2500000   0.2500000  -0.1250000), wk =   0.0078125
        k(  123) = (   0.2500000   0.3750000  -0.0000000), wk =   0.0078125
        k(  124) = (   0.2500000   0.3750000   0.1250000), wk =   0.0078125
        k(  125) = (   0.2500000   0.3750000   0.2500000), wk =   0.0078125
        k(  126) = (   0.2500000   0.3750000   0.3750000), wk =   0.0078125
        k(  127) = (   0.2500000   0.3750000  -0.5000000), wk =   0.0078125
        k(  128) = (   0.2500000   0.3750000  -0.3750000), wk =   0.0078125
        k(  129) = (   0.2500000   0.3750000  -0.2500000), wk =   0.0078125
        k(  130) = (   0.2500000   0.3750000  -0.1250000), wk =   0.0078125
        k(  131) = (   0.2500000  -0.5000000  -0.0000000), wk =   0.0078125
        k(  132) = (   0.2500000  -0.5000000   0.1250000), wk =   0.0078125
        k(  133) = (   0.2500000  -0.5000000   0.2500000), wk =   0.0078125
        k(  134) = (   0.2500000  -0.5000000   0.3750000), wk =   0.0078125
        k(  135) = (   0.2500000  -0.5000000  -0.5000000), wk =   0.0078125
        k(  136) = (   0.2500000  -0.5000000  -0.3750000), wk =   0.0078125
        k(  137) = (   0.2500000  -0.5000000  -0.2500000), wk =   0.0078125
        k(  138) = (   0.2500000  -0.5000000  -0.1250000), wk =   0.0078125
        k(  139) = (   0.2500000  -0.3750000  -0.0000000), wk =   0.0078125
        k(  140) = (   0.2500000  -0.3750000   0.1250000), wk =   0.0078125
        k(  141) = (   0.2500000  -0.3750000   0.2500000), wk =   0.0078125
        k(  142) = (   0.2500000  -0.3750000   0.3750000), wk =   0.0078125
        k(  143) = (   0.2500000  -0.3750000  -0.5000000), wk =   0.0078125
        k(  144) = (   0.2500000  -0.3750000  -0.3750000), wk =   0.0078125
        k(  145) = (   0.2500000  -0.3750000  -0.2500000), wk =   0.0078125
        k(  146) = (   0.2500000  -0.3750000  -0.1250000), wk =   0.0078125
        k(  147) = (   0.2500000  -0.2500000  -0.0000000), wk =   0.0078125
        k(  148) = (   0.2500000  -0.2500000   0.1250000), wk =   0.0078125
        k(  149) = (   0.2500000  -0.2500000   0.2500000), wk =   0.0078125
        k(  150) = (   0.2500000  -0.2500000   0.3750000), wk =   0.0078125
        k(  151) = (   0.2500000  -0.2500000  -0.5000000), wk =   0.0078125
        k(  152) = (   0.2500000  -0.2500000  -0.3750000), wk =   0.0078125
        k(  153) = (   0.2500000  -0.2500000  -0.2500000), wk =   0.0078125
        k(  154) = (   0.2500000  -0.2500000  -0.1250000), wk =   0.0078125
        k(  155) = (   0.2500000  -0.1250000  -0.0000000), wk =   0.0078125
        k(  156) = (   0.2500000  -0.1250000   0.1250000), wk =   0.0078125
        k(  157) = (   0.2500000  -0.1250000   0.2500000), wk =   0.0078125
        k(  158) = (   0.2500000  -0.1250000   0.3750000), wk =   0.0078125
        k(  159) = (   0.2500000  -0.1250000  -0.5000000), wk =   0.0078125
        k(  160) = (   0.2500000  -0.1250000  -0.3750000), wk =   0.0078125
        k(  161) = (   0.2500000  -0.1250000  -0.2500000), wk =   0.0078125
        k(  162) = (   0.2500000  -0.1250000  -0.1250000), wk =   0.0078125
        k(  163) = (   0.3750000  -0.0000000  -0.0000000), wk =   0.0078125
        k(  164) = (   0.3750000  -0.0000000   0.1250000), wk =   0.0078125
        k(  165) = (   0.3750000  -0.0000000   0.2500000), wk =   0.0078125
        k(  166) = (   0.3750000   0.0000000   0.3750000), wk =   0.0078125
        k(  167) = (   0.3750000   0.0000000  -0.5000000), wk =   0.0078125
        k(  168) = (   0.3750000   0.0000000  -0.3750000), wk =   0.0078125
        k(  169) = (   0.3750000   0.0000000  -0.2500000), wk =   0.0078125
        k(  170) = (   0.3750000  -0.0000000  -0.1250000), wk =   0.0078125
        k(  171) = (   0.3750000   0.1250000  -0.0000000), wk =   0.0078125
        k(  172) = (   0.3750000   0.1250000   0.1250000), wk =   0.0078125
        k(  173) = (   0.3750000   0.1250000   0.2500000), wk =   0.0078125
        k(  174) = (   0.3750000   0.1250000   0.3750000), wk =   0.0078125
        k(  175) = (   0.3750000   0.1250000  -0.5000000), wk =   0.0078125
        k(  176) = (   0.3750000   0.1250000  -0.3750000), wk =   0.0078125
        k(  177) = (   0.3750000   0.1250000  -0.2500000), wk =   0.0078125
        k(  178) = (   0.3750000   0.1250000  -0.1250000), wk =   0.0078125
        k(  179) = (   0.3750000   0.2500000  -0.0000000), wk =   0.0078125
        k(  180) = (   0.3750000   0.2500000   0.1250000), wk =   0.0078125
        k(  181) = (   0.3750000   0.2500000   0.2500000), wk =   0.0078125
        k(  182) = (   0.3750000   0.2500000   0.3750000), wk =   0.0078125
        k(  183) = (   0.3750000   0.2500000  -0.5000000), wk =   0.0078125
        k(  184) = (   0.3750000   0.2500000  -0.3750000), wk =   0.0078125
        k(  185) = (   0.3750000   0.2500000  -0.2500000), wk =   0.0078125
        k(  186) = (   0.3750000   0.2500000  -0.1250000), wk =   0.0078125
        k(  187) = (   0.3750000   0.3750000  -0.0000000), wk =   0.0078125
        k(  188) = (   0.3750000   0.3750000   0.1250000), wk =   0.0078125
        k(  189) = (   0.3750000   0.3750000   0.2500000), wk =   0.0078125
        k(  190) = (   0.3750000   0.3750000   0.3750000), wk =   0.0078125
        k(  191) = (   0.3750000   0.3750000  -0.5000000), wk =   0.0078125
        k(  192) = (   0.3750000   0.3750000  -0.3750000), wk =   0.0078125
        k(  193) = (   0.3750000   0.3750000  -0.2500000), wk =   0.0078125
        k(  194) = (   0.3750000   0.3750000  -0.1250000), wk =   0.0078125
        k(  195) = (   0.3750000  -0.5000000  -0.0000000), wk =   0.0078125
        k(  196) = (   0.3750000  -0.5000000   0.1250000), wk =   0.0078125
        k(  197) = (   0.3750000  -0.5000000   0.2500000), wk =   0.0078125
        k(  198) = (   0.3750000  -0.5000000   0.3750000), wk =   0.0078125
        k(  199) = (   0.3750000  -0.5000000  -0.5000000), wk =   0.0078125
        k(  200) = (   0.3750000  -0.5000000  -0.3750000), wk =   0.0078125
        k(  201) = (   0.3750000  -0.5000000  -0.2500000), wk =   0.0078125
        k(  202) = (   0.3750000  -0.5000000  -0.1250000), wk =   0.0078125
        k(  203) = (   0.3750000  -0.3750000  -0.0000000), wk =   0.0078125
        k(  204) = (   0.3750000  -0.3750000   0.1250000), wk =   0.0078125
        k(  205) = (   0.3750000  -0.3750000   0.2500000), wk =   0.0078125
        k(  206) = (   0.3750000  -0.3750000   0.3750000), wk =   0.0078125
        k(  207) = (   0.3750000  -0.3750000  -0.5000000), wk =   0.0078125
        k(  208) = (   0.3750000  -0.3750000  -0.3750000), wk =   0.0078125
        k(  209) = (   0.3750000  -0.3750000  -0.2500000), wk =   0.0078125
        k(  210) = (   0.3750000  -0.3750000  -0.1250000), wk =   0.0078125
        k(  211) = (   0.3750000  -0.2500000  -0.0000000), wk =   0.0078125
        k(  212) = (   0.3750000  -0.2500000   0.1250000), wk =   0.0078125
        k(  213) = (   0.3750000  -0.2500000   0.2500000), wk =   0.0078125
        k(  214) = (   0.3750000  -0.2500000   0.3750000), wk =   0.0078125
        k(  215) = (   0.3750000  -0.2500000  -0.5000000), wk =   0.0078125
        k(  216) = (   0.3750000  -0.2500000  -0.3750000), wk =   0.0078125
        k(  217) = (   0.3750000  -0.2500000  -0.2500000), wk =   0.0078125
        k(  218) = (   0.3750000  -0.2500000  -0.1250000), wk =   0.0078125
        k(  219) = (   0.3750000  -0.1250000  -0.0000000), wk =   0.0078125
        k(  220) = (   0.3750000  -0.1250000   0.1250000), wk =   0.0078125
        k(  221) = (   0.3750000  -0.1250000   0.2500000), wk =   0.0078125
        k(  222) = (   0.3750000  -0.1250000   0.3750000), wk =   0.0078125
        k(  223) = (   0.3750000  -0.1250000  -0.5000000), wk =   0.0078125
        k(  224) = (   0.3750000  -0.1250000  -0.3750000), wk =   0.0078125
        k(  225) = (   0.3750000  -0.1250000  -0.2500000), wk =   0.0078125
        k(  226) = (   0.3750000  -0.1250000  -0.1250000), wk =   0.0078125
        k(  227) = (  -0.5000000   0.0000000   0.0000000), wk =   0.0039062
        k(  228) = (  -0.5000000  -0.0000000   0.1250000), wk =   0.0078125
        k(  229) = (  -0.5000000  -0.0000000   0.2500000), wk =   0.0078125
        k(  230) = (  -0.5000000   0.0000000   0.3750000), wk =   0.0078125
        k(  231) = (  -0.5000000   0.0000000  -0.5000000), wk =   0.0039062
        k(  232) = (  -0.5000000   0.1250000   0.0000000), wk =   0.0078125
        k(  233) = (  -0.5000000   0.1250000   0.1250000), wk =   0.0078125
        k(  234) = (  -0.5000000   0.1250000   0.2500000), wk =   0.0078125
        k(  235) = (  -0.5000000   0.1250000   0.3750000), wk =   0.0078125
        k(  236) = (  -0.5000000   0.1250000  -0.5000000), wk =   0.0078125
        k(  237) = (  -0.5000000   0.1250000  -0.3750000), wk =   0.0078125
        k(  238) = (  -0.5000000   0.1250000  -0.2500000), wk =   0.0078125
        k(  239) = (  -0.5000000   0.1250000  -0.1250000), wk =   0.0078125
        k(  240) = (  -0.5000000   0.2500000   0.0000000), wk =   0.0078125
        k(  241) = (  -0.5000000   0.2500000   0.1250000), wk =   0.0078125
        k(  242) = (  -0.5000000   0.2500000   0.2500000), wk =   0.0078125
        k(  243) = (  -0.5000000   0.2500000   0.3750000), wk =   0.0078125
        k(  244) = (  -0.5000000   0.2500000  -0.5000000), wk =   0.0078125
        k(  245) = (  -0.5000000   0.2500000  -0.3750000), wk =   0.0078125
        k(  246) = (  -0.5000000   0.2500000  -0.2500000), wk =   0.0078125
        k(  247) = (  -0.5000000   0.2500000  -0.1250000), wk =   0.0078125
        k(  248) = (  -0.5000000   0.3750000   0.0000000), wk =   0.0078125
        k(  249) = (  -0.5000000   0.3750000   0.1250000), wk =   0.0078125
        k(  250) = (  -0.5000000   0.3750000   0.2500000), wk =   0.0078125
        k(  251) = (  -0.5000000   0.3750000   0.3750000), wk =   0.0078125
        k(  252) = (  -0.5000000   0.3750000  -0.5000000), wk =   0.0078125
        k(  253) = (  -0.5000000   0.3750000  -0.3750000), wk =   0.0078125
        k(  254) = (  -0.5000000   0.3750000  -0.2500000), wk =   0.0078125
        k(  255) = (  -0.5000000   0.3750000  -0.1250000), wk =   0.0078125
        k(  256) = (  -0.5000000  -0.5000000   0.0000000), wk =   0.0039062
        k(  257) = (  -0.5000000  -0.5000000   0.1250000), wk =   0.0078125
        k(  258) = (  -0.5000000  -0.5000000   0.2500000), wk =   0.0078125
        k(  259) = (  -0.5000000  -0.5000000   0.3750000), wk =   0.0078125
        k(  260) = (  -0.5000000  -0.5000000  -0.5000000), wk =   0.0039062

     Dense  grid:    79067 G-vectors     FFT dimensions: (  48,  48,  80)

     Smooth grid:    30771 G-vectors     FFT dimensions: (  36,  36,  60)

     Dynamical RAM for                 wfc:       0.06 MB

     Dynamical RAM for     wfc (w. buffer):       3.87 MB

     Dynamical RAM for           str. fact:       0.15 MB

     Dynamical RAM for           local pot:       0.00 MB

     Dynamical RAM for          nlocal pot:       0.23 MB

     Dynamical RAM for                qrad:      10.19 MB

     Dynamical RAM for          rho,v,vnew:       0.49 MB

     Dynamical RAM for               rhoin:       0.16 MB

     Dynamical RAM for            rho*nmix:       1.21 MB

     Dynamical RAM for           G-vectors:       0.30 MB

     Dynamical RAM for          h,s,v(r/c):       0.05 MB

     Dynamical RAM for          <psi|beta>:       0.02 MB

     Dynamical RAM for                 psi:       0.23 MB

     Dynamical RAM for                hpsi:       0.23 MB

     Dynamical RAM for                spsi:       0.23 MB

     Dynamical RAM for      wfcinit/wfcrot:       0.14 MB

     Dynamical RAM for           addusdens:       3.95 MB

     Dynamical RAM for          addusforce:       4.10 MB

     Dynamical RAM for         addusstress:       4.17 MB

     Estimated static dynamical RAM per process >      17.27 MB

     Estimated max dynamical RAM per process >      21.44 MB

     Estimated total dynamical RAM >       1.34 GB

     Check: negative core charge=   -0.000003

     Initial potential from superposition of free atoms

     starting charge   31.39954, renormalised to   32.00000
     Starting wfcs are   18 randomized atomic wfcs

     total cpu time spent up to now is        2.0 secs

     Self-consistent Calculation

     iteration #  1     ecut=    80.00 Ry     beta= 0.50
     Davidson diagonalization with overlap
     ethr =  1.00E-02,  avg # of iterations =  2.0

     total cpu time spent up to now is        2.7 secs

     total energy              =    -314.88201113 Ry
     Harris-Foulkes estimate   =    -315.45654915 Ry
     estimated scf accuracy    <       0.90943533 Ry

     iteration #  2     ecut=    80.00 Ry     beta= 0.50
     Davidson diagonalization with overlap
     ethr =  2.84E-03,  avg # of iterations =  2.8

     total cpu time spent up to now is        3.4 secs

     total energy              =    -315.12661518 Ry
     Harris-Foulkes estimate   =    -315.24132303 Ry
     estimated scf accuracy    <       0.26495072 Ry

     iteration #  3     ecut=    80.00 Ry     beta= 0.50
     Davidson diagonalization with overlap
     ethr =  8.28E-04,  avg # of iterations =  2.0

     total cpu time spent up to now is        4.1 secs

     total energy              =    -315.17198971 Ry
     Harris-Foulkes estimate   =    -315.17483169 Ry
     estimated scf accuracy    <       0.00960718 Ry

     iteration #  4     ecut=    80.00 Ry     beta= 0.50
     Davidson diagonalization with overlap
     ethr =  3.00E-05,  avg # of iterations =  1.9

     total cpu time spent up to now is        4.8 secs

     total energy              =    -315.17259736 Ry
     Harris-Foulkes estimate   =    -315.17262329 Ry
     estimated scf accuracy    <       0.00050558 Ry

     iteration #  5     ecut=    80.00 Ry     beta= 0.50
     Davidson diagonalization with overlap
     ethr =  1.58E-06,  avg # of iterations =  2.0

     total cpu time spent up to now is        5.4 secs

     total energy              =    -315.17265425 Ry
     Harris-Foulkes estimate   =    -315.17265528 Ry
     estimated scf accuracy    <       0.00002241 Ry

     iteration #  6     ecut=    80.00 Ry     beta= 0.50
     Davidson diagonalization with overlap
     ethr =  7.00E-08,  avg # of iterations =  2.4

     total cpu time spent up to now is        6.1 secs

     End of self-consistent calculation

          k = 0.0000 0.0000 0.0000 (  3851 PWs)   bands (ev):

   -66.7444 -66.7410 -33.7665 -33.7252 -33.7101 -33.7101 -33.7038 -33.7038
   -11.4726 -10.7454   1.2667   4.0097   4.0097   4.2562   4.2562   4.5616

     occupation numbers 
     1.0000   1.0000   1.0000   1.0000   1.0000   1.0000   1.0000   1.0000
     1.0000   1.0000   1.0000   1.0000   1.0000   1.0000   1.0000   1.0000

          k = 0.0000 0.0000 0.0775 (  3880 PWs)   bands (ev):

   -66.7442 -66.7411 -33.7650 -33.7268 -33.7098 -33.7098 -33.7041 -33.7041
   -11.4468 -10.7752   1.3533   4.0187   4.0187   4.2464   4.2464   4.3303

     occupation numbers 
     1.0000   1.0000   1.0000   1.0000   1.0000   1.0000   1.0000   1.0000
     1.0000   1.0000   1.0000   1.0000   1.0000   1.0000   1.0000   1.0000

          k = 0.0000 0.0000 0.1549 (  3844 PWs)   bands (ev):

   -66.7439 -66.7415 -33.7605 -33.7313 -33.7091 -33.7091 -33.7047 -33.7047
   -11.3726 -10.8591   1.6075   3.7900   4.0446   4.0446   4.2189   4.2189

     occupation numbers 
     1.0000   1.0000   1.0000   1.0000   1.0000   1.0000   1.0000   1.0000
     1.0000   1.0000   1.0000   1.0000   1.0000   1.0000   1.0000   1.0000

          k = 0.0000 0.0000 0.2324 (  3826 PWs)   bands (ev):

   -66.7433 -66.7420 -33.7538 -33.7380 -33.7081 -33.7081 -33.7057 -33.7057
   -11.2595 -10.9818   2.0125   3.1543   4.0838   4.0838   4.1781   4.1781

     occupation numbers 
     1.0000   1.0000   1.0000   1.0000   1.0000   1.0000   1.0000   1.0000
     1.0000   1.0000   1.0000   1.0000   1.0000   1.0000   1.0000   1.0000

          k =-0.0000-0.0000-0.3098 (  3796 PWs)   bands (ev):

   -66.7427 -66.7427 -33.7460 -33.7459 -33.7070 -33.7070 -33.7069 -33.7069
   -11.1229 -11.1224   2.5410   2.5413   4.1304   4.1304   4.1309   4.1309

     occupation numbers 
     1.0000   1.0000   1.0000   1.0000   1.0000   1.0000   1.0000   1.0000
     1.0000   1.0000   1.0000   1.0000   1.0000   1.0000   1.0000   1.0000

          k = 0.0000 0.1443 0.0000 (  3869 PWs)   bands (ev):

   -66.7439 -66.7408 -33.7646 -33.7260 -33.7152 -33.7115 -33.7093 -33.7047
   -11.3848 -10.7046   1.4317   3.5743   3.7966   3.9142   4.2530   4.5230

     occupation numbers 
     1.0000   1.0000   1.0000   1.0000   1.0000   1.0000   1.0000   1.0000
     1.0000   1.0000   1.0000   1.0000   1.0000   1.0000   1.0000   1.0000

          k = 0.0000 0.1443 0.0775 (  3870 PWs)   bands (ev):

   -66.7438 -66.7409 -33.7632 -33.7277 -33.7149 -33.7113 -33.7093 -33.7050
   -11.3604 -10.7322   1.5044   3.5510   3.7560   3.9264   4.2394   4.4290

     occupation numbers 
     1.0000   1.0000   1.0000   1.0000   1.0000   1.0000   1.0000   1.0000
     1.0000   1.0000   1.0000   1.0000   1.0000   1.0000   1.0000   1.0000

          k = 0.0000 0.1443 0.1549 (  3857 PWs)   bands (ev):

   -66.7435 -66.7412 -33.7593 -33.7322 -33.7140 -33.7105 -33.7096 -33.7057
   -11.2904 -10.8100   1.7168   3.3467   3.7498   3.9616   4.2011   4.2430

     occupation numbers 
     1.0000   1.0000   1.0000   1.0000   1.0000   1.0000   1.0000   1.0000
     1.0000   1.0000   1.0000   1.0000   1.0000   1.0000   1.0000   1.0000

          k = 0.0000 0.1443 0.2324 (  3843 PWs)   bands (ev):

   -66.7430 -66.7418 -33.7533 -33.7387 -33.7128 -33.7104 -33.7094 -33.7068
   -11.1840 -10.9241   2.0515   2.9401   3.8267   4.0149   4.0769   4.1445

     occupation numbers 
     1.0000   1.0000   1.0000   1.0000   1.0000   1.0000   1.0000   1.0000
     1.0000   1.0000   1.0000   1.0000   1.0000   1.0000   1.0000   1.0000

          k =-0.0000 0.1443-0.3098 (  3856 PWs)   bands (ev):

   -66.7424 -66.7423 -33.7461 -33.7461 -33.7116 -33.7115 -33.7082 -33.7081
   -11.0559 -11.0554   2.4768   2.4770   3.9397   3.9401   4.0788   4.0793

     occupation numbers 
     1.0000   1.0000   1.0000   1.0000   1.0000   1.0000   1.0000   1.0000
     1.0000   1.0000   1.0000   1.0000   1.0000   1.0000   1.0000   1.0000

          k =-0.0000 0.1443-0.2324 (  3843 PWs)   bands (ev):

   -66.7430 -66.7418 -33.7533 -33.7387 -33.7128 -33.7104 -33.7094 -33.7068
   -11.1840 -10.9241   2.0515   2.9401   3.8268   4.0149   4.0769   4.1445

     occupation numbers 
     1.0000   1.0000   1.0000   1.0000   1.0000   1.0000   1.0000   1.0000
     1.0000   1.0000   1.0000   1.0000   1.0000   1.0000   1.0000   1.0000

          k =-0.0000 0.1443-0.1549 (  3857 PWs)   bands (ev):

   -66.7435 -66.7412 -33.7593 -33.7322 -33.7140 -33.7105 -33.7096 -33.7057
   -11.2904 -10.8100   1.7168   3.3467   3.7498   3.9616   4.2011   4.2430

     occupation numbers 
     1.0000   1.0000   1.0000   1.0000   1.0000   1.0000   1.0000   1.0000
     1.0000   1.0000   1.0000   1.0000   1.0000   1.0000   1.0000   1.0000

          k =-0.0000 0.1443-0.0775 (  3870 PWs)   bands (ev):

   -66.7438 -66.7409 -33.7632 -33.7277 -33.7149 -33.7113 -33.7093 -33.7050
   -11.3604 -10.7322   1.5044   3.5510   3.7560   3.9264   4.2394   4.4290

     occupation numbers 
     1.0000   1.0000   1.0000   1.0000   1.0000   1.0000   1.0000   1.0000
     1.0000   1.0000   1.0000   1.0000   1.0000   1.0000   1.0000   1.0000

          k = 0.0000 0.2887 0.0000 (  3871 PWs)   bands (ev):

   -66.7428 -66.7403 -33.7597 -33.7285 -33.7274 -33.7224 -33.7149 -33.7070
   -11.1579 -10.6128   1.8887   2.5863   3.1087   3.7249   4.2109   4.3817

     occupation numbers 
     1.0000   1.0000   1.0000   1.0000   1.0000   1.0000   1.0000   1.0000
     1.0000   1.0000   1.0000   1.0000   1.0000   1.0000   1.0000   1.0000

          k = 0.0000 0.2887 0.0775 (  3865 PWs)   bands (ev):

   -66.7427 -66.7404 -33.7588 -33.7311 -33.7268 -33.7212 -33.7146 -33.7073
   -11.1377 -10.6342   1.8895   2.5981   3.1128   3.7421   4.1909   4.3453

     occupation numbers 
     1.0000   1.0000   1.0000   1.0000   1.0000   1.0000   1.0000   1.0000
     1.0000   1.0000   1.0000   1.0000   1.0000   1.0000   1.0000   1.0000

          k = 0.0000 0.2887 0.1549 (  3856 PWs)   bands (ev):

   -66.7425 -66.7407 -33.7565 -33.7362 -33.7253 -33.7201 -33.7138 -33.7082
   -11.0802 -10.6948   1.9174   2.5331   3.2198   3.7915   4.1347   4.2277

     occupation numbers 
     1.0000   1.0000   1.0000   1.0000   1.0000   1.0000   1.0000   1.0000
     1.0000   1.0000   1.0000   1.0000   1.0000   1.0000   1.0000   1.0000

          k = 0.0000 0.2887 0.2324 (  3860 PWs)   bands (ev):

   -66.7421 -66.7411 -33.7526 -33.7420 -33.7233 -33.7202 -33.7125 -33.7095
   -10.9932 -10.7847   2.0058   2.3562   3.4637   3.8669   4.0240   4.0525

     occupation numbers 
     1.0000   1.0000   1.0000   1.0000   1.0000   1.0000   1.0000   1.0000
     1.0000   1.0000   1.0000   1.0000   1.0000   1.0000   1.0000   1.0000

          k =-0.0000 0.2887-0.3098 (  3850 PWs)   bands (ev):

   -66.7416 -66.7415 -33.7477 -33.7476 -33.7214 -33.7214 -33.7110 -33.7110
   -10.8898 -10.8894   2.1602   2.1603   3.7545   3.7546   3.9580   3.9585

     occupation numbers 
     1.0000   1.0000   1.0000   1.0000   1.0000   1.0000   1.0000   1.0000
     1.0000   1.0000   1.0000   1.0000   1.0000   1.0000   1.0000   1.0000

          k =-0.0000 0.2887-0.2324 (  3860 PWs)   bands (ev):

   -66.7421 -66.7411 -33.7526 -33.7420 -33.7233 -33.7202 -33.7125 -33.7095
   -10.9932 -10.7847   2.0058   2.3562   3.4637   3.8669   4.0240   4.0525

     occupation numbers 
     1.0000   1.0000   1.0000   1.0000   1.0000   1.0000   1.0000   1.0000
     1.0000   1.0000   1.0000   1.0000   1.0000   1.0000   1.0000   1.0000

          k =-0.0000 0.2887-0.1549 (  3856 PWs)   bands (ev):

   -66.7425 -66.7407 -33.7565 -33.7362 -33.7253 -33.7201 -33.7138 -33.7082
   -11.0802 -10.6948   1.9174   2.5331   3.2198   3.7915   4.1347   4.2277

     occupation numbers 
     1.0000   1.0000   1.0000   1.0000   1.0000   1.0000   1.0000   1.0000
     1.0000   1.0000   1.0000   1.0000   1.0000   1.0000   1.0000   1.0000

          k =-0.0000 0.2887-0.0775 (  3865 PWs)   bands (ev):

   -66.7427 -66.7404 -33.7588 -33.7311 -33.7268 -33.7212 -33.7146 -33.7073
   -11.1377 -10.6342   1.8895   2.5981   3.1128   3.7421   4.1909   4.3453

     occupation numbers 
     1.0000   1.0000   1.0000   1.0000   1.0000   1.0000   1.0000   1.0000
     1.0000   1.0000   1.0000   1.0000   1.0000   1.0000   1.0000   1.0000

          k = 0.0000 0.4330 0.0000 (  3859 PWs)   bands (ev):

   -66.7416 -66.7400 -33.7538 -33.7395 -33.7358 -33.7315 -33.7183 -33.7094
   -10.8950 -10.5444   1.7970   2.4681   2.5837   3.5626   4.0953   4.1508

     occupation numbers 
     1.0000   1.0000   1.0000   1.0000   1.0000   1.0000   1.0000   1.0000
     1.0000   1.0000   1.0000   1.0000   1.0000   1.0000   1.0000   1.0000

          k = 0.0000 0.4330 0.0775 (  3854 PWs)   bands (ev):

   -66.7415 -66.7400 -33.7543 -33.7397 -33.7372 -33.7294 -33.7180 -33.7097
   -10.8812 -10.5572   1.7416   2.3147   2.7884   3.5830   4.1160   4.1261

     occupation numbers 
     1.0000   1.0000   1.0000   1.0000   1.0000   1.0000   1.0000   1.0000
     1.0000   1.0000   1.0000   1.0000   1.0000   1.0000   1.0000   1.0000

          k = 0.0000 0.4330 0.1549 (  3860 PWs)   bands (ev):

   -66.7414 -66.7402 -33.7548 -33.7442 -33.7344 -33.7274 -33.7170 -33.7107
   -10.8423 -10.5942   1.6584   2.0936   3.1224   3.6419   4.0571   4.1231

     occupation numbers 
     1.0000   1.0000   1.0000   1.0000   1.0000   1.0000   1.0000   1.0000
     1.0000   1.0000   1.0000   1.0000   1.0000   1.0000   1.0000   1.0000

          k = 0.0000 0.4330 0.2324 (  3861 PWs)   bands (ev):

   -66.7411 -66.7405 -33.7543 -33.7487 -33.7309 -33.7269 -33.7155 -33.7121
   -10.7844 -10.6501   1.6392   1.8756   3.4847   3.7322   3.9566   4.0299

     occupation numbers 
     1.0000   1.0000   1.0000   1.0000   1.0000   1.0000   1.0000   1.0000
     1.0000   1.0000   1.0000   1.0000   1.0000   1.0000   1.0000   1.0000

          k =-0.0000 0.4330-0.3098 (  3854 PWs)   bands (ev):

   -66.7408 -66.7408 -33.7522 -33.7522 -33.7282 -33.7282 -33.7139 -33.7138
   -10.7171 -10.7166   1.7135   1.7137   3.8069   3.8071   3.8421   3.8426

     occupation numbers 
     1.0000   1.0000   1.0000   1.0000   1.0000   1.0000   1.0000   1.0000
     1.0000   1.0000   1.0000   1.0000   1.0000   1.0000   1.0000   1.0000

          k =-0.0000 0.4330-0.2324 (  3861 PWs)   bands (ev):

   -66.7411 -66.7405 -33.7543 -33.7487 -33.7309 -33.7269 -33.7155 -33.7121
   -10.7844 -10.6501   1.6392   1.8756   3.4847   3.7322   3.9566   4.0299

     occupation numbers 
     1.0000   1.0000   1.0000   1.0000   1.0000   1.0000   1.0000   1.0000
     1.0000   1.0000   1.0000   1.0000   1.0000   1.0000   1.0000   1.0000

          k =-0.0000 0.4330-0.1549 (  3860 PWs)   bands (ev):

   -66.7414 -66.7402 -33.7548 -33.7442 -33.7344 -33.7274 -33.7170 -33.7107
   -10.8423 -10.5942   1.6584   2.0936   3.1224   3.6419   4.0571   4.1231

     occupation numbers 
     1.0000   1.0000   1.0000   1.0000   1.0000   1.0000   1.0000   1.0000
     1.0000   1.0000   1.0000   1.0000   1.0000   1.0000   1.0000   1.0000

          k =-0.0000 0.4330-0.0775 (  3854 PWs)   bands (ev):

   -66.7415 -66.7400 -33.7543 -33.7398 -33.7372 -33.7294 -33.7180 -33.7097
   -10.8812 -10.5572   1.7416   2.3146   2.7884   3.5830   4.1160   4.1261

     occupation numbers 
     1.0000   1.0000   1.0000   1.0000   1.0000   1.0000   1.0000   1.0000
     1.0000   1.0000   1.0000   1.0000   1.0000   1.0000   1.0000   1.0000

          k =-0.0000-0.5774-0.0000 (  3852 PWs)   bands (ev):

   -66.7410 -66.7399 -33.7514 -33.7432 -33.7416 -33.7339 -33.7197 -33.7104
   -10.7586 -10.5394   1.5072   2.3086   2.9309   3.5002   3.8350   4.1235

     occupation numbers 
     1.0000   1.0000   1.0000   1.0000   1.0000   1.0000   1.0000   1.0000
     1.0000   1.0000   1.0000   1.0000   1.0000   1.0000   1.0000   1.0000

          k =-0.0000-0.5774 0.0775 (  3838 PWs)   bands (ev):

   -66.7410 -66.7399 -33.7531 -33.7441 -33.7408 -33.7321 -33.7193 -33.7107
   -10.7494 -10.5468   1.4753   2.1963   3.0348   3.5217   3.9039   4.0972

     occupation numbers 
     1.0000   1.0000   1.0000   1.0000   1.0000   1.0000   1.0000   1.0000
     1.0000   1.0000   1.0000   1.0000   1.0000   1.0000   1.0000   1.0000

          k = 0.0000-0.5774 0.1549 (  3864 PWs)   bands (ev):

   -66.7409 -66.7401 -33.7554 -33.7485 -33.7365 -33.7298 -33.7183 -33.7117
   -10.7236 -10.5684   1.4251   1.9508   3.2908   3.5838   4.0094   4.0236

     occupation numbers 
     1.0000   1.0000   1.0000   1.0000   1.0000   1.0000   1.0000   1.0000
     1.0000   1.0000   1.0000   1.0000   1.0000   1.0000   1.0000   1.0000

          k = 0.0000-0.5774 0.2324 (  3866 PWs)   bands (ev):

   -66.7407 -66.7402 -33.7562 -33.7525 -33.7325 -33.7289 -33.7168 -33.7133
   -10.6860 -10.6019   1.4268   1.7011   3.5975   3.6792   3.9168   4.0117

     occupation numbers 
     1.0000   1.0000   1.0000   1.0000   1.0000   1.0000   1.0000   1.0000
     1.0000   1.0000   1.0000   1.0000   1.0000   1.0000   1.0000   1.0000

          k =-0.0000-0.5774-0.3098 (  3856 PWs)   bands (ev):

   -66.7405 -66.7404 -33.7552 -33.7552 -33.7299 -33.7299 -33.7151 -33.7150
   -10.6434 -10.6429   1.5174   1.5176   3.7954   3.7959   3.8628   3.8631

     occupation numbers 
     1.0000   1.0000   1.0000   1.0000   1.0000   1.0000   1.0000   1.0000
     1.0000   1.0000   1.0000   1.0000   1.0000   1.0000   1.0000   1.0000

          k = 0.1250 0.0722 0.0000 (  3869 PWs)   bands (ev):

   -66.7439 -66.7408 -33.7646 -33.7260 -33.7152 -33.7115 -33.7093 -33.7047
   -11.3848 -10.7046   1.4317   3.5743   3.7966   3.9142   4.2530   4.5230

     occupation numbers 
     1.0000   1.0000   1.0000   1.0000   1.0000   1.0000   1.0000   1.0000
     1.0000   1.0000   1.0000   1.0000   1.0000   1.0000   1.0000   1.0000

          k = 0.1250 0.0722 0.0775 (  3870 PWs)   bands (ev):

   -66.7438 -66.7409 -33.7632 -33.7277 -33.7149 -33.7113 -33.7093 -33.7050
   -11.3604 -10.7322   1.5044   3.5510   3.7560   3.9264   4.2394   4.4290

     occupation numbers 
     1.0000   1.0000   1.0000   1.0000   1.0000   1.0000   1.0000   1.0000
     1.0000   1.0000   1.0000   1.0000   1.0000   1.0000   1.0000   1.0000

          k = 0.1250 0.0722 0.1549 (  3857 PWs)   bands (ev):

   -66.7435 -66.7412 -33.7593 -33.7322 -33.7140 -33.7105 -33.7096 -33.7057
   -11.2904 -10.8100   1.7168   3.3467   3.7498   3.9616   4.2011   4.2429

     occupation numbers 
     1.0000   1.0000   1.0000   1.0000   1.0000   1.0000   1.0000   1.0000
     1.0000   1.0000   1.0000   1.0000   1.0000   1.0000   1.0000   1.0000

          k = 0.1250 0.0722 0.2324 (  3843 PWs)   bands (ev):

   -66.7430 -66.7418 -33.7533 -33.7387 -33.7128 -33.7104 -33.7094 -33.7068
   -11.1840 -10.9241   2.0515   2.9401   3.8268   4.0149   4.0769   4.1445

     occupation numbers 
     1.0000   1.0000   1.0000   1.0000   1.0000   1.0000   1.0000   1.0000
     1.0000   1.0000   1.0000   1.0000   1.0000   1.0000   1.0000   1.0000

          k = 0.1250 0.0722-0.3098 (  3856 PWs)   bands (ev):

   -66.7424 -66.7423 -33.7461 -33.7461 -33.7116 -33.7115 -33.7082 -33.7081
   -11.0559 -11.0554   2.4768   2.4770   3.9397   3.9401   4.0788   4.0793

     occupation numbers 
     1.0000   1.0000   1.0000   1.0000   1.0000   1.0000   1.0000   1.0000
     1.0000   1.0000   1.0000   1.0000   1.0000   1.0000   1.0000   1.0000

          k = 0.1250 0.0722-0.2324 (  3843 PWs)   bands (ev):

   -66.7430 -66.7418 -33.7533 -33.7387 -33.7128 -33.7104 -33.7094 -33.7068
   -11.1840 -10.9241   2.0515   2.9401   3.8267   4.0149   4.0769   4.1445

     occupation numbers 
     1.0000   1.0000   1.0000   1.0000   1.0000   1.0000   1.0000   1.0000
     1.0000   1.0000   1.0000   1.0000   1.0000   1.0000   1.0000   1.0000

          k = 0.1250 0.0722-0.1549 (  3857 PWs)   bands (ev):

   -66.7435 -66.7412 -33.7593 -33.7322 -33.7140 -33.7105 -33.7096 -33.7057
   -11.2904 -10.8100   1.7168   3.3467   3.7498   3.9616   4.2011   4.2430

     occupation numbers 
     1.0000   1.0000   1.0000   1.0000   1.0000   1.0000   1.0000   1.0000
     1.0000   1.0000   1.0000   1.0000   1.0000   1.0000   1.0000   1.0000

          k = 0.1250 0.0722-0.0775 (  3870 PWs)   bands (ev):

   -66.7438 -66.7409 -33.7632 -33.7277 -33.7149 -33.7113 -33.7093 -33.7050
   -11.3604 -10.7322   1.5044   3.5510   3.7560   3.9264   4.2394   4.4290

     occupation numbers 
     1.0000   1.0000   1.0000   1.0000   1.0000   1.0000   1.0000   1.0000
     1.0000   1.0000   1.0000   1.0000   1.0000   1.0000   1.0000   1.0000

          k = 0.1250 0.2165 0.0000 (  3859 PWs)   bands (ev):

   -66.7432 -66.7404 -33.7612 -33.7276 -33.7229 -33.7193 -33.7135 -33.7071
   -11.2272 -10.6383   1.7435   2.9406   3.2033   3.8497   4.1310   4.4340

     occupation numbers 
     1.0000   1.0000   1.0000   1.0000   1.0000   1.0000   1.0000   1.0000
     1.0000   1.0000   1.0000   1.0000   1.0000   1.0000   1.0000   1.0000

          k = 0.1250 0.2165 0.0775 (  3856 PWs)   bands (ev):

   -66.7431 -66.7405 -33.7602 -33.7297 -33.7224 -33.7186 -33.7132 -33.7074
   -11.2056 -10.6617   1.7793   2.8964   3.2524   3.8302   4.1131   4.3943

     occupation numbers 
     1.0000   1.0000   1.0000   1.0000   1.0000   1.0000   1.0000   1.0000
     1.0000   1.0000   1.0000   1.0000   1.0000   1.0000   1.0000   1.0000

          k = 0.1250 0.2165 0.1549 (  3855 PWs)   bands (ev):

   -66.7428 -66.7408 -33.7572 -33.7346 -33.7213 -33.7177 -33.7126 -33.7082
   -11.1440 -10.7278   1.8868   2.7587   3.3886   3.8019   4.0647   4.2796

     occupation numbers 
     1.0000   1.0000   1.0000   1.0000   1.0000   1.0000   1.0000   1.0000
     1.0000   1.0000   1.0000   1.0000   1.0000   1.0000   1.0000   1.0000

          k = 0.1250 0.2165 0.2324 (  3849 PWs)   bands (ev):

   -66.7423 -66.7413 -33.7526 -33.7406 -33.7197 -33.7175 -33.7118 -33.7093
   -11.0507 -10.8255   2.0625   2.5408   3.5805   3.7987   4.0035   4.1125

     occupation numbers 
     1.0000   1.0000   1.0000   1.0000   1.0000   1.0000   1.0000   1.0000
     1.0000   1.0000   1.0000   1.0000   1.0000   1.0000   1.0000   1.0000

          k = 0.1250 0.2165-0.3098 (  3852 PWs)   bands (ev):

   -66.7418 -66.7418 -33.7469 -33.7469 -33.7183 -33.7183 -33.7107 -33.7106
   -10.9392 -10.9388   2.2916   2.2916   3.7585   3.7587   3.9824   3.9828

     occupation numbers 
     1.0000   1.0000   1.0000   1.0000   1.0000   1.0000   1.0000   1.0000
     1.0000   1.0000   1.0000   1.0000   1.0000   1.0000   1.0000   1.0000

          k = 0.1250 0.2165-0.2324 (  3849 PWs)   bands (ev):

   -66.7423 -66.7413 -33.7526 -33.7406 -33.7197 -33.7175 -33.7118 -33.7093
   -11.0507 -10.8255   2.0625   2.5408   3.5805   3.7987   4.0035   4.1125

     occupation numbers 
     1.0000   1.0000   1.0000   1.0000   1.0000   1.0000   1.0000   1.0000
     1.0000   1.0000   1.0000   1.0000   1.0000   1.0000   1.0000   1.0000

          k = 0.1250 0.2165-0.1549 (  3855 PWs)   bands (ev):

   -66.7428 -66.7408 -33.7572 -33.7346 -33.7213 -33.7177 -33.7126 -33.7082
   -11.1440 -10.7278   1.8868   2.7587   3.3886   3.8019   4.0647   4.2796

     occupation numbers 
     1.0000   1.0000   1.0000   1.0000   1.0000   1.0000   1.0000   1.0000
     1.0000   1.0000   1.0000   1.0000   1.0000   1.0000   1.0000   1.0000

          k = 0.1250 0.2165-0.0775 (  3856 PWs)   bands (ev):

   -66.7431 -66.7405 -33.7602 -33.7297 -33.7224 -33.7186 -33.7132 -33.7074
   -11.2056 -10.6617   1.7793   2.8964   3.2524   3.8302   4.1131   4.3943

     occupation numbers 
     1.0000   1.0000   1.0000   1.0000   1.0000   1.0000   1.0000   1.0000
     1.0000   1.0000   1.0000   1.0000   1.0000   1.0000   1.0000   1.0000

          k = 0.1250 0.3608 0.0000 (  3838 PWs)   bands (ev):

   -66.7420 -66.7400 -33.7556 -33.7338 -33.7317 -33.7299 -33.7184 -33.7106
   -10.9799 -10.5590   2.1497   2.2897   2.7285   3.5459   3.9870   4.2218

     occupation numbers 
     1.0000   1.0000   1.0000   1.0000   1.0000   1.0000   1.0000   1.0000
     1.0000   1.0000   1.0000   1.0000   1.0000   1.0000   1.0000   1.0000

          k = 0.1250 0.3608 0.0775 (  3843 PWs)   bands (ev):

   -66.7419 -66.7401 -33.7554 -33.7358 -33.7325 -33.7274 -33.7181 -33.7109
   -10.9638 -10.5749   2.0534   2.2745   2.8689   3.5315   3.9535   4.2421

     occupation numbers 
     1.0000   1.0000   1.0000   1.0000   1.0000   1.0000   1.0000   1.0000
     1.0000   1.0000   1.0000   1.0000   1.0000   1.0000   1.0000   1.0000

          k = 0.1250 0.3608 0.1549 (  3851 PWs)   bands (ev):

   -66.7417 -66.7403 -33.7547 -33.7407 -33.7304 -33.7254 -33.7171 -33.7118
   -10.9180 -10.6203   1.9369   2.1831   3.1525   3.5356   3.8751   4.2430

     occupation numbers 
     1.0000   1.0000   1.0000   1.0000   1.0000   1.0000   1.0000   1.0000
     1.0000   1.0000   1.0000   1.0000   1.0000   1.0000   1.0000   1.0000

          k = 0.1250 0.3608 0.2324 (  3855 PWs)   bands (ev):

   -66.7414 -66.7406 -33.7529 -33.7456 -33.7278 -33.7248 -33.7159 -33.7131
   -10.8496 -10.6883   1.8964   2.0527   3.4036   3.6005   3.8194   4.1531

     occupation numbers 
     1.0000   1.0000   1.0000   1.0000   1.0000   1.0000   1.0000   1.0000
     1.0000   1.0000   1.0000   1.0000   1.0000   1.0000   1.0000   1.0000

          k = 0.1250 0.3608-0.3098 (  3866 PWs)   bands (ev):

   -66.7410 -66.7410 -33.7499 -33.7498 -33.7257 -33.7257 -33.7146 -33.7145
   -10.7691 -10.7686   1.9420   1.9422   3.5507   3.5509   3.9694   3.9695

     occupation numbers 
     1.0000   1.0000   1.0000   1.0000   1.0000   1.0000   1.0000   1.0000
     1.0000   1.0000   1.0000   1.0000   1.0000   1.0000   1.0000   1.0000

          k = 0.1250 0.3608-0.2324 (  3855 PWs)   bands (ev):

   -66.7414 -66.7406 -33.7529 -33.7456 -33.7278 -33.7248 -33.7159 -33.7131
   -10.8496 -10.6883   1.8964   2.0527   3.4036   3.6005   3.8194   4.1531

     occupation numbers 
     1.0000   1.0000   1.0000   1.0000   1.0000   1.0000   1.0000   1.0000
     1.0000   1.0000   1.0000   1.0000   1.0000   1.0000   1.0000   1.0000

          k = 0.1250 0.3608-0.1549 (  3851 PWs)   bands (ev):

   -66.7417 -66.7403 -33.7547 -33.7407 -33.7304 -33.7254 -33.7171 -33.7118
   -10.9180 -10.6203   1.9369   2.1830   3.1525   3.5356   3.8751   4.2430

     occupation numbers 
     1.0000   1.0000   1.0000   1.0000   1.0000   1.0000   1.0000   1.0000
     1.0000   1.0000   1.0000   1.0000   1.0000   1.0000   1.0000   1.0000

          k = 0.1250 0.3608-0.0775 (  3843 PWs)   bands (ev):

   -66.7419 -66.7401 -33.7554 -33.7358 -33.7325 -33.7274 -33.7181 -33.7109
   -10.9638 -10.5749   2.0535   2.2745   2.8690   3.5315   3.9535   4.2421

     occupation numbers 
     1.0000   1.0000   1.0000   1.0000   1.0000   1.0000   1.0000   1.0000
     1.0000   1.0000   1.0000   1.0000   1.0000   1.0000   1.0000   1.0000

          k = 0.1250 0.5052 0.0000 (  3841 PWs)   bands (ev):

   -66.7410 -66.7399 -33.7506 -33.7414 -33.7393 -33.7338 -33.7221 -33.7130
   -10.7652 -10.5351   1.6727   2.4320   2.8878   3.3049   3.8792   3.9058

     occupation numbers 
     1.0000   1.0000   1.0000   1.0000   1.0000   1.0000   1.0000   1.0000
     1.0000   1.0000   1.0000   1.0000   1.0000   1.0000   1.0000   1.0000

          k = 0.1250 0.5052 0.0775 (  3848 PWs)   bands (ev):

   -66.7410 -66.7399 -33.7520 -33.7427 -33.7388 -33.7317 -33.7217 -33.7133
   -10.7557 -10.5430   1.6458   2.3038   2.9753   3.3593   3.8205   3.9973

     occupation numbers 
     1.0000   1.0000   1.0000   1.0000   1.0000   1.0000   1.0000   1.0000
     1.0000   1.0000   1.0000   1.0000   1.0000   1.0000   1.0000   1.0000

          k = 0.1250 0.5052 0.1549 (  3853 PWs)   bands (ev):

   -66.7409 -66.7401 -33.7540 -33.7471 -33.7351 -33.7292 -33.7206 -33.7143
   -10.7288 -10.5659   1.6000   2.0645   3.0987   3.5436   3.7245   4.1167

     occupation numbers 
     1.0000   1.0000   1.0000   1.0000   1.0000   1.0000   1.0000   1.0000
     1.0000   1.0000   1.0000   1.0000   1.0000   1.0000   1.0000   1.0000

          k = 0.1250 0.5052 0.2324 (  3861 PWs)   bands (ev):

   -66.7407 -66.7402 -33.7547 -33.7510 -33.7315 -33.7283 -33.7190 -33.7156
   -10.6895 -10.6013   1.5964   1.8360   3.2296   3.5437   3.8369   4.1493

     occupation numbers 
     1.0000   1.0000   1.0000   1.0000   1.0000   1.0000   1.0000   1.0000
     1.0000   1.0000   1.0000   1.0000   1.0000   1.0000   1.0000   1.0000

          k = 0.1250 0.5052-0.3098 (  3856 PWs)   bands (ev):

   -66.7405 -66.7404 -33.7537 -33.7537 -33.7291 -33.7291 -33.7173 -33.7173
   -10.6448 -10.6443   1.6727   1.6729   3.3843   3.3845   4.0476   4.0477

     occupation numbers 
     1.0000   1.0000   1.0000   1.0000   1.0000   1.0000   1.0000   1.0000
     1.0000   1.0000   1.0000   1.0000   1.0000   1.0000   1.0000   1.0000

          k = 0.1250 0.5052-0.2324 (  3861 PWs)   bands (ev):

   -66.7407 -66.7402 -33.7547 -33.7510 -33.7315 -33.7283 -33.7190 -33.7156
   -10.6895 -10.6013   1.5964   1.8360   3.2296   3.5437   3.8369   4.1493

     occupation numbers 
     1.0000   1.0000   1.0000   1.0000   1.0000   1.0000   1.0000   1.0000
     1.0000   1.0000   1.0000   1.0000   1.0000   1.0000   1.0000   1.0000

          k = 0.1250 0.5052-0.1549 (  3853 PWs)   bands (ev):

   -66.7409 -66.7401 -33.7540 -33.7471 -33.7351 -33.7292 -33.7206 -33.7143
   -10.7288 -10.5659   1.6000   2.0645   3.0987   3.5436   3.7245   4.1167

     occupation numbers 
     1.0000   1.0000   1.0000   1.0000   1.0000   1.0000   1.0000   1.0000
     1.0000   1.0000   1.0000   1.0000   1.0000   1.0000   1.0000   1.0000

          k = 0.1250 0.5052-0.0775 (  3848 PWs)   bands (ev):

   -66.7410 -66.7399 -33.7520 -33.7427 -33.7388 -33.7317 -33.7217 -33.7133
   -10.7557 -10.5430   1.6458   2.3038   2.9753   3.3593   3.8205   3.9973

     occupation numbers 
     1.0000   1.0000   1.0000   1.0000   1.0000   1.0000   1.0000   1.0000
     1.0000   1.0000   1.0000   1.0000   1.0000   1.0000   1.0000   1.0000

          k = 0.1250-0.5052-0.0000 (  3841 PWs)   bands (ev):

   -66.7410 -66.7399 -33.7506 -33.7414 -33.7393 -33.7338 -33.7221 -33.7130
   -10.7652 -10.5351   1.6727   2.4320   2.8878   3.3049   3.8792   3.9058

     occupation numbers 
     1.0000   1.0000   1.0000   1.0000   1.0000   1.0000   1.0000   1.0000
     1.0000   1.0000   1.0000   1.0000   1.0000   1.0000   1.0000   1.0000

          k = 0.1250-0.5052 0.0775 (  3848 PWs)   bands (ev):

   -66.7410 -66.7399 -33.7520 -33.7427 -33.7388 -33.7317 -33.7217 -33.7133
   -10.7557 -10.5430   1.6458   2.3038   2.9753   3.3593   3.8205   3.9973

     occupation numbers 
     1.0000   1.0000   1.0000   1.0000   1.0000   1.0000   1.0000   1.0000
     1.0000   1.0000   1.0000   1.0000   1.0000   1.0000   1.0000   1.0000

          k = 0.1250-0.5052 0.1549 (  3853 PWs)   bands (ev):

   -66.7409 -66.7401 -33.7540 -33.7471 -33.7351 -33.7292 -33.7206 -33.7143
   -10.7288 -10.5659   1.6000   2.0645   3.0987   3.5436   3.7245   4.1167

     occupation numbers 
     1.0000   1.0000   1.0000   1.0000   1.0000   1.0000   1.0000   1.0000
     1.0000   1.0000   1.0000   1.0000   1.0000   1.0000   1.0000   1.0000

          k = 0.1250-0.5052 0.2324 (  3861 PWs)   bands (ev):

   -66.7407 -66.7402 -33.7547 -33.7510 -33.7315 -33.7283 -33.7190 -33.7156
   -10.6895 -10.6013   1.5964   1.8360   3.2296   3.5437   3.8369   4.1493

     occupation numbers 
     1.0000   1.0000   1.0000   1.0000   1.0000   1.0000   1.0000   1.0000
     1.0000   1.0000   1.0000   1.0000   1.0000   1.0000   1.0000   1.0000

          k = 0.1250-0.5052-0.3098 (  3856 PWs)   bands (ev):

   -66.7405 -66.7404 -33.7537 -33.7537 -33.7291 -33.7291 -33.7173 -33.7173
   -10.6448 -10.6443   1.6727   1.6729   3.3843   3.3845   4.0476   4.0477

     occupation numbers 
     1.0000   1.0000   1.0000   1.0000   1.0000   1.0000   1.0000   1.0000
     1.0000   1.0000   1.0000   1.0000   1.0000   1.0000   1.0000   1.0000

          k = 0.1250-0.5052-0.2324 (  3861 PWs)   bands (ev):

   -66.7407 -66.7402 -33.7547 -33.7510 -33.7315 -33.7283 -33.7190 -33.7156
   -10.6895 -10.6013   1.5964   1.8360   3.2296   3.5437   3.8369   4.1493

     occupation numbers 
     1.0000   1.0000   1.0000   1.0000   1.0000   1.0000   1.0000   1.0000
     1.0000   1.0000   1.0000   1.0000   1.0000   1.0000   1.0000   1.0000

          k = 0.1250-0.5052-0.1549 (  3853 PWs)   bands (ev):

   -66.7409 -66.7401 -33.7540 -33.7471 -33.7351 -33.7292 -33.7206 -33.7143
   -10.7288 -10.5659   1.6000   2.0645   3.0987   3.5436   3.7245   4.1167

     occupation numbers 
     1.0000   1.0000   1.0000   1.0000   1.0000   1.0000   1.0000   1.0000
     1.0000   1.0000   1.0000   1.0000   1.0000   1.0000   1.0000   1.0000

          k = 0.1250-0.5052-0.0775 (  3848 PWs)   bands (ev):

   -66.7410 -66.7399 -33.7520 -33.7427 -33.7388 -33.7317 -33.7217 -33.7133
   -10.7557 -10.5430   1.6458   2.3038   2.9753   3.3593   3.8205   3.9973

     occupation numbers 
     1.0000   1.0000   1.0000   1.0000   1.0000   1.0000   1.0000   1.0000
     1.0000   1.0000   1.0000   1.0000   1.0000   1.0000   1.0000   1.0000

          k = 0.1250-0.3608-0.0000 (  3838 PWs)   bands (ev):

   -66.7420 -66.7400 -33.7556 -33.7338 -33.7317 -33.7299 -33.7184 -33.7106
   -10.9799 -10.5590   2.1497   2.2897   2.7285   3.5459   3.9870   4.2218

     occupation numbers 
     1.0000   1.0000   1.0000   1.0000   1.0000   1.0000   1.0000   1.0000
     1.0000   1.0000   1.0000   1.0000   1.0000   1.0000   1.0000   1.0000

          k = 0.1250-0.3608 0.0775 (  3843 PWs)   bands (ev):

   -66.7419 -66.7401 -33.7554 -33.7358 -33.7325 -33.7274 -33.7181 -33.7109
   -10.9638 -10.5749   2.0535   2.2745   2.8690   3.5315   3.9535   4.2421

     occupation numbers 
     1.0000   1.0000   1.0000   1.0000   1.0000   1.0000   1.0000   1.0000
     1.0000   1.0000   1.0000   1.0000   1.0000   1.0000   1.0000   1.0000

          k = 0.1250-0.3608 0.1549 (  3851 PWs)   bands (ev):

   -66.7417 -66.7403 -33.7547 -33.7407 -33.7304 -33.7254 -33.7171 -33.7118
   -10.9180 -10.6203   1.9369   2.1830   3.1525   3.5356   3.8751   4.2430

     occupation numbers 
     1.0000   1.0000   1.0000   1.0000   1.0000   1.0000   1.0000   1.0000
     1.0000   1.0000   1.0000   1.0000   1.0000   1.0000   1.0000   1.0000

          k = 0.1250-0.3608 0.2324 (  3855 PWs)   bands (ev):

   -66.7414 -66.7406 -33.7529 -33.7456 -33.7278 -33.7248 -33.7159 -33.7131
   -10.8496 -10.6883   1.8964   2.0527   3.4036   3.6005   3.8194   4.1531

     occupation numbers 
     1.0000   1.0000   1.0000   1.0000   1.0000   1.0000   1.0000   1.0000
     1.0000   1.0000   1.0000   1.0000   1.0000   1.0000   1.0000   1.0000

          k = 0.1250-0.3608-0.3098 (  3866 PWs)   bands (ev):

   -66.7410 -66.7410 -33.7499 -33.7498 -33.7257 -33.7257 -33.7146 -33.7145
   -10.7691 -10.7686   1.9420   1.9422   3.5507   3.5509   3.9694   3.9695

     occupation numbers 
     1.0000   1.0000   1.0000   1.0000   1.0000   1.0000   1.0000   1.0000
     1.0000   1.0000   1.0000   1.0000   1.0000   1.0000   1.0000   1.0000

          k = 0.1250-0.3608-0.2324 (  3855 PWs)   bands (ev):

[...]

          k =-0.4881-0.1409 0.0811 (  3866 PWs)   bands (ev):

   -66.7987 -66.7973 -33.8080 -33.7959 -33.7907 -33.7824 -33.7796 -33.7684
   -10.7841 -10.5343   1.6458   2.3803   2.9491   3.2889   3.8642   4.0319

     occupation numbers 
     1.0000   1.0000   1.0000   1.0000   1.0000   1.0000   1.0000   1.0000
     1.0000   1.0000   1.0000   1.0000   1.0000   1.0000   1.0000   1.0000

          k =-0.4881-0.1409 0.1623 (  3859 PWs)   bands (ev):

   -66.7986 -66.7975 -33.8105 -33.8017 -33.7862 -33.7796 -33.7774 -33.7696
   -10.7512 -10.5598   1.5771   2.0903   3.0322   3.5585   3.7493   4.1873

     occupation numbers 
     1.0000   1.0000   1.0000   1.0000   1.0000   1.0000   1.0000   1.0000
     1.0000   1.0000   1.0000   1.0000   1.0000   1.0000   1.0000   1.0000

          k =-0.4881-0.1409 0.2434 (  3860 PWs)   bands (ev):

   -66.7983 -66.7977 -33.8115 -33.8069 -33.7820 -33.7780 -33.7754 -33.7714
   -10.7036 -10.5999   1.5580   1.8216   3.1647   3.5449   3.8951   4.2421

     occupation numbers 
     1.0000   1.0000   1.0000   1.0000   1.0000   1.0000   1.0000   1.0000
     1.0000   1.0000   1.0000   1.0000   1.0000   1.0000   1.0000   1.0000

          k =-0.4881-0.1409-0.3245 (  3862 PWs)   bands (ev):

   -66.7980 -66.7980 -33.8103 -33.8103 -33.7790 -33.7790 -33.7733 -33.7733
   -10.6502 -10.6502   1.6361   1.6362   3.3468   3.3469   4.1363   4.1363

     occupation numbers 
     1.0000   1.0000   1.0000   1.0000   1.0000   1.0000   1.0000   1.0000
     1.0000   1.0000   1.0000   1.0000   1.0000   1.0000   1.0000   1.0000

          k =-0.4881-0.1409-0.2434 (  3860 PWs)   bands (ev):

   -66.7983 -66.7977 -33.8115 -33.8069 -33.7820 -33.7780 -33.7754 -33.7714
   -10.7036 -10.5999   1.5580   1.8216   3.1647   3.5449   3.8951   4.2421

     occupation numbers 
     1.0000   1.0000   1.0000   1.0000   1.0000   1.0000   1.0000   1.0000
     1.0000   1.0000   1.0000   1.0000   1.0000   1.0000   1.0000   1.0000

          k =-0.4881-0.1409-0.1623 (  3859 PWs)   bands (ev):

   -66.7986 -66.7975 -33.8105 -33.8017 -33.7862 -33.7796 -33.7774 -33.7696
   -10.7512 -10.5598   1.5771   2.0903   3.0322   3.5585   3.7493   4.1873

     occupation numbers 
     1.0000   1.0000   1.0000   1.0000   1.0000   1.0000   1.0000   1.0000
     1.0000   1.0000   1.0000   1.0000   1.0000   1.0000   1.0000   1.0000

          k =-0.4881-0.1409-0.0811 (  3866 PWs)   bands (ev):

   -66.7987 -66.7973 -33.8080 -33.7959 -33.7907 -33.7824 -33.7796 -33.7684
   -10.7841 -10.5343   1.6458   2.3803   2.9491   3.2889   3.8642   4.0319

     occupation numbers 
     1.0000   1.0000   1.0000   1.0000   1.0000   1.0000   1.0000   1.0000
     1.0000   1.0000   1.0000   1.0000   1.0000   1.0000   1.0000   1.0000

          k =-0.4881-0.0000-0.0000 (  3885 PWs)   bands (ev):

   -66.7988 -66.7973 -33.8059 -33.7917 -33.7891 -33.7870 -33.7809 -33.7704
   -10.8019 -10.5211   1.9026   2.5306   2.8714   3.1271   3.6740   3.9363

     occupation numbers 
     1.0000   1.0000   1.0000   1.0000   1.0000   1.0000   1.0000   1.0000
     1.0000   1.0000   1.0000   1.0000   1.0000   1.0000   1.0000   1.0000

          k =-0.4881-0.0000 0.0811 (  3874 PWs)   bands (ev):

   -66.7987 -66.7973 -33.8073 -33.7953 -33.7870 -33.7856 -33.7789 -33.7709
   -10.7898 -10.5302   1.9056   2.2971   3.0264   3.1475   3.6283   4.0479

     occupation numbers 
     1.0000   1.0000   1.0000   1.0000   1.0000   1.0000   1.0000   1.0000
     1.0000   1.0000   1.0000   1.0000   1.0000   1.0000   1.0000   1.0000

          k =-0.4881-0.0000 0.1623 (  3862 PWs)   bands (ev):

   -66.7986 -66.7975 -33.8095 -33.8009 -33.7837 -33.7828 -33.7758 -33.7723
   -10.7559 -10.5569   1.8961   2.0345   2.8937   3.3828   3.6502   4.2227

     occupation numbers 
     1.0000   1.0000   1.0000   1.0000   1.0000   1.0000   1.0000   1.0000
     1.0000   1.0000   1.0000   1.0000   1.0000   1.0000   1.0000   1.0000

          k =-0.4881-0.0000 0.2434 (  3863 PWs)   bands (ev):

   -66.7983 -66.7977 -33.8104 -33.8059 -33.7815 -33.7794 -33.7741 -33.7739
   -10.7067 -10.5989   1.8544   1.8746   2.8926   3.2221   3.9676   4.2964

     occupation numbers 
     1.0000   1.0000   1.0000   1.0000   1.0000   1.0000   1.0000   1.0000
     1.0000   1.0000   1.0000   1.0000   1.0000   1.0000   1.0000   1.0000

          k =-0.4881-0.0000-0.3245 (  3880 PWs)   bands (ev):

   -66.7980 -66.7980 -33.8092 -33.8092 -33.7793 -33.7793 -33.7741 -33.7741
   -10.6513 -10.6513   1.8251   1.8251   3.0255   3.0255   4.2092   4.2092

     occupation numbers 
     1.0000   1.0000   1.0000   1.0000   1.0000   1.0000   1.0000   1.0000
     1.0000   1.0000   1.0000   1.0000   1.0000   1.0000   1.0000   1.0000

          k =-0.4881-0.0000-0.2434 (  3863 PWs)   bands (ev):

   -66.7983 -66.7977 -33.8104 -33.8059 -33.7815 -33.7794 -33.7741 -33.7739
   -10.7067 -10.5989   1.8544   1.8746   2.8926   3.2221   3.9676   4.2964

     occupation numbers 
     1.0000   1.0000   1.0000   1.0000   1.0000   1.0000   1.0000   1.0000
     1.0000   1.0000   1.0000   1.0000   1.0000   1.0000   1.0000   1.0000

          k =-0.4881-0.0000-0.1623 (  3862 PWs)   bands (ev):

   -66.7986 -66.7975 -33.8095 -33.8009 -33.7837 -33.7828 -33.7758 -33.7723
   -10.7559 -10.5569   1.8961   2.0345   2.8937   3.3828   3.6502   4.2227

     occupation numbers 
     1.0000   1.0000   1.0000   1.0000   1.0000   1.0000   1.0000   1.0000
     1.0000   1.0000   1.0000   1.0000   1.0000   1.0000   1.0000   1.0000

          k =-0.4881-0.0000-0.0811 (  3874 PWs)   bands (ev):

   -66.7987 -66.7973 -33.8073 -33.7953 -33.7870 -33.7856 -33.7789 -33.7709
   -10.7898 -10.5302   1.9056   2.2971   3.0264   3.1475   3.6283   4.0479

     occupation numbers 
     1.0000   1.0000   1.0000   1.0000   1.0000   1.0000   1.0000   1.0000
     1.0000   1.0000   1.0000   1.0000   1.0000   1.0000   1.0000   1.0000

          k =-0.4881 0.1409-0.0000 (  3871 PWs)   bands (ev):

   -66.7988 -66.7973 -33.8063 -33.7937 -33.7915 -33.7852 -33.7804 -33.7679
   -10.7958 -10.5257   1.6843   2.5514   2.8690   3.1985   3.8829   3.9592

     occupation numbers 
     1.0000   1.0000   1.0000   1.0000   1.0000   1.0000   1.0000   1.0000
     1.0000   1.0000   1.0000   1.0000   1.0000   1.0000   1.0000   1.0000

          k =-0.4881 0.1409 0.0811 (  3866 PWs)   bands (ev):

   -66.7987 -66.7973 -33.8080 -33.7959 -33.7907 -33.7824 -33.7796 -33.7684
   -10.7841 -10.5343   1.6458   2.3803   2.9491   3.2889   3.8642   4.0319

     occupation numbers 
     1.0000   1.0000   1.0000   1.0000   1.0000   1.0000   1.0000   1.0000
     1.0000   1.0000   1.0000   1.0000   1.0000   1.0000   1.0000   1.0000

          k =-0.4881 0.1409 0.1623 (  3859 PWs)   bands (ev):

   -66.7986 -66.7975 -33.8105 -33.8017 -33.7862 -33.7796 -33.7774 -33.7696
   -10.7512 -10.5598   1.5771   2.0903   3.0322   3.5585   3.7493   4.1873

     occupation numbers 
     1.0000   1.0000   1.0000   1.0000   1.0000   1.0000   1.0000   1.0000
     1.0000   1.0000   1.0000   1.0000   1.0000   1.0000   1.0000   1.0000

          k =-0.4881 0.1409 0.2434 (  3860 PWs)   bands (ev):

   -66.7983 -66.7977 -33.8115 -33.8069 -33.7820 -33.7780 -33.7754 -33.7714
   -10.7036 -10.5999   1.5580   1.8216   3.1647   3.5449   3.8951   4.2421

     occupation numbers 
     1.0000   1.0000   1.0000   1.0000   1.0000   1.0000   1.0000   1.0000
     1.0000   1.0000   1.0000   1.0000   1.0000   1.0000   1.0000   1.0000

          k =-0.4881 0.1409-0.3245 (  3862 PWs)   bands (ev):

   -66.7980 -66.7980 -33.8103 -33.8103 -33.7790 -33.7790 -33.7733 -33.7733
   -10.6502 -10.6502   1.6361   1.6362   3.3468   3.3469   4.1363   4.1363

     occupation numbers 
     1.0000   1.0000   1.0000   1.0000   1.0000   1.0000   1.0000   1.0000
     1.0000   1.0000   1.0000   1.0000   1.0000   1.0000   1.0000   1.0000

          k =-0.4881 0.1409-0.2434 (  3860 PWs)   bands (ev):

   -66.7983 -66.7977 -33.8115 -33.8069 -33.7820 -33.7780 -33.7754 -33.7714
   -10.7036 -10.5999   1.5580   1.8216   3.1647   3.5449   3.8951   4.2421

     occupation numbers 
     1.0000   1.0000   1.0000   1.0000   1.0000   1.0000   1.0000   1.0000
     1.0000   1.0000   1.0000   1.0000   1.0000   1.0000   1.0000   1.0000

          k =-0.4881 0.1409-0.1623 (  3859 PWs)   bands (ev):

   -66.7986 -66.7975 -33.8105 -33.8017 -33.7862 -33.7796 -33.7774 -33.7696
   -10.7512 -10.5598   1.5771   2.0903   3.0322   3.5585   3.7493   4.1873

     occupation numbers 
     1.0000   1.0000   1.0000   1.0000   1.0000   1.0000   1.0000   1.0000
     1.0000   1.0000   1.0000   1.0000   1.0000   1.0000   1.0000   1.0000

          k =-0.4881 0.1409-0.0811 (  3866 PWs)   bands (ev):

   -66.7987 -66.7973 -33.8080 -33.7959 -33.7907 -33.7824 -33.7796 -33.7684
   -10.7841 -10.5343   1.6458   2.3803   2.9491   3.2889   3.8642   4.0319

     occupation numbers 
     1.0000   1.0000   1.0000   1.0000   1.0000   1.0000   1.0000   1.0000
     1.0000   1.0000   1.0000   1.0000   1.0000   1.0000   1.0000   1.0000

          k =-0.4881-0.8455-0.0000 (  3856 PWs)   bands (ev):

   -66.7988 -66.7973 -33.8066 -33.7952 -33.7928 -33.7854 -33.7789 -33.7660
   -10.7895 -10.5304   1.5343   2.4630   2.9020   3.3530   3.8392   4.1605

     occupation numbers 
     1.0000   1.0000   1.0000   1.0000   1.0000   1.0000   1.0000   1.0000
     1.0000   1.0000   1.0000   1.0000   1.0000   1.0000   1.0000   1.0000

          k =-0.4881-0.8455 0.0811 (  3866 PWs)   bands (ev):

   -66.7987 -66.7973 -33.8087 -33.7966 -33.7923 -33.7825 -33.7784 -33.7665
   -10.7781 -10.5386   1.4872   2.3127   3.0248   3.3802   3.9407   4.1256

     occupation numbers 
     1.0000   1.0000   1.0000   1.0000   1.0000   1.0000   1.0000   1.0000
     1.0000   1.0000   1.0000   1.0000   1.0000   1.0000   1.0000   1.0000

          k =-0.4881-0.8455 0.1623 (  3868 PWs)   bands (ev):

   -66.7986 -66.7975 -33.8115 -33.8026 -33.7869 -33.7791 -33.7770 -33.7679
   -10.7463 -10.5627   1.4112   2.0038   3.3188   3.4591   4.0284   4.0920

     occupation numbers 
     1.0000   1.0000   1.0000   1.0000   1.0000   1.0000   1.0000   1.0000
     1.0000   1.0000   1.0000   1.0000   1.0000   1.0000   1.0000   1.0000

          k =-0.4881-0.8455 0.2434 (  3848 PWs)   bands (ev):

   -66.7983 -66.7977 -33.8126 -33.8079 -33.7820 -33.7778 -33.7749 -33.7700
   -10.7005 -10.6009   1.3985   1.7053   3.5810   3.6625   3.8884   4.1131

     occupation numbers 
     1.0000   1.0000   1.0000   1.0000   1.0000   1.0000   1.0000   1.0000
     1.0000   1.0000   1.0000   1.0000   1.0000   1.0000   1.0000   1.0000

          k =-0.4881-0.8455-0.3245 (  3856 PWs)   bands (ev):

   -66.7980 -66.7980 -33.8114 -33.8114 -33.7788 -33.7788 -33.7725 -33.7725
   -10.6491 -10.6491   1.4944   1.4944   3.7309   3.7310   3.9552   3.9552

     occupation numbers 
     1.0000   1.0000   1.0000   1.0000   1.0000   1.0000   1.0000   1.0000
     1.0000   1.0000   1.0000   1.0000   1.0000   1.0000   1.0000   1.0000

     highest occupied level (ev):     4.6845

!    total energy              =    -315.17920853 Ry
     Harris-Foulkes estimate   =    -315.17920848 Ry
     estimated scf accuracy    <          7.5E-09 Ry

     The total energy is the sum of the following terms:

     one-electron contribution =    -212.86474302 Ry
     hartree contribution      =     112.67890960 Ry
     xc contribution           =     -48.05732275 Ry
     ewald contribution        =    -166.93605236 Ry

     convergence has been achieved in   8 iterations

     Forces acting on atoms (cartesian axes, Ry/au):

     atom    1 type  2   force =    -0.00000039    0.00000041   -0.00068853
     atom    2 type  2   force =    -0.00000015    0.00000090   -0.00068813
     atom    3 type  1   force =     0.00000014   -0.00000046    0.00068672
     atom    4 type  1   force =     0.00000041   -0.00000086    0.00068993
     The non-local contrib.  to forces
     atom    1 type  2   force =    -0.00000014   -0.00000093   -0.04471095
     atom    2 type  2   force =    -0.00000025    0.00000198   -0.04470909
     atom    3 type  1   force =     0.00000014   -0.00000297   -0.07914092
     atom    4 type  1   force =     0.00000128   -0.00000044   -0.07914136
     The ionic contribution  to forces
     atom    1 type  2   force =    -0.00000982    0.00001586    0.50379731
     atom    2 type  2   force =     0.00000049    0.00000642    0.50379655
     atom    3 type  1   force =    -0.00000035   -0.00001932   -0.50379694
     atom    4 type  1   force =     0.00000968   -0.00000296   -0.50379693
     The local contribution  to forces
     atom    1 type  2   force =     0.00000954   -0.00001452   -0.45993897
     atom    2 type  2   force =    -0.00000036   -0.00000746   -0.45993965
     atom    3 type  1   force =     0.00000033    0.00002182    0.58371186
     atom    4 type  1   force =    -0.00001055    0.00000253    0.58370688
     The core correction contribution to forces
     atom    1 type  2   force =     0.00000001   -0.00000000    0.00012392
     atom    2 type  2   force =     0.00000000   -0.00000002    0.00012390
     atom    3 type  1   force =     0.00000000    0.00000000    0.00000000
     atom    4 type  1   force =     0.00000000    0.00000000    0.00000000
     The Hubbard contrib.    to forces
     atom    1 type  2   force =     0.00000000    0.00000000    0.00000000
     atom    2 type  2   force =     0.00000000    0.00000000    0.00000000
     atom    3 type  1   force =     0.00000000    0.00000000    0.00000000
     atom    4 type  1   force =     0.00000000    0.00000000    0.00000000
     The SCF correction term to forces
     atom    1 type  2   force =     0.00000000    0.00000000    0.00000000
     atom    2 type  2   force =     0.00000000    0.00000000    0.00000000
     atom    3 type  1   force =     0.00000000    0.00000000    0.00000000
     atom    4 type  1   force =     0.00000000    0.00000000    0.00000000

     Total force =     0.000000     Total SCF correction =     0.000000


     Computing stress (Cartesian axis) and pressure

          total   stress  (Ry/bohr**3)                   (kbar)     P=   -0.22
  -0.00000107   0.00000000   0.00000000         -0.16      0.00      0.00
   0.00000000  -0.00000108  -0.00000000          0.00     -0.16     -0.00
   0.00000000  -0.00000000  -0.00000227          0.00     -0.00     -0.33

     kinetic stress (kbar)  19023.30      0.00      0.00
                                0.00  19023.30     -0.00
                                0.00     -0.00  19058.84

     local   stress (kbar)  -8312.87     -0.02     -0.01
                               -0.02  -8312.89      0.04
                               -0.01      0.04 -10092.54

     nonloc. stress (kbar)   5221.71      0.00      0.00
                                0.00   5221.71     -0.00
                                0.00     -0.00   5194.63

     hartree stress (kbar)  16975.13      0.01      0.01
                                0.01  16975.14     -0.01
                                0.01     -0.01  17951.00

     exc-cor stress (kbar)  -6761.63      0.00      0.00
                                0.00  -6761.63     -0.00
                                0.00     -0.00  -6763.40

     corecor stress (kbar)   -249.23     -0.00     -0.00
                               -0.00   -249.23      0.00
                               -0.00      0.00   -249.25

     ewald   stress (kbar) -25896.58      0.01      0.01
                                0.01 -25896.57     -0.02
                                0.01     -0.02 -25099.62

     hubbard stress (kbar)      0.00      0.00      0.00
                                0.00      0.00      0.00
                                0.00      0.00      0.00

     london  stress (kbar)      0.00      0.00      0.00
                                0.00      0.00      0.00
                                0.00      0.00      0.00

     DFT-D3  stress (kbar)      0.00      0.00      0.00
                                0.00      0.00      0.00
                                0.00      0.00      0.00

     XDM     stress (kbar)      0.00      0.00      0.00
                                0.00      0.00      0.00
                                0.00      0.00      0.00

     dft-nl  stress (kbar)      0.00      0.00      0.00
                                0.00      0.00      0.00
                                0.00      0.00      0.00

     TS-vdW  stress (kbar)      0.00      0.00      0.00
                                0.00      0.00      0.00
                                0.00      0.00      0.00



     Writing output data file ZnO.save/
 
     init_run     :      0.86s CPU      1.37s WALL (       2 calls)
     electrons    :     46.37s CPU     50.11s WALL (       9 calls)
     update_pot   :      0.86s CPU      0.87s WALL (       7 calls)
     forces       :      1.15s CPU      1.17s WALL (       9 calls)
     stress       :      2.20s CPU      2.23s WALL (       9 calls)

     Called by init_run:
     wfcinit      :      0.48s CPU      0.58s WALL (       2 calls)
     wfcinit:atom :      0.00s CPU      0.00s WALL (     130 calls)
     wfcinit:wfcr :      0.46s CPU      0.55s WALL (     130 calls)
     potinit      :      0.14s CPU      0.16s WALL (       2 calls)
     hinit0       :      0.20s CPU      0.54s WALL (       2 calls)

     Called by electrons:
     c_bands      :     38.87s CPU     42.25s WALL (      67 calls)
     sum_band     :      5.24s CPU      5.40s WALL (      67 calls)
     v_of_rho     :      1.96s CPU      1.99s WALL (      76 calls)
     v_h          :      0.03s CPU      0.03s WALL (      76 calls)
     v_xc         :      2.39s CPU      2.42s WALL (      94 calls)
     newd         :      0.34s CPU      0.36s WALL (      76 calls)
     mix_rho      :      0.06s CPU      0.07s WALL (      67 calls)

     Called by c_bands:
     init_us_2    :      0.70s CPU      0.74s WALL (   10010 calls)
     cegterg      :     35.80s CPU     37.81s WALL (    4355 calls)

     Called by sum_band:
     sum_band:bec :      0.04s CPU      0.04s WALL (    4355 calls)
     addusdens    :      0.33s CPU      0.34s WALL (      67 calls)

     Called by *egterg:
     h_psi        :     21.29s CPU     22.03s WALL (   14230 calls)
     s_psi        :      0.77s CPU      0.80s WALL (   14230 calls)
     g_psi        :      0.05s CPU      0.05s WALL (    9745 calls)
     cdiaghg      :      8.28s CPU      9.10s WALL (   13645 calls)
     cegterg:over :      2.83s CPU      3.27s WALL (    9745 calls)
     cegterg:upda :      1.30s CPU      1.33s WALL (    9745 calls)
     cegterg:last :      0.77s CPU      0.78s WALL (    4615 calls)
     cdiaghg:chol :      0.53s CPU      0.60s WALL (   13645 calls)
     cdiaghg:inve :      0.18s CPU      0.20s WALL (   13645 calls)
     cdiaghg:para :      0.81s CPU      0.88s WALL (   27290 calls)

     Called by h_psi:
     h_psi:pot    :     21.23s CPU     21.97s WALL (   14230 calls)
     h_psi:calbec :      1.40s CPU      1.45s WALL (   14230 calls)
     vloc_psi     :     18.99s CPU     19.65s WALL (   14230 calls)
     add_vuspsi   :      0.80s CPU      0.83s WALL (   14230 calls)

     General routines
     calbec       :      2.20s CPU      2.28s WALL (   21510 calls)
     fft          :      0.36s CPU      0.40s WALL (    1202 calls)
     ffts         :      0.02s CPU      0.02s WALL (     143 calls)
     fftw         :     21.57s CPU     22.30s WALL (  450392 calls)
     interpolate  :      0.03s CPU      0.04s WALL (      76 calls)
 
     Parallel routines
     fft_scatt_xy :      3.02s CPU      3.13s WALL (  451737 calls)
     fft_scatt_yz :     11.32s CPU     11.72s WALL (  451737 calls)
 
     PWSCF        :     51.94s CPU     58.43s WALL

 
   This run was terminated on:  16:34:31   8Jun2022            

=------------------------------------------------------------------------------=
   JOB DONE.
=------------------------------------------------------------------------------=
