
     Program PWSCF v.6.4.1 starts on  8Nov2021 at 21:43:54 

     This program is part of the open-source Quantum ESPRESSO suite
     for quantum simulation of materials; please cite
         "P. Giannozzi et al., J. Phys.:Condens. Matter 21 395502 (2009);
         "P. Giannozzi et al., J. Phys.:Condens. Matter 29 465901 (2017);
          URL http://www.quantum-espresso.org", 
     in publications or presentations arising from this work. More details at
     http://www.quantum-espresso.org/quote

     Parallel version (MPI), running on   128 processors

     MPI processes distributed on     2 nodes
     K-points division:     npool     =       8
     R & G space division:  proc/nbgrp/npool/nimage =      16
     Waiting for input...
     Reading input from standard input
Warning: card &IONS ignored
Warning: card   UPSCALE           = 100.D0, ignored
Warning: card / ignored
Warning: card &CELL ignored
Warning: card   CELL_DYNAMICS     = 'BFGS' ignored
Warning: card   PRESS_CONV_THR    = 0.5D0 ignored
Warning: card   CELL_DOFREE = 'ALL' ignored
Warning: card / ignored

     Current dimensions of program PWSCF are:
     Max number of different atomic species (ntypx) = 10
     Max number of k-points (npk) =  40000
     Max angular momentum in pseudopotentials (lmaxx) =  3

     Subspace diagonalization in iterative solution of the eigenvalue problem:
     one sub-group per band group will be used
     scalapack distributed-memory algorithm (size of sub-group:  2*  2 procs)

 
     Parallelization info
     --------------------
     sticks:   dense  smooth     PW     G-vecs:    dense   smooth      PW
     Min         827     397    109                64340    21384    3081
     Max         828     398    110                64343    21386    3085
     Sum       13233    6355   1749              1029453   342157   49323
 


     bravais-lattice index     =            0
     lattice parameter (alat)  =      19.5947  a.u.
     unit-cell volume          =    5452.5122 (a.u.)^3
     number of atoms/cell      =           72
     number of atomic types    =            3
     number of electrons       =       796.00
     number of Kohn-Sham states=          478
     kinetic-energy cutoff     =      60.0000  Ry
     charge density cutoff     =     500.0000  Ry
     convergence threshold     =      1.0E-08
     mixing beta               =       0.5000
     number of iterations used =            8  plain     mixing
     Exchange-correlation      = SLA  PW   PSX  PSC ( 1  4 10  8 0 0)
     Using LIBXC version       =    4   3   4

     celldm(1)=  19.594688  celldm(2)=   0.000000  celldm(3)=   0.000000
     celldm(4)=   0.000000  celldm(5)=   0.000000  celldm(6)=   0.000000

     crystal axes: (cart. coord. in units of alat)
               a(1) = (   1.000000   0.000304  -0.000270 )  
               a(2) = (  -0.499735   0.866251   0.000244 )  
               a(3) = (  -0.000378   0.000202   0.836492 )  

     reciprocal axes: (cart. coord. in units 2 pi/alat)
               b(1) = (  0.999825  0.576793  0.000313 )  
               b(2) = ( -0.000351  1.154197 -0.000280 )  
               b(3) = (  0.000323 -0.000150  1.195469 )  


     PseudoPot. # 1 for Zn read from file:
     ./GBRV_PBEsol/zn_pbesol_v1.uspp.F.UPF
     MD5 check sum: 7d8615e52efe7c1e2b1899de8658bae2
     Pseudo is Ultrasoft, Zval = 20.0
     Generated by new atomic code, or converted to UPF format
     Using radial grid of  943 points,  6 beta functions with: 
                l(1) =   0
                l(2) =   0
                l(3) =   1
                l(4) =   1
                l(5) =   2
                l(6) =   2
     Q(r) pseudized with  8 coefficients,  rinner =    1.100   1.100   1.100
                                                       1.100   1.100

     PseudoPot. # 2 for O  read from file:
     ./GBRV_PBEsol/o_pbesol_v1.2.uspp.F.UPF
     MD5 check sum: 501638753501ef6325af9037351f7734
     Pseudo is Ultrasoft + core correction, Zval =  6.0
     Generated by new atomic code, or converted to UPF format
     Using radial grid of  737 points,  5 beta functions with: 
                l(1) =   0
                l(2) =   0
                l(3) =   1
                l(4) =   1
                l(5) =   2
     Q(r) pseudized with  8 coefficients,  rinner =    0.900   0.900   0.900
                                                       0.900   0.900

     PseudoPot. # 3 for Mg read from file:
     ./GBRV_PBEsol/mg_pbesol_v1.4.uspp.F.UPF
     MD5 check sum: 4059f37963cf5867752dbf5ab2400678
     Pseudo is Ultrasoft, Zval = 10.0
     Generated by new atomic code, or converted to UPF format
     Using radial grid of  821 points,  7 beta functions with: 
                l(1) =   0
                l(2) =   0
                l(3) =   0
                l(4) =   1
                l(5) =   1
                l(6) =   2
                l(7) =   2
     Q(r) pseudized with  8 coefficients,  rinner =    1.200   1.200   1.200
                                                       1.200   1.200

     atomic species   valence    mass     pseudopotential
        Zn            20.00    65.38000     Zn( 1.00)
        O              6.00    15.99900     O ( 1.00)
        Mg            10.00    24.30500     Mg( 1.00)

     No symmetry found


                                    s                        frac. trans.

      isym =  1     identity                                     

 cryst.   s( 1) = (     1          0          0      )
                  (     0          1          0      )
                  (     0          0          1      )

 cart.    s( 1) = (  1.0000000 -0.0000000 -0.0000000 )
                  (  0.0000000  1.0000000  0.0000000 )
                  (  0.0000000  0.0000000  1.0000000 )


   Cartesian axes

     site n.     atom                  positions (alat units)
         1           Zn  tau(   1) = (   0.1669569   0.0966475   0.2116270  )
         2           Zn  tau(   2) = (   0.1664736   0.0967779   0.6295504  )
         3           Zn  tau(   3) = (   0.0010596   0.3850361   0.2119289  )
         4           Zn  tau(   4) = (  -0.0005470   0.3859439   0.6285363  )
         5           Zn  tau(   5) = (  -0.1669784   0.6746151   0.2106092  )
         6           Mg  tau(   6) = (  -0.1648174   0.6745762   0.6322558  )
         7           Zn  tau(   7) = (   0.4996071   0.0966187   0.2102665  )
         8           Zn  tau(   8) = (   0.5009413   0.0963052   0.6311484  )
         9           Mg  tau(   9) = (   0.3338806   0.3851494   0.2131926  )
        10           Mg  tau(  10) = (   0.3332147   0.3859020   0.6276718  )
        11           Mg  tau(  11) = (   0.1652561   0.6734547   0.2116095  )
        12           Zn  tau(  12) = (   0.1665073   0.6738761   0.6299636  )
        13           Mg  tau(  13) = (   0.8342808   0.0975104   0.2119107  )
        14           Mg  tau(  14) = (   0.8335809   0.0975001   0.6276015  )
        15           Zn  tau(  15) = (   0.6659040   0.3857928   0.2113740  )
        16           Mg  tau(  16) = (   0.6660999   0.3861741   0.6296249  )
        17           Zn  tau(  17) = (   0.4995477   0.6736513   0.2109317  )
        18           Zn  tau(  18) = (   0.4999089   0.6736323   0.6287480  )
        19           Zn  tau(  19) = (  -0.0007571   0.1931594   0.4208303  )
        20           Zn  tau(  20) = (   0.0009240   0.1924902   0.0026132  )
        21           Mg  tau(  21) = (  -0.1672060   0.4814252   0.4204082  )
        22           Zn  tau(  22) = (  -0.1658466   0.4814518   0.0010021  )
        23           Zn  tau(  23) = (  -0.3324119   0.7694768   0.4224784  )
        24           Mg  tau(  24) = (  -0.3348216   0.7700442   0.0025375  )
        25           Zn  tau(  25) = (   0.3336157   0.1914143   0.4207102  )
        26           Mg  tau(  26) = (   0.3328573   0.1914490   0.0025803  )
        27           Mg  tau(  27) = (   0.1643215   0.4813686   0.4206706  )
        28           Zn  tau(  28) = (   0.1669727   0.4809762   0.0039263  )
        29           Zn  tau(  29) = (  -0.0002855   0.7706851   0.4178870  )
        30           Zn  tau(  30) = (   0.0011680   0.7695989   0.0012863  )
        31           Mg  tau(  31) = (   0.6646014   0.1933952   0.4200496  )
        32           Zn  tau(  32) = (   0.6677999   0.1923680   0.0001725  )
        33           Zn  tau(  33) = (   0.5013968   0.4814666   0.4230174  )
        34           Zn  tau(  34) = (   0.4991539   0.4823421   0.0025308  )
        35           Mg  tau(  35) = (   0.3336030   0.7694886   0.4202361  )
        36           Mg  tau(  36) = (   0.3339088   0.7686590   0.0026038  )
        37           O   tau(  37) = (   0.1667552   0.0957456   0.0025642  )
        38           O   tau(  38) = (   0.1663072   0.0960147   0.4207728  )
        39           O   tau(  39) = (   0.0004365   0.3851956   0.0026374  )
        40           O   tau(  40) = (  -0.0012591   0.3852867   0.4203510  )
        41           O   tau(  41) = (  -0.1669301   0.6745017   0.0010265  )
        42           O   tau(  42) = (  -0.1663579   0.6734775   0.4224219  )
        43           O   tau(  43) = (   0.5006508   0.0963282   0.0022274  )
        44           O   tau(  44) = (   0.4995438   0.0964163   0.4206533  )
        45           O   tau(  45) = (   0.3331661   0.3839863   0.0026047  )
        46           O   tau(  46) = (   0.3323644   0.3854428   0.4206133  )
        47           O   tau(  47) = (   0.1675522   0.6731921   0.0039499  )
        48           O   tau(  48) = (   0.1669151   0.6736640   0.4178293  )
        49           O   tau(  49) = (   0.8340064   0.0950815   0.0009772  )
        50           O   tau(  50) = (   0.8317247   0.0960851   0.4199923  )
        51           O   tau(  51) = (   0.6667856   0.3853358   0.0001969  )
        52           O   tau(  52) = (   0.6672008   0.3850903   0.4229609  )
        53           O   tau(  53) = (   0.4997314   0.6739202   0.0025546  )
        54           O   tau(  54) = (   0.5004245   0.6741509   0.4201789  )
        55           O   tau(  55) = (   0.0002344   0.1927323   0.2116841  )
        56           O   tau(  56) = (  -0.0001509   0.1932712   0.6296076  )
        57           O   tau(  57) = (  -0.1669135   0.4816426   0.2119862  )
        58           O   tau(  58) = (  -0.1673335   0.4823119   0.6285934  )
        59           O   tau(  59) = (  -0.3335886   0.7701061   0.2106665  )
        60           O   tau(  60) = (  -0.3327930   0.7697557   0.6323129  )
        61           O   tau(  61) = (   0.3334000   0.1932682   0.2103237  )
        62           O   tau(  62) = (   0.3336233   0.1933519   0.6312051  )
        63           O   tau(  63) = (   0.1675945   0.4814274   0.2132493  )
        64           O   tau(  64) = (   0.1667618   0.4817023   0.6277291  )
        65           O   tau(  65) = (  -0.0005804   0.7703584   0.2116665  )
        66           O   tau(  66) = (   0.0011802   0.7704438   0.6300204  )
        67           O   tau(  67) = (   0.6671414   0.1931066   0.2119677  )
        68           O   tau(  68) = (   0.6673088   0.1936949   0.6276587  )
        69           O   tau(  69) = (   0.4999101   0.4812915   0.2114310  )
        70           O   tau(  70) = (   0.4993290   0.4815540   0.6296820  )
        71           O   tau(  71) = (   0.3320602   0.7710301   0.2109888  )
        72           O   tau(  72) = (   0.3331572   0.7710981   0.6288053  )

   Crystallographic axes

     site n.     atom                  positions (cryst. coord.)
         1           Zn  tau(   1) = (  0.2227394  0.1114325  0.2530329  )
         2           Zn  tau(   2) = (  0.2224622  0.1114664  0.7526472  )
         3           Zn  tau(   3) = (  0.2232120  0.4443480  0.2532971  )
         4           Zn  tau(   4) = (  0.2222595  0.4452799  0.7513377  )
         5           Zn  tau(   5) = (  0.2222302  0.7786387  0.2516217  )
         6           Mg  tau(   6) = (  0.2245002  0.7784751  0.7556879  )
         7           Zn  tau(   7) = (  0.5553145  0.1112831  0.2515139  )
         8           Zn  tau(   8) = (  0.5565991  0.1108031  0.7546656  )
         9           Mg  tau(   9) = (  0.5560405  0.4443617  0.2549152  )
        10           Mg  tau(  10) = (  0.5559384  0.4451148  0.7504119  )
        11           Mg  tau(  11) = (  0.5537374  0.7771825  0.2529250  )
        12           Zn  tau(  12) = (  0.5553624  0.7775515  0.7530548  )
        13           Mg  tau(  13) = (  0.8904444  0.1121945  0.2535874  )
        14           Mg  tau(  14) = (  0.8898687  0.1120665  0.7505327  )
        15           Zn  tau(  15) = (  0.8883762  0.4449884  0.2528483  )
        16           Mg  tau(  16) = (  0.8889228  0.4453115  0.7528542  )
        17           Zn  tau(  17) = (  0.8880837  0.7772924  0.2522227  )
        18           Zn  tau(  18) = (  0.8885646  0.7771535  0.7517092  )
        19           Zn  tau(  19) = (  0.1107876  0.2228266  0.5030603  )
        20           Zn  tau(  20) = (  0.1119517  0.2221706  0.0030955  )
        21           Mg  tau(  21) = (  0.1106376  0.5556008  0.5024588  )
        22           Zn  tau(  22) = (  0.1118808  0.5557482  0.0010723  )
        23           Zn  tau(  23) = (  0.1116075  0.8881265  0.5048372  )
        24           Mg  tau(  24) = (  0.1093941  0.8888997  0.0028100  )
        25           Zn  tau(  25) = (  0.4440954  0.2206952  0.5030250  )
        26           Mg  tau(  26) = (  0.4432264  0.2208525  0.0031634  )
        27           Mg  tau(  27) = (  0.4420744  0.5554191  0.5028796  )
        28           Zn  tau(  28) = (  0.4443686  0.5550819  0.0046756  )
        29           Zn  tau(  29) = (  0.4443712  0.8894060  0.4994554  )
        30           Zn  tau(  30) = (  0.4450676  0.8882682  0.0014229  )
        31           Mg  tau(  31) = (  0.7761655  0.2228657  0.5023418  )
        32           Zn  tau(  32) = (  0.7786397  0.2217964  0.0003930  )
        33           Zn  tau(  33) = (  0.7791481  0.5554134  0.5057939  )
        34           Zn  tau(  34) = (  0.7772791  0.5565423  0.0031144  )
        35           Mg  tau(  35) = (  0.7775120  0.8879073  0.5023716  )
        36           Mg  tau(  36) = (  0.7772085  0.8870664  0.0031055  )
        37           O   tau(  37) = (  0.2219523  0.1104502  0.0031050  )
        38           O   tau(  38) = (  0.2217903  0.1106439  0.5030602  )
        39           O   tau(  39) = (  0.2226154  0.4445909  0.0030954  )
        40           O   tau(  40) = (  0.2211033  0.4445798  0.5024584  )
        41           O   tau(  41) = (  0.2221475  0.7785663  0.0010722  )
        42           O   tau(  42) = (  0.2222607  0.7772662  0.5048376  )
        43           O   tau(  43) = (  0.5561253  0.1110055  0.0028100  )
        44           O   tau(  44) = (  0.5552002  0.1109906  0.5030248  )
        45           O   tau(  45) = (  0.5545893  0.4430784  0.0031639  )
        46           O   tau(  46) = (  0.5547586  0.4446430  0.5028796  )
        47           O   tau(  47) = (  0.5558168  0.7769367  0.0046753  )
        48           O   tau(  48) = (  0.5555814  0.7773658  0.4994549  )
        49           O   tau(  49) = (  0.8887031  0.1094501  0.0014233  )
        50           O   tau(  50) = (  0.8871317  0.1104920  0.5023420  )
        51           O   tau(  51) = (  0.8889280  0.4445197  0.0003929  )
        52           O   tau(  52) = (  0.8893337  0.4441180  0.5057944  )
        53           O   tau(  53) = (  0.8883574  0.7776610  0.0031143  )
        54           O   tau(  54) = (  0.8893140  0.7778102  0.5023714  )
        55           O   tau(  55) = (  0.1114673  0.2223919  0.2530329  )
        56           O   tau(  56) = (  0.1115236  0.2228971  0.7526473  )
        57           O   tau(  57) = (  0.1109902  0.5559099  0.2532969  )
        58           O   tau(  58) = (  0.1110867  0.5565660  0.7513376  )
        59           O   tau(  59) = (  0.1107277  0.8889125  0.2516221  )
        60           O   tau(  60) = (  0.1114529  0.8883899  0.7556876  )
        61           O   tau(  61) = (  0.4448833  0.2228940  0.2515142  )
        62           O   tau(  62) = (  0.4452864  0.2228728  0.7546649  )
        63           O   tau(  63) = (  0.4453159  0.5555438  0.2549149  )
        64           O   tau(  64) = (  0.4447715  0.5557455  0.7504123  )
        65           O   tau(  65) = (  0.4438234  0.8890866  0.2529252  )
        66           O   tau(  66) = (  0.4457638  0.8890677  0.7530547  )
        67           O   tau(  67) = (  0.7784736  0.2225900  0.2535872  )
        68           O   tau(  68) = (  0.7791102  0.2231526  0.7505329  )
        69           O   tau(  69) = (  0.7774944  0.5552709  0.2528485  )
        70           O   tau(  70) = (  0.7771956  0.5554572  0.7528544  )
        71           O   tau(  71) = (  0.7767931  0.8897454  0.2522223  )
        72           O   tau(  72) = (  0.7780597  0.8897067  0.7517092  )

     number of k points=    36  Marzari-Vanderbilt smearing, width (Ry)=  0.0010
                       cart. coord. in units 2pi/alat
        k(    1) = (   0.0000000   0.0000000   0.0000000), wk =   0.0312500
        k(    2) = (   0.0000807  -0.0000375   0.2988672), wk =   0.0625000
        k(    3) = (  -0.0001614   0.0000749  -0.5977345), wk =   0.0312500
        k(    4) = (  -0.0000877   0.2885493  -0.0000699), wk =   0.0625000
        k(    5) = (  -0.0000069   0.2885119   0.2987973), wk =   0.0625000
        k(    6) = (  -0.0002491   0.2886242  -0.5978043), wk =   0.0625000
        k(    7) = (  -0.0001684   0.2885868  -0.2989371), wk =   0.0625000
        k(    8) = (   0.0001753  -0.5770987   0.0001398), wk =   0.0312500
        k(    9) = (   0.0002561  -0.5771361   0.2990070), wk =   0.0625000
        k(   10) = (   0.0000139  -0.5770238  -0.5975947), wk =   0.0312500
        k(   11) = (   0.2499562   0.1441983   0.0000782), wk =   0.0625000
        k(   12) = (   0.2500370   0.1441609   0.2989454), wk =   0.0625000
        k(   13) = (   0.2497948   0.1442732  -0.5976563), wk =   0.0625000
        k(   14) = (   0.2498755   0.1442358  -0.2987890), wk =   0.0625000
        k(   15) = (   0.2498686   0.4327477   0.0000083), wk =   0.0625000
        k(   16) = (   0.2499493   0.4327102   0.2988755), wk =   0.0625000
        k(   17) = (   0.2497071   0.4328226  -0.5977262), wk =   0.0625000
        k(   18) = (   0.2497878   0.4327851  -0.2988589), wk =   0.0625000
        k(   19) = (   0.2501316  -0.4329004   0.0002180), wk =   0.0625000
        k(   20) = (   0.2502123  -0.4329378   0.2990852), wk =   0.0625000
        k(   21) = (   0.2499701  -0.4328255  -0.5975165), wk =   0.0625000
        k(   22) = (   0.2500509  -0.4328629  -0.2986493), wk =   0.0625000
        k(   23) = (   0.2500439  -0.1443510   0.0001481), wk =   0.0625000
        k(   24) = (   0.2501246  -0.1443885   0.2990153), wk =   0.0625000
        k(   25) = (   0.2498825  -0.1442761  -0.5975864), wk =   0.0625000
        k(   26) = (   0.2499632  -0.1443136  -0.2987192), wk =   0.0625000
        k(   27) = (  -0.4999125  -0.2883966  -0.0001564), wk =   0.0312500
        k(   28) = (  -0.4998318  -0.2884341   0.2987109), wk =   0.0625000
        k(   29) = (  -0.5000739  -0.2883217  -0.5978908), wk =   0.0312500
        k(   30) = (  -0.5000001   0.0001527  -0.0002263), wk =   0.0625000
        k(   31) = (  -0.4999194   0.0001152   0.2986410), wk =   0.0625000
        k(   32) = (  -0.5001616   0.0002276  -0.5979607), wk =   0.0625000
        k(   33) = (  -0.5000809   0.0001902  -0.2990935), wk =   0.0625000
        k(   34) = (  -0.4997371  -0.8654953  -0.0000166), wk =   0.0312500
        k(   35) = (  -0.4996564  -0.8655328   0.2988506), wk =   0.0625000
        k(   36) = (  -0.4998986  -0.8654204  -0.5977510), wk =   0.0312500

                       cryst. coord.
        k(    1) = (   0.0000000   0.0000000   0.0000000), wk =   0.0312500
        k(    2) = (  -0.0000000   0.0000000   0.2500000), wk =   0.0625000
        k(    3) = (   0.0000000  -0.0000000  -0.5000000), wk =   0.0312500
        k(    4) = (   0.0000000   0.2500000  -0.0000000), wk =   0.0625000
        k(    5) = (  -0.0000000   0.2500000   0.2500000), wk =   0.0625000
        k(    6) = (   0.0000000   0.2500000  -0.5000000), wk =   0.0625000
        k(    7) = (   0.0000000   0.2500000  -0.2500000), wk =   0.0625000
        k(    8) = (  -0.0000000  -0.5000000   0.0000000), wk =   0.0312500
        k(    9) = (  -0.0000000  -0.5000000   0.2500000), wk =   0.0625000
        k(   10) = (   0.0000000  -0.5000000  -0.5000000), wk =   0.0312500
        k(   11) = (   0.2500000   0.0000000   0.0000000), wk =   0.0625000
        k(   12) = (   0.2500000   0.0000000   0.2500000), wk =   0.0625000
        k(   13) = (   0.2500000  -0.0000000  -0.5000000), wk =   0.0625000
        k(   14) = (   0.2500000  -0.0000000  -0.2500000), wk =   0.0625000
        k(   15) = (   0.2500000   0.2500000   0.0000000), wk =   0.0625000
        k(   16) = (   0.2500000   0.2500000   0.2500000), wk =   0.0625000
        k(   17) = (   0.2500000   0.2500000  -0.5000000), wk =   0.0625000
        k(   18) = (   0.2500000   0.2500000  -0.2500000), wk =   0.0625000
        k(   19) = (   0.2500000  -0.5000000  -0.0000000), wk =   0.0625000
        k(   20) = (   0.2500000  -0.5000000   0.2500000), wk =   0.0625000
        k(   21) = (   0.2500000  -0.5000000  -0.5000000), wk =   0.0625000
        k(   22) = (   0.2500000  -0.5000000  -0.2500000), wk =   0.0625000
        k(   23) = (   0.2500000  -0.2500000   0.0000000), wk =   0.0625000
        k(   24) = (   0.2500000  -0.2500000   0.2500000), wk =   0.0625000
        k(   25) = (   0.2500000  -0.2500000  -0.5000000), wk =   0.0625000
        k(   26) = (   0.2500000  -0.2500000  -0.2500000), wk =   0.0625000
        k(   27) = (  -0.5000000  -0.0000000  -0.0000000), wk =   0.0312500
        k(   28) = (  -0.5000000  -0.0000000   0.2500000), wk =   0.0625000
        k(   29) = (  -0.5000000  -0.0000000  -0.5000000), wk =   0.0312500
        k(   30) = (  -0.5000000   0.2500000  -0.0000000), wk =   0.0625000
        k(   31) = (  -0.5000000   0.2500000   0.2500000), wk =   0.0625000
        k(   32) = (  -0.5000000   0.2500000  -0.5000000), wk =   0.0625000
        k(   33) = (  -0.5000000   0.2500000  -0.2500000), wk =   0.0625000
        k(   34) = (  -0.5000000  -0.5000000  -0.0000000), wk =   0.0312500
        k(   35) = (  -0.5000000  -0.5000000   0.2500000), wk =   0.0625000
        k(   36) = (  -0.5000000  -0.5000000  -0.5000000), wk =   0.0312500

     Dense  grid:  1029453 G-vectors     FFT dimensions: ( 144, 144, 120)

     Smooth grid:   342157 G-vectors     FFT dimensions: ( 100, 100,  81)

     Dynamical RAM for                 wfc:      19.50 MB

     Dynamical RAM for     wfc (w. buffer):     117.02 MB

     Dynamical RAM for           str. fact:       2.95 MB

     Dynamical RAM for           local pot:       0.00 MB

     Dynamical RAM for          nlocal pot:      46.11 MB

     Dynamical RAM for                qrad:      22.36 MB

     Dynamical RAM for          rho,v,vnew:       6.74 MB

     Dynamical RAM for               rhoin:       2.25 MB

     Dynamical RAM for            rho*nmix:      15.71 MB

     Dynamical RAM for           G-vectors:       3.84 MB

     Dynamical RAM for          h,s,v(r/c):      41.84 MB

     Dynamical RAM for          <psi|beta>:       8.24 MB

     Dynamical RAM for                 psi:      78.01 MB

     Dynamical RAM for                hpsi:      78.01 MB

     Dynamical RAM for                spsi:      78.01 MB

     Dynamical RAM for      wfcinit/wfcrot:      46.53 MB

     Dynamical RAM for           addusdens:      30.43 MB

     Dynamical RAM for          addusforce:      52.22 MB

     Dynamical RAM for         addusstress:      27.43 MB

     Estimated static dynamical RAM per process >     227.23 MB

     Estimated max dynamical RAM per process >     511.35 MB

     Estimated total dynamical RAM >      63.92 GB

     Check: negative core charge=   -0.000002

     Initial potential from superposition of free atoms

     starting charge  791.79390, renormalised to  796.00000
     Starting wfcs are  500 randomized atomic wfcs

     total cpu time spent up to now is       17.5 secs

     Self-consistent Calculation

     iteration #  1     ecut=    60.00 Ry     beta= 0.50
     Davidson diagonalization with overlap
     ethr =  1.00E-02,  avg # of iterations =  5.0

     total cpu time spent up to now is       80.9 secs

     total energy              =  -13055.88689384 Ry
     Harris-Foulkes estimate   =  -13069.60258904 Ry
     estimated scf accuracy    <      20.49828612 Ry

     iteration #  2     ecut=    60.00 Ry     beta= 0.50
     Davidson diagonalization with overlap
     ethr =  2.58E-03,  avg # of iterations =  4.0

     total cpu time spent up to now is      155.6 secs

     total energy              =  -13062.07802601 Ry
     Harris-Foulkes estimate   =  -13066.76653772 Ry
     estimated scf accuracy    <      10.64764865 Ry

     iteration #  3     ecut=    60.00 Ry     beta= 0.50
     Davidson diagonalization with overlap
     ethr =  1.34E-03,  avg # of iterations =  2.4

     total cpu time spent up to now is      208.7 secs

     total energy              =  -13063.97567623 Ry
     Harris-Foulkes estimate   =  -13064.04918949 Ry
     estimated scf accuracy    <       0.19642682 Ry

     iteration #  4     ecut=    60.00 Ry     beta= 0.50
     Davidson diagonalization with overlap
     ethr =  2.47E-05,  avg # of iterations =  6.3

     total cpu time spent up to now is      300.1 secs

     total energy              =  -13063.99078337 Ry
     Harris-Foulkes estimate   =  -13064.03193704 Ry
     estimated scf accuracy    <       0.11491241 Ry

     iteration #  5     ecut=    60.00 Ry     beta= 0.50
     Davidson diagonalization with overlap
     ethr =  1.44E-05,  avg # of iterations =  5.2

     total cpu time spent up to now is      371.5 secs

     total energy              =  -13064.00861095 Ry
     Harris-Foulkes estimate   =  -13064.00913841 Ry
     estimated scf accuracy    <       0.00286762 Ry

     iteration #  6     ecut=    60.00 Ry     beta= 0.50
     Davidson diagonalization with overlap
     ethr =  3.60E-07,  avg # of iterations =  5.6

     total cpu time spent up to now is      467.3 secs

     total energy              =  -13064.00901055 Ry
     Harris-Foulkes estimate   =  -13064.00920750 Ry
     estimated scf accuracy    <       0.00064585 Ry

     iteration #  7     ecut=    60.00 Ry     beta= 0.50
     Davidson diagonalization with overlap
     ethr =  8.11E-08,  avg # of iterations =  2.0

     total cpu time spent up to now is      511.4 secs

     total energy              =  -13064.00915940 Ry
     Harris-Foulkes estimate   =  -13064.00919094 Ry
     estimated scf accuracy    <       0.00016089 Ry

     iteration #  8     ecut=    60.00 Ry     beta= 0.50
     Davidson diagonalization with overlap
     ethr =  2.02E-08,  avg # of iterations =  2.0

     total cpu time spent up to now is      553.1 secs

     total energy              =  -13064.00919080 Ry
     Harris-Foulkes estimate   =  -13064.00918759 Ry
     estimated scf accuracy    <       0.00001380 Ry

     iteration #  9     ecut=    60.00 Ry     beta= 0.50
     Davidson diagonalization with overlap
     ethr =  1.73E-09,  avg # of iterations =  2.0

     total cpu time spent up to now is      600.7 secs

     total energy              =  -13064.00919286 Ry
     Harris-Foulkes estimate   =  -13064.00919350 Ry
     estimated scf accuracy    <       0.00000322 Ry

     iteration # 10     ecut=    60.00 Ry     beta= 0.50
     Davidson diagonalization with overlap
     ethr =  4.04E-10,  avg # of iterations =  2.0

     total cpu time spent up to now is      643.7 secs

     total energy              =  -13064.00919352 Ry
     Harris-Foulkes estimate   =  -13064.00919356 Ry
     estimated scf accuracy    <       0.00000043 Ry

     iteration # 11     ecut=    60.00 Ry     beta= 0.50
     Davidson diagonalization with overlap
     ethr =  5.46E-11,  avg # of iterations =  2.0

     total cpu time spent up to now is      686.3 secs

     total energy              =  -13064.00919361 Ry
     Harris-Foulkes estimate   =  -13064.00919361 Ry
     estimated scf accuracy    <       0.00000004 Ry

     iteration # 12     ecut=    60.00 Ry     beta= 0.50
     Davidson diagonalization with overlap
     ethr =  5.55E-12,  avg # of iterations =  2.0

     total cpu time spent up to now is      735.2 secs

     End of self-consistent calculation

          k = 0.0000 0.0000 0.0000 ( 42795 PWs)   bands (ev):

  -114.8351-114.8341-114.8319-114.8245-114.8158-114.8150-114.8141-114.8131
  -114.8127-114.8126-114.8102-114.8095-114.8088-114.8064-114.8056-114.8049
  -114.7998-114.7983-114.7937-114.7917-114.7836-114.7714 -69.1986 -69.1974
   -69.1948 -69.1937 -69.1927 -69.1919 -69.1910 -69.1905 -69.1880 -69.1873
   -69.1851 -69.1798 -69.1794 -69.1783 -69.1779 -69.1773 -69.1760 -69.1754
   -69.1752 -69.1744 -69.1742 -69.1739 -69.1734 -69.1731 -69.1730 -69.1720
   -69.1718 -69.1716 -69.1714 -69.1703 -69.1696 -69.1695 -69.1689 -69.1688
   -69.1684 -69.1680 -69.1678 -69.1671 -69.1663 -69.1662 -69.1656 -69.1652
   -69.1651 -69.1650 -69.1639 -69.1636 -69.1624 -69.1622 -69.1614 -69.1613
   -69.1589 -69.1574 -69.1574 -69.1565 -69.1555 -69.1526 -69.1518 -69.1514
   -69.1499 -69.1498 -69.1462 -69.1433 -69.1407 -69.1338 -69.1308 -69.1284
   -64.4304 -64.4195 -64.4167 -64.4129 -64.4126 -64.4075 -64.4061 -64.4046
   -64.3961 -64.3897 -64.3891 -64.3849 -64.3785 -64.3683 -31.4221 -31.4201
   -31.4150 -31.4142 -31.4120 -31.4098 -31.4081 -31.4054 -31.4010 -31.4002
   -31.3996 -31.3972 -31.3945 -31.3934 -31.3925 -31.3922 -31.3910 -31.3910
   -31.3909 -31.3893 -31.3883 -31.3867 -31.3840 -31.3823 -31.3799 -31.3784
   -31.3761 -31.3718 -31.3708 -31.3699 -31.3694 -31.3687 -31.3679 -31.3664
   -31.3656 -31.3635 -31.3607 -31.3596 -31.3559 -31.3518 -31.3461 -31.3434
    -9.6180  -9.1990  -9.1824  -9.1604  -9.1095  -9.0766  -9.0108  -8.9231
    -8.9103  -8.7767  -8.7385  -8.7330  -8.7175  -8.7043  -8.6895  -8.6856
    -8.6498  -8.6450  -8.6290  -8.6123  -8.5887  -8.5718  -8.5712  -8.5447
    -8.5225  -8.5111  -8.4930  -8.4702  -8.4503  -8.3521  -8.3140  -8.3072
    -8.2971  -8.2492  -8.2330  -8.1742   2.0660   2.0866   2.1299   2.1349
     2.1750   2.2046   2.2442   2.2947   2.3287   2.3349   2.3875   2.4031
     2.4153   2.5112   2.5448   2.5879   2.6028   2.6214   2.6519   2.6611
     2.6766   2.6943   2.7132   2.7352   2.7406   2.7727   2.8056   2.8223
     2.8374   2.8560   2.8706   2.9002   2.9010   2.9045   2.9183   2.9293
     2.9360   2.9501   2.9629   2.9779   2.9828   3.0027   3.0135   3.0366
     3.0628   3.0789   3.1024   3.1270   3.1536   3.1684   3.1841   3.1958
     3.2042   3.2114   3.2250   3.2391   3.2458   3.2692   3.2731   3.2849
     3.3009   3.3130   3.3330   3.3428   3.3558   3.3628   3.3733   3.3828
     3.3950   3.4131   3.4192   3.4320   3.4439   3.4601   3.4770   3.4918
     3.4992   3.5110   3.5470   3.5567   3.5631   3.5680   3.5758   3.5864
     3.5942   3.6264   3.6431   3.6617   3.6676   3.6769   3.7021   3.7359
     3.7574   3.7637   3.7788   3.7936   3.7980   3.8317   3.8330   3.8497
     3.8569   3.8809   3.8957   3.9067   3.9346   3.9388   3.9624   3.9889
     4.0021   4.0169   4.0385   4.0400   4.0679   4.2095   4.3488   4.3863
     4.4101   4.4335   4.4511   4.5141   4.5466   4.5656   4.5805   4.6517
     4.7006   4.7340   4.7621   4.8175   4.8978   4.9231   4.9507   4.9802
     5.0012   5.0085   5.0520   5.0832   5.1060   5.1213   5.1274   5.1510
     5.2006   5.2063   5.2497   5.2529   5.2819   5.2953   5.3039   5.3195
     5.3566   5.4341   5.5320   5.5530   5.6303   5.6387   5.7010   5.7277
     5.7666   5.8224   5.9108   5.9262   5.9578   6.0165   6.0306   6.0565
     6.0722   6.0896   6.1405   6.1857   6.1971   6.3623   6.3876   6.4072
     6.4299   6.5145   6.5344   6.5578   6.5718   6.5811   6.5906   6.6173
     6.6568   6.7145   6.7674   6.7919   6.8263   6.8787   6.8912   6.9322
     6.9671   6.9677   7.0182   7.0412   7.0836   7.1430   7.1585   7.2091
     7.2320   7.2372   7.3633   7.3722   7.3803   7.4043   7.4116   7.4485
     7.4521   7.4630   7.4808   7.6077   7.6968   7.7473   7.7649   7.9180
     7.9499   7.9656   7.9792   7.9842   8.2437   8.3271   9.7773  12.6789
    12.7444  12.7827  12.8728  12.9602  13.1227  13.2668  13.3394  13.7680
    14.0246  14.0329  14.0732  14.0760  14.1055  14.1242  14.1455  14.1793
    14.2121  14.3090  14.3573  14.3955  15.1150  15.1935  15.4715  15.4845
    15.5110  15.6630  15.7989  15.9188  15.9349  16.0316  16.1098  16.1285
    16.1372  16.1482  16.3073  16.3150  16.4033  16.5098  16.6448  16.8264
    16.8521  17.1595  17.1838  17.2384  17.2579  17.2717  17.2934  17.3111
    17.3811  17.4505  17.4875  17.7237  17.8177  17.8627  17.9478  17.9830
    18.1196  18.1610  18.2014  18.2427  18.4180  18.6818  18.7632  18.8736
    18.9116  18.9610  19.1296  19.1985  19.2967  19.5150  19.5456  19.5930
    19.6308  19.6937  19.7271  19.7419  19.7816  19.8498

     occupation numbers 
     1.0000   1.0000   1.0000   1.0000   1.0000   1.0000   1.0000   1.0000
     1.0000   1.0000   1.0000   1.0000   1.0000   1.0000   1.0000   1.0000
     1.0000   1.0000   1.0000   1.0000   1.0000   1.0000   1.0000   1.0000
     1.0000   1.0000   1.0000   1.0000   1.0000   1.0000   1.0000   1.0000
     1.0000   1.0000   1.0000   1.0000   1.0000   1.0000   1.0000   1.0000
     1.0000   1.0000   1.0000   1.0000   1.0000   1.0000   1.0000   1.0000
     1.0000   1.0000   1.0000   1.0000   1.0000   1.0000   1.0000   1.0000
     1.0000   1.0000   1.0000   1.0000   1.0000   1.0000   1.0000   1.0000
     1.0000   1.0000   1.0000   1.0000   1.0000   1.0000   1.0000   1.0000
     1.0000   1.0000   1.0000   1.0000   1.0000   1.0000   1.0000   1.0000
     1.0000   1.0000   1.0000   1.0000   1.0000   1.0000   1.0000   1.0000
     1.0000   1.0000   1.0000   1.0000   1.0000   1.0000   1.0000   1.0000
     1.0000   1.0000   1.0000   1.0000   1.0000   1.0000   1.0000   1.0000
     1.0000   1.0000   1.0000   1.0000   1.0000   1.0000   1.0000   1.0000
     1.0000   1.0000   1.0000   1.0000   1.0000   1.0000   1.0000   1.0000
     1.0000   1.0000   1.0000   1.0000   1.0000   1.0000   1.0000   1.0000
     1.0000   1.0000   1.0000   1.0000   1.0000   1.0000   1.0000   1.0000
     1.0000   1.0000   1.0000   1.0000   1.0000   1.0000   1.0000   1.0000
     1.0000   1.0000   1.0000   1.0000   1.0000   1.0000   1.0000   1.0000
     1.0000   1.0000   1.0000   1.0000   1.0000   1.0000   1.0000   1.0000
     1.0000   1.0000   1.0000   1.0000   1.0000   1.0000   1.0000   1.0000
     1.0000   1.0000   1.0000   1.0000   1.0000   1.0000   1.0000   1.0000
     1.0000   1.0000   1.0000   1.0000   1.0000   1.0000   1.0000   1.0000
     1.0000   1.0000   1.0000   1.0000   1.0000   1.0000   1.0000   1.0000
     1.0000   1.0000   1.0000   1.0000   1.0000   1.0000   1.0000   1.0000
     1.0000   1.0000   1.0000   1.0000   1.0000   1.0000   1.0000   1.0000
     1.0000   1.0000   1.0000   1.0000   1.0000   1.0000   1.0000   1.0000
     1.0000   1.0000   1.0000   1.0000   1.0000   1.0000   1.0000   1.0000
     1.0000   1.0000   1.0000   1.0000   1.0000   1.0000   1.0000   1.0000
     1.0000   1.0000   1.0000   1.0000   1.0000   1.0000   1.0000   1.0000
     1.0000   1.0000   1.0000   1.0000   1.0000   1.0000   1.0000   1.0000
     1.0000   1.0000   1.0000   1.0000   1.0000   1.0000   1.0000   1.0000
     1.0000   1.0000   1.0000   1.0000   1.0000   1.0000   1.0000   1.0000
     1.0000   1.0000   1.0000   1.0000   1.0000   1.0000   1.0000   1.0000
     1.0000   1.0000   1.0000   1.0000   1.0000   1.0000   1.0000   1.0000
     1.0000   1.0000   1.0000   1.0000   1.0000   1.0000   1.0000   1.0000
     1.0000   1.0000   1.0000   1.0000   1.0000   1.0000   1.0000   1.0000
     1.0000   1.0000   1.0000   1.0000   1.0000   1.0000   1.0000   1.0000
     1.0000   1.0000   1.0000   1.0000   1.0000   1.0000   1.0000   1.0000
     1.0000   1.0000   1.0000   1.0000   1.0000   1.0000   1.0000   1.0000
     1.0000   1.0000   1.0000   1.0000   1.0000   1.0000   1.0000   1.0000
     1.0000   1.0000   1.0000   1.0000   1.0000   1.0000   1.0000   1.0000
     1.0000   1.0000   1.0000   1.0000   1.0000   1.0000   1.0000   1.0000
     1.0000   1.0000   1.0000   1.0000   1.0000   1.0000   1.0000   1.0000
     1.0000   1.0000   1.0000   1.0000   1.0000   1.0000   1.0000   1.0000
     1.0000   1.0000   1.0000   1.0000   1.0000   1.0000   1.0000   1.0000
     1.0000   1.0000   1.0000   1.0000   1.0000   1.0000   1.0000   1.0000
     1.0000   1.0000   1.0000   1.0000   1.0000   1.0000   1.0000   1.0000
     1.0000   1.0000   1.0000   1.0000   1.0000   1.0000   1.0000   1.0000
     1.0000   1.0000   1.0000   1.0000   1.0000   1.0000   0.0000   0.0000
     0.0000   0.0000   0.0000   0.0000   0.0000   0.0000   0.0000   0.0000
     0.0000   0.0000   0.0000   0.0000   0.0000   0.0000   0.0000   0.0000
     0.0000   0.0000   0.0000   0.0000   0.0000   0.0000   0.0000   0.0000
     0.0000   0.0000   0.0000   0.0000   0.0000   0.0000   0.0000   0.0000
     0.0000   0.0000   0.0000   0.0000   0.0000   0.0000   0.0000   0.0000
     0.0000   0.0000   0.0000   0.0000   0.0000   0.0000   0.0000   0.0000
     0.0000   0.0000   0.0000   0.0000   0.0000   0.0000   0.0000   0.0000
     0.0000   0.0000   0.0000   0.0000   0.0000   0.0000   0.0000   0.0000
     0.0000   0.0000   0.0000   0.0000   0.0000   0.0000   0.0000   0.0000
     0.0000   0.0000   0.0000   0.0000   0.0000   0.0000

          k = 0.0001-0.0000 0.2989 ( 42793 PWs)   bands (ev):

  -114.8351-114.8341-114.8319-114.8245-114.8158-114.8150-114.8141-114.8131
  -114.8127-114.8126-114.8102-114.8095-114.8088-114.8064-114.8056-114.8049
  -114.7998-114.7983-114.7937-114.7917-114.7836-114.7714 -69.1986 -69.1974
   -69.1948 -69.1937 -69.1927 -69.1919 -69.1910 -69.1905 -69.1880 -69.1873
   -69.1851 -69.1798 -69.1794 -69.1783 -69.1779 -69.1773 -69.1760 -69.1754
   -69.1752 -69.1744 -69.1742 -69.1739 -69.1734 -69.1732 -69.1730 -69.1720
   -69.1718 -69.1716 -69.1714 -69.1703 -69.1696 -69.1695 -69.1689 -69.1688
   -69.1684 -69.1680 -69.1678 -69.1671 -69.1663 -69.1662 -69.1656 -69.1653
   -69.1651 -69.1649 -69.1639 -69.1636 -69.1624 -69.1622 -69.1614 -69.1613
   -69.1589 -69.1575 -69.1574 -69.1565 -69.1555 -69.1526 -69.1518 -69.1514
   -69.1499 -69.1498 -69.1462 -69.1433 -69.1407 -69.1338 -69.1308 -69.1284
   -64.4304 -64.4195 -64.4167 -64.4129 -64.4126 -64.4075 -64.4061 -64.4046
   -64.3961 -64.3897 -64.3891 -64.3849 -64.3785 -64.3683 -31.4220 -31.4197
   -31.4150 -31.4142 -31.4124 -31.4101 -31.4079 -31.4054 -31.4013 -31.4001
   -31.3995 -31.3974 -31.3945 -31.3934 -31.3924 -31.3923 -31.3917 -31.3910
   -31.3904 -31.3884 -31.3882 -31.3866 -31.3840 -31.3824 -31.3801 -31.3784
   -31.3760 -31.3718 -31.3708 -31.3699 -31.3694 -31.3687 -31.3681 -31.3663
   -31.3656 -31.3635 -31.3607 -31.3596 -31.3559 -31.3518 -31.3461 -31.3434
    -9.5679  -9.2316  -9.1627  -9.1244  -9.0990  -9.0747  -9.0287  -8.9750
    -8.8920  -8.8596  -8.8566  -8.8146  -8.7706  -8.7485  -8.6850  -8.6490
    -8.6373  -8.6161  -8.5859  -8.5617  -8.5561  -8.5458  -8.5319  -8.5053
    -8.4965  -8.4779  -8.4664  -8.4421  -8.4087  -8.3672  -8.3306  -8.3216
    -8.3127  -8.2723  -8.2475  -8.1991   2.1432   2.1512   2.1963   2.2057
     2.2602   2.2942   2.3200   2.3422   2.3879   2.4066   2.4471   2.4581
     2.4721   2.5145   2.5690   2.5752   2.6072   2.6314   2.6563   2.6720
     2.6969   2.7104   2.7302   2.7318   2.7638   2.7839   2.8096   2.8364
     2.8467   2.8627   2.8729   2.8833   2.8951   2.8977   2.9120   2.9265
     2.9342   2.9413   2.9558   2.9696   2.9905   2.9966   3.0165   3.0292
     3.0388   3.0562   3.0609   3.0718   3.0806   3.0944   3.1036   3.1268
     3.1308   3.1450   3.1595   3.1672   3.1823   3.1945   3.2210   3.2247
     3.2458   3.2548   3.2700   3.2757   3.3064   3.3292   3.3353   3.3496
     3.3573   3.3854   3.4065   3.4251   3.4355   3.4433   3.4531   3.4713
     3.4876   3.5003   3.5223   3.5367   3.5497   3.5560   3.5751   3.5897
     3.6128   3.6185   3.6426   3.6540   3.6789   3.7070   3.7128   3.7226
     3.7525   3.7727   3.7972   3.8044   3.8161   3.8335   3.8519   3.8608
     3.8746   3.8894   3.8983   3.9114   3.9349   3.9436   3.9589   3.9813
     4.0070   4.0428   4.0555   4.0957   4.1392   4.1829   4.2863   4.3556
     4.3898   4.4178   4.4583   4.4703   4.5140   4.5463   4.5885   4.6201
     4.6343   4.6708   4.7202   4.7644   4.7853   4.8140   4.8354   4.8751
     4.9046   4.9331   4.9851   5.0060   5.0408   5.0897   5.1124   5.1721
     5.1964   5.2228   5.2933   5.3095   5.3573   5.3876   5.4136   5.4591
     5.5440   5.5650   5.6250   5.6614   5.6934   5.7163   5.7376   5.7720
     5.8136   5.8512   5.9367   5.9791   6.0149   6.0322   6.0804   6.1054
     6.1227   6.1544   6.2020   6.2239   6.2643   6.2965   6.3419   6.3697
     6.4003   6.4362   6.4789   6.5125   6.5876   6.6604   6.7264   6.7578
     6.7888   6.8174   6.8595   6.8975   6.9289   6.9373   6.9911   7.0066
     7.0266   7.0363   7.0608   7.0695   7.1106   7.1235   7.1518   7.1689
     7.1864   7.2202   7.2353   7.2654   7.2783   7.3211   7.3382   7.3656
     7.5189   7.5357   7.5725   7.5919   7.6757   7.7021   7.7156   7.7532
     7.8171   7.9140   8.0184   8.0394   8.0486   8.1182  10.1936  12.0664
    12.7910  12.8270  12.8993  13.0121  13.0793  13.2810  13.4114  13.4483
    13.4960  13.5983  13.6662  13.8057  13.8669  14.0967  14.7057  14.7609
    14.7688  14.8017  14.8467  14.9559  15.2004  15.2727  15.5125  15.5276
    15.5559  15.6605  15.7931  15.8453  15.8583  15.9358  15.9808  16.0382
    16.3224  16.3340  16.3776  16.4182  16.4578  16.4811  16.5309  16.6271
    16.9357  16.9583  16.9876  17.0446  17.0578  17.0946  17.1863  17.2080
    17.2343  17.2496  17.3054  17.3641  17.4641  17.5271  17.5886  17.7047
    17.8436  18.0253  18.3834  18.4363  18.5036  18.5704  18.6651  18.8308
    18.8765  19.0227  19.1920  19.2746  19.4767  19.4931  19.5384  19.5583
    19.5981  19.7452  19.7676  19.8046  19.8814  19.8869

     occupation numbers 
     1.0000   1.0000   1.0000   1.0000   1.0000   1.0000   1.0000   1.0000
     1.0000   1.0000   1.0000   1.0000   1.0000   1.0000   1.0000   1.0000
     1.0000   1.0000   1.0000   1.0000   1.0000   1.0000   1.0000   1.0000
     1.0000   1.0000   1.0000   1.0000   1.0000   1.0000   1.0000   1.0000
     1.0000   1.0000   1.0000   1.0000   1.0000   1.0000   1.0000   1.0000
     1.0000   1.0000   1.0000   1.0000   1.0000   1.0000   1.0000   1.0000
     1.0000   1.0000   1.0000   1.0000   1.0000   1.0000   1.0000   1.0000
     1.0000   1.0000   1.0000   1.0000   1.0000   1.0000   1.0000   1.0000
     1.0000   1.0000   1.0000   1.0000   1.0000   1.0000   1.0000   1.0000
     1.0000   1.0000   1.0000   1.0000   1.0000   1.0000   1.0000   1.0000
     1.0000   1.0000   1.0000   1.0000   1.0000   1.0000   1.0000   1.0000
     1.0000   1.0000   1.0000   1.0000   1.0000   1.0000   1.0000   1.0000
     1.0000   1.0000   1.0000   1.0000   1.0000   1.0000   1.0000   1.0000
     1.0000   1.0000   1.0000   1.0000   1.0000   1.0000   1.0000   1.0000
     1.0000   1.0000   1.0000   1.0000   1.0000   1.0000   1.0000   1.0000
     1.0000   1.0000   1.0000   1.0000   1.0000   1.0000   1.0000   1.0000
     1.0000   1.0000   1.0000   1.0000   1.0000   1.0000   1.0000   1.0000
     1.0000   1.0000   1.0000   1.0000   1.0000   1.0000   1.0000   1.0000
     1.0000   1.0000   1.0000   1.0000   1.0000   1.0000   1.0000   1.0000
     1.0000   1.0000   1.0000   1.0000   1.0000   1.0000   1.0000   1.0000
     1.0000   1.0000   1.0000   1.0000   1.0000   1.0000   1.0000   1.0000
     1.0000   1.0000   1.0000   1.0000   1.0000   1.0000   1.0000   1.0000
     1.0000   1.0000   1.0000   1.0000   1.0000   1.0000   1.0000   1.0000
     1.0000   1.0000   1.0000   1.0000   1.0000   1.0000   1.0000   1.0000
     1.0000   1.0000   1.0000   1.0000   1.0000   1.0000   1.0000   1.0000
     1.0000   1.0000   1.0000   1.0000   1.0000   1.0000   1.0000   1.0000
     1.0000   1.0000   1.0000   1.0000   1.0000   1.0000   1.0000   1.0000
     1.0000   1.0000   1.0000   1.0000   1.0000   1.0000   1.0000   1.0000
     1.0000   1.0000   1.0000   1.0000   1.0000   1.0000   1.0000   1.0000
     1.0000   1.0000   1.0000   1.0000   1.0000   1.0000   1.0000   1.0000
     1.0000   1.0000   1.0000   1.0000   1.0000   1.0000   1.0000   1.0000
     1.0000   1.0000   1.0000   1.0000   1.0000   1.0000   1.0000   1.0000
     1.0000   1.0000   1.0000   1.0000   1.0000   1.0000   1.0000   1.0000
     1.0000   1.0000   1.0000   1.0000   1.0000   1.0000   1.0000   1.0000
     1.0000   1.0000   1.0000   1.0000   1.0000   1.0000   1.0000   1.0000
     1.0000   1.0000   1.0000   1.0000   1.0000   1.0000   1.0000   1.0000
     1.0000   1.0000   1.0000   1.0000   1.0000   1.0000   1.0000   1.0000
     1.0000   1.0000   1.0000   1.0000   1.0000   1.0000   1.0000   1.0000
     1.0000   1.0000   1.0000   1.0000   1.0000   1.0000   1.0000   1.0000
     1.0000   1.0000   1.0000   1.0000   1.0000   1.0000   1.0000   1.0000
     1.0000   1.0000   1.0000   1.0000   1.0000   1.0000   1.0000   1.0000
     1.0000   1.0000   1.0000   1.0000   1.0000   1.0000   1.0000   1.0000
     1.0000   1.0000   1.0000   1.0000   1.0000   1.0000   1.0000   1.0000
     1.0000   1.0000   1.0000   1.0000   1.0000   1.0000   1.0000   1.0000
     1.0000   1.0000   1.0000   1.0000   1.0000   1.0000   1.0000   1.0000
     1.0000   1.0000   1.0000   1.0000   1.0000   1.0000   1.0000   1.0000
     1.0000   1.0000   1.0000   1.0000   1.0000   1.0000   1.0000   1.0000
     1.0000   1.0000   1.0000   1.0000   1.0000   1.0000   1.0000   1.0000
     1.0000   1.0000   1.0000   1.0000   1.0000   1.0000   1.0000   1.0000
     1.0000   1.0000   1.0000   1.0000   1.0000   1.0000   0.0000   0.0000
     0.0000   0.0000   0.0000   0.0000   0.0000   0.0000   0.0000   0.0000
     0.0000   0.0000   0.0000   0.0000   0.0000   0.0000   0.0000   0.0000
     0.0000   0.0000   0.0000   0.0000   0.0000   0.0000   0.0000   0.0000
     0.0000   0.0000   0.0000   0.0000   0.0000   0.0000   0.0000   0.0000
     0.0000   0.0000   0.0000   0.0000   0.0000   0.0000   0.0000   0.0000
     0.0000   0.0000   0.0000   0.0000   0.0000   0.0000   0.0000   0.0000
     0.0000   0.0000   0.0000   0.0000   0.0000   0.0000   0.0000   0.0000
     0.0000   0.0000   0.0000   0.0000   0.0000   0.0000   0.0000   0.0000
     0.0000   0.0000   0.0000   0.0000   0.0000   0.0000   0.0000   0.0000
     0.0000   0.0000   0.0000   0.0000   0.0000   0.0000

          k =-0.0002 0.0001-0.5977 ( 42604 PWs)   bands (ev):

  -114.8351-114.8341-114.8319-114.8245-114.8158-114.8150-114.8141-114.8131
  -114.8127-114.8126-114.8102-114.8095-114.8088-114.8064-114.8056-114.8049
  -114.7998-114.7983-114.7937-114.7917-114.7836-114.7714 -69.1986 -69.1974
   -69.1948 -69.1937 -69.1927 -69.1919 -69.1910 -69.1905 -69.1880 -69.1873
   -69.1851 -69.1798 -69.1794 -69.1783 -69.1779 -69.1773 -69.1760 -69.1754
   -69.1752 -69.1744 -69.1742 -69.1739 -69.1734 -69.1732 -69.1730 -69.1720
   -69.1718 -69.1716 -69.1714 -69.1703 -69.1696 -69.1695 -69.1689 -69.1688
   -69.1684 -69.1680 -69.1678 -69.1671 -69.1663 -69.1662 -69.1656 -69.1653
   -69.1651 -69.1649 -69.1639 -69.1636 -69.1624 -69.1622 -69.1614 -69.1613
   -69.1589 -69.1575 -69.1574 -69.1564 -69.1555 -69.1526 -69.1518 -69.1514
   -69.1499 -69.1498 -69.1462 -69.1433 -69.1407 -69.1338 -69.1308 -69.1284
   -64.4304 -64.4195 -64.4167 -64.4129 -64.4126 -64.4075 -64.4061 -64.4046
   -64.3961 -64.3897 -64.3891 -64.3849 -64.3785 -64.3683 -31.4218 -31.4194
   -31.4149 -31.4142 -31.4128 -31.4105 -31.4078 -31.4054 -31.4017 -31.4000
   -31.3995 -31.3976 -31.3945 -31.3933 -31.3925 -31.3924 -31.3919 -31.3910
   -31.3901 -31.3884 -31.3874 -31.3865 -31.3841 -31.3825 -31.3803 -31.3784
   -31.3760 -31.3717 -31.3708 -31.3700 -31.3694 -31.3687 -31.3682 -31.3662
   -31.3656 -31.3635 -31.3607 -31.3596 -31.3559 -31.3518 -31.3461 -31.3434
    -9.4449  -9.4037  -9.0901  -9.0662  -9.0399  -9.0202  -9.0048  -8.9936
    -8.9691  -8.9518  -8.9220  -8.8887  -8.8565  -8.8537  -8.6421  -8.6252
    -8.5949  -8.5843  -8.5684  -8.5547  -8.5332  -8.5133  -8.5024  -8.4818
    -8.4575  -8.4355  -8.4299  -8.3985  -8.3833  -8.3684  -8.3643  -8.3547
    -8.3170  -8.3055  -8.2692  -8.2341   2.2571   2.2929   2.3019   2.3231
     2.3606   2.3658   2.3991   2.4193   2.4344   2.4410   2.4721   2.4807
     2.5403   2.5550   2.5830   2.6110   2.6566   2.6629   2.6793   2.6817
     2.7025   2.7242   2.7458   2.7515   2.7694   2.7796   2.7915   2.8033
     2.8188   2.8258   2.8317   2.8565   2.8666   2.8769   2.8926   2.9180
     2.9251   2.9398   2.9409   2.9484   2.9604   2.9770   2.9840   2.9950
     2.9995   3.0175   3.0249   3.0351   3.0440   3.0510   3.0654   3.0732
     3.0778   3.0950   3.1004   3.1230   3.1395   3.1502   3.1544   3.1667
     3.1815   3.2011   3.2108   3.2386   3.2427   3.2635   3.2706   3.3054
     3.3225   3.3532   3.3545   3.3912   3.4145   3.4282   3.4470   3.4572
     3.4653   3.4758   3.5221   3.5488   3.5558   3.5681   3.5765   3.5962
     3.6012   3.6115   3.6343   3.6606   3.6737   3.7034   3.7075   3.7196
     3.7655   3.7740   3.7977   3.8110   3.8267   3.8365   3.8517   3.8716
     3.8828   3.8868   3.9097   3.9223   3.9296   3.9477   3.9571   3.9695
     4.0040   4.0514   4.0972   4.1453   4.2083   4.2458   4.2946   4.3771
     4.3983   4.4168   4.4353   4.4411   4.4978   4.5173   4.5725   4.5842
     4.6143   4.6300   4.6559   4.6893   4.7094   4.7502   4.7635   4.8232
     4.8514   4.8780   4.9199   4.9299   4.9686   5.0158   5.0957   5.1267
     5.1388   5.1663   5.2574   5.2893   5.4015   5.4487   5.5084   5.5506
     5.7067   5.7488   5.7998   5.8309   5.8638   5.8762   5.8908   5.8971
     5.9111   5.9381   5.9500   5.9981   6.0133   6.0333   6.0559   6.0999
     6.1111   6.1168   6.1509   6.1939   6.2057   6.2469   6.3330   6.3580
     6.4316   6.4717   6.4852   6.5453   6.6876   6.6987   6.7617   6.7886
     6.8457   6.8546   6.8830   6.9083   6.9731   6.9831   7.0019   7.0154
     7.0433   7.0593   7.0818   7.0949   7.1164   7.1251   7.1696   7.1836
     7.1972   7.2174   7.2687   7.3178   7.3742   7.4007   7.4145   7.4367
     7.5328   7.5679   7.5860   7.6301   7.6503   7.6736   7.7180   7.7440
     7.7617   7.7714   7.7996   7.8178   7.8314   7.8554  11.0524  11.1188
    12.9355  12.9716  12.9997  13.0340  13.0576  13.0823  13.1552  13.2217
    13.3192  13.4100  13.4826  13.5660  14.0754  14.0944  15.1418  15.1638
    15.1795  15.2179  15.2915  15.3009  15.3873  15.4102  15.5074  15.6048
    15.6217  15.6467  15.6605  15.6879  15.7037  15.7423  16.0977  16.1046
    16.1580  16.3186  16.4043  16.4502  16.4688  16.5463  16.6495  16.6640
    16.7294  16.7491  16.8034  16.8257  16.8432  16.8698  16.8808  16.9052
    16.9122  16.9609  16.9801  17.0700  17.2423  17.5271  17.7156  17.7524
    17.8343  18.0506  18.1257  18.2235  18.5065  18.5973  18.7948  18.8941
    19.0320  19.0737  19.1568  19.2230  19.3426  19.4205  19.4478  19.4776
    19.5039  19.5426  19.5473  19.6419  20.0725  20.0951

     occupation numbers 
     1.0000   1.0000   1.0000   1.0000   1.0000   1.0000   1.0000   1.0000
     1.0000   1.0000   1.0000   1.0000   1.0000   1.0000   1.0000   1.0000
     1.0000   1.0000   1.0000   1.0000   1.0000   1.0000   1.0000   1.0000
     1.0000   1.0000   1.0000   1.0000   1.0000   1.0000   1.0000   1.0000
     1.0000   1.0000   1.0000   1.0000   1.0000   1.0000   1.0000   1.0000
     1.0000   1.0000   1.0000   1.0000   1.0000   1.0000   1.0000   1.0000
     1.0000   1.0000   1.0000   1.0000   1.0000   1.0000   1.0000   1.0000
     1.0000   1.0000   1.0000   1.0000   1.0000   1.0000   1.0000   1.0000
     1.0000   1.0000   1.0000   1.0000   1.0000   1.0000   1.0000   1.0000
     1.0000   1.0000   1.0000   1.0000   1.0000   1.0000   1.0000   1.0000
     1.0000   1.0000   1.0000   1.0000   1.0000   1.0000   1.0000   1.0000
     1.0000   1.0000   1.0000   1.0000   1.0000   1.0000   1.0000   1.0000
     1.0000   1.0000   1.0000   1.0000   1.0000   1.0000   1.0000   1.0000
     1.0000   1.0000   1.0000   1.0000   1.0000   1.0000   1.0000   1.0000
     1.0000   1.0000   1.0000   1.0000   1.0000   1.0000   1.0000   1.0000
     1.0000   1.0000   1.0000   1.0000   1.0000   1.0000   1.0000   1.0000
     1.0000   1.0000   1.0000   1.0000   1.0000   1.0000   1.0000   1.0000
     1.0000   1.0000   1.0000   1.0000   1.0000   1.0000   1.0000   1.0000
     1.0000   1.0000   1.0000   1.0000   1.0000   1.0000   1.0000   1.0000
     1.0000   1.0000   1.0000   1.0000   1.0000   1.0000   1.0000   1.0000
     1.0000   1.0000   1.0000   1.0000   1.0000   1.0000   1.0000   1.0000
     1.0000   1.0000   1.0000   1.0000   1.0000   1.0000   1.0000   1.0000
     1.0000   1.0000   1.0000   1.0000   1.0000   1.0000   1.0000   1.0000
     1.0000   1.0000   1.0000   1.0000   1.0000   1.0000   1.0000   1.0000
     1.0000   1.0000   1.0000   1.0000   1.0000   1.0000   1.0000   1.0000
     1.0000   1.0000   1.0000   1.0000   1.0000   1.0000   1.0000   1.0000
     1.0000   1.0000   1.0000   1.0000   1.0000   1.0000   1.0000   1.0000
     1.0000   1.0000   1.0000   1.0000   1.0000   1.0000   1.0000   1.0000
     1.0000   1.0000   1.0000   1.0000   1.0000   1.0000   1.0000   1.0000
     1.0000   1.0000   1.0000   1.0000   1.0000   1.0000   1.0000   1.0000
     1.0000   1.0000   1.0000   1.0000   1.0000   1.0000   1.0000   1.0000
     1.0000   1.0000   1.0000   1.0000   1.0000   1.0000   1.0000   1.0000
     1.0000   1.0000   1.0000   1.0000   1.0000   1.0000   1.0000   1.0000
     1.0000   1.0000   1.0000   1.0000   1.0000   1.0000   1.0000   1.0000
     1.0000   1.0000   1.0000   1.0000   1.0000   1.0000   1.0000   1.0000
     1.0000   1.0000   1.0000   1.0000   1.0000   1.0000   1.0000   1.0000
     1.0000   1.0000   1.0000   1.0000   1.0000   1.0000   1.0000   1.0000
     1.0000   1.0000   1.0000   1.0000   1.0000   1.0000   1.0000   1.0000
     1.0000   1.0000   1.0000   1.0000   1.0000   1.0000   1.0000   1.0000
     1.0000   1.0000   1.0000   1.0000   1.0000   1.0000   1.0000   1.0000
     1.0000   1.0000   1.0000   1.0000   1.0000   1.0000   1.0000   1.0000
     1.0000   1.0000   1.0000   1.0000   1.0000   1.0000   1.0000   1.0000
     1.0000   1.0000   1.0000   1.0000   1.0000   1.0000   1.0000   1.0000
     1.0000   1.0000   1.0000   1.0000   1.0000   1.0000   1.0000   1.0000
     1.0000   1.0000   1.0000   1.0000   1.0000   1.0000   1.0000   1.0000
     1.0000   1.0000   1.0000   1.0000   1.0000   1.0000   1.0000   1.0000
     1.0000   1.0000   1.0000   1.0000   1.0000   1.0000   1.0000   1.0000
     1.0000   1.0000   1.0000   1.0000   1.0000   1.0000   1.0000   1.0000
     1.0000   1.0000   1.0000   1.0000   1.0000   1.0000   1.0000   1.0000
     1.0000   1.0000   1.0000   1.0000   1.0000   1.0000   0.0000   0.0000
     0.0000   0.0000   0.0000   0.0000   0.0000   0.0000   0.0000   0.0000
     0.0000   0.0000   0.0000   0.0000   0.0000   0.0000   0.0000   0.0000
     0.0000   0.0000   0.0000   0.0000   0.0000   0.0000   0.0000   0.0000
     0.0000   0.0000   0.0000   0.0000   0.0000   0.0000   0.0000   0.0000
     0.0000   0.0000   0.0000   0.0000   0.0000   0.0000   0.0000   0.0000
     0.0000   0.0000   0.0000   0.0000   0.0000   0.0000   0.0000   0.0000
     0.0000   0.0000   0.0000   0.0000   0.0000   0.0000   0.0000   0.0000
     0.0000   0.0000   0.0000   0.0000   0.0000   0.0000   0.0000   0.0000
     0.0000   0.0000   0.0000   0.0000   0.0000   0.0000   0.0000   0.0000
     0.0000   0.0000   0.0000   0.0000   0.0000   0.0000

          k =-0.0001 0.2885-0.0001 ( 42791 PWs)   bands (ev):

  -114.8351-114.8341-114.8319-114.8245-114.8158-114.8150-114.8141-114.8131
  -114.8127-114.8126-114.8102-114.8095-114.8088-114.8064-114.8056-114.8049
  -114.7998-114.7983-114.7937-114.7917-114.7836-114.7714 -69.1986 -69.1974
   -69.1948 -69.1937 -69.1927 -69.1919 -69.1910 -69.1905 -69.1880 -69.1873
   -69.1851 -69.1798 -69.1794 -69.1783 -69.1779 -69.1773 -69.1760 -69.1754
   -69.1752 -69.1744 -69.1742 -69.1739 -69.1734 -69.1731 -69.1730 -69.1720
   -69.1718 -69.1716 -69.1714 -69.1703 -69.1697 -69.1695 -69.1689 -69.1688
   -69.1684 -69.1680 -69.1678 -69.1671 -69.1663 -69.1662 -69.1656 -69.1652
   -69.1651 -69.1650 -69.1639 -69.1636 -69.1624 -69.1622 -69.1614 -69.1613
   -69.1589 -69.1574 -69.1574 -69.1565 -69.1555 -69.1526 -69.1518 -69.1514
   -69.1499 -69.1498 -69.1462 -69.1433 -69.1407 -69.1338 -69.1308 -69.1284
   -64.4304 -64.4195 -64.4167 -64.4129 -64.4126 -64.4075 -64.4061 -64.4046
   -64.3961 -64.3897 -64.3891 -64.3849 -64.3785 -64.3683 -31.4221 -31.4201
   -31.4150 -31.4142 -31.4120 -31.4098 -31.4081 -31.4054 -31.4010 -31.4002
   -31.3996 -31.3972 -31.3945 -31.3934 -31.3924 -31.3922 -31.3911 -31.3909
   -31.3908 -31.3893 -31.3883 -31.3868 -31.3840 -31.3823 -31.3799 -31.3784
   -31.3761 -31.3718 -31.3708 -31.3699 -31.3694 -31.3687 -31.3679 -31.3664
   -31.3656 -31.3635 -31.3607 -31.3596 -31.3559 -31.3518 -31.3461 -31.3434
    -9.5811  -9.3241  -9.2442  -9.1436  -9.0596  -9.0059  -8.9300  -8.8969
    -8.8838  -8.8209  -8.7837  -8.7669  -8.7389  -8.7350  -8.6981  -8.6742
    -8.6555  -8.6370  -8.6280  -8.6019  -8.5976  -8.5751  -8.5561  -8.5383
    -8.5192  -8.4942  -8.4808  -8.4605  -8.4285  -8.3628  -8.3471  -8.3030
    -8.2917  -8.2615  -8.2250  -8.1708   2.0515   2.0836   2.1212   2.1301
     2.1856   2.2009   2.2562   2.2852   2.3411   2.3481   2.4050   2.4203
     2.4448   2.5229   2.5476   2.5805   2.6140   2.6273   2.6507   2.6652
     2.6823   2.7059   2.7246   2.7349   2.7511   2.7781   2.8015   2.8285
     2.8399   2.8469   2.8561   2.8622   2.8853   2.8966   2.9004   2.9126
     2.9224   2.9348   2.9445   2.9561   2.9640   2.9852   3.0050   3.0180
     3.0482   3.0763   3.1143   3.1346   3.1484   3.1593   3.1816   3.1899
     3.1994   3.2050   3.2212   3.2401   3.2494   3.2576   3.2688   3.2770
     3.2888   3.3101   3.3190   3.3305   3.3330   3.3522   3.3637   3.3752
     3.3899   3.4035   3.4089   3.4241   3.4441   3.4535   3.4654   3.4815
     3.5020   3.5119   3.5180   3.5483   3.5572   3.5626   3.5872   3.6027
     3.6083   3.6305   3.6425   3.6584   3.6787   3.6905   3.7117   3.7278
     3.7415   3.7793   3.7883   3.8053   3.8242   3.8325   3.8379   3.8537
     3.8668   3.8938   3.9093   3.9259   3.9415   3.9578   3.9738   4.0103
     4.0331   4.0472   4.0602   4.1273   4.1509   4.2227   4.3382   4.3543
     4.4208   4.4340   4.4448   4.4839   4.5216   4.5391   4.5568   4.6157
     4.6503   4.6750   4.7401   4.8104   4.8238   4.8766   4.9299   4.9884
     5.0231   5.0403   5.0790   5.1043   5.1478   5.1834   5.2048   5.2339
     5.2601   5.2838   5.3052   5.3482   5.3594   5.3647   5.3772   5.4062
     5.4460   5.4668   5.4783   5.5352   5.5582   5.6120   5.6484   5.6623
     5.6778   5.7492   5.8093   5.8454   5.9640   6.0744   6.0909   6.1333
     6.1615   6.1920   6.2277   6.2402   6.2694   6.3019   6.3076   6.3378
     6.3779   6.3853   6.4072   6.4393   6.5007   6.5929   6.6055   6.6203
     6.6709   6.7003   6.7727   6.7901   6.8071   6.8372   6.8892   6.9153
     6.9547   6.9959   7.0131   7.0409   7.0502   7.0763   7.1080   7.1437
     7.2412   7.2687   7.3179   7.3365   7.3536   7.4135   7.4399   7.4553
     7.4749   7.4901   7.5224   7.5516   7.6330   7.6783   7.7379   7.9102
     7.9880   8.0021   8.0160   8.0397   8.2105   8.2946  10.1726  11.9563
    12.4461  12.6984  13.0527  13.2202  13.4071  13.6248  13.7530  13.7747
    13.8797  13.9641  14.0019  14.0531  14.1160  14.2544  14.3384  14.3596
    14.3793  14.4313  14.5252  14.5744  14.9933  15.0625  15.1542  15.2917
    15.3872  15.5272  15.5650  15.5923  15.6778  15.7155  15.7781  15.9139
    16.0470  16.2004  16.2749  16.3310  16.5196  16.5910  16.8077  17.0957
    17.1916  17.2937  17.3125  17.3227  17.3526  17.3601  17.4360  17.4840
    17.5528  17.6018  17.6919  17.7280  17.7578  17.9137  17.9467  18.0482
    18.1791  18.2598  18.3036  18.3263  18.4173  18.6223  18.6705  18.7561
    18.8827  18.9703  19.0568  19.1203  19.1741  19.2185  19.3772  19.4948
    19.5560  19.6226  19.6517  19.6851  19.7161  19.7931

     occupation numbers 
     1.0000   1.0000   1.0000   1.0000   1.0000   1.0000   1.0000   1.0000
     1.0000   1.0000   1.0000   1.0000   1.0000   1.0000   1.0000   1.0000
     1.0000   1.0000   1.0000   1.0000   1.0000   1.0000   1.0000   1.0000
     1.0000   1.0000   1.0000   1.0000   1.0000   1.0000   1.0000   1.0000
     1.0000   1.0000   1.0000   1.0000   1.0000   1.0000   1.0000   1.0000
     1.0000   1.0000   1.0000   1.0000   1.0000   1.0000   1.0000   1.0000
     1.0000   1.0000   1.0000   1.0000   1.0000   1.0000   1.0000   1.0000
     1.0000   1.0000   1.0000   1.0000   1.0000   1.0000   1.0000   1.0000
     1.0000   1.0000   1.0000   1.0000   1.0000   1.0000   1.0000   1.0000
     1.0000   1.0000   1.0000   1.0000   1.0000   1.0000   1.0000   1.0000
     1.0000   1.0000   1.0000   1.0000   1.0000   1.0000   1.0000   1.0000
     1.0000   1.0000   1.0000   1.0000   1.0000   1.0000   1.0000   1.0000
     1.0000   1.0000   1.0000   1.0000   1.0000   1.0000   1.0000   1.0000
     1.0000   1.0000   1.0000   1.0000   1.0000   1.0000   1.0000   1.0000
     1.0000   1.0000   1.0000   1.0000   1.0000   1.0000   1.0000   1.0000
     1.0000   1.0000   1.0000   1.0000   1.0000   1.0000   1.0000   1.0000
     1.0000   1.0000   1.0000   1.0000   1.0000   1.0000   1.0000   1.0000
     1.0000   1.0000   1.0000   1.0000   1.0000   1.0000   1.0000   1.0000
     1.0000   1.0000   1.0000   1.0000   1.0000   1.0000   1.0000   1.0000
     1.0000   1.0000   1.0000   1.0000   1.0000   1.0000   1.0000   1.0000
     1.0000   1.0000   1.0000   1.0000   1.0000   1.0000   1.0000   1.0000
     1.0000   1.0000   1.0000   1.0000   1.0000   1.0000   1.0000   1.0000
     1.0000   1.0000   1.0000   1.0000   1.0000   1.0000   1.0000   1.0000
     1.0000   1.0000   1.0000   1.0000   1.0000   1.0000   1.0000   1.0000
     1.0000   1.0000   1.0000   1.0000   1.0000   1.0000   1.0000   1.0000
     1.0000   1.0000   1.0000   1.0000   1.0000   1.0000   1.0000   1.0000
     1.0000   1.0000   1.0000   1.0000   1.0000   1.0000   1.0000   1.0000
     1.0000   1.0000   1.0000   1.0000   1.0000   1.0000   1.0000   1.0000
     1.0000   1.0000   1.0000   1.0000   1.0000   1.0000   1.0000   1.0000
     1.0000   1.0000   1.0000   1.0000   1.0000   1.0000   1.0000   1.0000
     1.0000   1.0000   1.0000   1.0000   1.0000   1.0000   1.0000   1.0000
     1.0000   1.0000   1.0000   1.0000   1.0000   1.0000   1.0000   1.0000
     1.0000   1.0000   1.0000   1.0000   1.0000   1.0000   1.0000   1.0000
     1.0000   1.0000   1.0000   1.0000   1.0000   1.0000   1.0000   1.0000
     1.0000   1.0000   1.0000   1.0000   1.0000   1.0000   1.0000   1.0000
     1.0000   1.0000   1.0000   1.0000   1.0000   1.0000   1.0000   1.0000
     1.0000   1.0000   1.0000   1.0000   1.0000   1.0000   1.0000   1.0000
     1.0000   1.0000   1.0000   1.0000   1.0000   1.0000   1.0000   1.0000
     1.0000   1.0000   1.0000   1.0000   1.0000   1.0000   1.0000   1.0000
     1.0000   1.0000   1.0000   1.0000   1.0000   1.0000   1.0000   1.0000
     1.0000   1.0000   1.0000   1.0000   1.0000   1.0000   1.0000   1.0000
     1.0000   1.0000   1.0000   1.0000   1.0000   1.0000   1.0000   1.0000
     1.0000   1.0000   1.0000   1.0000   1.0000   1.0000   1.0000   1.0000
     1.0000   1.0000   1.0000   1.0000   1.0000   1.0000   1.0000   1.0000
     1.0000   1.0000   1.0000   1.0000   1.0000   1.0000   1.0000   1.0000
     1.0000   1.0000   1.0000   1.0000   1.0000   1.0000   1.0000   1.0000
     1.0000   1.0000   1.0000   1.0000   1.0000   1.0000   1.0000   1.0000
     1.0000   1.0000   1.0000   1.0000   1.0000   1.0000   1.0000   1.0000
     1.0000   1.0000   1.0000   1.0000   1.0000   1.0000   1.0000   1.0000
     1.0000   1.0000   1.0000   1.0000   1.0000   1.0000   0.0000   0.0000
     0.0000   0.0000   0.0000   0.0000   0.0000   0.0000   0.0000   0.0000
     0.0000   0.0000   0.0000   0.0000   0.0000   0.0000   0.0000   0.0000
     0.0000   0.0000   0.0000   0.0000   0.0000   0.0000   0.0000   0.0000
     0.0000   0.0000   0.0000   0.0000   0.0000   0.0000   0.0000   0.0000
     0.0000   0.0000   0.0000   0.0000   0.0000   0.0000   0.0000   0.0000
     0.0000   0.0000   0.0000   0.0000   0.0000   0.0000   0.0000   0.0000
     0.0000   0.0000   0.0000   0.0000   0.0000   0.0000   0.0000   0.0000
     0.0000   0.0000   0.0000   0.0000   0.0000   0.0000   0.0000   0.0000
     0.0000   0.0000   0.0000   0.0000   0.0000   0.0000   0.0000   0.0000
     0.0000   0.0000   0.0000   0.0000   0.0000   0.0000

          k =-0.0000 0.2885 0.2988 ( 42796 PWs)   bands (ev):

  -114.8351-114.8341-114.8319-114.8245-114.8158-114.8150-114.8141-114.8131
  -114.8127-114.8126-114.8102-114.8095-114.8088-114.8064-114.8056-114.8049
  -114.7998-114.7983-114.7937-114.7917-114.7836-114.7714 -69.1986 -69.1974
   -69.1948 -69.1937 -69.1927 -69.1919 -69.1910 -69.1905 -69.1880 -69.1873
   -69.1851 -69.1798 -69.1794 -69.1783 -69.1779 -69.1773 -69.1760 -69.1754
   -69.1752 -69.1744 -69.1742 -69.1739 -69.1734 -69.1732 -69.1730 -69.1720
   -69.1718 -69.1716 -69.1714 -69.1703 -69.1697 -69.1695 -69.1689 -69.1688
   -69.1684 -69.1680 -69.1678 -69.1671 -69.1663 -69.1662 -69.1656 -69.1653
   -69.1651 -69.1649 -69.1639 -69.1636 -69.1624 -69.1622 -69.1614 -69.1613
   -69.1589 -69.1575 -69.1574 -69.1565 -69.1555 -69.1526 -69.1518 -69.1514
   -69.1499 -69.1498 -69.1462 -69.1433 -69.1407 -69.1338 -69.1308 -69.1284
   -64.4304 -64.4195 -64.4167 -64.4129 -64.4126 -64.4075 -64.4061 -64.4046
   -64.3961 -64.3897 -64.3891 -64.3849 -64.3785 -64.3683 -31.4220 -31.4197
   -31.4150 -31.4142 -31.4124 -31.4101 -31.4079 -31.4054 -31.4013 -31.4001
   -31.3995 -31.3974 -31.3944 -31.3934 -31.3924 -31.3923 -31.3918 -31.3910
   -31.3904 -31.3884 -31.3882 -31.3866 -31.3840 -31.3824 -31.3801 -31.3784
   -31.3761 -31.3717 -31.3708 -31.3699 -31.3694 -31.3687 -31.3681 -31.3663
   -31.3656 -31.3635 -31.3607 -31.3596 -31.3559 -31.3518 -31.3461 -31.3434
    -9.5317  -9.2915  -9.2149  -9.1712  -9.0665  -9.0285  -8.9872  -8.9564
    -8.9133  -8.8824  -8.8360  -8.7815  -8.7558  -8.7329  -8.6937  -8.6719
    -8.6462  -8.6253  -8.5997  -8.5843  -8.5582  -8.5449  -8.5232  -8.5084
    -8.4791  -8.4702  -8.4566  -8.4276  -8.4089  -8.3687  -8.3544  -8.3180
    -8.3112  -8.2769  -8.2489  -8.1960   2.1236   2.1613   2.1890   2.2238
     2.2753   2.2981   2.3222   2.3376   2.3857   2.4033   2.4478   2.4811
     2.5035   2.5203   2.5657   2.5848   2.6196   2.6406   2.6660   2.6836
     2.6939   2.7097   2.7218   2.7394   2.7676   2.7849   2.7989   2.8219
     2.8332   2.8546   2.8655   2.8679   2.8825   2.8925   2.9030   2.9156
     2.9282   2.9317   2.9400   2.9568   2.9701   2.9943   3.0020   3.0263
     3.0293   3.0385   3.0585   3.0702   3.0813   3.0902   3.1027   3.1141
     3.1231   3.1291   3.1502   3.1668   3.1741   3.1979   3.2042   3.2166
     3.2257   3.2325   3.2588   3.2823   3.3077   3.3122   3.3343   3.3504
     3.3617   3.3901   3.3946   3.4136   3.4179   3.4469   3.4581   3.4665
     3.4886   3.5034   3.5168   3.5360   3.5540   3.5620   3.5820   3.5898
     3.6043   3.6239   3.6316   3.6503   3.6836   3.7132   3.7223   3.7276
     3.7412   3.7742   3.7945   3.8118   3.8219   3.8358   3.8496   3.8651
     3.8704   3.8947   3.9009   3.9312   3.9365   3.9485   3.9654   4.0035
     4.0185   4.0331   4.1011   4.1772   4.2267   4.2423   4.3126   4.3583
     4.3846   4.4125   4.4405   4.4763   4.4998   4.5489   4.5625   4.5960
     4.6279   4.6696   4.6894   4.7718   4.7882   4.8254   4.8513   4.9141
     4.9296   4.9596   4.9894   5.0290   5.0514   5.0989   5.1117   5.1454
     5.2039   5.2265   5.2561   5.3165   5.3653   5.3976   5.4489   5.4691
     5.5701   5.6157   5.6613   5.7052   5.7163   5.7469   5.7709   5.7882
     5.8409   5.8579   5.9096   5.9631   5.9997   6.0279   6.0382   6.0838
     6.1343   6.1629   6.2100   6.2239   6.2412   6.2508   6.2950   6.3726
     6.4624   6.4754   6.5166   6.5541   6.5875   6.6098   6.6813   6.7292
     6.7672   6.8006   6.8211   6.8558   6.8761   6.8936   6.9188   6.9382
     6.9625   6.9851   6.9982   7.0169   7.0628   7.0954   7.1296   7.1537
     7.1816   7.1951   7.2367   7.2786   7.3252   7.3624   7.3801   7.4133
     7.4881   7.5169   7.5522   7.5878   7.6633   7.7149   7.7436   7.7939
     7.8248   7.8887   7.9707   8.0497   8.0855   8.1528  10.4931  12.0384
    12.2120  12.5482  12.8841  13.0096  13.2609  13.3683  13.5061  13.6251
    13.7671  13.8883  14.0014  14.0380  14.1270  14.2310  14.5800  14.7048
    14.7803  14.8244  14.9184  14.9909  15.0579  15.1555  15.1940  15.2918
    15.3286  15.4469  15.4783  15.5910  15.7324  15.8129  15.9373  15.9995
    16.0982  16.2607  16.3381  16.3757  16.5540  16.6049  16.7568  16.8280
    16.8768  17.0088  17.0287  17.0834  17.1316  17.1608  17.2048  17.2741
    17.2979  17.3774  17.4713  17.5050  17.6428  17.7093  17.8355  17.8721
    18.0718  18.1362  18.1994  18.3618  18.4910  18.5989  18.7814  18.8506
    18.9244  18.9598  19.0888  19.1827  19.2911  19.3609  19.4387  19.4729
    19.6071  19.6294  19.6639  19.7141  19.7681  19.8137

     occupation numbers 
     1.0000   1.0000   1.0000   1.0000   1.0000   1.0000   1.0000   1.0000
     1.0000   1.0000   1.0000   1.0000   1.0000   1.0000   1.0000   1.0000
     1.0000   1.0000   1.0000   1.0000   1.0000   1.0000   1.0000   1.0000
     1.0000   1.0000   1.0000   1.0000   1.0000   1.0000   1.0000   1.0000
     1.0000   1.0000   1.0000   1.0000   1.0000   1.0000   1.0000   1.0000
     1.0000   1.0000   1.0000   1.0000   1.0000   1.0000   1.0000   1.0000
     1.0000   1.0000   1.0000   1.0000   1.0000   1.0000   1.0000   1.0000
     1.0000   1.0000   1.0000   1.0000   1.0000   1.0000   1.0000   1.0000
     1.0000   1.0000   1.0000   1.0000   1.0000   1.0000   1.0000   1.0000
     1.0000   1.0000   1.0000   1.0000   1.0000   1.0000   1.0000   1.0000
     1.0000   1.0000   1.0000   1.0000   1.0000   1.0000   1.0000   1.0000
     1.0000   1.0000   1.0000   1.0000   1.0000   1.0000   1.0000   1.0000
     1.0000   1.0000   1.0000   1.0000   1.0000   1.0000   1.0000   1.0000
     1.0000   1.0000   1.0000   1.0000   1.0000   1.0000   1.0000   1.0000
     1.0000   1.0000   1.0000   1.0000   1.0000   1.0000   1.0000   1.0000
     1.0000   1.0000   1.0000   1.0000   1.0000   1.0000   1.0000   1.0000
     1.0000   1.0000   1.0000   1.0000   1.0000   1.0000   1.0000   1.0000
     1.0000   1.0000   1.0000   1.0000   1.0000   1.0000   1.0000   1.0000
     1.0000   1.0000   1.0000   1.0000   1.0000   1.0000   1.0000   1.0000
     1.0000   1.0000   1.0000   1.0000   1.0000   1.0000   1.0000   1.0000
     1.0000   1.0000   1.0000   1.0000   1.0000   1.0000   1.0000   1.0000
     1.0000   1.0000   1.0000   1.0000   1.0000   1.0000   1.0000   1.0000
     1.0000   1.0000   1.0000   1.0000   1.0000   1.0000   1.0000   1.0000
     1.0000   1.0000   1.0000   1.0000   1.0000   1.0000   1.0000   1.0000
     1.0000   1.0000   1.0000   1.0000   1.0000   1.0000   1.0000   1.0000
     1.0000   1.0000   1.0000   1.0000   1.0000   1.0000   1.0000   1.0000
     1.0000   1.0000   1.0000   1.0000   1.0000   1.0000   1.0000   1.0000
     1.0000   1.0000   1.0000   1.0000   1.0000   1.0000   1.0000   1.0000
     1.0000   1.0000   1.0000   1.0000   1.0000   1.0000   1.0000   1.0000
     1.0000   1.0000   1.0000   1.0000   1.0000   1.0000   1.0000   1.0000
     1.0000   1.0000   1.0000   1.0000   1.0000   1.0000   1.0000   1.0000
     1.0000   1.0000   1.0000   1.0000   1.0000   1.0000   1.0000   1.0000
     1.0000   1.0000   1.0000   1.0000   1.0000   1.0000   1.0000   1.0000
     1.0000   1.0000   1.0000   1.0000   1.0000   1.0000   1.0000   1.0000
     1.0000   1.0000   1.0000   1.0000   1.0000   1.0000   1.0000   1.0000
     1.0000   1.0000   1.0000   1.0000   1.0000   1.0000   1.0000   1.0000
     1.0000   1.0000   1.0000   1.0000   1.0000   1.0000   1.0000   1.0000
     1.0000   1.0000   1.0000   1.0000   1.0000   1.0000   1.0000   1.0000
     1.0000   1.0000   1.0000   1.0000   1.0000   1.0000   1.0000   1.0000
     1.0000   1.0000   1.0000   1.0000   1.0000   1.0000   1.0000   1.0000
     1.0000   1.0000   1.0000   1.0000   1.0000   1.0000   1.0000   1.0000
     1.0000   1.0000   1.0000   1.0000   1.0000   1.0000   1.0000   1.0000
     1.0000   1.0000   1.0000   1.0000   1.0000   1.0000   1.0000   1.0000
     1.0000   1.0000   1.0000   1.0000   1.0000   1.0000   1.0000   1.0000
     1.0000   1.0000   1.0000   1.0000   1.0000   1.0000   1.0000   1.0000
     1.0000   1.0000   1.0000   1.0000   1.0000   1.0000   1.0000   1.0000
     1.0000   1.0000   1.0000   1.0000   1.0000   1.0000   1.0000   1.0000
     1.0000   1.0000   1.0000   1.0000   1.0000   1.0000   1.0000   1.0000
     1.0000   1.0000   1.0000   1.0000   1.0000   1.0000   1.0000   1.0000
     1.0000   1.0000   1.0000   1.0000   1.0000   1.0000   0.0000   0.0000
     0.0000   0.0000   0.0000   0.0000   0.0000   0.0000   0.0000   0.0000
     0.0000   0.0000   0.0000   0.0000   0.0000   0.0000   0.0000   0.0000
     0.0000   0.0000   0.0000   0.0000   0.0000   0.0000   0.0000   0.0000
     0.0000   0.0000   0.0000   0.0000   0.0000   0.0000   0.0000   0.0000
     0.0000   0.0000   0.0000   0.0000   0.0000   0.0000   0.0000   0.0000
     0.0000   0.0000   0.0000   0.0000   0.0000   0.0000   0.0000   0.0000
     0.0000   0.0000   0.0000   0.0000   0.0000   0.0000   0.0000   0.0000
     0.0000   0.0000   0.0000   0.0000   0.0000   0.0000   0.0000   0.0000
     0.0000   0.0000   0.0000   0.0000   0.0000   0.0000   0.0000   0.0000
     0.0000   0.0000   0.0000   0.0000   0.0000   0.0000

          k =-0.0002 0.2886-0.5978 ( 42791 PWs)   bands (ev):

  -114.8351-114.8341-114.8319-114.8245-114.8158-114.8150-114.8141-114.8131
  -114.8127-114.8126-114.8102-114.8095-114.8088-114.8064-114.8056-114.8049
  -114.7998-114.7983-114.7937-114.7917-114.7836-114.7714 -69.1986 -69.1974
   -69.1948 -69.1937 -69.1927 -69.1919 -69.1910 -69.1905 -69.1880 -69.1873
   -69.1851 -69.1798 -69.1794 -69.1783 -69.1779 -69.1773 -69.1760 -69.1754
   -69.1752 -69.1744 -69.1742 -69.1739 -69.1734 -69.1732 -69.1730 -69.1720
   -69.1718 -69.1716 -69.1714 -69.1703 -69.1697 -69.1695 -69.1689 -69.1688
   -69.1684 -69.1680 -69.1678 -69.1671 -69.1663 -69.1662 -69.1656 -69.1653
   -69.1651 -69.1649 -69.1639 -69.1636 -69.1624 -69.1622 -69.1614 -69.1613
   -69.1589 -69.1575 -69.1574 -69.1564 -69.1555 -69.1526 -69.1518 -69.1514
   -69.1499 -69.1498 -69.1462 -69.1433 -69.1407 -69.1338 -69.1308 -69.1284
   -64.4304 -64.4195 -64.4167 -64.4129 -64.4126 -64.4075 -64.4061 -64.4046
   -64.3961 -64.3897 -64.3891 -64.3849 -64.3785 -64.3683 -31.4218 -31.4194
   -31.4149 -31.4142 -31.4128 -31.4105 -31.4078 -31.4054 -31.4017 -31.3999
   -31.3995 -31.3976 -31.3945 -31.3933 -31.3925 -31.3924 -31.3920 -31.3910
   -31.3901 -31.3884 -31.3874 -31.3865 -31.3841 -31.3825 -31.3802 -31.3784
   -31.3760 -31.3717 -31.3708 -31.3700 -31.3694 -31.3687 -31.3682 -31.3662
   -31.3656 -31.3635 -31.3607 -31.3596 -31.3559 -31.3518 -31.3461 -31.3434
    -9.4126  -9.3728  -9.1834  -9.1446  -9.0950  -9.0684  -9.0005  -8.9715
    -8.9317  -8.8987  -8.8760  -8.8442  -8.8104  -8.7727  -8.7072  -8.6706
    -8.6364  -8.6165  -8.5553  -8.5424  -8.5113  -8.5019  -8.4911  -8.4786
    -8.4457  -8.4399  -8.4269  -8.4016  -8.3860  -8.3777  -8.3661  -8.3519
    -8.3185  -8.3042  -8.2762  -8.2346   2.2499   2.2880   2.3174   2.3449
     2.3630   2.3862   2.4127   2.4315   2.4518   2.4615   2.4828   2.4967
     2.5210   2.5553   2.5795   2.6060   2.6235   2.6607   2.6675   2.6857
     2.6937   2.7137   2.7362   2.7619   2.7685   2.7810   2.7955   2.8091
     2.8182   2.8199   2.8336   2.8476   2.8576   2.8778   2.8893   2.8978
     2.9050   2.9210   2.9310   2.9501   2.9637   2.9701   2.9865   2.9912
     2.9975   3.0026   3.0082   3.0222   3.0329   3.0417   3.0506   3.0624
     3.0706   3.0833   3.0993   3.1112   3.1342   3.1405   3.1478   3.1707
     3.1873   3.1990   3.2111   3.2236   3.2358   3.2465   3.2654   3.2954
     3.3182   3.3380   3.3601   3.3754   3.3963   3.4223   3.4338   3.4614
     3.4798   3.4958   3.5279   3.5414   3.5581   3.5705   3.5820   3.5928
     3.6086   3.6234   3.6380   3.6621   3.6780   3.7022   3.7165   3.7425
     3.7526   3.7753   3.7869   3.7987   3.8260   3.8371   3.8531   3.8623
     3.8828   3.8952   3.9005   3.9171   3.9322   3.9474   3.9645   4.0018
     4.0136   4.0440   4.1208   4.1797   4.2742   4.3081   4.3250   4.3750
     4.4024   4.4269   4.4473   4.4981   4.5308   4.5375   4.5597   4.5917
     4.6181   4.6385   4.6689   4.6977   4.7113   4.7589   4.7730   4.8234
     4.8389   4.8987   4.9557   4.9762   4.9919   5.0240   5.0506   5.1067
     5.1559   5.1631   5.2204   5.2539   5.4361   5.4719   5.5175   5.5854
     5.6411   5.6919   5.7294   5.7653   5.7688   5.7935   5.8069   5.8558
     5.9249   5.9910   6.0159   6.0210   6.0377   6.0640   6.1012   6.1458
     6.2000   6.2202   6.2377   6.2690   6.3013   6.3374   6.3786   6.4125
     6.4367   6.4669   6.5110   6.5886   6.6624   6.6911   6.7110   6.7327
     6.7490   6.7788   6.8073   6.8344   6.8670   6.8978   6.9213   6.9343
     6.9608   6.9768   7.0024   7.0125   7.0856   7.1135   7.1570   7.1895
     7.2088   7.2344   7.2668   7.2979   7.3447   7.4166   7.4328   7.4849
     7.5235   7.5494   7.6076   7.6437   7.6576   7.6775   7.7509   7.7641
     7.7785   7.7899   7.8231   7.8435   7.8695   7.8862  11.2322  11.3009
    12.3825  12.4555  12.7863  12.8263  13.0386  13.1289  13.4998  13.5880
    13.7021  13.8257  13.8680  13.9545  14.2189  14.2660  14.9409  14.9996
    15.0384  15.0499  15.1596  15.1850  15.2377  15.3093  15.3402  15.3604
    15.4244  15.4792  15.5644  15.6324  15.7495  15.7981  15.9075  15.9911
    16.1600  16.2666  16.4354  16.4910  16.5581  16.5954  16.6427  16.7233
    16.7372  16.7757  16.8126  16.8277  16.8659  16.8869  16.9133  16.9673
    17.0145  17.0481  17.1200  17.1603  17.4522  17.6125  17.7489  17.8981
    18.0541  18.1459  18.3815  18.4731  18.5488  18.6139  18.7286  18.7976
    18.8437  19.0286  19.0660  19.1886  19.3305  19.3725  19.4294  19.5452
    19.5844  19.6584  19.7489  19.7846  19.8586  19.8892

     occupation numbers 
     1.0000   1.0000   1.0000   1.0000   1.0000   1.0000   1.0000   1.0000
     1.0000   1.0000   1.0000   1.0000   1.0000   1.0000   1.0000   1.0000
     1.0000   1.0000   1.0000   1.0000   1.0000   1.0000   1.0000   1.0000
     1.0000   1.0000   1.0000   1.0000   1.0000   1.0000   1.0000   1.0000
     1.0000   1.0000   1.0000   1.0000   1.0000   1.0000   1.0000   1.0000
     1.0000   1.0000   1.0000   1.0000   1.0000   1.0000   1.0000   1.0000
     1.0000   1.0000   1.0000   1.0000   1.0000   1.0000   1.0000   1.0000
     1.0000   1.0000   1.0000   1.0000   1.0000   1.0000   1.0000   1.0000
     1.0000   1.0000   1.0000   1.0000   1.0000   1.0000   1.0000   1.0000
     1.0000   1.0000   1.0000   1.0000   1.0000   1.0000   1.0000   1.0000
     1.0000   1.0000   1.0000   1.0000   1.0000   1.0000   1.0000   1.0000
     1.0000   1.0000   1.0000   1.0000   1.0000   1.0000   1.0000   1.0000
     1.0000   1.0000   1.0000   1.0000   1.0000   1.0000   1.0000   1.0000
     1.0000   1.0000   1.0000   1.0000   1.0000   1.0000   1.0000   1.0000
     1.0000   1.0000   1.0000   1.0000   1.0000   1.0000   1.0000   1.0000
     1.0000   1.0000   1.0000   1.0000   1.0000   1.0000   1.0000   1.0000
     1.0000   1.0000   1.0000   1.0000   1.0000   1.0000   1.0000   1.0000
     1.0000   1.0000   1.0000   1.0000   1.0000   1.0000   1.0000   1.0000
     1.0000   1.0000   1.0000   1.0000   1.0000   1.0000   1.0000   1.0000
     1.0000   1.0000   1.0000   1.0000   1.0000   1.0000   1.0000   1.0000
[...]
     atom   35 type  3   force =     0.00000000    0.00000000    0.00000000
     atom   36 type  3   force =     0.00000000    0.00000000    0.00000000
     atom   37 type  2   force =     0.00115599   -0.00069871   -0.00001518
     atom   38 type  2   force =    -0.00008805    0.00000640   -0.00004907
     atom   39 type  2   force =    -0.00002393   -0.00006706   -0.00003915
     atom   40 type  2   force =    -0.00003690    0.00129939   -0.00000381
     atom   41 type  2   force =    -0.00121556    0.00070660   -0.00016305
     atom   42 type  2   force =     0.00006694   -0.00143818    0.00020207
     atom   43 type  2   force =    -0.00113759    0.00065245    0.00004299
     atom   44 type  2   force =     0.00121251    0.00062139    0.00009538
     atom   45 type  2   force =     0.00005130   -0.00150835   -0.00001035
     atom   46 type  2   force =    -0.00119760    0.00071558   -0.00005149
     atom   47 type  2   force =     0.00121358    0.00070327    0.00017793
     atom   48 type  2   force =     0.00116798   -0.00067125   -0.00017985
     atom   49 type  2   force =     0.00006619   -0.00147272   -0.00006701
     atom   50 type  2   force =    -0.00122804   -0.00069937   -0.00001821
     atom   51 type  2   force =    -0.00004695    0.00003738   -0.00014103
     atom   52 type  2   force =     0.00125954   -0.00073176    0.00024511
     atom   53 type  2   force =     0.00003036    0.00134226   -0.00007293
     atom   54 type  2   force =    -0.00113226    0.00065940   -0.00011897
     atom   55 type  2   force =    -0.00111858   -0.00065189   -0.00000145
     atom   56 type  2   force =    -0.00112071   -0.00063924    0.00010081
     atom   57 type  2   force =     0.00007684   -0.00003610    0.00009254
     atom   58 type  2   force =    -0.00122182    0.00070119   -0.00032000
     atom   59 type  2   force =    -0.00009279    0.00002904   -0.00005494
     atom   60 type  2   force =     0.00120932   -0.00067031    0.00030002
     atom   61 type  2   force =    -0.00001099    0.00141312   -0.00017165
     atom   62 type  2   force =     0.00003473    0.00136548    0.00020065
     atom   63 type  2   force =     0.00122590    0.00069528    0.00025170
     atom   64 type  2   force =     0.00119962   -0.00075078   -0.00009697
     atom   65 type  2   force =     0.00115689   -0.00062334   -0.00005711
     atom   66 type  2   force =    -0.00120187   -0.00061130   -0.00026867
     atom   67 type  2   force =     0.00117821   -0.00072799    0.00008831
     atom   68 type  2   force =     0.00118145    0.00071325   -0.00033608
     atom   69 type  2   force =    -0.00121238   -0.00061739    0.00007737
     atom   70 type  2   force =    -0.00000407   -0.00134144    0.00016728
     atom   71 type  2   force =    -0.00122866    0.00070242   -0.00002096
     atom   72 type  2   force =     0.00001747    0.00147339   -0.00000690
     The Hubbard contrib.    to forces
     atom    1 type  1   force =     0.00000000    0.00000000    0.00000000
     atom    2 type  1   force =     0.00000000    0.00000000    0.00000000
     atom    3 type  1   force =     0.00000000    0.00000000    0.00000000
     atom    4 type  1   force =     0.00000000    0.00000000    0.00000000
     atom    5 type  1   force =     0.00000000    0.00000000    0.00000000
     atom    6 type  3   force =     0.00000000    0.00000000    0.00000000
     atom    7 type  1   force =     0.00000000    0.00000000    0.00000000
     atom    8 type  1   force =     0.00000000    0.00000000    0.00000000
     atom    9 type  3   force =     0.00000000    0.00000000    0.00000000
     atom   10 type  3   force =     0.00000000    0.00000000    0.00000000
     atom   11 type  3   force =     0.00000000    0.00000000    0.00000000
     atom   12 type  1   force =     0.00000000    0.00000000    0.00000000
     atom   13 type  3   force =     0.00000000    0.00000000    0.00000000
     atom   14 type  3   force =     0.00000000    0.00000000    0.00000000
     atom   15 type  1   force =     0.00000000    0.00000000    0.00000000
     atom   16 type  3   force =     0.00000000    0.00000000    0.00000000
     atom   17 type  1   force =     0.00000000    0.00000000    0.00000000
     atom   18 type  1   force =     0.00000000    0.00000000    0.00000000
     atom   19 type  1   force =     0.00000000    0.00000000    0.00000000
     atom   20 type  1   force =     0.00000000    0.00000000    0.00000000
     atom   21 type  3   force =     0.00000000    0.00000000    0.00000000
     atom   22 type  1   force =     0.00000000    0.00000000    0.00000000
     atom   23 type  1   force =     0.00000000    0.00000000    0.00000000
     atom   24 type  3   force =     0.00000000    0.00000000    0.00000000
     atom   25 type  1   force =     0.00000000    0.00000000    0.00000000
     atom   26 type  3   force =     0.00000000    0.00000000    0.00000000
     atom   27 type  3   force =     0.00000000    0.00000000    0.00000000
     atom   28 type  1   force =     0.00000000    0.00000000    0.00000000
     atom   29 type  1   force =     0.00000000    0.00000000    0.00000000
     atom   30 type  1   force =     0.00000000    0.00000000    0.00000000
     atom   31 type  3   force =     0.00000000    0.00000000    0.00000000
     atom   32 type  1   force =     0.00000000    0.00000000    0.00000000
     atom   33 type  1   force =     0.00000000    0.00000000    0.00000000
     atom   34 type  1   force =     0.00000000    0.00000000    0.00000000
     atom   35 type  3   force =     0.00000000    0.00000000    0.00000000
     atom   36 type  3   force =     0.00000000    0.00000000    0.00000000
     atom   37 type  2   force =     0.00000000    0.00000000    0.00000000
     atom   38 type  2   force =     0.00000000    0.00000000    0.00000000
     atom   39 type  2   force =     0.00000000    0.00000000    0.00000000
     atom   40 type  2   force =     0.00000000    0.00000000    0.00000000
     atom   41 type  2   force =     0.00000000    0.00000000    0.00000000
     atom   42 type  2   force =     0.00000000    0.00000000    0.00000000
     atom   43 type  2   force =     0.00000000    0.00000000    0.00000000
     atom   44 type  2   force =     0.00000000    0.00000000    0.00000000
     atom   45 type  2   force =     0.00000000    0.00000000    0.00000000
     atom   46 type  2   force =     0.00000000    0.00000000    0.00000000
     atom   47 type  2   force =     0.00000000    0.00000000    0.00000000
     atom   48 type  2   force =     0.00000000    0.00000000    0.00000000
     atom   49 type  2   force =     0.00000000    0.00000000    0.00000000
     atom   50 type  2   force =     0.00000000    0.00000000    0.00000000
     atom   51 type  2   force =     0.00000000    0.00000000    0.00000000
     atom   52 type  2   force =     0.00000000    0.00000000    0.00000000
     atom   53 type  2   force =     0.00000000    0.00000000    0.00000000
     atom   54 type  2   force =     0.00000000    0.00000000    0.00000000
     atom   55 type  2   force =     0.00000000    0.00000000    0.00000000
     atom   56 type  2   force =     0.00000000    0.00000000    0.00000000
     atom   57 type  2   force =     0.00000000    0.00000000    0.00000000
     atom   58 type  2   force =     0.00000000    0.00000000    0.00000000
     atom   59 type  2   force =     0.00000000    0.00000000    0.00000000
     atom   60 type  2   force =     0.00000000    0.00000000    0.00000000
     atom   61 type  2   force =     0.00000000    0.00000000    0.00000000
     atom   62 type  2   force =     0.00000000    0.00000000    0.00000000
     atom   63 type  2   force =     0.00000000    0.00000000    0.00000000
     atom   64 type  2   force =     0.00000000    0.00000000    0.00000000
     atom   65 type  2   force =     0.00000000    0.00000000    0.00000000
     atom   66 type  2   force =     0.00000000    0.00000000    0.00000000
     atom   67 type  2   force =     0.00000000    0.00000000    0.00000000
     atom   68 type  2   force =     0.00000000    0.00000000    0.00000000
     atom   69 type  2   force =     0.00000000    0.00000000    0.00000000
     atom   70 type  2   force =     0.00000000    0.00000000    0.00000000
     atom   71 type  2   force =     0.00000000    0.00000000    0.00000000
     atom   72 type  2   force =     0.00000000    0.00000000    0.00000000
     The SCF correction term to forces
     atom    1 type  1   force =    -0.00004564   -0.00000202    0.00000000
     atom    2 type  1   force =    -0.00003172    0.00000960    0.00000000
     atom    3 type  1   force =    -0.00002429   -0.00002733    0.00000000
     atom    4 type  1   force =    -0.00002843   -0.00003262    0.00000000
     atom    5 type  1   force =     0.00001499    0.00000024    0.00000000
     atom    6 type  3   force =    -0.00000724   -0.00000303    0.00000000
     atom    7 type  1   force =     0.00004940   -0.00000915    0.00000000
     atom    8 type  1   force =     0.00003141    0.00001769    0.00000000
     atom    9 type  3   force =    -0.00001065    0.00000163    0.00000000
     atom   10 type  3   force =    -0.00000790   -0.00001852    0.00000000
     atom   11 type  3   force =     0.00000739    0.00002469    0.00000000
     atom   12 type  1   force =     0.00004925    0.00005035    0.00000000
     atom   13 type  3   force =    -0.00001367   -0.00000065    0.00000000
     atom   14 type  3   force =    -0.00000149   -0.00000839    0.00000000
     atom   15 type  1   force =     0.00003690   -0.00003639    0.00000000
     atom   16 type  3   force =     0.00002318   -0.00001931    0.00000000
     atom   17 type  1   force =    -0.00002446    0.00004983    0.00000000
     atom   18 type  1   force =    -0.00003276    0.00006452    0.00000000
     atom   19 type  1   force =    -0.00000150   -0.00005276    0.00000000
     atom   20 type  1   force =    -0.00003414   -0.00004503    0.00000000
     atom   21 type  3   force =     0.00000234   -0.00001062    0.00000000
     atom   22 type  1   force =    -0.00002871   -0.00004060    0.00000000
     atom   23 type  1   force =    -0.00004127    0.00004574    0.00000000
     atom   24 type  3   force =     0.00000421    0.00002159    0.00000000
     atom   25 type  1   force =    -0.00000743    0.00005172    0.00000000
     atom   26 type  3   force =     0.00002235    0.00000946    0.00000000
     atom   27 type  3   force =     0.00004810    0.00000917    0.00000000
     atom   28 type  1   force =     0.00005786   -0.00000542    0.00000000
     atom   29 type  1   force =     0.00006752    0.00002867    0.00000000
     atom   30 type  1   force =     0.00004901    0.00004874    0.00000000
     atom   31 type  3   force =     0.00000407   -0.00002746    0.00000000
     atom   32 type  1   force =    -0.00000063   -0.00002431    0.00000000
     atom   33 type  1   force =    -0.00008404   -0.00001960    0.00000000
     atom   34 type  1   force =    -0.00002397   -0.00007551    0.00000000
     atom   35 type  3   force =    -0.00002573   -0.00000819    0.00000000
     atom   36 type  3   force =    -0.00002628    0.00003468    0.00000000
     atom   37 type  2   force =     0.00000292    0.00000282    0.00000000
     atom   38 type  2   force =    -0.00000132   -0.00000028    0.00000000
     atom   39 type  2   force =    -0.00000192   -0.00000127    0.00000000
     atom   40 type  2   force =     0.00000750    0.00000081    0.00000000
     atom   41 type  2   force =     0.00000674    0.00000476    0.00000000
     atom   42 type  2   force =     0.00000225    0.00000464    0.00000000
     atom   43 type  2   force =     0.00000157    0.00000019    0.00000000
     atom   44 type  2   force =     0.00000081   -0.00000006    0.00000000
     atom   45 type  2   force =    -0.00000318   -0.00000751    0.00000000
     atom   46 type  2   force =    -0.00001108   -0.00000015    0.00000000
     atom   47 type  2   force =     0.00000333    0.00001117    0.00000000
     atom   48 type  2   force =     0.00001559    0.00000237    0.00000000
     atom   49 type  2   force =    -0.00000479   -0.00001111    0.00000000
     atom   50 type  2   force =    -0.00000713   -0.00001112    0.00000000
     atom   51 type  2   force =     0.00000417   -0.00001112    0.00000000
     atom   52 type  2   force =     0.00000067   -0.00001082    0.00000000
     atom   53 type  2   force =    -0.00001294    0.00001205    0.00000000
     atom   54 type  2   force =    -0.00001210    0.00001363    0.00000000
     atom   55 type  2   force =    -0.00000267   -0.00000246    0.00000000
     atom   56 type  2   force =    -0.00000715   -0.00000556    0.00000000
     atom   57 type  2   force =     0.00000443   -0.00000484    0.00000000
     atom   58 type  2   force =    -0.00000006   -0.00001170    0.00000000
     atom   59 type  2   force =     0.00000328    0.00000866    0.00000000
     atom   60 type  2   force =    -0.00000086    0.00000853    0.00000000
     atom   61 type  2   force =     0.00000003    0.00000428    0.00000000
     atom   62 type  2   force =    -0.00000040    0.00000994    0.00000000
     atom   63 type  2   force =     0.00000575    0.00000153    0.00000000
     atom   64 type  2   force =     0.00000637   -0.00000391    0.00000000
     atom   65 type  2   force =     0.00000645   -0.00000079    0.00000000
     atom   66 type  2   force =     0.00000934    0.00000582    0.00000000
     atom   67 type  2   force =     0.00000935   -0.00000858    0.00000000
     atom   68 type  2   force =     0.00001102   -0.00000447    0.00000000
     atom   69 type  2   force =    -0.00000517   -0.00001190    0.00000000
     atom   70 type  2   force =    -0.00000602   -0.00001272    0.00000000
     atom   71 type  2   force =    -0.00001781    0.00001275    0.00000000
     atom   72 type  2   force =    -0.00000629    0.00001456    0.00000000

     Total force =     0.000141     Total SCF correction =     0.000288
     SCF correction compared to forces is large: reduce conv_thr to get better values


     Computing stress (Cartesian axis) and pressure

          total   stress  (Ry/bohr**3)                   (kbar)     P=    1.43
   0.00001137  -0.00000003  -0.00000000          1.67     -0.00     -0.00
  -0.00000003   0.00001142   0.00000000         -0.00      1.68      0.00
  -0.00000000   0.00000000   0.00000640         -0.00      0.00      0.94

     kinetic stress (kbar)  29571.46      1.21      0.06
                                1.21  29572.33      0.01
                                0.06      0.01  29716.36

     local   stress (kbar)   2015.02    501.73   1883.83
                              501.73  -4516.92  -1278.84
                             1883.83  -1278.84 -27884.00

     nonloc. stress (kbar)   1045.80     -0.59     -0.15
                               -0.59   1047.10      0.03
                               -0.15      0.03   1003.41

     hartree stress (kbar)  45123.33   -243.59   -914.08
                             -243.59  48298.10    621.30
                             -914.08    621.30  58968.10

     exc-cor stress (kbar) -11882.09      0.01     -0.01
                                0.01 -11882.08      0.00
                               -0.01      0.00 -11881.63

     corecor stress (kbar)   -262.36     -0.00     -0.00
                               -0.00   -262.36      0.00
                               -0.00      0.00   -262.61

     ewald   stress (kbar) -65609.50   -258.77   -969.65
                             -258.77 -62254.48    657.49
                             -969.65    657.49 -49658.68

     hubbard stress (kbar)      0.00      0.00      0.00
                                0.00      0.00      0.00
                                0.00      0.00      0.00

     london  stress (kbar)      0.00      0.00      0.00
                                0.00      0.00      0.00
                                0.00      0.00      0.00

     DFT-D3  stress (kbar)      0.00      0.00      0.00
                                0.00      0.00      0.00
                                0.00      0.00      0.00

     XDM     stress (kbar)      0.00      0.00      0.00
                                0.00      0.00      0.00
                                0.00      0.00      0.00

     dft-nl  stress (kbar)      0.00      0.00      0.00
                                0.00      0.00      0.00
                                0.00      0.00      0.00

     TS-vdW  stress (kbar)      0.00      0.00      0.00
                                0.00      0.00      0.00
                                0.00      0.00      0.00



     Writing output data file ZnO.save/
 
     init_run     :     13.31s CPU     15.42s WALL (       1 calls)
     electrons    :    703.10s CPU    717.84s WALL (       1 calls)
     forces       :      9.02s CPU      9.26s WALL (       1 calls)
     stress       :    131.51s CPU    131.80s WALL (       1 calls)

     Called by init_run:
     wfcinit      :     11.03s CPU     12.26s WALL (       1 calls)
     wfcinit:atom :      0.09s CPU      0.11s WALL (       5 calls)
     wfcinit:wfcr :     10.56s CPU     11.71s WALL (       5 calls)
     potinit      :      1.06s CPU      1.21s WALL (       1 calls)
     hinit0       :      0.75s CPU      1.32s WALL (       1 calls)

     Called by electrons:
     c_bands      :    653.98s CPU    667.44s WALL (      12 calls)
     sum_band     :     41.88s CPU     42.67s WALL (      12 calls)
     v_of_rho     :      5.43s CPU      5.82s WALL (      13 calls)
     v_h          :      0.13s CPU      0.18s WALL (      13 calls)
     v_xc         :      6.10s CPU      6.46s WALL (      15 calls)
     newd         :      1.70s CPU      1.80s WALL (      13 calls)
     mix_rho      :      0.30s CPU      0.39s WALL (      12 calls)

     Called by c_bands:
     init_us_2    :      4.25s CPU      4.30s WALL (     135 calls)
     cegterg      :    543.56s CPU    555.99s WALL (      60 calls)

     Called by sum_band:
     sum_band:bec :      0.25s CPU      0.25s WALL (      60 calls)
     addusdens    :      1.07s CPU      1.13s WALL (      12 calls)

     Called by *egterg:
     h_psi        :    183.19s CPU    186.19s WALL (     267 calls)
     s_psi        :     46.40s CPU     46.45s WALL (     267 calls)
     g_psi        :      0.67s CPU      0.67s WALL (     202 calls)
     cdiaghg      :    206.76s CPU    213.48s WALL (     262 calls)
     cegterg:over :     49.58s CPU     50.86s WALL (     202 calls)
     cegterg:upda :     32.81s CPU     33.19s WALL (     202 calls)
     cegterg:last :     17.99s CPU     18.07s WALL (      60 calls)
     cdiaghg:chol :      9.95s CPU     10.46s WALL (     262 calls)
     cdiaghg:inve :      3.10s CPU      3.17s WALL (     262 calls)
     cdiaghg:para :     50.05s CPU     54.77s WALL (     524 calls)

     Called by h_psi:
     h_psi:pot    :    181.72s CPU    183.73s WALL (     267 calls)
     h_psi:calbec :     47.39s CPU     48.72s WALL (     267 calls)
     vloc_psi     :     87.36s CPU     87.87s WALL (     267 calls)
     add_vuspsi   :     46.96s CPU     47.14s WALL (     267 calls)

     General routines
     calbec       :     73.81s CPU     75.91s WALL (     352 calls)
     fft          :      1.51s CPU      2.34s WALL (     192 calls)
     ffts         :      0.05s CPU      0.06s WALL (      25 calls)
     fftw         :    100.55s CPU    101.11s WALL (  170146 calls)
     interpolate  :      0.14s CPU      0.18s WALL (      13 calls)
 
     Parallel routines
     fft_scatt_xy :     12.70s CPU     12.77s WALL (  170363 calls)
     fft_scatt_yz :     27.65s CPU     28.31s WALL (  170363 calls)
 
     PWSCF        :  14m18.58s CPU  14m39.80s WALL

 
   This run was terminated on:  21:58:34   8Nov2021            

=------------------------------------------------------------------------------=
   JOB DONE.
=------------------------------------------------------------------------------=
