
     Program PWSCF v.6.4.1 starts on 16Jun2022 at 14:59:23 

     This program is part of the open-source Quantum ESPRESSO suite
     for quantum simulation of materials; please cite
         "P. Giannozzi et al., J. Phys.:Condens. Matter 21 395502 (2009);
         "P. Giannozzi et al., J. Phys.:Condens. Matter 29 465901 (2017);
          URL http://www.quantum-espresso.org", 
     in publications or presentations arising from this work. More details at
     http://www.quantum-espresso.org/quote

     Parallel version (MPI), running on    64 processors

     MPI processes distributed on     1 nodes
     K-points division:     npool     =       4
     R & G space division:  proc/nbgrp/npool/nimage =      16
     Waiting for input...
     Reading input from standard input

     Current dimensions of program PWSCF are:
     Max number of different atomic species (ntypx) = 10
     Max number of k-points (npk) =  40000
     Max angular momentum in pseudopotentials (lmaxx) =  3

     Subspace diagonalization in iterative solution of the eigenvalue problem:
     one sub-group per band group will be used
     scalapack distributed-memory algorithm (size of sub-group:  2*  2 procs)

 
     Parallelization info
     --------------------
     sticks:   dense  smooth     PW     G-vecs:    dense   smooth      PW
     Min          98      52     15                 4923     1920     327
     Max         100      53     16                 4927     1925     334
     Sum        1585     847    253                78795    30793    5323
 


     bravais-lattice index     =            0
     lattice parameter (alat)  =       6.1857  a.u.
     unit-cell volume          =     317.9357 (a.u.)^3
     number of atoms/cell      =            4
     number of atomic types    =            2
     number of electrons       =        52.00
     number of Kohn-Sham states=           26
     kinetic-energy cutoff     =      80.0000  Ry
     charge density cutoff     =     600.0000  Ry
     convergence threshold     =      1.0E-06
     mixing beta               =       0.5000
     number of iterations used =            8  plain     mixing
     Exchange-correlation      = SLA  PW   PSX  PSC ( 1  4 10  8 0 0)
     Using LIBXC version       =    4   3   4
     nstep                     =          200


     celldm(1)=   6.185652  celldm(2)=   0.000000  celldm(3)=   0.000000
     celldm(4)=   0.000000  celldm(5)=   0.000000  celldm(6)=   0.000000

     crystal axes: (cart. coord. in units of alat)
               a(1) = (   1.000000   0.000000  -0.000000 )  
               a(2) = (  -0.500000   0.866025   0.000000 )  
               a(3) = (  -0.000000   0.000000   1.551145 )  

     reciprocal axes: (cart. coord. in units 2 pi/alat)
               b(1) = (  1.000000  0.577350 -0.000000 )  
               b(2) = ( -0.000000  1.154701 -0.000000 )  
               b(3) = (  0.000000 -0.000000  0.644685 )  


     PseudoPot. # 1 for Zn read from file:
     ./GBRV_PBEsol/zn_pbesol_v1.uspp.F.UPF
     MD5 check sum: 7d8615e52efe7c1e2b1899de8658bae2
     Pseudo is Ultrasoft, Zval = 20.0
     Generated by new atomic code, or converted to UPF format
     Using radial grid of  943 points,  6 beta functions with: 
                l(1) =   0
                l(2) =   0
                l(3) =   1
                l(4) =   1
                l(5) =   2
                l(6) =   2
     Q(r) pseudized with  8 coefficients,  rinner =    1.100   1.100   1.100
                                                       1.100   1.100

     PseudoPot. # 2 for O  read from file:
     ./GBRV_PBEsol/o_pbesol_v1.2.uspp.F.UPF
     MD5 check sum: 501638753501ef6325af9037351f7734
     Pseudo is Ultrasoft + core correction, Zval =  6.0
     Generated by new atomic code, or converted to UPF format
     Using radial grid of  737 points,  5 beta functions with: 
                l(1) =   0
                l(2) =   0
                l(3) =   1
                l(4) =   1
                l(5) =   2
     Q(r) pseudized with  8 coefficients,  rinner =    0.900   0.900   0.900
                                                       0.900   0.900

     atomic species   valence    mass     pseudopotential
        Zn            20.00    65.38000     Zn( 1.00)
        O              6.00    15.99900     O ( 1.00)

     No symmetry found


                                    s                        frac. trans.

      isym =  1     identity                                     

 cryst.   s( 1) = (     1          0          0      )
                  (     0          1          0      )
                  (     0          0          1      )

 cart.    s( 1) = (  1.0000000  0.0000000  0.0000000 )
                  ( -0.0000000  1.0000000 -0.0000000 )
                  ( -0.0000000 -0.0000000  1.0000000 )


   Cartesian axes

     site n.     atom                  positions (alat units)
         1           O   tau(   1) = (   0.5000002   0.2886754   0.0113945  )
         2           O   tau(   2) = (   0.0000001   0.5773493   0.7869669  )
         3           Zn  tau(   3) = (   0.5000000   0.2886748   0.6303143  )
         4           Zn  tau(   4) = (  -0.0000002   0.5773511   1.4058868  )

   Crystallographic axes

     site n.     atom                  positions (cryst. coord.)
         1           O   tau(   1) = (  0.6666670  0.3333337  0.0073459  )
         2           O   tau(   2) = (  0.3333329  0.6666657  0.5073458  )
         3           Zn  tau(   3) = (  0.6666664  0.3333329  0.4063542  )
         4           Zn  tau(   4) = (  0.3333336  0.6666677  0.9063542  )

     number of k points=   260
                       cart. coord. in units 2pi/alat
        k(    1) = (   0.0000000   0.0000000   0.0000000), wk =   0.0039062
        k(    2) = (   0.0000000  -0.0000000   0.0805856), wk =   0.0078125
        k(    3) = (   0.0000000  -0.0000000   0.1611713), wk =   0.0078125
        k(    4) = (   0.0000000  -0.0000000   0.2417569), wk =   0.0078125
        k(    5) = (  -0.0000000   0.0000000  -0.3223425), wk =   0.0039062
        k(    6) = (  -0.0000000   0.1443376  -0.0000000), wk =   0.0078125
        k(    7) = (  -0.0000000   0.1443376   0.0805856), wk =   0.0078125
        k(    8) = (  -0.0000000   0.1443376   0.1611713), wk =   0.0078125
        k(    9) = (  -0.0000000   0.1443376   0.2417569), wk =   0.0078125
        k(   10) = (  -0.0000000   0.1443376  -0.3223425), wk =   0.0078125
        k(   11) = (  -0.0000000   0.1443376  -0.2417569), wk =   0.0078125
        k(   12) = (  -0.0000000   0.1443376  -0.1611713), wk =   0.0078125
        k(   13) = (  -0.0000000   0.1443376  -0.0805856), wk =   0.0078125
        k(   14) = (  -0.0000000   0.2886752  -0.0000000), wk =   0.0078125
        k(   15) = (  -0.0000000   0.2886752   0.0805856), wk =   0.0078125
        k(   16) = (  -0.0000000   0.2886752   0.1611713), wk =   0.0078125
        k(   17) = (  -0.0000000   0.2886752   0.2417569), wk =   0.0078125
        k(   18) = (  -0.0000000   0.2886752  -0.3223425), wk =   0.0078125
        k(   19) = (  -0.0000000   0.2886752  -0.2417569), wk =   0.0078125
        k(   20) = (  -0.0000000   0.2886752  -0.1611713), wk =   0.0078125
        k(   21) = (  -0.0000000   0.2886752  -0.0805856), wk =   0.0078125
        k(   22) = (  -0.0000000   0.4330128  -0.0000000), wk =   0.0078125
        k(   23) = (  -0.0000000   0.4330128   0.0805856), wk =   0.0078125
        k(   24) = (  -0.0000000   0.4330128   0.1611712), wk =   0.0078125
        k(   25) = (  -0.0000000   0.4330128   0.2417569), wk =   0.0078125
        k(   26) = (  -0.0000000   0.4330128  -0.3223425), wk =   0.0078125
        k(   27) = (  -0.0000000   0.4330128  -0.2417569), wk =   0.0078125
        k(   28) = (  -0.0000000   0.4330128  -0.1611713), wk =   0.0078125
        k(   29) = (  -0.0000000   0.4330128  -0.0805857), wk =   0.0078125
        k(   30) = (   0.0000000  -0.5773504   0.0000000), wk =   0.0039062
        k(   31) = (   0.0000000  -0.5773504   0.0805857), wk =   0.0078125
        k(   32) = (   0.0000000  -0.5773504   0.1611713), wk =   0.0078125
        k(   33) = (   0.0000000  -0.5773504   0.2417569), wk =   0.0078125
        k(   34) = (   0.0000000  -0.5773504  -0.3223425), wk =   0.0039062
        k(   35) = (   0.1250000   0.0721688  -0.0000000), wk =   0.0078125
        k(   36) = (   0.1250000   0.0721688   0.0805856), wk =   0.0078125
        k(   37) = (   0.1250000   0.0721688   0.1611713), wk =   0.0078125
        k(   38) = (   0.1250000   0.0721688   0.2417569), wk =   0.0078125
        k(   39) = (   0.1250000   0.0721688  -0.3223425), wk =   0.0078125
        k(   40) = (   0.1250000   0.0721688  -0.2417569), wk =   0.0078125
        k(   41) = (   0.1250000   0.0721688  -0.1611713), wk =   0.0078125
        k(   42) = (   0.1250000   0.0721688  -0.0805856), wk =   0.0078125
        k(   43) = (   0.1250000   0.2165064  -0.0000000), wk =   0.0078125
        k(   44) = (   0.1250000   0.2165064   0.0805856), wk =   0.0078125
        k(   45) = (   0.1250000   0.2165064   0.1611713), wk =   0.0078125
        k(   46) = (   0.1250000   0.2165064   0.2417569), wk =   0.0078125
        k(   47) = (   0.1250000   0.2165064  -0.3223425), wk =   0.0078125
        k(   48) = (   0.1250000   0.2165064  -0.2417569), wk =   0.0078125
        k(   49) = (   0.1250000   0.2165064  -0.1611713), wk =   0.0078125
        k(   50) = (   0.1250000   0.2165064  -0.0805856), wk =   0.0078125
        k(   51) = (   0.1250000   0.3608440  -0.0000000), wk =   0.0078125
        k(   52) = (   0.1250000   0.3608440   0.0805856), wk =   0.0078125
        k(   53) = (   0.1250000   0.3608440   0.1611713), wk =   0.0078125
        k(   54) = (   0.1250000   0.3608440   0.2417569), wk =   0.0078125
        k(   55) = (   0.1250000   0.3608440  -0.3223425), wk =   0.0078125
        k(   56) = (   0.1250000   0.3608440  -0.2417569), wk =   0.0078125
        k(   57) = (   0.1250000   0.3608440  -0.1611713), wk =   0.0078125
        k(   58) = (   0.1250000   0.3608440  -0.0805856), wk =   0.0078125
        k(   59) = (   0.1250000   0.5051816  -0.0000000), wk =   0.0078125
        k(   60) = (   0.1250000   0.5051816   0.0805856), wk =   0.0078125
        k(   61) = (   0.1250000   0.5051816   0.1611712), wk =   0.0078125
        k(   62) = (   0.1250000   0.5051816   0.2417569), wk =   0.0078125
        k(   63) = (   0.1250000   0.5051816  -0.3223425), wk =   0.0078125
        k(   64) = (   0.1250000   0.5051816  -0.2417569), wk =   0.0078125
        k(   65) = (   0.1250000   0.5051816  -0.1611713), wk =   0.0078125
        k(   66) = (   0.1250000   0.5051816  -0.0805857), wk =   0.0078125
        k(   67) = (   0.1250000  -0.5051816   0.0000000), wk =   0.0078125
        k(   68) = (   0.1250000  -0.5051816   0.0805857), wk =   0.0078125
        k(   69) = (   0.1250000  -0.5051816   0.1611713), wk =   0.0078125
        k(   70) = (   0.1250000  -0.5051816   0.2417569), wk =   0.0078125
        k(   71) = (   0.1250000  -0.5051816  -0.3223425), wk =   0.0078125
        k(   72) = (   0.1250000  -0.5051816  -0.2417569), wk =   0.0078125
        k(   73) = (   0.1250000  -0.5051816  -0.1611712), wk =   0.0078125
        k(   74) = (   0.1250000  -0.5051816  -0.0805856), wk =   0.0078125
        k(   75) = (   0.1250000  -0.3608440   0.0000000), wk =   0.0078125
        k(   76) = (   0.1250000  -0.3608440   0.0805857), wk =   0.0078125
        k(   77) = (   0.1250000  -0.3608440   0.1611713), wk =   0.0078125
        k(   78) = (   0.1250000  -0.3608440   0.2417569), wk =   0.0078125
        k(   79) = (   0.1250000  -0.3608440  -0.3223425), wk =   0.0078125
        k(   80) = (   0.1250000  -0.3608440  -0.2417569), wk =   0.0078125
        k(   81) = (   0.1250000  -0.3608440  -0.1611712), wk =   0.0078125
        k(   82) = (   0.1250000  -0.3608440  -0.0805856), wk =   0.0078125
        k(   83) = (   0.1250000  -0.2165064   0.0000000), wk =   0.0078125
        k(   84) = (   0.1250000  -0.2165064   0.0805856), wk =   0.0078125
        k(   85) = (   0.1250000  -0.2165064   0.1611713), wk =   0.0078125
        k(   86) = (   0.1250000  -0.2165064   0.2417569), wk =   0.0078125
        k(   87) = (   0.1250000  -0.2165064  -0.3223425), wk =   0.0078125
        k(   88) = (   0.1250000  -0.2165064  -0.2417569), wk =   0.0078125
        k(   89) = (   0.1250000  -0.2165064  -0.1611713), wk =   0.0078125
        k(   90) = (   0.1250000  -0.2165064  -0.0805856), wk =   0.0078125
        k(   91) = (   0.1250000  -0.0721688   0.0000000), wk =   0.0078125
        k(   92) = (   0.1250000  -0.0721688   0.0805856), wk =   0.0078125
        k(   93) = (   0.1250000  -0.0721688   0.1611713), wk =   0.0078125
        k(   94) = (   0.1250000  -0.0721688   0.2417569), wk =   0.0078125
        k(   95) = (   0.1250000  -0.0721688  -0.3223425), wk =   0.0078125
        k(   96) = (   0.1250000  -0.0721688  -0.2417569), wk =   0.0078125
        k(   97) = (   0.1250000  -0.0721688  -0.1611713), wk =   0.0078125
        k(   98) = (   0.1250000  -0.0721688  -0.0805856), wk =   0.0078125
        k(   99) = (   0.2500000   0.1443376  -0.0000000), wk =   0.0078125
        k(  100) = (   0.2500000   0.1443376   0.0805856), wk =   0.0078125
        k(  101) = (   0.2500000   0.1443376   0.1611713), wk =   0.0078125
        k(  102) = (   0.2500000   0.1443376   0.2417569), wk =   0.0078125
        k(  103) = (   0.2500000   0.1443376  -0.3223425), wk =   0.0078125
        k(  104) = (   0.2500000   0.1443376  -0.2417569), wk =   0.0078125
        k(  105) = (   0.2500000   0.1443376  -0.1611713), wk =   0.0078125
        k(  106) = (   0.2500000   0.1443376  -0.0805856), wk =   0.0078125
        k(  107) = (   0.2500000   0.2886752  -0.0000000), wk =   0.0078125
        k(  108) = (   0.2500000   0.2886752   0.0805856), wk =   0.0078125
        k(  109) = (   0.2500000   0.2886752   0.1611713), wk =   0.0078125
        k(  110) = (   0.2500000   0.2886752   0.2417569), wk =   0.0078125
        k(  111) = (   0.2500000   0.2886752  -0.3223425), wk =   0.0078125
        k(  112) = (   0.2500000   0.2886752  -0.2417569), wk =   0.0078125
        k(  113) = (   0.2500000   0.2886752  -0.1611713), wk =   0.0078125
        k(  114) = (   0.2500000   0.2886752  -0.0805856), wk =   0.0078125
        k(  115) = (   0.2500000   0.4330128  -0.0000000), wk =   0.0078125
        k(  116) = (   0.2500000   0.4330128   0.0805856), wk =   0.0078125
        k(  117) = (   0.2500000   0.4330128   0.1611713), wk =   0.0078125
        k(  118) = (   0.2500000   0.4330128   0.2417569), wk =   0.0078125
        k(  119) = (   0.2500000   0.4330128  -0.3223425), wk =   0.0078125
        k(  120) = (   0.2500000   0.4330128  -0.2417569), wk =   0.0078125
        k(  121) = (   0.2500000   0.4330128  -0.1611713), wk =   0.0078125
        k(  122) = (   0.2500000   0.4330128  -0.0805856), wk =   0.0078125
        k(  123) = (   0.2500000   0.5773504  -0.0000000), wk =   0.0078125
        k(  124) = (   0.2500000   0.5773504   0.0805856), wk =   0.0078125
        k(  125) = (   0.2500000   0.5773504   0.1611712), wk =   0.0078125
        k(  126) = (   0.2500000   0.5773504   0.2417569), wk =   0.0078125
        k(  127) = (   0.2500000   0.5773504  -0.3223426), wk =   0.0078125
        k(  128) = (   0.2500000   0.5773504  -0.2417569), wk =   0.0078125
        k(  129) = (   0.2500000   0.5773504  -0.1611713), wk =   0.0078125
        k(  130) = (   0.2500000   0.5773504  -0.0805857), wk =   0.0078125
        k(  131) = (   0.2500000  -0.4330128   0.0000000), wk =   0.0078125
        k(  132) = (   0.2500000  -0.4330128   0.0805857), wk =   0.0078125
        k(  133) = (   0.2500000  -0.4330128   0.1611713), wk =   0.0078125
        k(  134) = (   0.2500000  -0.4330129   0.2417569), wk =   0.0078125
        k(  135) = (   0.2500000  -0.4330128  -0.3223425), wk =   0.0078125
        k(  136) = (   0.2500000  -0.4330128  -0.2417569), wk =   0.0078125
        k(  137) = (   0.2500000  -0.4330128  -0.1611712), wk =   0.0078125
        k(  138) = (   0.2500000  -0.4330128  -0.0805856), wk =   0.0078125
        k(  139) = (   0.2500000  -0.2886752   0.0000000), wk =   0.0078125
        k(  140) = (   0.2500000  -0.2886752   0.0805856), wk =   0.0078125
        k(  141) = (   0.2500000  -0.2886752   0.1611713), wk =   0.0078125
        k(  142) = (   0.2500000  -0.2886752   0.2417569), wk =   0.0078125
        k(  143) = (   0.2500000  -0.2886752  -0.3223425), wk =   0.0078125
        k(  144) = (   0.2500000  -0.2886752  -0.2417569), wk =   0.0078125
        k(  145) = (   0.2500000  -0.2886752  -0.1611712), wk =   0.0078125
        k(  146) = (   0.2500000  -0.2886752  -0.0805856), wk =   0.0078125
        k(  147) = (   0.2500000  -0.1443376   0.0000000), wk =   0.0078125
        k(  148) = (   0.2500000  -0.1443376   0.0805856), wk =   0.0078125
        k(  149) = (   0.2500000  -0.1443376   0.1611713), wk =   0.0078125
        k(  150) = (   0.2500000  -0.1443376   0.2417569), wk =   0.0078125
        k(  151) = (   0.2500000  -0.1443376  -0.3223425), wk =   0.0078125
        k(  152) = (   0.2500000  -0.1443376  -0.2417569), wk =   0.0078125
        k(  153) = (   0.2500000  -0.1443376  -0.1611713), wk =   0.0078125
        k(  154) = (   0.2500000  -0.1443376  -0.0805856), wk =   0.0078125
        k(  155) = (   0.2500000  -0.0000000   0.0000000), wk =   0.0078125
        k(  156) = (   0.2500000  -0.0000000   0.0805856), wk =   0.0078125
        k(  157) = (   0.2500000  -0.0000000   0.1611713), wk =   0.0078125
        k(  158) = (   0.2500000  -0.0000000   0.2417569), wk =   0.0078125
        k(  159) = (   0.2500000   0.0000000  -0.3223425), wk =   0.0078125
        k(  160) = (   0.2500000  -0.0000000  -0.2417569), wk =   0.0078125
        k(  161) = (   0.2500000  -0.0000000  -0.1611713), wk =   0.0078125
        k(  162) = (   0.2500000  -0.0000000  -0.0805856), wk =   0.0078125
        k(  163) = (   0.3750000   0.2165064  -0.0000000), wk =   0.0078125
        k(  164) = (   0.3750000   0.2165064   0.0805856), wk =   0.0078125
        k(  165) = (   0.3750000   0.2165064   0.1611713), wk =   0.0078125
        k(  166) = (   0.3750000   0.2165064   0.2417569), wk =   0.0078125
        k(  167) = (   0.3750000   0.2165064  -0.3223425), wk =   0.0078125
        k(  168) = (   0.3750000   0.2165064  -0.2417569), wk =   0.0078125
        k(  169) = (   0.3750000   0.2165064  -0.1611713), wk =   0.0078125
        k(  170) = (   0.3750000   0.2165064  -0.0805856), wk =   0.0078125
        k(  171) = (   0.3750000   0.3608440  -0.0000000), wk =   0.0078125
        k(  172) = (   0.3750000   0.3608440   0.0805856), wk =   0.0078125
        k(  173) = (   0.3750000   0.3608440   0.1611713), wk =   0.0078125
        k(  174) = (   0.3750000   0.3608440   0.2417569), wk =   0.0078125
        k(  175) = (   0.3750000   0.3608440  -0.3223425), wk =   0.0078125
        k(  176) = (   0.3750000   0.3608440  -0.2417569), wk =   0.0078125
        k(  177) = (   0.3750000   0.3608440  -0.1611713), wk =   0.0078125
        k(  178) = (   0.3750000   0.3608440  -0.0805856), wk =   0.0078125
        k(  179) = (   0.3750000   0.5051816  -0.0000000), wk =   0.0078125
        k(  180) = (   0.3750000   0.5051816   0.0805856), wk =   0.0078125
        k(  181) = (   0.3750000   0.5051816   0.1611713), wk =   0.0078125
        k(  182) = (   0.3750000   0.5051816   0.2417569), wk =   0.0078125
        k(  183) = (   0.3750000   0.5051816  -0.3223425), wk =   0.0078125
        k(  184) = (   0.3750000   0.5051816  -0.2417569), wk =   0.0078125
        k(  185) = (   0.3750000   0.5051816  -0.1611713), wk =   0.0078125
        k(  186) = (   0.3750000   0.5051816  -0.0805856), wk =   0.0078125
        k(  187) = (   0.3750000   0.6495192  -0.0000000), wk =   0.0078125
        k(  188) = (   0.3750000   0.6495192   0.0805856), wk =   0.0078125
        k(  189) = (   0.3750000   0.6495192   0.1611712), wk =   0.0078125
        k(  190) = (   0.3750000   0.6495192   0.2417569), wk =   0.0078125
        k(  191) = (   0.3750000   0.6495192  -0.3223426), wk =   0.0078125
        k(  192) = (   0.3750000   0.6495192  -0.2417569), wk =   0.0078125
        k(  193) = (   0.3750000   0.6495192  -0.1611713), wk =   0.0078125
        k(  194) = (   0.3750000   0.6495192  -0.0805857), wk =   0.0078125
        k(  195) = (   0.3750000  -0.3608440   0.0000000), wk =   0.0078125
        k(  196) = (   0.3750000  -0.3608440   0.0805857), wk =   0.0078125
        k(  197) = (   0.3750000  -0.3608441   0.1611713), wk =   0.0078125
        k(  198) = (   0.3750000  -0.3608441   0.2417569), wk =   0.0078125
        k(  199) = (   0.3750000  -0.3608440  -0.3223425), wk =   0.0078125
        k(  200) = (   0.3750000  -0.3608440  -0.2417569), wk =   0.0078125
        k(  201) = (   0.3750000  -0.3608440  -0.1611712), wk =   0.0078125
        k(  202) = (   0.3750000  -0.3608440  -0.0805856), wk =   0.0078125
        k(  203) = (   0.3750000  -0.2165064   0.0000000), wk =   0.0078125
        k(  204) = (   0.3750000  -0.2165064   0.0805856), wk =   0.0078125
        k(  205) = (   0.3750000  -0.2165064   0.1611713), wk =   0.0078125
        k(  206) = (   0.3750000  -0.2165064   0.2417569), wk =   0.0078125
        k(  207) = (   0.3750000  -0.2165064  -0.3223425), wk =   0.0078125
        k(  208) = (   0.3750000  -0.2165064  -0.2417569), wk =   0.0078125
        k(  209) = (   0.3750000  -0.2165064  -0.1611712), wk =   0.0078125
        k(  210) = (   0.3750000  -0.2165064  -0.0805856), wk =   0.0078125
        k(  211) = (   0.3750000  -0.0721688   0.0000000), wk =   0.0078125
        k(  212) = (   0.3750000  -0.0721688   0.0805856), wk =   0.0078125
        k(  213) = (   0.3750000  -0.0721688   0.1611713), wk =   0.0078125
        k(  214) = (   0.3750000  -0.0721688   0.2417569), wk =   0.0078125
        k(  215) = (   0.3750000  -0.0721688  -0.3223425), wk =   0.0078125
        k(  216) = (   0.3750000  -0.0721688  -0.2417569), wk =   0.0078125
        k(  217) = (   0.3750000  -0.0721688  -0.1611713), wk =   0.0078125
        k(  218) = (   0.3750000  -0.0721688  -0.0805856), wk =   0.0078125
        k(  219) = (   0.3750000   0.0721688   0.0000000), wk =   0.0078125
        k(  220) = (   0.3750000   0.0721688   0.0805856), wk =   0.0078125
        k(  221) = (   0.3750000   0.0721688   0.1611713), wk =   0.0078125
        k(  222) = (   0.3750000   0.0721688   0.2417569), wk =   0.0078125
        k(  223) = (   0.3750000   0.0721688  -0.3223425), wk =   0.0078125
        k(  224) = (   0.3750000   0.0721688  -0.2417569), wk =   0.0078125
        k(  225) = (   0.3750000   0.0721688  -0.1611713), wk =   0.0078125
        k(  226) = (   0.3750000   0.0721688  -0.0805856), wk =   0.0078125
        k(  227) = (  -0.5000000  -0.2886752   0.0000000), wk =   0.0039062
        k(  228) = (  -0.5000000  -0.2886752   0.0805856), wk =   0.0078125
        k(  229) = (  -0.5000000  -0.2886752   0.1611713), wk =   0.0078125
        k(  230) = (  -0.5000000  -0.2886752   0.2417569), wk =   0.0078125
        k(  231) = (  -0.5000000  -0.2886752  -0.3223425), wk =   0.0039062
        k(  232) = (  -0.5000000  -0.1443376  -0.0000000), wk =   0.0078125
        k(  233) = (  -0.5000000  -0.1443376   0.0805856), wk =   0.0078125
        k(  234) = (  -0.5000000  -0.1443376   0.1611713), wk =   0.0078125
        k(  235) = (  -0.5000000  -0.1443376   0.2417569), wk =   0.0078125
        k(  236) = (  -0.5000000  -0.1443376  -0.3223425), wk =   0.0078125
        k(  237) = (  -0.5000000  -0.1443376  -0.2417569), wk =   0.0078125
        k(  238) = (  -0.5000000  -0.1443376  -0.1611713), wk =   0.0078125
        k(  239) = (  -0.5000000  -0.1443376  -0.0805856), wk =   0.0078125
        k(  240) = (  -0.5000000   0.0000000  -0.0000000), wk =   0.0078125
        k(  241) = (  -0.5000000   0.0000000   0.0805856), wk =   0.0078125
        k(  242) = (  -0.5000000   0.0000000   0.1611713), wk =   0.0078125
        k(  243) = (  -0.5000000   0.0000000   0.2417569), wk =   0.0078125
        k(  244) = (  -0.5000000   0.0000001  -0.3223425), wk =   0.0078125
        k(  245) = (  -0.5000000   0.0000000  -0.2417569), wk =   0.0078125
        k(  246) = (  -0.5000000   0.0000000  -0.1611713), wk =   0.0078125
        k(  247) = (  -0.5000000   0.0000000  -0.0805856), wk =   0.0078125
        k(  248) = (  -0.5000000   0.1443376  -0.0000000), wk =   0.0078125
        k(  249) = (  -0.5000000   0.1443376   0.0805856), wk =   0.0078125
        k(  250) = (  -0.5000000   0.1443376   0.1611712), wk =   0.0078125
        k(  251) = (  -0.5000000   0.1443376   0.2417569), wk =   0.0078125
        k(  252) = (  -0.5000000   0.1443377  -0.3223425), wk =   0.0078125
        k(  253) = (  -0.5000000   0.1443377  -0.2417569), wk =   0.0078125
        k(  254) = (  -0.5000000   0.1443376  -0.1611713), wk =   0.0078125
        k(  255) = (  -0.5000000   0.1443376  -0.0805856), wk =   0.0078125
        k(  256) = (  -0.4999999  -0.8660256   0.0000000), wk =   0.0039062
        k(  257) = (  -0.4999999  -0.8660256   0.0805857), wk =   0.0078125
        k(  258) = (  -0.4999999  -0.8660256   0.1611713), wk =   0.0078125
        k(  259) = (  -0.4999999  -0.8660256   0.2417569), wk =   0.0078125
        k(  260) = (  -0.4999999  -0.8660256  -0.3223425), wk =   0.0039062

                       cryst. coord.
        k(    1) = (   0.0000000   0.0000000   0.0000000), wk =   0.0039062
        k(    2) = (  -0.0000000  -0.0000000   0.1250000), wk =   0.0078125
        k(    3) = (  -0.0000000  -0.0000000   0.2500000), wk =   0.0078125
        k(    4) = (  -0.0000000   0.0000000   0.3750000), wk =   0.0078125
        k(    5) = (   0.0000000   0.0000000  -0.5000000), wk =   0.0039062
        k(    6) = (  -0.0000000   0.1250000  -0.0000000), wk =   0.0078125
        k(    7) = (  -0.0000000   0.1250000   0.1250000), wk =   0.0078125
        k(    8) = (   0.0000000   0.1250000   0.2500000), wk =   0.0078125
        k(    9) = (  -0.0000000   0.1250000   0.3750000), wk =   0.0078125
        k(   10) = (   0.0000000   0.1250000  -0.5000000), wk =   0.0078125
        k(   11) = (   0.0000000   0.1250000  -0.3750000), wk =   0.0078125
        k(   12) = (  -0.0000000   0.1250000  -0.2500000), wk =   0.0078125
        k(   13) = (  -0.0000000   0.1250000  -0.1250000), wk =   0.0078125
        k(   14) = (  -0.0000000   0.2500000  -0.0000000), wk =   0.0078125
        k(   15) = (   0.0000000   0.2500000   0.1250000), wk =   0.0078125
        k(   16) = (  -0.0000000   0.2500000   0.2500000), wk =   0.0078125
        k(   17) = (   0.0000000   0.2500000   0.3750000), wk =   0.0078125
        k(   18) = (  -0.0000000   0.2500000  -0.5000000), wk =   0.0078125
        k(   19) = (  -0.0000000   0.2500000  -0.3750000), wk =   0.0078125
        k(   20) = (  -0.0000000   0.2500000  -0.2500000), wk =   0.0078125
        k(   21) = (  -0.0000000   0.2500000  -0.1250000), wk =   0.0078125
        k(   22) = (   0.0000000   0.3750000  -0.0000000), wk =   0.0078125
        k(   23) = (   0.0000000   0.3750000   0.1250000), wk =   0.0078125
        k(   24) = (  -0.0000000   0.3750000   0.2500000), wk =   0.0078125
        k(   25) = (   0.0000000   0.3750000   0.3750000), wk =   0.0078125
        k(   26) = (  -0.0000000   0.3750000  -0.5000000), wk =   0.0078125
        k(   27) = (  -0.0000000   0.3750000  -0.3750000), wk =   0.0078125
        k(   28) = (   0.0000000   0.3750000  -0.2500000), wk =   0.0078125
        k(   29) = (  -0.0000000   0.3750000  -0.1250000), wk =   0.0078125
        k(   30) = (   0.0000000  -0.5000000   0.0000000), wk =   0.0039062
        k(   31) = (  -0.0000000  -0.5000000   0.1250000), wk =   0.0078125
        k(   32) = (   0.0000000  -0.5000000   0.2500000), wk =   0.0078125
        k(   33) = (   0.0000000  -0.5000000   0.3750000), wk =   0.0078125
        k(   34) = (   0.0000000  -0.5000000  -0.5000000), wk =   0.0039062
        k(   35) = (   0.1250000  -0.0000000   0.0000000), wk =   0.0078125
        k(   36) = (   0.1250000   0.0000000   0.1250000), wk =   0.0078125
        k(   37) = (   0.1250000  -0.0000000   0.2500000), wk =   0.0078125
        k(   38) = (   0.1250000  -0.0000000   0.3750000), wk =   0.0078125
        k(   39) = (   0.1250000  -0.0000000  -0.5000000), wk =   0.0078125
        k(   40) = (   0.1250000  -0.0000000  -0.3750000), wk =   0.0078125
        k(   41) = (   0.1250000   0.0000000  -0.2500000), wk =   0.0078125
        k(   42) = (   0.1250000  -0.0000000  -0.1250000), wk =   0.0078125
        k(   43) = (   0.1250000   0.1250000  -0.0000000), wk =   0.0078125
        k(   44) = (   0.1250000   0.1250000   0.1250000), wk =   0.0078125
        k(   45) = (   0.1250000   0.1250000   0.2500000), wk =   0.0078125
        k(   46) = (   0.1250000   0.1250000   0.3750000), wk =   0.0078125
        k(   47) = (   0.1250000   0.1250000  -0.5000000), wk =   0.0078125
        k(   48) = (   0.1250000   0.1250000  -0.3750000), wk =   0.0078125
        k(   49) = (   0.1250000   0.1250000  -0.2500000), wk =   0.0078125
        k(   50) = (   0.1250000   0.1250000  -0.1250000), wk =   0.0078125
        k(   51) = (   0.1250000   0.2500000  -0.0000000), wk =   0.0078125
        k(   52) = (   0.1250000   0.2500000   0.1250000), wk =   0.0078125
        k(   53) = (   0.1250000   0.2500000   0.2500000), wk =   0.0078125
        k(   54) = (   0.1250000   0.2500000   0.3750000), wk =   0.0078125
        k(   55) = (   0.1250000   0.2500000  -0.5000000), wk =   0.0078125
        k(   56) = (   0.1250000   0.2500000  -0.3750000), wk =   0.0078125
        k(   57) = (   0.1250000   0.2500000  -0.2500000), wk =   0.0078125
        k(   58) = (   0.1250000   0.2500000  -0.1250000), wk =   0.0078125
        k(   59) = (   0.1250000   0.3750000  -0.0000000), wk =   0.0078125
        k(   60) = (   0.1250000   0.3750000   0.1250000), wk =   0.0078125
        k(   61) = (   0.1250000   0.3750000   0.2500000), wk =   0.0078125
        k(   62) = (   0.1250000   0.3750000   0.3750000), wk =   0.0078125
        k(   63) = (   0.1250000   0.3750000  -0.5000000), wk =   0.0078125
        k(   64) = (   0.1250000   0.3750000  -0.3750000), wk =   0.0078125
        k(   65) = (   0.1250000   0.3750000  -0.2500000), wk =   0.0078125
        k(   66) = (   0.1250000   0.3750000  -0.1250000), wk =   0.0078125
        k(   67) = (   0.1250000  -0.5000000   0.0000000), wk =   0.0078125
        k(   68) = (   0.1250000  -0.5000000   0.1250000), wk =   0.0078125
        k(   69) = (   0.1250000  -0.5000000   0.2500000), wk =   0.0078125
        k(   70) = (   0.1250000  -0.5000000   0.3750000), wk =   0.0078125
        k(   71) = (   0.1250000  -0.5000000  -0.5000000), wk =   0.0078125
        k(   72) = (   0.1250000  -0.5000000  -0.3750000), wk =   0.0078125
        k(   73) = (   0.1250000  -0.5000000  -0.2500000), wk =   0.0078125
        k(   74) = (   0.1250000  -0.5000000  -0.1250000), wk =   0.0078125
        k(   75) = (   0.1250000  -0.3750000   0.0000000), wk =   0.0078125
        k(   76) = (   0.1250000  -0.3750000   0.1250000), wk =   0.0078125
        k(   77) = (   0.1250000  -0.3750000   0.2500000), wk =   0.0078125
        k(   78) = (   0.1250000  -0.3750000   0.3750000), wk =   0.0078125
        k(   79) = (   0.1250000  -0.3750000  -0.5000000), wk =   0.0078125
        k(   80) = (   0.1250000  -0.3750000  -0.3750000), wk =   0.0078125
        k(   81) = (   0.1250000  -0.3750000  -0.2500000), wk =   0.0078125
        k(   82) = (   0.1250000  -0.3750000  -0.1250000), wk =   0.0078125
        k(   83) = (   0.1250000  -0.2500000   0.0000000), wk =   0.0078125
        k(   84) = (   0.1250000  -0.2500000   0.1250000), wk =   0.0078125
        k(   85) = (   0.1250000  -0.2500000   0.2500000), wk =   0.0078125
        k(   86) = (   0.1250000  -0.2500000   0.3750000), wk =   0.0078125
        k(   87) = (   0.1250000  -0.2500000  -0.5000000), wk =   0.0078125
        k(   88) = (   0.1250000  -0.2500000  -0.3750000), wk =   0.0078125
        k(   89) = (   0.1250000  -0.2500000  -0.2500000), wk =   0.0078125
        k(   90) = (   0.1250000  -0.2500000  -0.1250000), wk =   0.0078125
        k(   91) = (   0.1250000  -0.1250000   0.0000000), wk =   0.0078125
        k(   92) = (   0.1250000  -0.1250000   0.1250000), wk =   0.0078125
        k(   93) = (   0.1250000  -0.1250000   0.2500000), wk =   0.0078125
        k(   94) = (   0.1250000  -0.1250000   0.3750000), wk =   0.0078125
        k(   95) = (   0.1250000  -0.1250000  -0.5000000), wk =   0.0078125
        k(   96) = (   0.1250000  -0.1250000  -0.3750000), wk =   0.0078125
        k(   97) = (   0.1250000  -0.1250000  -0.2500000), wk =   0.0078125
        k(   98) = (   0.1250000  -0.1250000  -0.1250000), wk =   0.0078125
        k(   99) = (   0.2500000  -0.0000000   0.0000000), wk =   0.0078125
        k(  100) = (   0.2500000  -0.0000000   0.1250000), wk =   0.0078125
        k(  101) = (   0.2500000   0.0000000   0.2500000), wk =   0.0078125
        k(  102) = (   0.2500000  -0.0000000   0.3750000), wk =   0.0078125
        k(  103) = (   0.2500000   0.0000000  -0.5000000), wk =   0.0078125
        k(  104) = (   0.2500000   0.0000000  -0.3750000), wk =   0.0078125
        k(  105) = (   0.2500000  -0.0000000  -0.2500000), wk =   0.0078125
        k(  106) = (   0.2500000  -0.0000000  -0.1250000), wk =   0.0078125
        k(  107) = (   0.2500000   0.1250000  -0.0000000), wk =   0.0078125
        k(  108) = (   0.2500000   0.1250000   0.1250000), wk =   0.0078125
        k(  109) = (   0.2500000   0.1250000   0.2500000), wk =   0.0078125
        k(  110) = (   0.2500000   0.1250000   0.3750000), wk =   0.0078125
        k(  111) = (   0.2500000   0.1250000  -0.5000000), wk =   0.0078125
        k(  112) = (   0.2500000   0.1250000  -0.3750000), wk =   0.0078125
        k(  113) = (   0.2500000   0.1250000  -0.2500000), wk =   0.0078125
        k(  114) = (   0.2500000   0.1250000  -0.1250000), wk =   0.0078125
        k(  115) = (   0.2500000   0.2500000  -0.0000000), wk =   0.0078125
        k(  116) = (   0.2500000   0.2500000   0.1250000), wk =   0.0078125
        k(  117) = (   0.2500000   0.2500000   0.2500000), wk =   0.0078125
        k(  118) = (   0.2500000   0.2500000   0.3750000), wk =   0.0078125
        k(  119) = (   0.2500000   0.2500000  -0.5000000), wk =   0.0078125
        k(  120) = (   0.2500000   0.2500000  -0.3750000), wk =   0.0078125
        k(  121) = (   0.2500000   0.2500000  -0.2500000), wk =   0.0078125
        k(  122) = (   0.2500000   0.2500000  -0.1250000), wk =   0.0078125
        k(  123) = (   0.2500000   0.3750000  -0.0000000), wk =   0.0078125
        k(  124) = (   0.2500000   0.3750000   0.1250000), wk =   0.0078125
        k(  125) = (   0.2500000   0.3750000   0.2500000), wk =   0.0078125
        k(  126) = (   0.2500000   0.3750000   0.3750000), wk =   0.0078125
        k(  127) = (   0.2500000   0.3750000  -0.5000000), wk =   0.0078125
        k(  128) = (   0.2500000   0.3750000  -0.3750000), wk =   0.0078125
        k(  129) = (   0.2500000   0.3750000  -0.2500000), wk =   0.0078125
        k(  130) = (   0.2500000   0.3750000  -0.1250000), wk =   0.0078125
        k(  131) = (   0.2500000  -0.5000000   0.0000000), wk =   0.0078125
        k(  132) = (   0.2500000  -0.5000000   0.1250000), wk =   0.0078125
        k(  133) = (   0.2500000  -0.5000000   0.2500000), wk =   0.0078125
        k(  134) = (   0.2500000  -0.5000000   0.3750000), wk =   0.0078125
        k(  135) = (   0.2500000  -0.5000000  -0.5000000), wk =   0.0078125
        k(  136) = (   0.2500000  -0.5000000  -0.3750000), wk =   0.0078125
        k(  137) = (   0.2500000  -0.5000000  -0.2500000), wk =   0.0078125
        k(  138) = (   0.2500000  -0.5000000  -0.1250000), wk =   0.0078125
        k(  139) = (   0.2500000  -0.3750000   0.0000000), wk =   0.0078125
        k(  140) = (   0.2500000  -0.3750000   0.1250000), wk =   0.0078125
        k(  141) = (   0.2500000  -0.3750000   0.2500000), wk =   0.0078125
        k(  142) = (   0.2500000  -0.3750000   0.3750000), wk =   0.0078125
        k(  143) = (   0.2500000  -0.3750000  -0.5000000), wk =   0.0078125
        k(  144) = (   0.2500000  -0.3750000  -0.3750000), wk =   0.0078125
        k(  145) = (   0.2500000  -0.3750000  -0.2500000), wk =   0.0078125
        k(  146) = (   0.2500000  -0.3750000  -0.1250000), wk =   0.0078125
        k(  147) = (   0.2500000  -0.2500000   0.0000000), wk =   0.0078125
        k(  148) = (   0.2500000  -0.2500000   0.1250000), wk =   0.0078125
        k(  149) = (   0.2500000  -0.2500000   0.2500000), wk =   0.0078125
        k(  150) = (   0.2500000  -0.2500000   0.3750000), wk =   0.0078125
        k(  151) = (   0.2500000  -0.2500000  -0.5000000), wk =   0.0078125
        k(  152) = (   0.2500000  -0.2500000  -0.3750000), wk =   0.0078125
        k(  153) = (   0.2500000  -0.2500000  -0.2500000), wk =   0.0078125
        k(  154) = (   0.2500000  -0.2500000  -0.1250000), wk =   0.0078125
        k(  155) = (   0.2500000  -0.1250000   0.0000000), wk =   0.0078125
        k(  156) = (   0.2500000  -0.1250000   0.1250000), wk =   0.0078125
        k(  157) = (   0.2500000  -0.1250000   0.2500000), wk =   0.0078125
        k(  158) = (   0.2500000  -0.1250000   0.3750000), wk =   0.0078125
        k(  159) = (   0.2500000  -0.1250000  -0.5000000), wk =   0.0078125
        k(  160) = (   0.2500000  -0.1250000  -0.3750000), wk =   0.0078125
        k(  161) = (   0.2500000  -0.1250000  -0.2500000), wk =   0.0078125
        k(  162) = (   0.2500000  -0.1250000  -0.1250000), wk =   0.0078125
        k(  163) = (   0.3750000  -0.0000000  -0.0000000), wk =   0.0078125
        k(  164) = (   0.3750000  -0.0000000   0.1250000), wk =   0.0078125
        k(  165) = (   0.3750000  -0.0000000   0.2500000), wk =   0.0078125
        k(  166) = (   0.3750000  -0.0000000   0.3750000), wk =   0.0078125
        k(  167) = (   0.3750000  -0.0000000  -0.5000000), wk =   0.0078125
        k(  168) = (   0.3750000  -0.0000000  -0.3750000), wk =   0.0078125
        k(  169) = (   0.3750000  -0.0000000  -0.2500000), wk =   0.0078125
        k(  170) = (   0.3750000  -0.0000000  -0.1250000), wk =   0.0078125
        k(  171) = (   0.3750000   0.1250000  -0.0000000), wk =   0.0078125
        k(  172) = (   0.3750000   0.1250000   0.1250000), wk =   0.0078125
        k(  173) = (   0.3750000   0.1250000   0.2500000), wk =   0.0078125
        k(  174) = (   0.3750000   0.1250000   0.3750000), wk =   0.0078125
        k(  175) = (   0.3750000   0.1250000  -0.5000000), wk =   0.0078125
        k(  176) = (   0.3750000   0.1250000  -0.3750000), wk =   0.0078125
        k(  177) = (   0.3750000   0.1250000  -0.2500000), wk =   0.0078125
        k(  178) = (   0.3750000   0.1250000  -0.1250000), wk =   0.0078125
        k(  179) = (   0.3750000   0.2500000  -0.0000000), wk =   0.0078125
        k(  180) = (   0.3750000   0.2500000   0.1250000), wk =   0.0078125
        k(  181) = (   0.3750000   0.2500000   0.2500000), wk =   0.0078125
        k(  182) = (   0.3750000   0.2500000   0.3750000), wk =   0.0078125
        k(  183) = (   0.3750000   0.2500000  -0.5000000), wk =   0.0078125
        k(  184) = (   0.3750000   0.2500000  -0.3750000), wk =   0.0078125
        k(  185) = (   0.3750000   0.2500000  -0.2500000), wk =   0.0078125
        k(  186) = (   0.3750000   0.2500000  -0.1250000), wk =   0.0078125
        k(  187) = (   0.3750000   0.3750000  -0.0000000), wk =   0.0078125
        k(  188) = (   0.3750000   0.3750000   0.1250000), wk =   0.0078125
        k(  189) = (   0.3750000   0.3750000   0.2500000), wk =   0.0078125
        k(  190) = (   0.3750000   0.3750000   0.3750000), wk =   0.0078125
        k(  191) = (   0.3750000   0.3750000  -0.5000000), wk =   0.0078125
        k(  192) = (   0.3750000   0.3750000  -0.3750000), wk =   0.0078125
        k(  193) = (   0.3750000   0.3750000  -0.2500000), wk =   0.0078125
        k(  194) = (   0.3750000   0.3750000  -0.1250000), wk =   0.0078125
        k(  195) = (   0.3750000  -0.5000000   0.0000000), wk =   0.0078125
        k(  196) = (   0.3750000  -0.5000000   0.1250000), wk =   0.0078125
        k(  197) = (   0.3750000  -0.5000000   0.2500000), wk =   0.0078125
        k(  198) = (   0.3750000  -0.5000000   0.3750000), wk =   0.0078125
        k(  199) = (   0.3750000  -0.5000000  -0.5000000), wk =   0.0078125
        k(  200) = (   0.3750000  -0.5000000  -0.3750000), wk =   0.0078125
        k(  201) = (   0.3750000  -0.5000000  -0.2500000), wk =   0.0078125
        k(  202) = (   0.3750000  -0.5000000  -0.1250000), wk =   0.0078125
        k(  203) = (   0.3750000  -0.3750000   0.0000000), wk =   0.0078125
        k(  204) = (   0.3750000  -0.3750000   0.1250000), wk =   0.0078125
        k(  205) = (   0.3750000  -0.3750000   0.2500000), wk =   0.0078125
        k(  206) = (   0.3750000  -0.3750000   0.3750000), wk =   0.0078125
        k(  207) = (   0.3750000  -0.3750000  -0.5000000), wk =   0.0078125
        k(  208) = (   0.3750000  -0.3750000  -0.3750000), wk =   0.0078125
        k(  209) = (   0.3750000  -0.3750000  -0.2500000), wk =   0.0078125
        k(  210) = (   0.3750000  -0.3750000  -0.1250000), wk =   0.0078125
        k(  211) = (   0.3750000  -0.2500000   0.0000000), wk =   0.0078125
        k(  212) = (   0.3750000  -0.2500000   0.1250000), wk =   0.0078125
        k(  213) = (   0.3750000  -0.2500000   0.2500000), wk =   0.0078125
        k(  214) = (   0.3750000  -0.2500000   0.3750000), wk =   0.0078125
        k(  215) = (   0.3750000  -0.2500000  -0.5000000), wk =   0.0078125
        k(  216) = (   0.3750000  -0.2500000  -0.3750000), wk =   0.0078125
        k(  217) = (   0.3750000  -0.2500000  -0.2500000), wk =   0.0078125
        k(  218) = (   0.3750000  -0.2500000  -0.1250000), wk =   0.0078125
        k(  219) = (   0.3750000  -0.1250000   0.0000000), wk =   0.0078125
        k(  220) = (   0.3750000  -0.1250000   0.1250000), wk =   0.0078125
        k(  221) = (   0.3750000  -0.1250000   0.2500000), wk =   0.0078125
        k(  222) = (   0.3750000  -0.1250000   0.3750000), wk =   0.0078125
        k(  223) = (   0.3750000  -0.1250000  -0.5000000), wk =   0.0078125
        k(  224) = (   0.3750000  -0.1250000  -0.3750000), wk =   0.0078125
        k(  225) = (   0.3750000  -0.1250000  -0.2500000), wk =   0.0078125
        k(  226) = (   0.3750000  -0.1250000  -0.1250000), wk =   0.0078125
        k(  227) = (  -0.5000000   0.0000000  -0.0000000), wk =   0.0039062
        k(  228) = (  -0.5000000   0.0000000   0.1250000), wk =   0.0078125
        k(  229) = (  -0.5000000   0.0000000   0.2500000), wk =   0.0078125
        k(  230) = (  -0.5000000   0.0000000   0.3750000), wk =   0.0078125
        k(  231) = (  -0.5000000  -0.0000000  -0.5000000), wk =   0.0039062
        k(  232) = (  -0.5000000   0.1250000  -0.0000000), wk =   0.0078125
        k(  233) = (  -0.5000000   0.1250000   0.1250000), wk =   0.0078125
        k(  234) = (  -0.5000000   0.1250000   0.2500000), wk =   0.0078125
        k(  235) = (  -0.5000000   0.1250000   0.3750000), wk =   0.0078125
        k(  236) = (  -0.5000000   0.1250000  -0.5000000), wk =   0.0078125
        k(  237) = (  -0.5000000   0.1250000  -0.3750000), wk =   0.0078125
        k(  238) = (  -0.5000000   0.1250000  -0.2500000), wk =   0.0078125
        k(  239) = (  -0.5000000   0.1250000  -0.1250000), wk =   0.0078125
        k(  240) = (  -0.5000000   0.2500000  -0.0000000), wk =   0.0078125
        k(  241) = (  -0.5000000   0.2500000   0.1250000), wk =   0.0078125
        k(  242) = (  -0.5000000   0.2500000   0.2500000), wk =   0.0078125
        k(  243) = (  -0.5000000   0.2500000   0.3750000), wk =   0.0078125
        k(  244) = (  -0.5000000   0.2500000  -0.5000000), wk =   0.0078125
        k(  245) = (  -0.5000000   0.2500000  -0.3750000), wk =   0.0078125
        k(  246) = (  -0.5000000   0.2500000  -0.2500000), wk =   0.0078125
        k(  247) = (  -0.5000000   0.2500000  -0.1250000), wk =   0.0078125
        k(  248) = (  -0.5000000   0.3750000  -0.0000000), wk =   0.0078125
        k(  249) = (  -0.5000000   0.3750000   0.1250000), wk =   0.0078125
        k(  250) = (  -0.5000000   0.3750000   0.2500000), wk =   0.0078125
        k(  251) = (  -0.5000000   0.3750000   0.3750000), wk =   0.0078125
        k(  252) = (  -0.5000000   0.3750000  -0.5000000), wk =   0.0078125
        k(  253) = (  -0.5000000   0.3750000  -0.3750000), wk =   0.0078125
        k(  254) = (  -0.5000000   0.3750000  -0.2500000), wk =   0.0078125
        k(  255) = (  -0.5000000   0.3750000  -0.1250000), wk =   0.0078125
        k(  256) = (  -0.5000000  -0.5000000   0.0000000), wk =   0.0039062
        k(  257) = (  -0.5000000  -0.5000000   0.1250000), wk =   0.0078125
        k(  258) = (  -0.5000000  -0.5000000   0.2500000), wk =   0.0078125
        k(  259) = (  -0.5000000  -0.5000000   0.3750000), wk =   0.0078125
        k(  260) = (  -0.5000000  -0.5000000  -0.5000000), wk =   0.0039062

     Dense  grid:    78795 G-vectors     FFT dimensions: (  50,  50,  80)

     Smooth grid:    30793 G-vectors     FFT dimensions: (  36,  36,  60)

     Dynamical RAM for                 wfc:       0.10 MB

     Dynamical RAM for     wfc (w. buffer):       6.28 MB

     Dynamical RAM for           str. fact:       0.15 MB

     Dynamical RAM for           local pot:       0.00 MB

     Dynamical RAM for          nlocal pot:       0.23 MB

     Dynamical RAM for                qrad:       7.74 MB

     Dynamical RAM for          rho,v,vnew:       0.51 MB

     Dynamical RAM for               rhoin:       0.17 MB

     Dynamical RAM for            rho*nmix:       1.20 MB

     Dynamical RAM for           G-vectors:       0.30 MB

     Dynamical RAM for          h,s,v(r/c):       0.12 MB

     Dynamical RAM for          <psi|beta>:       0.02 MB

     Dynamical RAM for                 psi:       0.38 MB

     Dynamical RAM for                hpsi:       0.38 MB

     Dynamical RAM for                spsi:       0.38 MB

     Dynamical RAM for      wfcinit/wfcrot:       0.28 MB

     Dynamical RAM for           addusdens:       3.59 MB

     Dynamical RAM for          addusforce:       3.73 MB

     Dynamical RAM for         addusstress:       3.80 MB

     Estimated static dynamical RAM per process >      17.28 MB

     Estimated max dynamical RAM per process >      21.09 MB

     Estimated total dynamical RAM >       1.32 GB

     Check: negative core charge=   -0.000003

     Initial potential from superposition of free atoms

     starting charge   51.99974, renormalised to   52.00000
     Starting wfcs are   34 randomized atomic wfcs

     total cpu time spent up to now is        2.5 secs

     Self-consistent Calculation

     iteration #  1     ecut=    80.00 Ry     beta= 0.50
     Davidson diagonalization with overlap
     ethr =  1.00E-02,  avg # of iterations =  1.0

     total cpu time spent up to now is        3.4 secs

     total energy              =    -986.76631324 Ry
     Harris-Foulkes estimate   =    -987.28748686 Ry
     estimated scf accuracy    <       0.82015551 Ry

     iteration #  2     ecut=    80.00 Ry     beta= 0.50
     Davidson diagonalization with overlap
     ethr =  1.58E-03,  avg # of iterations =  3.0

     total cpu time spent up to now is        4.7 secs

     total energy              =    -987.00765402 Ry
     Harris-Foulkes estimate   =    -987.17598376 Ry
     estimated scf accuracy    <       0.38896529 Ry

     iteration #  3     ecut=    80.00 Ry     beta= 0.50
     Davidson diagonalization with overlap
     ethr =  7.48E-04,  avg # of iterations =  2.1

     total cpu time spent up to now is        5.8 secs

     total energy              =    -987.07762136 Ry
     Harris-Foulkes estimate   =    -987.07991077 Ry
     estimated scf accuracy    <       0.00684507 Ry

     iteration #  4     ecut=    80.00 Ry     beta= 0.50
     Davidson diagonalization with overlap
     ethr =  1.32E-05,  avg # of iterations =  2.0

     total cpu time spent up to now is        6.8 secs

     total energy              =    -987.07820404 Ry
     Harris-Foulkes estimate   =    -987.07866160 Ry
     estimated scf accuracy    <       0.00154961 Ry

     iteration #  5     ecut=    80.00 Ry     beta= 0.50
     Davidson diagonalization with overlap
     ethr =  2.98E-06,  avg # of iterations =  2.0

     total cpu time spent up to now is        7.9 secs

     total energy              =    -987.07836624 Ry
     Harris-Foulkes estimate   =    -987.07837623 Ry
     estimated scf accuracy    <       0.00001935 Ry

     iteration #  6     ecut=    80.00 Ry     beta= 0.50
     Davidson diagonalization with overlap
     ethr =  3.72E-08,  avg # of iterations =  2.0

     total cpu time spent up to now is        8.9 secs

     total energy              =    -987.07836931 Ry
     Harris-Foulkes estimate   =    -987.07836861 Ry
     estimated scf accuracy    <       0.00000388 Ry

     iteration #  7     ecut=    80.00 Ry     beta= 0.50
     Davidson diagonalization with overlap
     ethr =  7.47E-09,  avg # of iterations =  2.0

     total cpu time spent up to now is        9.9 secs

     End of self-consistent calculation

          k = 0.0000 0.0000 0.0000 (  3825 PWs)   bands (ev):

  -114.2883-114.2881 -68.6658 -68.6620 -68.6382 -68.6382 -68.6373 -68.6373
    -9.2357  -8.4178   2.9842   2.9842   3.1107   3.1107   3.2642   3.3273
     4.2490   4.2490   4.4868   4.4868   4.8357   8.0703   8.0703   8.6273
     8.8165   8.8165

     occupation numbers 
     1.0000   1.0000   1.0000   1.0000   1.0000   1.0000   1.0000   1.0000
     1.0000   1.0000   1.0000   1.0000   1.0000   1.0000   1.0000   1.0000
     1.0000   1.0000   1.0000   1.0000   1.0000   1.0000   1.0000   1.0000
     1.0000   1.0000

          k = 0.0000-0.0000 0.0806 (  3855 PWs)   bands (ev):

  -114.2883-114.2881 -68.6656 -68.6622 -68.6381 -68.6381 -68.6374 -68.6374
    -9.2061  -8.4505   2.9848   2.9848   3.1015   3.1015   3.1831   3.2885
     4.2621   4.2621   4.4821   4.4821   5.0265   8.0995   8.0995   8.2820
     8.7893   8.7893

     occupation numbers 
     1.0000   1.0000   1.0000   1.0000   1.0000   1.0000   1.0000   1.0000
     1.0000   1.0000   1.0000   1.0000   1.0000   1.0000   1.0000   1.0000
     1.0000   1.0000   1.0000   1.0000   1.0000   1.0000   1.0000   1.0000
     1.0000   1.0000

          k = 0.0000-0.0000 0.1612 (  3855 PWs)   bands (ev):

  -114.2883-114.2881 -68.6652 -68.6626 -68.6381 -68.6381 -68.6375 -68.6375
    -9.1213  -8.5430   2.9885   2.9885   3.0445   3.0775   3.0775   3.1882
     4.2977   4.2977   4.4666   4.4666   5.4787   7.7325   8.1827   8.1827
     8.7112   8.7112

     occupation numbers 
     1.0000   1.0000   1.0000   1.0000   1.0000   1.0000   1.0000   1.0000
     1.0000   1.0000   1.0000   1.0000   1.0000   1.0000   1.0000   1.0000
     1.0000   1.0000   1.0000   1.0000   1.0000   1.0000   1.0000   1.0000
     1.0000   1.0000

          k = 0.0000-0.0000 0.2418 (  3844 PWs)   bands (ev):

  -114.2882-114.2881 -68.6646 -68.6632 -68.6379 -68.6379 -68.6376 -68.6376
    -8.9925  -8.6796   2.9666   2.9989   2.9989   3.0470   3.0470   3.0686
     4.3462   4.3462   4.4379   4.4379   6.0341   7.1749   8.3063   8.3063
     8.5927   8.5927

     occupation numbers 
     1.0000   1.0000   1.0000   1.0000   1.0000   1.0000   1.0000   1.0000
     1.0000   1.0000   1.0000   1.0000   1.0000   1.0000   1.0000   1.0000
     1.0000   1.0000   1.0000   1.0000   1.0000   1.0000   1.0000   1.0000
     1.0000   1.0000

          k =-0.0000 0.0000-0.3223 (  3820 PWs)   bands (ev):

  -114.2882-114.2882 -68.6639 -68.6639 -68.6378 -68.6378 -68.6377 -68.6377
    -8.8378  -8.8375   2.9805   2.9806   3.0188   3.0188   3.0189   3.0189
     4.3960   4.3960   4.3961   4.3961   6.6096   6.6096   8.4505   8.4505
     8.4507   8.4507

     occupation numbers 
     1.0000   1.0000   1.0000   1.0000   1.0000   1.0000   1.0000   1.0000
     1.0000   1.0000   1.0000   1.0000   1.0000   1.0000   1.0000   1.0000
     1.0000   1.0000   1.0000   1.0000   1.0000   1.0000   1.0000   1.0000
     1.0000   1.0000

          k =-0.0000 0.1443-0.0000 (  3837 PWs)   bands (ev):

  -114.2883-114.2881 -68.6656 -68.6621 -68.6384 -68.6382 -68.6377 -68.6374
    -9.1476  -8.3823   2.8975   3.0471   3.1001   3.1862   3.3419   3.3767
     4.2138   4.2408   4.4958   4.5957   4.8199   7.5016   7.8415   7.9966
     8.5372   8.6792

     occupation numbers 
     1.0000   1.0000   1.0000   1.0000   1.0000   1.0000   1.0000   1.0000
     1.0000   1.0000   1.0000   1.0000   1.0000   1.0000   1.0000   1.0000
     1.0000   1.0000   1.0000   1.0000   1.0000   1.0000   1.0000   1.0000
     1.0000   1.0000

          k =-0.0000 0.1443 0.0806 (  3834 PWs)   bands (ev):

  -114.2883-114.2881 -68.6655 -68.6623 -68.6384 -68.6382 -68.6377 -68.6375
    -9.1196  -8.4125   2.8900   3.0482   3.0583   3.1765   3.2833   3.3429
     4.2324   4.2540   4.4898   4.5492   5.0547   7.5293   7.8373   7.8745
     8.5523   8.6487

     occupation numbers 
     1.0000   1.0000   1.0000   1.0000   1.0000   1.0000   1.0000   1.0000
     1.0000   1.0000   1.0000   1.0000   1.0000   1.0000   1.0000   1.0000
     1.0000   1.0000   1.0000   1.0000   1.0000   1.0000   1.0000   1.0000
     1.0000   1.0000

          k =-0.0000 0.1443 0.1612 (  3830 PWs)   bands (ev):

  -114.2883-114.2881 -68.6651 -68.6626 -68.6383 -68.6381 -68.6378 -68.6376
    -9.0394  -8.4980   2.8659   2.9454   3.0533   3.1510   3.2105   3.2675
     4.2804   4.2902   4.4708   4.5056   5.5296   7.4270   7.7039   7.9683
     8.4871   8.5612

     occupation numbers 
     1.0000   1.0000   1.0000   1.0000   1.0000   1.0000   1.0000   1.0000
     1.0000   1.0000   1.0000   1.0000   1.0000   1.0000   1.0000   1.0000
     1.0000   1.0000   1.0000   1.0000   1.0000   1.0000   1.0000   1.0000
     1.0000   1.0000

          k =-0.0000 0.1443 0.2418 (  3829 PWs)   bands (ev):

  -114.2882-114.2881 -68.6645 -68.6632 -68.6382 -68.6380 -68.6379 -68.6377
    -8.9179  -8.6248   2.8271   2.8512   3.0659   3.1185   3.1735   3.1986
     4.3400   4.3429   4.4379   4.4612   6.0679   7.0388   7.8625   8.1073
     8.3127   8.4283

     occupation numbers 
     1.0000   1.0000   1.0000   1.0000   1.0000   1.0000   1.0000   1.0000
     1.0000   1.0000   1.0000   1.0000   1.0000   1.0000   1.0000   1.0000
     1.0000   1.0000   1.0000   1.0000   1.0000   1.0000   1.0000   1.0000
     1.0000   1.0000

          k =-0.0000 0.1443-0.3223 (  3838 PWs)   bands (ev):

  -114.2882-114.2881 -68.6639 -68.6639 -68.6381 -68.6380 -68.6379 -68.6378
    -8.7726  -8.7724   2.8130   2.8130   3.0881   3.0881   3.1672   3.1672
     4.3923   4.3924   4.4061   4.4062   6.5821   6.5822   8.0842   8.0843
     8.2690   8.2692

     occupation numbers 
     1.0000   1.0000   1.0000   1.0000   1.0000   1.0000   1.0000   1.0000
     1.0000   1.0000   1.0000   1.0000   1.0000   1.0000   1.0000   1.0000
     1.0000   1.0000   1.0000   1.0000   1.0000   1.0000   1.0000   1.0000
     1.0000   1.0000

          k =-0.0000 0.1443-0.2418 (  3829 PWs)   bands (ev):

  -114.2882-114.2881 -68.6645 -68.6632 -68.6382 -68.6380 -68.6379 -68.6377
    -8.9179  -8.6248   2.8271   2.8512   3.0659   3.1185   3.1735   3.1986
     4.3400   4.3429   4.4379   4.4612   6.0679   7.0388   7.8625   8.1073
     8.3127   8.4283

     occupation numbers 
     1.0000   1.0000   1.0000   1.0000   1.0000   1.0000   1.0000   1.0000
     1.0000   1.0000   1.0000   1.0000   1.0000   1.0000   1.0000   1.0000
     1.0000   1.0000   1.0000   1.0000   1.0000   1.0000   1.0000   1.0000
     1.0000   1.0000

          k =-0.0000 0.1443-0.1612 (  3830 PWs)   bands (ev):

  -114.2883-114.2881 -68.6651 -68.6626 -68.6383 -68.6381 -68.6378 -68.6376
    -9.0394  -8.4980   2.8659   2.9454   3.0533   3.1510   3.2105   3.2675
     4.2804   4.2902   4.4708   4.5056   5.5296   7.4270   7.7038   7.9683
     8.4871   8.5612

     occupation numbers 
     1.0000   1.0000   1.0000   1.0000   1.0000   1.0000   1.0000   1.0000
     1.0000   1.0000   1.0000   1.0000   1.0000   1.0000   1.0000   1.0000
     1.0000   1.0000   1.0000   1.0000   1.0000   1.0000   1.0000   1.0000
     1.0000   1.0000

          k =-0.0000 0.1443-0.0806 (  3834 PWs)   bands (ev):

  -114.2883-114.2881 -68.6655 -68.6623 -68.6384 -68.6382 -68.6377 -68.6375
    -9.1196  -8.4125   2.8900   3.0482   3.0583   3.1765   3.2833   3.3429
     4.2324   4.2540   4.4898   4.5492   5.0547   7.5293   7.8373   7.8745
     8.5523   8.6487

     occupation numbers 
     1.0000   1.0000   1.0000   1.0000   1.0000   1.0000   1.0000   1.0000
     1.0000   1.0000   1.0000   1.0000   1.0000   1.0000   1.0000   1.0000
     1.0000   1.0000   1.0000   1.0000   1.0000   1.0000   1.0000   1.0000
     1.0000   1.0000

          k =-0.0000 0.2887-0.0000 (  3835 PWs)   bands (ev):

  -114.2882-114.2880 -68.6652 -68.6624 -68.6391 -68.6385 -68.6385 -68.6376
    -8.9192  -8.3049   2.7464   3.0700   3.1966   3.3901   3.4703   3.6080
     4.1370   4.2514   4.5126   4.7706   4.8936   6.3396   7.0261   7.2906
     8.2626   8.3290

     occupation numbers 
     1.0000   1.0000   1.0000   1.0000   1.0000   1.0000   1.0000   1.0000
     1.0000   1.0000   1.0000   1.0000   1.0000   1.0000   1.0000   1.0000
     1.0000   1.0000   1.0000   1.0000   1.0000   1.0000   1.0000   1.0000
     1.0000   1.0000

          k =-0.0000 0.2887 0.0806 (  3849 PWs)   bands (ev):

  -114.2882-114.2880 -68.6651 -68.6625 -68.6391 -68.6385 -68.6385 -68.6376
    -8.8958  -8.3281   2.7319   3.0134   3.2001   3.3784   3.4305   3.5379
     4.1743   4.2630   4.5041   4.6622   5.1801   6.3932   6.9627   7.3328
     8.2789   8.2916

     occupation numbers 
     1.0000   1.0000   1.0000   1.0000   1.0000   1.0000   1.0000   1.0000
     1.0000   1.0000   1.0000   1.0000   1.0000   1.0000   1.0000   1.0000
     1.0000   1.0000   1.0000   1.0000   1.0000   1.0000   1.0000   1.0000
     1.0000   1.0000

          k =-0.0000 0.2887 0.1612 (  3833 PWs)   bands (ev):

  -114.2882-114.2881 -68.6648 -68.6628 -68.6390 -68.6386 -68.6384 -68.6377
    -8.8291  -8.3941   2.6938   2.8703   3.2117   3.3473   3.3595   3.4353
     4.2559   4.2952   4.4792   4.5868   5.6071   6.5048   6.8995   7.4514
     8.1844   8.2377

     occupation numbers 
     1.0000   1.0000   1.0000   1.0000   1.0000   1.0000   1.0000   1.0000
     1.0000   1.0000   1.0000   1.0000   1.0000   1.0000   1.0000   1.0000
     1.0000   1.0000   1.0000   1.0000   1.0000   1.0000   1.0000   1.0000
     1.0000   1.0000

          k =-0.0000 0.2887 0.2418 (  3838 PWs)   bands (ev):

  -114.2882-114.2881 -68.6644 -68.6633 -68.6389 -68.6386 -68.6382 -68.6379
    -8.7292  -8.4935   2.6556   2.7310   3.2335   3.3063   3.3201   3.3612
     4.3411   4.3494   4.4404   4.5184   5.9635   6.4254   7.1729   7.6254
     8.0213   8.0215

     occupation numbers 
     1.0000   1.0000   1.0000   1.0000   1.0000   1.0000   1.0000   1.0000
     1.0000   1.0000   1.0000   1.0000   1.0000   1.0000   1.0000   1.0000
     1.0000   1.0000   1.0000   1.0000   1.0000   1.0000   1.0000   1.0000
     1.0000   1.0000

          k =-0.0000 0.2887-0.3223 (  3826 PWs)   bands (ev):

  -114.2882-114.2881 -68.6639 -68.6638 -68.6388 -68.6387 -68.6381 -68.6380
    -8.6113  -8.6111   2.6579   2.6579   3.2659   3.2660   3.3216   3.3216
     4.3922   4.3923   4.4394   4.4394   6.2232   6.2232   7.6290   7.6290
     7.8257   7.8258

     occupation numbers 
     1.0000   1.0000   1.0000   1.0000   1.0000   1.0000   1.0000   1.0000
     1.0000   1.0000   1.0000   1.0000   1.0000   1.0000   1.0000   1.0000
     1.0000   1.0000   1.0000   1.0000   1.0000   1.0000   1.0000   1.0000
     1.0000   1.0000

          k =-0.0000 0.2887-0.2418 (  3838 PWs)   bands (ev):

  -114.2882-114.2881 -68.6644 -68.6633 -68.6389 -68.6386 -68.6382 -68.6379
    -8.7292  -8.4935   2.6556   2.7310   3.2335   3.3063   3.3201   3.3612
     4.3411   4.3494   4.4404   4.5184   5.9634   6.4254   7.1729   7.6254
     8.0213   8.0215

     occupation numbers 
     1.0000   1.0000   1.0000   1.0000   1.0000   1.0000   1.0000   1.0000
     1.0000   1.0000   1.0000   1.0000   1.0000   1.0000   1.0000   1.0000
     1.0000   1.0000   1.0000   1.0000   1.0000   1.0000   1.0000   1.0000
     1.0000   1.0000

          k =-0.0000 0.2887-0.1612 (  3833 PWs)   bands (ev):

  -114.2882-114.2881 -68.6648 -68.6628 -68.6390 -68.6386 -68.6384 -68.6377
    -8.8291  -8.3941   2.6938   2.8703   3.2117   3.3473   3.3595   3.4353
     4.2559   4.2952   4.4792   4.5868   5.6071   6.5049   6.8995   7.4514
     8.1844   8.2377

     occupation numbers 
     1.0000   1.0000   1.0000   1.0000   1.0000   1.0000   1.0000   1.0000
     1.0000   1.0000   1.0000   1.0000   1.0000   1.0000   1.0000   1.0000
     1.0000   1.0000   1.0000   1.0000   1.0000   1.0000   1.0000   1.0000
     1.0000   1.0000

          k =-0.0000 0.2887-0.0806 (  3849 PWs)   bands (ev):

  -114.2882-114.2880 -68.6651 -68.6625 -68.6391 -68.6385 -68.6385 -68.6376
    -8.8958  -8.3281   2.7319   3.0134   3.2001   3.3784   3.4304   3.5379
     4.1743   4.2630   4.5041   4.6622   5.1801   6.3932   6.9627   7.3328
     8.2789   8.2916

     occupation numbers 
     1.0000   1.0000   1.0000   1.0000   1.0000   1.0000   1.0000   1.0000
     1.0000   1.0000   1.0000   1.0000   1.0000   1.0000   1.0000   1.0000
     1.0000   1.0000   1.0000   1.0000   1.0000   1.0000   1.0000   1.0000
     1.0000   1.0000

          k =-0.0000 0.4330-0.0000 (  3834 PWs)   bands (ev):

  -114.2882-114.2880 -68.6647 -68.6628 -68.6398 -68.6392 -68.6387 -68.6377
    -8.6527  -8.2548   2.7221   3.0154   3.3270   3.5949   3.6445   3.9328
     4.1352   4.3267   4.5280   4.7296   4.9843   5.5423   6.1843   6.7071
     7.8568   7.9509

     occupation numbers 
     1.0000   1.0000   1.0000   1.0000   1.0000   1.0000   1.0000   1.0000
     1.0000   1.0000   1.0000   1.0000   1.0000   1.0000   1.0000   1.0000
     1.0000   1.0000   1.0000   1.0000   1.0000   1.0000   1.0000   1.0000
     1.0000   1.0000

          k =-0.0000 0.4330 0.0806 (  3840 PWs)   bands (ev):

  -114.2882-114.2880 -68.6646 -68.6629 -68.6397 -68.6392 -68.6387 -68.6378
    -8.6362  -8.2683   2.6996   2.9587   3.3355   3.5541   3.6281   3.8303
     4.1961   4.3332   4.5175   4.6957   5.0740   5.6174   6.2463   6.7608
     7.9074   7.9095

     occupation numbers 
     1.0000   1.0000   1.0000   1.0000   1.0000   1.0000   1.0000   1.0000
     1.0000   1.0000   1.0000   1.0000   1.0000   1.0000   1.0000   1.0000
     1.0000   1.0000   1.0000   1.0000   1.0000   1.0000   1.0000   1.0000
     1.0000   1.0000

          k =-0.0000 0.4330 0.1612 (  3841 PWs)   bands (ev):

  -114.2882-114.2881 -68.6644 -68.6631 -68.6397 -68.6393 -68.6386 -68.6379
    -8.5900  -8.3078   2.6438   2.8169   3.3609   3.4925   3.5835   3.6777
     4.2977   4.3518   4.4901   4.6391   5.2077   5.6538   6.5736   6.9093
     7.7824   7.9783

     occupation numbers 
     1.0000   1.0000   1.0000   1.0000   1.0000   1.0000   1.0000   1.0000
     1.0000   1.0000   1.0000   1.0000   1.0000   1.0000   1.0000   1.0000
     1.0000   1.0000   1.0000   1.0000   1.0000   1.0000   1.0000   1.0000
     1.0000   1.0000

          k =-0.0000 0.4330 0.2418 (  3850 PWs)   bands (ev):

  -114.2881-114.2881 -68.6641 -68.6634 -68.6396 -68.6394 -68.6384 -68.6380
    -8.5220  -8.3690   2.5917   2.6720   3.4029   3.4702   3.5225   3.5635
     4.3803   4.3994   4.4538   4.5716   5.3334   5.5724   7.0982   7.1218
     7.5921   7.8985

     occupation numbers 
     1.0000   1.0000   1.0000   1.0000   1.0000   1.0000   1.0000   1.0000
     1.0000   1.0000   1.0000   1.0000   1.0000   1.0000   1.0000   1.0000
     1.0000   1.0000   1.0000   1.0000   1.0000   1.0000   1.0000   1.0000
     1.0000   1.0000

          k =-0.0000 0.4330-0.3223 (  3852 PWs)   bands (ev):

  -114.2881-114.2881 -68.6638 -68.6638 -68.6395 -68.6394 -68.6383 -68.6382
    -8.4442  -8.4440   2.5919   2.5919   3.4588   3.4588   3.4947   3.4948
     4.4156   4.4156   4.4916   4.4917   5.4564   5.4564   7.3614   7.3615
     7.5882   7.5883

     occupation numbers 
     1.0000   1.0000   1.0000   1.0000   1.0000   1.0000   1.0000   1.0000
     1.0000   1.0000   1.0000   1.0000   1.0000   1.0000   1.0000   1.0000
     1.0000   1.0000   1.0000   1.0000   1.0000   1.0000   1.0000   1.0000
     1.0000   1.0000

          k =-0.0000 0.4330-0.2418 (  3850 PWs)   bands (ev):

  -114.2881-114.2881 -68.6641 -68.6634 -68.6396 -68.6394 -68.6384 -68.6380
    -8.5220  -8.3690   2.5917   2.6720   3.4029   3.4702   3.5226   3.5636
     4.3803   4.3995   4.4538   4.5715   5.3334   5.5724   7.0982   7.1218
     7.5921   7.8985

     occupation numbers 
     1.0000   1.0000   1.0000   1.0000   1.0000   1.0000   1.0000   1.0000
     1.0000   1.0000   1.0000   1.0000   1.0000   1.0000   1.0000   1.0000
     1.0000   1.0000   1.0000   1.0000   1.0000   1.0000   1.0000   1.0000
     1.0000   1.0000

          k =-0.0000 0.4330-0.1612 (  3841 PWs)   bands (ev):

  -114.2882-114.2881 -68.6644 -68.6631 -68.6397 -68.6393 -68.6386 -68.6379
    -8.5900  -8.3078   2.6439   2.8169   3.3609   3.4924   3.5835   3.6777
     4.2977   4.3518   4.4901   4.6391   5.2077   5.6538   6.5736   6.9093
     7.7824   7.9783

     occupation numbers 
     1.0000   1.0000   1.0000   1.0000   1.0000   1.0000   1.0000   1.0000
     1.0000   1.0000   1.0000   1.0000   1.0000   1.0000   1.0000   1.0000
     1.0000   1.0000   1.0000   1.0000   1.0000   1.0000   1.0000   1.0000
     1.0000   1.0000

          k =-0.0000 0.4330-0.0806 (  3840 PWs)   bands (ev):

  -114.2882-114.2880 -68.6646 -68.6629 -68.6397 -68.6392 -68.6387 -68.6378
    -8.6362  -8.2683   2.6996   2.9587   3.3355   3.5541   3.6281   3.8303
     4.1961   4.3332   4.5175   4.6957   5.0740   5.6174   6.2462   6.7608
     7.9074   7.9095

     occupation numbers 
     1.0000   1.0000   1.0000   1.0000   1.0000   1.0000   1.0000   1.0000
     1.0000   1.0000   1.0000   1.0000   1.0000   1.0000   1.0000   1.0000
     1.0000   1.0000   1.0000   1.0000   1.0000   1.0000   1.0000   1.0000
     1.0000   1.0000

          k = 0.0000-0.5774 0.0000 (  3864 PWs)   bands (ev):

  -114.2881-114.2880 -68.6644 -68.6632 -68.6401 -68.6396 -68.6388 -68.6378
    -8.5133  -8.2594   2.8308   2.9157   3.3708   3.6667   3.7719   3.9788
     4.3323   4.3908   4.5351   4.5744   4.9819   5.1495   6.0467   6.4392
     7.6051   7.7835

     occupation numbers 
     1.0000   1.0000   1.0000   1.0000   1.0000   1.0000   1.0000   1.0000
     1.0000   1.0000   1.0000   1.0000   1.0000   1.0000   1.0000   1.0000
     1.0000   1.0000   1.0000   1.0000   1.0000   1.0000   1.0000   1.0000
     1.0000   1.0000

          k = 0.0000-0.5774 0.0806 (  3856 PWs)   bands (ev):

  -114.2881-114.2880 -68.6643 -68.6632 -68.6400 -68.6396 -68.6388 -68.6378
    -8.5018  -8.2670   2.7979   2.8649   3.3822   3.6299   3.7520   3.9232
     4.3698   4.3939   4.5236   4.5781   4.9886   5.1092   6.2427   6.4999
     7.6760   7.7375

     occupation numbers 
     1.0000   1.0000   1.0000   1.0000   1.0000   1.0000   1.0000   1.0000
     1.0000   1.0000   1.0000   1.0000   1.0000   1.0000   1.0000   1.0000
     1.0000   1.0000   1.0000   1.0000   1.0000   1.0000   1.0000   1.0000
     1.0000   1.0000

          k = 0.0000-0.5774 0.1612 (  3844 PWs)   bands (ev):

  -114.2881-114.2880 -68.6642 -68.6633 -68.6399 -68.6396 -68.6387 -68.6379
    -8.4698  -8.2897   2.7148   2.7436   3.4158   3.5817   3.6974   3.8042
     4.4030   4.4394   4.4962   4.5795   5.0010   5.0542   6.6656   6.6932
     7.6053   7.8072

     occupation numbers 
     1.0000   1.0000   1.0000   1.0000   1.0000   1.0000   1.0000   1.0000
     1.0000   1.0000   1.0000   1.0000   1.0000   1.0000   1.0000   1.0000
     1.0000   1.0000   1.0000   1.0000   1.0000   1.0000   1.0000   1.0000
     1.0000   1.0000

          k = 0.0000-0.5774 0.2418 (  3856 PWs)   bands (ev):

  -114.2881-114.2881 -68.6640 -68.6635 -68.6399 -68.6397 -68.6385 -68.6381
    -8.4239  -8.3262   2.6261   2.6300   3.4703   3.5751   3.6218   3.6910
     4.4180   4.4655   4.4999   4.5690   5.0099   5.0258   6.8985   7.2031
     7.4033   7.8271

     occupation numbers 
     1.0000   1.0000   1.0000   1.0000   1.0000   1.0000   1.0000   1.0000
     1.0000   1.0000   1.0000   1.0000   1.0000   1.0000   1.0000   1.0000
     1.0000   1.0000   1.0000   1.0000   1.0000   1.0000   1.0000   1.0000
     1.0000   1.0000

          k = 0.0000-0.5774-0.3223 (  3852 PWs)   bands (ev):

  -114.2881-114.2881 -68.6638 -68.6637 -68.6398 -68.6397 -68.6384 -68.6383
    -8.3732  -8.3729   2.5869   2.5870   3.5417   3.5417   3.6126   3.6127
     4.4388   4.4389   4.5429   4.5430   5.0155   5.0155   7.1569   7.1570
     7.6191   7.6192

     occupation numbers 
     1.0000   1.0000   1.0000   1.0000   1.0000   1.0000   1.0000   1.0000
     1.0000   1.0000   1.0000   1.0000   1.0000   1.0000   1.0000   1.0000
     1.0000   1.0000   1.0000   1.0000   1.0000   1.0000   1.0000   1.0000
     1.0000   1.0000

          k = 0.1250 0.0722-0.0000 (  3837 PWs)   bands (ev):

  -114.2883-114.2881 -68.6656 -68.6621 -68.6384 -68.6382 -68.6377 -68.6374
    -9.1476  -8.3823   2.8975   3.0471   3.1000   3.1862   3.3419   3.3767
     4.2138   4.2408   4.4958   4.5957   4.8199   7.5016   7.8415   7.9966
     8.5372   8.6792

     occupation numbers 
     1.0000   1.0000   1.0000   1.0000   1.0000   1.0000   1.0000   1.0000
     1.0000   1.0000   1.0000   1.0000   1.0000   1.0000   1.0000   1.0000
     1.0000   1.0000   1.0000   1.0000   1.0000   1.0000   1.0000   1.0000
     1.0000   1.0000

          k = 0.1250 0.0722 0.0806 (  3834 PWs)   bands (ev):

  -114.2883-114.2881 -68.6655 -68.6623 -68.6384 -68.6382 -68.6377 -68.6375
    -9.1196  -8.4125   2.8900   3.0482   3.0583   3.1765   3.2833   3.3429
     4.2324   4.2540   4.4898   4.5492   5.0547   7.5293   7.8373   7.8745
     8.5523   8.6487

     occupation numbers 
     1.0000   1.0000   1.0000   1.0000   1.0000   1.0000   1.0000   1.0000
     1.0000   1.0000   1.0000   1.0000   1.0000   1.0000   1.0000   1.0000
     1.0000   1.0000   1.0000   1.0000   1.0000   1.0000   1.0000   1.0000
     1.0000   1.0000

          k = 0.1250 0.0722 0.1612 (  3830 PWs)   bands (ev):

  -114.2883-114.2881 -68.6651 -68.6626 -68.6383 -68.6381 -68.6378 -68.6376
    -9.0394  -8.4980   2.8659   2.9454   3.0533   3.1510   3.2105   3.2675
     4.2804   4.2902   4.4708   4.5056   5.5296   7.4270   7.7038   7.9683
     8.4871   8.5612

     occupation numbers 
     1.0000   1.0000   1.0000   1.0000   1.0000   1.0000   1.0000   1.0000
     1.0000   1.0000   1.0000   1.0000   1.0000   1.0000   1.0000   1.0000
     1.0000   1.0000   1.0000   1.0000   1.0000   1.0000   1.0000   1.0000
     1.0000   1.0000

          k = 0.1250 0.0722 0.2418 (  3829 PWs)   bands (ev):

  -114.2882-114.2881 -68.6645 -68.6632 -68.6382 -68.6380 -68.6379 -68.6377
    -8.9179  -8.6248   2.8271   2.8512   3.0659   3.1185   3.1735   3.1986
     4.3400   4.3429   4.4379   4.4612   6.0679   7.0388   7.8625   8.1073
     8.3127   8.4283

     occupation numbers 
     1.0000   1.0000   1.0000   1.0000   1.0000   1.0000   1.0000   1.0000
     1.0000   1.0000   1.0000   1.0000   1.0000   1.0000   1.0000   1.0000
     1.0000   1.0000   1.0000   1.0000   1.0000   1.0000   1.0000   1.0000
     1.0000   1.0000

          k = 0.1250 0.0722-0.3223 (  3838 PWs)   bands (ev):

  -114.2882-114.2881 -68.6639 -68.6639 -68.6381 -68.6380 -68.6379 -68.6378
    -8.7726  -8.7724   2.8130   2.8130   3.0881   3.0881   3.1672   3.1672
     4.3923   4.3924   4.4061   4.4062   6.5821   6.5822   8.0842   8.0843
     8.2690   8.2692

     occupation numbers 
     1.0000   1.0000   1.0000   1.0000   1.0000   1.0000   1.0000   1.0000
     1.0000   1.0000   1.0000   1.0000   1.0000   1.0000   1.0000   1.0000
     1.0000   1.0000   1.0000   1.0000   1.0000   1.0000   1.0000   1.0000
     1.0000   1.0000

          k = 0.1250 0.0722-0.2418 (  3829 PWs)   bands (ev):

  -114.2882-114.2881 -68.6645 -68.6632 -68.6382 -68.6380 -68.6379 -68.6377
    -8.9179  -8.6248   2.8271   2.8512   3.0659   3.1185   3.1735   3.1986
     4.3400   4.3429   4.4379   4.4612   6.0679   7.0388   7.8625   8.1073
     8.3127   8.4283

     occupation numbers 
     1.0000   1.0000   1.0000   1.0000   1.0000   1.0000   1.0000   1.0000
     1.0000   1.0000   1.0000   1.0000   1.0000   1.0000   1.0000   1.0000
     1.0000   1.0000   1.0000   1.0000   1.0000   1.0000   1.0000   1.0000
     1.0000   1.0000

          k = 0.1250 0.0722-0.1612 (  3830 PWs)   bands (ev):

  -114.2883-114.2881 -68.6651 -68.6626 -68.6383 -68.6381 -68.6378 -68.6376
    -9.0394  -8.4980   2.8659   2.9454   3.0533   3.1510   3.2105   3.2675
     4.2804   4.2902   4.4708   4.5056   5.5296   7.4270   7.7039   7.9683
     8.4871   8.5612

     occupation numbers 
     1.0000   1.0000   1.0000   1.0000   1.0000   1.0000   1.0000   1.0000
     1.0000   1.0000   1.0000   1.0000   1.0000   1.0000   1.0000   1.0000
     1.0000   1.0000   1.0000   1.0000   1.0000   1.0000   1.0000   1.0000
     1.0000   1.0000

          k = 0.1250 0.0722-0.0806 (  3834 PWs)   bands (ev):

  -114.2883-114.2881 -68.6655 -68.6623 -68.6384 -68.6382 -68.6377 -68.6375
    -9.1196  -8.4125   2.8900   3.0482   3.0583   3.1765   3.2833   3.3429
     4.2324   4.2540   4.4898   4.5492   5.0547   7.5293   7.8373   7.8745
     8.5523   8.6487

     occupation numbers 
     1.0000   1.0000   1.0000   1.0000   1.0000   1.0000   1.0000   1.0000
     1.0000   1.0000   1.0000   1.0000   1.0000   1.0000   1.0000   1.0000
     1.0000   1.0000   1.0000   1.0000   1.0000   1.0000   1.0000   1.0000
     1.0000   1.0000

          k = 0.1250 0.2165-0.0000 (  3843 PWs)   bands (ev):

  -114.2882-114.2880 -68.6653 -68.6623 -68.6388 -68.6385 -68.6381 -68.6376
    -8.9891  -8.3259   2.8122   3.0774   3.1341   3.2896   3.4738   3.5165
     4.1686   4.2339   4.5066   4.7800   4.8150   6.8106   7.0590   7.5248
     8.3649   8.3654

     occupation numbers 
     1.0000   1.0000   1.0000   1.0000   1.0000   1.0000   1.0000   1.0000
     1.0000   1.0000   1.0000   1.0000   1.0000   1.0000   1.0000   1.0000
     1.0000   1.0000   1.0000   1.0000   1.0000   1.0000   1.0000   1.0000
     1.0000   1.0000

          k = 0.1250 0.2165 0.0806 (  3848 PWs)   bands (ev):

  -114.2882-114.2881 -68.6652 -68.6624 -68.6388 -68.6385 -68.6381 -68.6376
    -8.9642  -8.3513   2.7997   3.0182   3.1416   3.2749   3.4453   3.4477
     4.1965   4.2491   4.4987   4.6411   5.1393   6.8666   7.0251   7.5053
     8.3280   8.3784

     occupation numbers 
     1.0000   1.0000   1.0000   1.0000   1.0000   1.0000   1.0000   1.0000
     1.0000   1.0000   1.0000   1.0000   1.0000   1.0000   1.0000   1.0000
     1.0000   1.0000   1.0000   1.0000   1.0000   1.0000   1.0000   1.0000
     1.0000   1.0000

          k = 0.1250 0.2165 0.1612 (  3836 PWs)   bands (ev):

  -114.2882-114.2881 -68.6649 -68.6628 -68.6387 -68.6385 -68.6382 -68.6377
    -8.8930  -8.4235   2.7646   2.8811   3.1507   3.2383   3.3546   3.3853
     4.2647   4.2863   4.4754   4.5681   5.6065   6.8904   7.0431   7.5423
     8.2214   8.3267

     occupation numbers 
     1.0000   1.0000   1.0000   1.0000   1.0000   1.0000   1.0000   1.0000
     1.0000   1.0000   1.0000   1.0000   1.0000   1.0000   1.0000   1.0000
     1.0000   1.0000   1.0000   1.0000   1.0000   1.0000   1.0000   1.0000
     1.0000   1.0000

          k = 0.1250 0.2165 0.2418 (  3839 PWs)   bands (ev):

  -114.2882-114.2881 -68.6644 -68.6633 -68.6386 -68.6384 -68.6381 -68.6379
    -8.7860  -8.5317   2.7216   2.7577   3.1615   3.2003   3.3072   3.3311
     4.3357   4.3482   4.4381   4.5047   6.0509   6.6718   7.3498   7.6742
     8.0625   8.1144

     occupation numbers 
     1.0000   1.0000   1.0000   1.0000   1.0000   1.0000   1.0000   1.0000
     1.0000   1.0000   1.0000   1.0000   1.0000   1.0000   1.0000   1.0000
     1.0000   1.0000   1.0000   1.0000   1.0000   1.0000   1.0000   1.0000
     1.0000   1.0000

          k = 0.1250 0.2165-0.3223 (  3830 PWs)   bands (ev):

  -114.2882-114.2881 -68.6639 -68.6638 -68.6385 -68.6385 -68.6380 -68.6380
    -8.6593  -8.6590   2.7065   2.7066   3.1760   3.1761   3.3015   3.3015
     4.3880   4.3881   4.4325   4.4325   6.3994   6.3994   7.7220   7.7220
     7.8935   7.8936

     occupation numbers 
     1.0000   1.0000   1.0000   1.0000   1.0000   1.0000   1.0000   1.0000
     1.0000   1.0000   1.0000   1.0000   1.0000   1.0000   1.0000   1.0000
     1.0000   1.0000   1.0000   1.0000   1.0000   1.0000   1.0000   1.0000
     1.0000   1.0000

          k = 0.1250 0.2165-0.2418 (  3839 PWs)   bands (ev):

  -114.2882-114.2881 -68.6644 -68.6633 -68.6386 -68.6384 -68.6381 -68.6379
    -8.7860  -8.5317   2.7216   2.7577   3.1615   3.2003   3.3072   3.3311
     4.3357   4.3482   4.4381   4.5047   6.0509   6.6718   7.3498   7.6742
     8.0625   8.1144

     occupation numbers 
     1.0000   1.0000   1.0000   1.0000   1.0000   1.0000   1.0000   1.0000
     1.0000   1.0000   1.0000   1.0000   1.0000   1.0000   1.0000   1.0000
     1.0000   1.0000   1.0000   1.0000   1.0000   1.0000   1.0000   1.0000
     1.0000   1.0000

          k = 0.1250 0.2165-0.1612 (  3836 PWs)   bands (ev):

  -114.2882-114.2881 -68.6649 -68.6628 -68.6387 -68.6385 -68.6382 -68.6377
    -8.8930  -8.4235   2.7646   2.8811   3.1507   3.2383   3.3546   3.3853
     4.2647   4.2863   4.4754   4.5681   5.6065   6.8904   7.0431   7.5423
     8.2214   8.3267

     occupation numbers 
     1.0000   1.0000   1.0000   1.0000   1.0000   1.0000   1.0000   1.0000
     1.0000   1.0000   1.0000   1.0000   1.0000   1.0000   1.0000   1.0000
     1.0000   1.0000   1.0000   1.0000   1.0000   1.0000   1.0000   1.0000
     1.0000   1.0000

          k = 0.1250 0.2165-0.0806 (  3848 PWs)   bands (ev):

  -114.2882-114.2881 -68.6652 -68.6624 -68.6388 -68.6385 -68.6381 -68.6376
    -8.9642  -8.3513   2.7997   3.0182   3.1416   3.2749   3.4453   3.4477
     4.1965   4.2491   4.4987   4.6411   5.1393   6.8666   7.0251   7.5053
     8.3280   8.3784

     occupation numbers 
     1.0000   1.0000   1.0000   1.0000   1.0000   1.0000   1.0000   1.0000
     1.0000   1.0000   1.0000   1.0000   1.0000   1.0000   1.0000   1.0000
     1.0000   1.0000   1.0000   1.0000   1.0000   1.0000   1.0000   1.0000
     1.0000   1.0000

          k = 0.1250 0.3608-0.0000 (  3837 PWs)   bands (ev):

  -114.2882-114.2880 -68.6649 -68.6627 -68.6394 -68.6391 -68.6386 -68.6378
    -8.7389  -8.2637   2.7795   3.0787   3.2609   3.4451   3.6519   3.7763
     4.1256   4.2821   4.5227   4.7525   5.0738   5.8878   6.3864   6.6814
     7.8923   8.0217

     occupation numbers 
     1.0000   1.0000   1.0000   1.0000   1.0000   1.0000   1.0000   1.0000
     1.0000   1.0000   1.0000   1.0000   1.0000   1.0000   1.0000   1.0000
     1.0000   1.0000   1.0000   1.0000   1.0000   1.0000   1.0000   1.0000
     1.0000   1.0000

          k = 0.1250 0.3608 0.0806 (  3840 PWs)   bands (ev):

  -114.2882-114.2880 -68.6648 -68.6628 -68.6394 -68.6391 -68.6386 -68.6379
    -8.7199  -8.2806   2.7602   3.0230   3.2655   3.4245   3.6108   3.6887
     4.1728   4.2993   4.5132   4.7054   5.2390   5.9736   6.3910   6.7113
     7.8452   8.0643

     occupation numbers 
     1.0000   1.0000   1.0000   1.0000   1.0000   1.0000   1.0000   1.0000
     1.0000   1.0000   1.0000   1.0000   1.0000   1.0000   1.0000   1.0000
     1.0000   1.0000   1.0000   1.0000   1.0000   1.0000   1.0000   1.0000
     1.0000   1.0000

          k = 0.1250 0.3608 0.1612 (  3845 PWs)   bands (ev):

  -114.2882-114.2881 -68.6646 -68.6631 -68.6393 -68.6391 -68.6385 -68.6380
    -8.6662  -8.3294   2.7104   2.8795   3.2774   3.3824   3.5135   3.5881
     4.2690   4.3306   4.4881   4.6406   5.4768   6.0590   6.5798   6.8386
[...]

  -114.2881-114.2880 -68.6641 -68.6633 -68.6395 -68.6394 -68.6388 -68.6383
    -8.4789  -8.2857   2.9110   2.9826   3.3694   3.4153   3.6181   3.7414
     4.2927   4.3850   4.5261   4.7321   5.1216   5.5594   5.9133   6.7069
     7.1222   7.8315

     occupation numbers 
     1.0000   1.0000   1.0000   1.0000   1.0000   1.0000   1.0000   1.0000
     1.0000   1.0000   1.0000   1.0000   1.0000   1.0000   1.0000   1.0000
     1.0000   1.0000   1.0000   1.0000   1.0000   1.0000   1.0000   1.0000
     1.0000   1.0000

          k =-0.5000 0.0000 0.2418 (  3839 PWs)   bands (ev):

  -114.2881-114.2881 -68.6639 -68.6635 -68.6394 -68.6394 -68.6387 -68.6385
    -8.4302  -8.3254   2.8239   2.8615   3.3569   3.3847   3.5683   3.6492
     4.3594   4.3929   4.5507   4.6731   5.2505   5.4719   6.1569   6.7120
     7.3561   7.8805

     occupation numbers 
     1.0000   1.0000   1.0000   1.0000   1.0000   1.0000   1.0000   1.0000
     1.0000   1.0000   1.0000   1.0000   1.0000   1.0000   1.0000   1.0000
     1.0000   1.0000   1.0000   1.0000   1.0000   1.0000   1.0000   1.0000
     1.0000   1.0000

          k =-0.5000 0.0000-0.3223 (  3836 PWs)   bands (ev):

  -114.2881-114.2881 -68.6637 -68.6637 -68.6394 -68.6394 -68.6386 -68.6386
    -8.3759  -8.3759   2.7975   2.7975   3.3671   3.3671   3.5842   3.5842
     4.3874   4.3874   4.6074   4.6074   5.3661   5.3661   6.4453   6.4453
     7.7156   7.7157

     occupation numbers 
     1.0000   1.0000   1.0000   1.0000   1.0000   1.0000   1.0000   1.0000
     1.0000   1.0000   1.0000   1.0000   1.0000   1.0000   1.0000   1.0000
     1.0000   1.0000   1.0000   1.0000   1.0000   1.0000   1.0000   1.0000
     1.0000   1.0000

          k =-0.5000 0.0000-0.2418 (  3839 PWs)   bands (ev):

  -114.2881-114.2881 -68.6639 -68.6635 -68.6394 -68.6394 -68.6387 -68.6385
    -8.4302  -8.3254   2.8239   2.8615   3.3569   3.3847   3.5683   3.6492
     4.3594   4.3929   4.5507   4.6731   5.2505   5.4719   6.1569   6.7120
     7.3561   7.8805

     occupation numbers 
     1.0000   1.0000   1.0000   1.0000   1.0000   1.0000   1.0000   1.0000
     1.0000   1.0000   1.0000   1.0000   1.0000   1.0000   1.0000   1.0000
     1.0000   1.0000   1.0000   1.0000   1.0000   1.0000   1.0000   1.0000
     1.0000   1.0000

          k =-0.5000 0.0000-0.1612 (  3838 PWs)   bands (ev):

  -114.2881-114.2880 -68.6641 -68.6633 -68.6395 -68.6394 -68.6388 -68.6383
    -8.4789  -8.2857   2.9110   2.9826   3.3694   3.4153   3.6181   3.7414
     4.2927   4.3850   4.5261   4.7321   5.1216   5.5594   5.9133   6.7069
     7.1222   7.8315

     occupation numbers 
     1.0000   1.0000   1.0000   1.0000   1.0000   1.0000   1.0000   1.0000
     1.0000   1.0000   1.0000   1.0000   1.0000   1.0000   1.0000   1.0000
     1.0000   1.0000   1.0000   1.0000   1.0000   1.0000   1.0000   1.0000
     1.0000   1.0000

          k =-0.5000 0.0000-0.0806 (  3834 PWs)   bands (ev):

  -114.2881-114.2880 -68.6643 -68.6631 -68.6395 -68.6394 -68.6388 -68.6382
    -8.5128  -8.2609   2.9965   3.0682   3.4075   3.4599   3.7591   3.8313
     4.2035   4.3585   4.5308   4.7746   4.9845   5.5724   5.8026   6.3514
     7.2293   7.6848

     occupation numbers 
     1.0000   1.0000   1.0000   1.0000   1.0000   1.0000   1.0000   1.0000
     1.0000   1.0000   1.0000   1.0000   1.0000   1.0000   1.0000   1.0000
     1.0000   1.0000   1.0000   1.0000   1.0000   1.0000   1.0000   1.0000
     1.0000   1.0000

          k =-0.5000 0.1443-0.0000 (  3852 PWs)   bands (ev):

  -114.2881-114.2880 -68.6643 -68.6631 -68.6399 -68.6394 -68.6389 -68.6380
    -8.5191  -8.2558   2.8775   3.0847   3.3305   3.5764   3.8111   4.0048
     4.2121   4.3487   4.5384   4.6602   4.9244   5.4136   5.8898   6.3361
     7.4769   7.6595

     occupation numbers 
     1.0000   1.0000   1.0000   1.0000   1.0000   1.0000   1.0000   1.0000
     1.0000   1.0000   1.0000   1.0000   1.0000   1.0000   1.0000   1.0000
     1.0000   1.0000   1.0000   1.0000   1.0000   1.0000   1.0000   1.0000
     1.0000   1.0000

          k =-0.5000 0.1443 0.0806 (  3841 PWs)   bands (ev):

  -114.2881-114.2880 -68.6643 -68.6631 -68.6398 -68.6394 -68.6388 -68.6380
    -8.5073  -8.2638   2.8486   3.0268   3.3391   3.5540   3.7730   3.9104
     4.2596   4.3711   4.5304   4.6684   4.9420   5.3879   6.0059   6.4602
     7.4524   7.7061

     occupation numbers 
     1.0000   1.0000   1.0000   1.0000   1.0000   1.0000   1.0000   1.0000
     1.0000   1.0000   1.0000   1.0000   1.0000   1.0000   1.0000   1.0000
     1.0000   1.0000   1.0000   1.0000   1.0000   1.0000   1.0000   1.0000
     1.0000   1.0000

          k =-0.5000 0.1443 0.1612 (  3841 PWs)   bands (ev):

  -114.2881-114.2880 -68.6641 -68.6633 -68.6398 -68.6394 -68.6387 -68.6381
    -8.4743  -8.2875   2.7748   2.8850   3.3668   3.5229   3.6864   3.7671
     4.3368   4.3959   4.5204   4.6606   4.9988   5.3240   6.2487   6.8171
     7.3238   7.8293

     occupation numbers 
     1.0000   1.0000   1.0000   1.0000   1.0000   1.0000   1.0000   1.0000
     1.0000   1.0000   1.0000   1.0000   1.0000   1.0000   1.0000   1.0000
     1.0000   1.0000   1.0000   1.0000   1.0000   1.0000   1.0000   1.0000
     1.0000   1.0000

          k =-0.5000 0.1443 0.2418 (  3846 PWs)   bands (ev):

  -114.2881-114.2881 -68.6640 -68.6635 -68.6397 -68.6395 -68.6386 -68.6382
    -8.4270  -8.3257   2.6995   2.7465   3.4139   3.5103   3.6006   3.6597
     4.3883   4.4089   4.5352   4.6264   5.0782   5.2453   6.5242   7.0671
     7.3162   7.8643

     occupation numbers 
     1.0000   1.0000   1.0000   1.0000   1.0000   1.0000   1.0000   1.0000
     1.0000   1.0000   1.0000   1.0000   1.0000   1.0000   1.0000   1.0000
     1.0000   1.0000   1.0000   1.0000   1.0000   1.0000   1.0000   1.0000
     1.0000   1.0000

          k =-0.5000 0.1443-0.3223 (  3840 PWs)   bands (ev):

  -114.2881-114.2881 -68.6637 -68.6637 -68.6396 -68.6396 -68.6384 -68.6384
    -8.3744  -8.3744   2.6796   2.6796   3.4730   3.4730   3.5923   3.5923
     4.4074   4.4074   4.5789   4.5789   5.1625   5.1625   6.8103   6.8103
     7.6852   7.6852

     occupation numbers 
     1.0000   1.0000   1.0000   1.0000   1.0000   1.0000   1.0000   1.0000
     1.0000   1.0000   1.0000   1.0000   1.0000   1.0000   1.0000   1.0000
     1.0000   1.0000   1.0000   1.0000   1.0000   1.0000   1.0000   1.0000
     1.0000   1.0000

          k =-0.5000 0.1443-0.2418 (  3846 PWs)   bands (ev):

  -114.2881-114.2881 -68.6640 -68.6635 -68.6397 -68.6395 -68.6386 -68.6382
    -8.4270  -8.3257   2.6995   2.7465   3.4139   3.5103   3.6006   3.6597
     4.3883   4.4089   4.5352   4.6264   5.0782   5.2453   6.5242   7.0671
     7.3162   7.8643

     occupation numbers 
     1.0000   1.0000   1.0000   1.0000   1.0000   1.0000   1.0000   1.0000
     1.0000   1.0000   1.0000   1.0000   1.0000   1.0000   1.0000   1.0000
     1.0000   1.0000   1.0000   1.0000   1.0000   1.0000   1.0000   1.0000
     1.0000   1.0000

          k =-0.5000 0.1443-0.1612 (  3841 PWs)   bands (ev):

  -114.2881-114.2880 -68.6641 -68.6633 -68.6398 -68.6394 -68.6387 -68.6381
    -8.4743  -8.2875   2.7748   2.8850   3.3668   3.5229   3.6864   3.7671
     4.3368   4.3959   4.5204   4.6606   4.9988   5.3240   6.2487   6.8171
     7.3238   7.8293

     occupation numbers 
     1.0000   1.0000   1.0000   1.0000   1.0000   1.0000   1.0000   1.0000
     1.0000   1.0000   1.0000   1.0000   1.0000   1.0000   1.0000   1.0000
     1.0000   1.0000   1.0000   1.0000   1.0000   1.0000   1.0000   1.0000
     1.0000   1.0000

          k =-0.5000 0.1443-0.0806 (  3841 PWs)   bands (ev):

  -114.2881-114.2880 -68.6643 -68.6631 -68.6398 -68.6394 -68.6388 -68.6380
    -8.5073  -8.2638   2.8486   3.0268   3.3391   3.5540   3.7730   3.9104
     4.2596   4.3711   4.5304   4.6684   4.9420   5.3879   6.0059   6.4602
     7.4524   7.7061

     occupation numbers 
     1.0000   1.0000   1.0000   1.0000   1.0000   1.0000   1.0000   1.0000
     1.0000   1.0000   1.0000   1.0000   1.0000   1.0000   1.0000   1.0000
     1.0000   1.0000   1.0000   1.0000   1.0000   1.0000   1.0000   1.0000
     1.0000   1.0000

          k =-0.5000-0.8660 0.0000 (  3864 PWs)   bands (ev):

  -114.2881-114.2880 -68.6643 -68.6631 -68.6401 -68.6395 -68.6388 -68.6378
    -8.5131  -8.2592   2.8309   2.9158   3.3709   3.6668   3.7720   3.9789
     4.3324   4.3908   4.5352   4.5745   4.9820   5.1496   6.0469   6.4393
     7.6053   7.7837

     occupation numbers 
     1.0000   1.0000   1.0000   1.0000   1.0000   1.0000   1.0000   1.0000
     1.0000   1.0000   1.0000   1.0000   1.0000   1.0000   1.0000   1.0000
     1.0000   1.0000   1.0000   1.0000   1.0000   1.0000   1.0000   1.0000
     1.0000   1.0000

          k =-0.5000-0.8660 0.0806 (  3856 PWs)   bands (ev):

  -114.2881-114.2880 -68.6643 -68.6631 -68.6400 -68.6396 -68.6388 -68.6378
    -8.5016  -8.2668   2.7980   2.8650   3.3823   3.6300   3.7521   3.9232
     4.3699   4.3939   4.5236   4.5781   4.9887   5.1093   6.2428   6.5001
     7.6762   7.7377

     occupation numbers 
     1.0000   1.0000   1.0000   1.0000   1.0000   1.0000   1.0000   1.0000
     1.0000   1.0000   1.0000   1.0000   1.0000   1.0000   1.0000   1.0000
     1.0000   1.0000   1.0000   1.0000   1.0000   1.0000   1.0000   1.0000
     1.0000   1.0000

          k =-0.5000-0.8660 0.1612 (  3844 PWs)   bands (ev):

  -114.2881-114.2880 -68.6641 -68.6632 -68.6399 -68.6396 -68.6387 -68.6379
    -8.4696  -8.2895   2.7149   2.7437   3.4159   3.5818   3.6975   3.8043
     4.4030   4.4395   4.4962   4.5796   5.0011   5.0543   6.6658   6.6933
     7.6055   7.8074

     occupation numbers 
     1.0000   1.0000   1.0000   1.0000   1.0000   1.0000   1.0000   1.0000
     1.0000   1.0000   1.0000   1.0000   1.0000   1.0000   1.0000   1.0000
     1.0000   1.0000   1.0000   1.0000   1.0000   1.0000   1.0000   1.0000
     1.0000   1.0000

          k =-0.5000-0.8660 0.2418 (  3856 PWs)   bands (ev):

  -114.2881-114.2881 -68.6640 -68.6635 -68.6398 -68.6396 -68.6385 -68.6381
    -8.4237  -8.3260   2.6262   2.6301   3.4703   3.5752   3.6219   3.6911
     4.4180   4.4656   4.5000   4.5690   5.0100   5.0259   6.8987   7.2032
     7.4035   7.8273

     occupation numbers 
     1.0000   1.0000   1.0000   1.0000   1.0000   1.0000   1.0000   1.0000
     1.0000   1.0000   1.0000   1.0000   1.0000   1.0000   1.0000   1.0000
     1.0000   1.0000   1.0000   1.0000   1.0000   1.0000   1.0000   1.0000
     1.0000   1.0000

          k =-0.5000-0.8660-0.3223 (  3852 PWs)   bands (ev):

  -114.2881-114.2881 -68.6637 -68.6637 -68.6397 -68.6397 -68.6383 -68.6383
    -8.3729  -8.3728   2.5870   2.5870   3.5418   3.5418   3.6128   3.6128
     4.4389   4.4389   4.5430   4.5430   5.0156   5.0156   7.1571   7.1571
     7.6194   7.6194

     occupation numbers 
     1.0000   1.0000   1.0000   1.0000   1.0000   1.0000   1.0000   1.0000
     1.0000   1.0000   1.0000   1.0000   1.0000   1.0000   1.0000   1.0000
     1.0000   1.0000   1.0000   1.0000   1.0000   1.0000   1.0000   1.0000
     1.0000   1.0000

     highest occupied level (ev):     8.8167

!    total energy              =    -987.07836952 Ry
     Harris-Foulkes estimate   =    -987.07836951 Ry
     estimated scf accuracy    <          9.3E-09 Ry

     The total energy is the sum of the following terms:

     one-electron contribution =    -802.68667285 Ry
     hartree contribution      =     422.84302810 Ry
     xc contribution           =     -98.08158311 Ry
     ewald contribution        =    -509.15314166 Ry

     convergence has been achieved in   7 iterations

     Forces acting on atoms (cartesian axes, Ry/au):

     atom    1 type  2   force =    -0.00000028    0.00000037    0.00924685
     atom    2 type  2   force =    -0.00000023    0.00000084    0.00924707
     atom    3 type  1   force =     0.00000023   -0.00000065   -0.00925220
     atom    4 type  1   force =     0.00000027   -0.00000056   -0.00924172
     The non-local contrib.  to forces
     atom    1 type  2   force =     0.00000088   -0.00000349    0.00772005
     atom    2 type  2   force =     0.00000022    0.00000070    0.00772070
     atom    3 type  1   force =     0.00000099   -0.00000373    0.04537186
     atom    4 type  1   force =     0.00000173   -0.00000297    0.04537352
     The ionic contribution  to forces
     atom    1 type  2   force =    -0.00001337    0.00004721   -0.16777786
     atom    2 type  2   force =    -0.00000493   -0.00000270   -0.16777451
     atom    3 type  1   force =     0.00000541   -0.00001190    0.16777938
     atom    4 type  1   force =     0.00001289   -0.00003262    0.16777298
     The local contribution  to forces
     atom    1 type  2   force =     0.00001236   -0.00004344    0.16940571
     atom    2 type  2   force =     0.00000477    0.00000277    0.16940299
     atom    3 type  1   force =    -0.00000632    0.00001504   -0.22248503
     atom    4 type  1   force =    -0.00001443    0.00003516   -0.22249354
     The core correction contribution to forces
     atom    1 type  2   force =    -0.00000000    0.00000002   -0.00003131
     atom    2 type  2   force =     0.00000000   -0.00000001   -0.00003131
     atom    3 type  1   force =     0.00000000    0.00000000    0.00000000
     atom    4 type  1   force =     0.00000000    0.00000000    0.00000000
     The Hubbard contrib.    to forces
     atom    1 type  2   force =     0.00000000    0.00000000    0.00000000
     atom    2 type  2   force =     0.00000000    0.00000000    0.00000000
     atom    3 type  1   force =     0.00000000    0.00000000    0.00000000
     atom    4 type  1   force =     0.00000000    0.00000000    0.00000000
     The SCF correction term to forces
     atom    1 type  2   force =     0.00000000    0.00000000    0.00000000
     atom    2 type  2   force =     0.00000000    0.00000000    0.00000000
     atom    3 type  1   force =     0.00000000    0.00000000    0.00000000
     atom    4 type  1   force =     0.00000000    0.00000000    0.00000000

     Total force =     0.000000     Total SCF correction =     0.000000


     Computing stress (Cartesian axis) and pressure

          total   stress  (Ry/bohr**3)                   (kbar)     P=    0.54
   0.00000446  -0.00000000   0.00000000          0.66     -0.00      0.00
  -0.00000000   0.00000447  -0.00000000         -0.00      0.66     -0.00
   0.00000000  -0.00000000   0.00000213          0.00     -0.00      0.31

     kinetic stress (kbar)  33925.62     -0.00      0.00
                               -0.00  33925.62     -0.00
                                0.00     -0.00  34120.83

     local   stress (kbar)  -4249.87     -0.04      0.03
                               -0.04  -4250.02     -0.08
                                0.03     -0.08  -5125.25

     nonloc. stress (kbar)  -1666.78      0.00     -0.00
                                0.00  -1666.78      0.00
                               -0.00      0.00  -1747.36

     hartree stress (kbar)  64872.89      0.01     -0.01
                                0.01  64872.95      0.03
                               -0.01      0.03  65898.57

     exc-cor stress (kbar) -14192.38      0.00     -0.00
                                0.00 -14192.38      0.00
                               -0.00      0.00 -14195.52

     corecor stress (kbar)   -249.69      0.00     -0.00
                                0.00   -249.69      0.00
                               -0.00      0.00   -250.06

     ewald   stress (kbar) -78439.13      0.02     -0.02
                                0.02 -78439.04      0.05
                               -0.02      0.05 -78700.91

     hubbard stress (kbar)      0.00      0.00      0.00
                                0.00      0.00      0.00
                                0.00      0.00      0.00

     london  stress (kbar)      0.00      0.00      0.00
                                0.00      0.00      0.00
                                0.00      0.00      0.00

     DFT-D3  stress (kbar)      0.00      0.00      0.00
                                0.00      0.00      0.00
                                0.00      0.00      0.00

     XDM     stress (kbar)      0.00      0.00      0.00
                                0.00      0.00      0.00
                                0.00      0.00      0.00

     dft-nl  stress (kbar)      0.00      0.00      0.00
                                0.00      0.00      0.00
                                0.00      0.00      0.00

     TS-vdW  stress (kbar)      0.00      0.00      0.00
                                0.00      0.00      0.00
                                0.00      0.00      0.00



     Writing output data file ZnO.save/
 
     init_run     :      1.08s CPU      1.93s WALL (       2 calls)
     electrons    :     14.84s CPU     16.06s WALL (       2 calls)
     forces       :      0.30s CPU      0.40s WALL (       2 calls)
     stress       :      0.54s CPU      0.62s WALL (       2 calls)

     Called by init_run:
     wfcinit      :      0.72s CPU      1.00s WALL (       2 calls)
     wfcinit:atom :      0.01s CPU      0.01s WALL (     130 calls)
     wfcinit:wfcr :      0.68s CPU      0.95s WALL (     130 calls)
     potinit      :      0.11s CPU      0.19s WALL (       2 calls)
     hinit0       :      0.20s CPU      0.56s WALL (       2 calls)

     Called by electrons:
     c_bands      :     12.74s CPU     13.64s WALL (      14 calls)
     sum_band     :      1.60s CPU      1.73s WALL (      14 calls)
     v_of_rho     :      0.44s CPU      0.50s WALL (      16 calls)
     v_h          :      0.01s CPU      0.01s WALL (      16 calls)
     v_xc         :      0.53s CPU      0.60s WALL (      20 calls)
     newd         :      0.07s CPU      0.09s WALL (      16 calls)
     mix_rho      :      0.01s CPU      0.07s WALL (      14 calls)

     Called by c_bands:
     init_us_2    :      0.15s CPU      0.16s WALL (    2210 calls)
     cegterg      :     12.06s CPU     12.61s WALL (     910 calls)

     Called by sum_band:
     sum_band:bec :      0.01s CPU      0.02s WALL (     910 calls)
     addusdens    :      0.06s CPU      0.07s WALL (      14 calls)

     Called by *egterg:
     h_psi        :      7.23s CPU      7.50s WALL (    3149 calls)
     s_psi        :      0.26s CPU      0.27s WALL (    3149 calls)
     g_psi        :      0.02s CPU      0.02s WALL (    2109 calls)
     cdiaghg      :      3.31s CPU      3.69s WALL (    3019 calls)
     cegterg:over :      0.80s CPU      0.91s WALL (    2109 calls)
     cegterg:upda :      0.46s CPU      0.47s WALL (    2109 calls)
     cegterg:last :      0.33s CPU      0.34s WALL (     975 calls)
     cdiaghg:chol :      0.16s CPU      0.26s WALL (    3019 calls)
     cdiaghg:inve :      0.05s CPU      0.07s WALL (    3019 calls)
     cdiaghg:para :      0.34s CPU      0.37s WALL (    6038 calls)

     Called by h_psi:
     h_psi:pot    :      7.20s CPU      7.48s WALL (    3149 calls)
     h_psi:calbec :      0.43s CPU      0.45s WALL (    3149 calls)
     vloc_psi     :      6.50s CPU      6.74s WALL (    3149 calls)
     add_vuspsi   :      0.27s CPU      0.28s WALL (    3149 calls)

     General routines
     calbec       :      0.66s CPU      0.69s WALL (    4709 calls)
     fft          :      0.08s CPU      0.17s WALL (     254 calls)
     ffts         :      0.00s CPU      0.01s WALL (      30 calls)
     fftw         :      7.33s CPU      7.61s WALL (  158666 calls)
     interpolate  :      0.01s CPU      0.01s WALL (      16 calls)
 
     Parallel routines
     fft_scatt_xy :      1.03s CPU      1.07s WALL (  158950 calls)
     fft_scatt_yz :      3.82s CPU      3.97s WALL (  158950 calls)
 
     PWSCF        :     17.11s CPU     21.65s WALL

 
   This run was terminated on:  14:59:45  16Jun2022            

=------------------------------------------------------------------------------=
   JOB DONE.
=------------------------------------------------------------------------------=
