
     Program PWSCF v.6.4.1 starts on 17Sep2021 at 17:54:36 

     This program is part of the open-source Quantum ESPRESSO suite
     for quantum simulation of materials; please cite
         "P. Giannozzi et al., J. Phys.:Condens. Matter 21 395502 (2009);
         "P. Giannozzi et al., J. Phys.:Condens. Matter 29 465901 (2017);
          URL http://www.quantum-espresso.org", 
     in publications or presentations arising from this work. More details at
     http://www.quantum-espresso.org/quote

     Parallel version (MPI), running on    64 processors

     MPI processes distributed on     1 nodes
     R & G space division:  proc/nbgrp/npool/nimage =      64
     Waiting for input...
     Reading input from standard input

     Current dimensions of program PWSCF are:
     Max number of different atomic species (ntypx) = 10
     Max number of k-points (npk) =  40000
     Max angular momentum in pseudopotentials (lmaxx) =  3

     Atomic positions and unit cell read from directory:
     ./temp/ZnO.save/
 

     Subspace diagonalization in iterative solution of the eigenvalue problem:
     one sub-group per band group will be used
     scalapack distributed-memory algorithm (size of sub-group:  5*  5 procs)

 
     Parallelization info
     --------------------
     sticks:   dense  smooth     PW     G-vecs:    dense   smooth      PW
     Min         182      87     24                16975     5646     840
     Max         183      88     25                16978     5652     845
     Sum       11661    5599   1573              1086517   361485   53863
 


     bravais-lattice index     =            0
     lattice parameter (alat)  =      18.3818  a.u.
     unit-cell volume          =    5754.8625 (a.u.)^3
     number of atoms/cell      =           72
     number of atomic types    =            3
     number of electrons       =       856.00
     number of Kohn-Sham states=          428
     kinetic-energy cutoff     =      60.0000  Ry
     charge density cutoff     =     500.0000  Ry
     Exchange-correlation      = SLA  PW   PSX  PSC ( 1  4 10  8 0 0)
     Using LIBXC version       =    4   3   4

     celldm(1)=  18.381787  celldm(2)=   0.000000  celldm(3)=   0.000000
     celldm(4)=   0.000000  celldm(5)=   0.000000  celldm(6)=   0.000000

     crystal axes: (cart. coord. in units of alat)
               a(1) = (   1.000000   0.000460  -0.000016 )  
               a(2) = (  -0.499600   0.866214   0.000205 )  
               a(3) = (  -0.000017   0.000244   1.069378 )  

     reciprocal axes: (cart. coord. in units 2 pi/alat)
               b(1) = (  0.999735  0.576610 -0.000115 )  
               b(2) = ( -0.000531  1.154143 -0.000263 )  
               b(3) = (  0.000015 -0.000213  0.935123 )  


     PseudoPot. # 1 for Zn read from file:
     ./GBRV_PBEsol/zn_pbesol_v1.uspp.F.UPF
     MD5 check sum: 7d8615e52efe7c1e2b1899de8658bae2
     Pseudo is Ultrasoft, Zval = 20.0
     Generated by new atomic code, or converted to UPF format
     Using radial grid of  943 points,  6 beta functions with: 
                l(1) =   0
                l(2) =   0
                l(3) =   1
                l(4) =   1
                l(5) =   2
                l(6) =   2
     Q(r) pseudized with  8 coefficients,  rinner =    1.100   1.100   1.100
                                                       1.100   1.100

     PseudoPot. # 2 for O  read from file:
     ./GBRV_PBEsol/o_pbesol_v1.2.uspp.F.UPF
     MD5 check sum: 501638753501ef6325af9037351f7734
     Pseudo is Ultrasoft + core correction, Zval =  6.0
     Generated by new atomic code, or converted to UPF format
     Using radial grid of  737 points,  5 beta functions with: 
                l(1) =   0
                l(2) =   0
                l(3) =   1
                l(4) =   1
                l(5) =   2
     Q(r) pseudized with  8 coefficients,  rinner =    0.900   0.900   0.900
                                                       0.900   0.900

     PseudoPot. # 3 for Mg read from file:
     ./GBRV_PBEsol/mg_pbesol_v1.4.uspp.F.UPF
     MD5 check sum: 4059f37963cf5867752dbf5ab2400678
     Pseudo is Ultrasoft, Zval = 10.0
     Generated by new atomic code, or converted to UPF format
     Using radial grid of  821 points,  7 beta functions with: 
                l(1) =   0
                l(2) =   0
                l(3) =   0
                l(4) =   1
                l(5) =   1
                l(6) =   2
                l(7) =   2
     Q(r) pseudized with  8 coefficients,  rinner =    1.200   1.200   1.200
                                                       1.200   1.200

     atomic species   valence    mass     pseudopotential
        Zn            20.00    65.38000     Zn( 1.00)
        O              6.00    15.99900     O ( 1.00)
        Mg            10.00    24.30500     Mg( 1.00)

     No symmetry found


                                    s                        frac. trans.

      isym =  1     identity                                     

 cryst.   s( 1) = (     1          0          0      )
                  (     0          1          0      )
                  (     0          0          1      )

 cart.    s( 1) = (  1.0000000 -0.0000000  0.0000000 )
                  (  0.0000000  1.0000000 -0.0000000 )
                  (  0.0000000  0.0000000  1.0000000 )


   Cartesian axes

     site n.     atom                  positions (alat units)
         1           Zn  tau(   1) = (   0.1657738   0.0971912   0.2074407  )
         2           Zn  tau(   2) = (   0.1687776   0.0951532   0.7420855  )
         3           Zn  tau(   3) = (   0.0007274   0.3850923   0.2063966  )
         4           Zn  tau(   4) = (   0.0005067   0.3862824   0.7409076  )
         5           Zn  tau(   5) = (  -0.1658433   0.6745073   0.2084258  )
         6           Zn  tau(   6) = (  -0.1657634   0.6740794   0.7431159  )
         7           Zn  tau(   7) = (   0.4988531   0.0964843   0.2076729  )
         8           Zn  tau(   8) = (   0.5005374   0.0959119   0.7421503  )
         9           Zn  tau(   9) = (   0.3326760   0.3864131   0.2050874  )
        10           Mg  tau(  10) = (   0.3350829   0.3834480   0.7425070  )
        11           Mg  tau(  11) = (   0.1669447   0.6758380   0.2074677  )
        12           Zn  tau(  12) = (   0.1672048   0.6737873   0.7403561  )
        13           Zn  tau(  13) = (   0.8350167   0.0969480   0.2066967  )
        14           Zn  tau(  14) = (   0.8312758   0.0962229   0.7417254  )
        15           Mg  tau(  15) = (   0.6667289   0.3872360   0.2091329  )
        16           Zn  tau(  16) = (   0.6666194   0.3851058   0.7401425  )
        17           Zn  tau(  17) = (   0.4997930   0.6750553   0.2066920  )
        18           Mg  tau(  18) = (   0.5015901   0.6744504   0.7436030  )
        19           Mg  tau(  19) = (  -0.0009684   0.1920567   0.4764620  )
        20           Zn  tau(  20) = (  -0.0005535   0.1922759   1.0080725  )
        21           Zn  tau(  21) = (  -0.1648299   0.4814853   0.4751484  )
        22           Zn  tau(  22) = (  -0.1681909   0.4804934   1.0099166  )
        23           Zn  tau(  23) = (  -0.3330025   0.7698424   0.4747745  )
        24           Zn  tau(  24) = (  -0.3320125   0.7705991   1.0099577  )
        25           Zn  tau(  25) = (   0.3333698   0.1935589   0.4746635  )
        26           Zn  tau(  26) = (   0.3336690   0.1914789   1.0101068  )
        27           Mg  tau(  27) = (   0.1669745   0.4810254   0.4737173  )
        28           Mg  tau(  28) = (   0.1655222   0.4825180   1.0078838  )
        29           Zn  tau(  29) = (  -0.0002677   0.7711740   0.4751031  )
        30           Zn  tau(  30) = (   0.0007841   0.7703637   1.0100266  )
        31           Zn  tau(  31) = (   0.6663082   0.1914396   0.4729707  )
        32           Mg  tau(  32) = (   0.6665379   0.1934262   1.0097151  )
        33           Zn  tau(  33) = (   0.4982855   0.4822648   0.4738832  )
        34           Zn  tau(  34) = (   0.5022218   0.4805787   1.0083892  )
        35           Zn  tau(  35) = (   0.3342602   0.7708987   0.4746404  )
        36           Zn  tau(  36) = (   0.3322032   0.7708385   1.0090563  )
        37           O   tau(  37) = (   0.1661648   0.0965015   0.0039872  )
        38           O   tau(  38) = (   0.1666025   0.0964049   0.5380405  )
        39           O   tau(  39) = (   0.0000861   0.3847302   0.0025538  )
        40           O   tau(  40) = (   0.0012839   0.3845690   0.5374610  )
        41           O   tau(  41) = (  -0.1659131   0.6732050   0.0042379  )
        42           O   tau(  42) = (  -0.1663101   0.6738520   0.5392409  )
        43           O   tau(  43) = (   0.5005858   0.0962324   0.0037787  )
        44           O   tau(  44) = (   0.4996896   0.0970268   0.5385483  )
        45           O   tau(  45) = (   0.3328340   0.3855567   0.0008127  )
        46           O   tau(  46) = (   0.3327255   0.3855860   0.5395985  )
        47           O   tau(  47) = (   0.1668469   0.6732874   0.0048617  )
        48           O   tau(  48) = (   0.1670076   0.6736069   0.5361440  )
        49           O   tau(  49) = (   0.8330850   0.0967383   0.0029271  )
        50           O   tau(  50) = (   0.8326810   0.0966272   0.5382688  )
        51           O   tau(  51) = (   0.6667717   0.3842891   0.0061695  )
        52           O   tau(  52) = (   0.6666172   0.3853173   0.5357926  )
        53           O   tau(  53) = (   0.5002177   0.6738796   0.0022306  )
        54           O   tau(  54) = (   0.5004257   0.6743403   0.5402351  )
        55           O   tau(  55) = (  -0.0000109   0.1933869   0.2731458  )
        56           O   tau(  56) = (   0.0001258   0.1921769   0.8036088  )
        57           O   tau(  57) = (  -0.1659958   0.4817882   0.2712108  )
        58           O   tau(  58) = (  -0.1667631   0.4808863   0.8057424  )
        59           O   tau(  59) = (  -0.3332826   0.7704192   0.2709688  )
        60           O   tau(  60) = (  -0.3323521   0.7698188   0.8065283  )
        61           O   tau(  61) = (   0.3327647   0.1940454   0.2706880  )
        62           O   tau(  62) = (   0.3340798   0.1919784   0.8062358  )
        63           O   tau(  63) = (   0.1667377   0.4831911   0.2702294  )
        64           O   tau(  64) = (   0.1683751   0.4809456   0.8046770  )
        65           O   tau(  65) = (   0.0003462   0.7708540   0.2715509  )
        66           O   tau(  66) = (   0.0012659   0.7697145   0.8060311  )
        67           O   tau(  67) = (   0.6667551   0.1935252   0.2689462  )
        68           O   tau(  68) = (   0.6662682   0.1934728   0.8068067  )
        69           O   tau(  69) = (   0.4992903   0.4824680   0.2703486  )
        70           O   tau(  70) = (   0.5004395   0.4817211   0.8045817  )
        71           O   tau(  71) = (   0.3337108   0.7710523   0.2708564  )
        72           O   tau(  72) = (   0.3338455   0.7698482   0.8052431  )

   Crystallographic axes

     site n.     atom                  positions (cryst. coord.)
         1           Zn  tau(   1) = (  0.2217473  0.1120300  0.1939643  )
         2           Zn  tau(   2) = (  0.2235135  0.1095357  0.6939232  )
         3           Zn  tau(   3) = (  0.2227514  0.4443969  0.1929243  )
         4           Zn  tau(   4) = (  0.2231553  0.4456300  0.6927574  )
         5           Zn  tau(   5) = (  0.2231042  0.7785111  0.1947578  )
         6           Zn  tau(   6) = (  0.2228756  0.7778766  0.6947588  )
         7           Zn  tau(   7) = (  0.5543306  0.1110372  0.1941864  )
         8           Zn  tau(   8) = (  0.5556228  0.1102351  0.6939886  )
         9           Zn  tau(   9) = (  0.5553737  0.4457455  0.1917046  )
        10           Mg  tau(  10) = (  0.5560083  0.4421807  0.6942586  )
        11           Mg  tau(  11) = (  0.5565714  0.7798706  0.1938665  )
        12           Zn  tau(  12) = (  0.5555875  0.7773635  0.6921830  )
        13           Zn  tau(  13) = (  0.8906726  0.1113942  0.1932784  )
        14           Zn  tau(  14) = (  0.8864528  0.1104186  0.6935960  )
        15           Mg  tau(  15) = (  0.8898121  0.4465168  0.1954924  )
        16           Zn  tau(  16) = (  0.8884130  0.4439186  0.6920520  )
        17           Zn  tau(  17) = (  0.8888803  0.7787907  0.1931462  )
        18           Mg  tau(  18) = (  0.8902661  0.7779504  0.6952240  )
        19           Mg  tau(  19) = (  0.1097187  0.2215361  0.4455096  )
        20           Zn  tau(  20) = (  0.1101985  0.2216491  0.9426306  )
        21           Zn  tau(  21) = (  0.1127881  0.5556654  0.4442172  )
        22           Zn  tau(  22) = (  0.1087944  0.5543818  0.9442913  )
        23           Zn  tau(  23) = (  0.1109297  0.8885602  0.4438039  )
        24           Zn  tau(  24) = (  0.1122940  0.8892922  0.9442656  )
        25           Zn  tau(  25) = (  0.4448347  0.2230929  0.4438323  )
        26           Zn  tau(  26) = (  0.4438725  0.2205512  0.9445380  )
        27           Mg  tau(  27) = (  0.4442395  0.5549588  0.4428840  )
        28           Mg  tau(  28) = (  0.4435866  0.5565418  0.9423948  )
        29           Zn  tau(  29) = (  0.4443441  0.8899202  0.4441157  )
        30           Zn  tau(  30) = (  0.4448667  0.8888438  0.9443351  )
        31           Zn  tau(  31) = (  0.7764629  0.2204705  0.4422547  )
        32           Mg  tau(  32) = (  0.7777761  0.2226221  0.9441761  )
        33           Zn  tau(  33) = (  0.7761774  0.5562134  0.4430437  )
        34           Zn  tau(  34) = (  0.7790786  0.5541247  0.9428728  )
        35           Zn  tau(  35) = (  0.7786246  0.8894251  0.4436880  )
        36           Zn  tau(  36) = (  0.7764718  0.8892161  0.9434325  )
        37           O   tau(  37) = (  0.2217640  0.1112872  0.0037104  )
        38           O   tau(  38) = (  0.2220843  0.1110351  0.5031159  )
        39           O   tau(  39) = (  0.2219250  0.4440330  0.0023063  )
        40           O   tau(  40) = (  0.2229678  0.4437056  0.5025103  )
        41           O   tau(  41) = (  0.2223070  0.7770618  0.0038174  )
        42           O   tau(  42) = (  0.2222215  0.7776681  0.5041107  )
        43           O   tau(  43) = (  0.5559412  0.1107992  0.0035205  )
        44           O   tau(  44) = (  0.5554416  0.1115759  0.5035954  )
        45           O   tau(  45) = (  0.5550615  0.4448107  0.0006829  )
        46           O   tau(  46) = (  0.5549077  0.4447029  0.5045137  )
        47           O   tau(  47) = (  0.5550263  0.7769801  0.0044056  )
        48           O   tau(  48) = (  0.5553098  0.7772090  0.5012197  )
        49           O   tau(  49) = (  0.8886441  0.1112068  0.0027288  )
        50           O   tau(  50) = (  0.8881144  0.1109380  0.5033391  )
        51           O   tau(  51) = (  0.8881791  0.4431690  0.0056973  )
        52           O   tau(  52) = (  0.8885564  0.4442165  0.5009597  )
        53           O   tau(  53) = (  0.8886505  0.7774873  0.0019499  )
        54           O   tau(  54) = (  0.8890620  0.7778774  0.5050501  )
        55           O   tau(  55) = (  0.1114663  0.2231243  0.2553838  )
        56           O   tau(  56) = (  0.1108441  0.2215882  0.7514320  )
        57           O   tau(  57) = (  0.1118208  0.5560693  0.2535105  )
        58           O   tau(  58) = (  0.1104719  0.5548882  0.7533634  )
        59           O   tau(  59) = (  0.1110058  0.8892796  0.2532204  )
        60           O   tau(  60) = (  0.1115281  0.8884454  0.7540344  )
        61           O   tau(  61) = (  0.4445337  0.2237083  0.2530901  )
        62           O   tau(  62) = (  0.4445948  0.2211811  0.7538935  )
        63           O   tau(  63) = (  0.4452751  0.5575121  0.2525974  )
        64           O   tau(  64) = (  0.4455556  0.5547790  0.7523719  )
        65           O   tau(  65) = (  0.4447968  0.8896042  0.2537695  )
        66           O   tau(  66) = (  0.4449975  0.8881480  0.7535744  )
        67           O   tau(  67) = (  0.7781359  0.2229311  0.2514663  )
        68           O   tau(  68) = (  0.7775568  0.2227294  0.7544319  )
        69           O   tau(  69) = (  0.7773225  0.5565009  0.2527138  )
        70           O   tau(  70) = (  0.7779791  0.5554977  0.7522876  )
        71           O   tau(  71) = (  0.7781875  0.8896563  0.2531250  )
        72           O   tau(  72) = (  0.7775661  0.8881259  0.7528423  )

     number of k points=    80
                       cart. coord. in units 2pi/alat
        k(    1) = (   0.0000000   0.0000000   0.0000000), wk =   0.0156250
        k(    2) = (   0.0000021  -0.0000304   0.1335890), wk =   0.0156250
        k(    3) = (   0.0000042  -0.0000607   0.2671779), wk =   0.0156250
        k(    4) = (   0.0000063  -0.0000911   0.4007669), wk =   0.0156250
        k(    5) = (   0.0000084  -0.0001215   0.5343558), wk =   0.0156250
        k(    6) = (   0.0000105  -0.0001519   0.6679448), wk =   0.0156250
        k(    7) = (   0.0000126  -0.0001822   0.8015337), wk =   0.0156250
        k(    8) = (   0.0000147  -0.0002126   0.9351227), wk =   0.0156250
        k(    9) = (  -0.0001327   0.2885358  -0.0000658), wk =   0.0312500
        k(   10) = (  -0.0001306   0.2885054   0.1335232), wk =   0.0312500
        k(   11) = (  -0.0001285   0.2884750   0.2671122), wk =   0.0312500
        k(   12) = (  -0.0001264   0.2884446   0.4007011), wk =   0.0312500
        k(   13) = (  -0.0001243   0.2884143   0.5342901), wk =   0.0312500
        k(   14) = (  -0.0001222   0.2883839   0.6678790), wk =   0.0312500
        k(   15) = (  -0.0001201   0.2883535   0.8014680), wk =   0.0312500
        k(   16) = (  -0.0001180   0.2883232   0.9350569), wk =   0.0312500
        k(   17) = (   0.0002654  -0.5770715   0.0001315), wk =   0.0156250
        k(   18) = (   0.0002675  -0.5771019   0.1337205), wk =   0.0156250
        k(   19) = (   0.0002696  -0.5771323   0.2673094), wk =   0.0156250
        k(   20) = (   0.0002717  -0.5771627   0.4008984), wk =   0.0156250
        k(   21) = (   0.0002738  -0.5771930   0.5344873), wk =   0.0156250
        k(   22) = (   0.0002759  -0.5772234   0.6680763), wk =   0.0156250
        k(   23) = (   0.0002780  -0.5772538   0.8016653), wk =   0.0156250
        k(   24) = (   0.0002801  -0.5772841   0.9352542), wk =   0.0156250
        k(   25) = (   0.2499337   0.1441525  -0.0000289), wk =   0.0312500
        k(   26) = (   0.2499358   0.1441221   0.1335601), wk =   0.0312500
        k(   27) = (   0.2499379   0.1440917   0.2671490), wk =   0.0312500
        k(   28) = (   0.2499400   0.1440614   0.4007380), wk =   0.0312500
        k(   29) = (   0.2499421   0.1440310   0.5343270), wk =   0.0312500
        k(   30) = (   0.2499442   0.1440006   0.6679159), wk =   0.0312500
        k(   31) = (   0.2499463   0.1439702   0.8015049), wk =   0.0312500
        k(   32) = (   0.2499484   0.1439399   0.9350938), wk =   0.0312500
        k(   33) = (   0.2498010   0.4326882  -0.0000946), wk =   0.0312500
        k(   34) = (   0.2498031   0.4326579   0.1334943), wk =   0.0312500
        k(   35) = (   0.2498052   0.4326275   0.2670833), wk =   0.0312500
        k(   36) = (   0.2498073   0.4325971   0.4006722), wk =   0.0312500
        k(   37) = (   0.2498094   0.4325668   0.5342612), wk =   0.0312500
        k(   38) = (   0.2498115   0.4325364   0.6678502), wk =   0.0312500
        k(   39) = (   0.2498136   0.4325060   0.8014391), wk =   0.0312500
        k(   40) = (   0.2498157   0.4324756   0.9350281), wk =   0.0312500
        k(   41) = (   0.2501992  -0.4329191   0.0001027), wk =   0.0312500
        k(   42) = (   0.2502012  -0.4329494   0.1336916), wk =   0.0312500
        k(   43) = (   0.2502033  -0.4329798   0.2672806), wk =   0.0312500
        k(   44) = (   0.2502054  -0.4330102   0.4008695), wk =   0.0312500
        k(   45) = (   0.2502075  -0.4330405   0.5344585), wk =   0.0312500
        k(   46) = (   0.2502096  -0.4330709   0.6680474), wk =   0.0312500
        k(   47) = (   0.2502117  -0.4331013   0.8016364), wk =   0.0312500
        k(   48) = (   0.2502138  -0.4331317   0.9352253), wk =   0.0312500
        k(   49) = (   0.2500664  -0.1443833   0.0000369), wk =   0.0312500
        k(   50) = (   0.2500685  -0.1444137   0.1336259), wk =   0.0312500
        k(   51) = (   0.2500706  -0.1444440   0.2672148), wk =   0.0312500
        k(   52) = (   0.2500727  -0.1444744   0.4008038), wk =   0.0312500
        k(   53) = (   0.2500748  -0.1445048   0.5343927), wk =   0.0312500
        k(   54) = (   0.2500769  -0.1445351   0.6679817), wk =   0.0312500
        k(   55) = (   0.2500790  -0.1445655   0.8015706), wk =   0.0312500
        k(   56) = (   0.2500811  -0.1445959   0.9351596), wk =   0.0312500
        k(   57) = (  -0.4998674  -0.2883050   0.0000577), wk =   0.0156250
        k(   58) = (  -0.4998653  -0.2883353   0.1336467), wk =   0.0156250
        k(   59) = (  -0.4998633  -0.2883657   0.2672356), wk =   0.0156250
        k(   60) = (  -0.4998612  -0.2883961   0.4008246), wk =   0.0156250
        k(   61) = (  -0.4998591  -0.2884265   0.5344136), wk =   0.0156250
        k(   62) = (  -0.4998570  -0.2884568   0.6680025), wk =   0.0156250
        k(   63) = (  -0.4998549  -0.2884872   0.8015915), wk =   0.0156250
        k(   64) = (  -0.4998528  -0.2885176   0.9351804), wk =   0.0156250
        k(   65) = (  -0.5000002   0.0002308  -0.0000080), wk =   0.0312500
        k(   66) = (  -0.4999981   0.0002004   0.1335809), wk =   0.0312500
        k(   67) = (  -0.4999960   0.0001701   0.2671699), wk =   0.0312500
        k(   68) = (  -0.4999939   0.0001397   0.4007588), wk =   0.0312500
        k(   69) = (  -0.4999918   0.0001093   0.5343478), wk =   0.0312500
        k(   70) = (  -0.4999897   0.0000789   0.6679367), wk =   0.0312500
        k(   71) = (  -0.4999876   0.0000486   0.8015257), wk =   0.0312500
        k(   72) = (  -0.4999855   0.0000182   0.9351147), wk =   0.0312500
        k(   73) = (  -0.4996020  -0.8653765   0.0001892), wk =   0.0156250
        k(   74) = (  -0.4995999  -0.8654069   0.1337782), wk =   0.0156250
        k(   75) = (  -0.4995978  -0.8654372   0.2673672), wk =   0.0156250
        k(   76) = (  -0.4995957  -0.8654676   0.4009561), wk =   0.0156250
        k(   77) = (  -0.4995936  -0.8654980   0.5345451), wk =   0.0156250
        k(   78) = (  -0.4995915  -0.8655284   0.6681340), wk =   0.0156250
        k(   79) = (  -0.4995894  -0.8655587   0.8017230), wk =   0.0156250
        k(   80) = (  -0.4995873  -0.8655891   0.9353119), wk =   0.0156250

                       cryst. coord.
        k(    1) = (   0.0000000   0.0000000   0.0000000), wk =   0.0156250
        k(    2) = (   0.0000000   0.0000000   0.1428571), wk =   0.0156250
        k(    3) = (   0.0000000   0.0000000   0.2857143), wk =   0.0156250
        k(    4) = (   0.0000000  -0.0000000   0.4285714), wk =   0.0156250
        k(    5) = (   0.0000000   0.0000000   0.5714286), wk =   0.0156250
        k(    6) = (  -0.0000000   0.0000000   0.7142857), wk =   0.0156250
        k(    7) = (   0.0000000  -0.0000000   0.8571429), wk =   0.0156250
        k(    8) = (   0.0000000  -0.0000000   1.0000000), wk =   0.0156250
        k(    9) = (   0.0000000   0.2500000  -0.0000000), wk =   0.0312500
        k(   10) = (  -0.0000000   0.2500000   0.1428571), wk =   0.0312500
        k(   11) = (   0.0000000   0.2500000   0.2857143), wk =   0.0312500
        k(   12) = (   0.0000000   0.2500000   0.4285714), wk =   0.0312500
        k(   13) = (  -0.0000000   0.2500000   0.5714286), wk =   0.0312500
        k(   14) = (  -0.0000000   0.2500000   0.7142857), wk =   0.0312500
        k(   15) = (  -0.0000000   0.2500000   0.8571429), wk =   0.0312500
        k(   16) = (  -0.0000000   0.2500000   1.0000000), wk =   0.0312500
        k(   17) = (  -0.0000000  -0.5000000   0.0000000), wk =   0.0156250
        k(   18) = (  -0.0000000  -0.5000000   0.1428571), wk =   0.0156250
        k(   19) = (  -0.0000000  -0.5000000   0.2857143), wk =   0.0156250
        k(   20) = (   0.0000000  -0.5000000   0.4285714), wk =   0.0156250
        k(   21) = (   0.0000000  -0.5000000   0.5714286), wk =   0.0156250
        k(   22) = (   0.0000000  -0.5000000   0.7142857), wk =   0.0156250
        k(   23) = (  -0.0000000  -0.5000000   0.8571429), wk =   0.0156250
        k(   24) = (  -0.0000000  -0.5000000   1.0000000), wk =   0.0156250
        k(   25) = (   0.2500000  -0.0000000  -0.0000000), wk =   0.0312500
        k(   26) = (   0.2500000  -0.0000000   0.1428571), wk =   0.0312500
        k(   27) = (   0.2500000  -0.0000000   0.2857143), wk =   0.0312500
        k(   28) = (   0.2500000  -0.0000000   0.4285714), wk =   0.0312500
        k(   29) = (   0.2500000  -0.0000000   0.5714286), wk =   0.0312500
        k(   30) = (   0.2500000   0.0000000   0.7142857), wk =   0.0312500
        k(   31) = (   0.2500000  -0.0000000   0.8571429), wk =   0.0312500
        k(   32) = (   0.2500000  -0.0000000   1.0000000), wk =   0.0312500
        k(   33) = (   0.2500000   0.2500000  -0.0000000), wk =   0.0312500
        k(   34) = (   0.2500000   0.2500000   0.1428571), wk =   0.0312500
        k(   35) = (   0.2500000   0.2500000   0.2857143), wk =   0.0312500
        k(   36) = (   0.2500000   0.2500000   0.4285714), wk =   0.0312500
        k(   37) = (   0.2500000   0.2500000   0.5714286), wk =   0.0312500
        k(   38) = (   0.2500000   0.2500000   0.7142857), wk =   0.0312500
        k(   39) = (   0.2500000   0.2500000   0.8571429), wk =   0.0312500
        k(   40) = (   0.2500000   0.2500000   1.0000000), wk =   0.0312500
        k(   41) = (   0.2500000  -0.5000000   0.0000000), wk =   0.0312500
        k(   42) = (   0.2500000  -0.5000000   0.1428571), wk =   0.0312500
        k(   43) = (   0.2500000  -0.5000000   0.2857143), wk =   0.0312500
        k(   44) = (   0.2500000  -0.5000000   0.4285714), wk =   0.0312500
        k(   45) = (   0.2500000  -0.5000000   0.5714286), wk =   0.0312500
        k(   46) = (   0.2500000  -0.5000000   0.7142857), wk =   0.0312500
        k(   47) = (   0.2500000  -0.5000000   0.8571429), wk =   0.0312500
        k(   48) = (   0.2500000  -0.5000000   1.0000000), wk =   0.0312500
        k(   49) = (   0.2500000  -0.2500000   0.0000000), wk =   0.0312500
        k(   50) = (   0.2500000  -0.2500000   0.1428571), wk =   0.0312500
        k(   51) = (   0.2500000  -0.2500000   0.2857143), wk =   0.0312500
        k(   52) = (   0.2500000  -0.2500000   0.4285714), wk =   0.0312500
        k(   53) = (   0.2500000  -0.2500000   0.5714286), wk =   0.0312500
        k(   54) = (   0.2500000  -0.2500000   0.7142857), wk =   0.0312500
        k(   55) = (   0.2500000  -0.2500000   0.8571429), wk =   0.0312500
        k(   56) = (   0.2500000  -0.2500000   1.0000000), wk =   0.0312500
        k(   57) = (  -0.5000000   0.0000000   0.0000000), wk =   0.0156250
        k(   58) = (  -0.5000000   0.0000000   0.1428571), wk =   0.0156250
        k(   59) = (  -0.5000000   0.0000000   0.2857143), wk =   0.0156250
        k(   60) = (  -0.5000000   0.0000000   0.4285714), wk =   0.0156250
        k(   61) = (  -0.5000000  -0.0000000   0.5714286), wk =   0.0156250
        k(   62) = (  -0.5000000   0.0000000   0.7142857), wk =   0.0156250
        k(   63) = (  -0.5000000   0.0000000   0.8571429), wk =   0.0156250
        k(   64) = (  -0.5000000   0.0000000   1.0000000), wk =   0.0156250
        k(   65) = (  -0.5000000   0.2500000   0.0000000), wk =   0.0312500
        k(   66) = (  -0.5000000   0.2500000   0.1428571), wk =   0.0312500
        k(   67) = (  -0.5000000   0.2500000   0.2857143), wk =   0.0312500
        k(   68) = (  -0.5000000   0.2500000   0.4285714), wk =   0.0312500
        k(   69) = (  -0.5000000   0.2500000   0.5714286), wk =   0.0312500
        k(   70) = (  -0.5000000   0.2500000   0.7142857), wk =   0.0312500
        k(   71) = (  -0.5000000   0.2500000   0.8571429), wk =   0.0312500
        k(   72) = (  -0.5000000   0.2500000   1.0000000), wk =   0.0312500
        k(   73) = (  -0.5000000  -0.5000000   0.0000000), wk =   0.0156250
        k(   74) = (  -0.5000000  -0.5000000   0.1428571), wk =   0.0156250
        k(   75) = (  -0.5000000  -0.5000000   0.2857143), wk =   0.0156250
        k(   76) = (  -0.5000000  -0.5000000   0.4285714), wk =   0.0156250
        k(   77) = (  -0.5000000  -0.5000000   0.5714286), wk =   0.0156250
        k(   78) = (  -0.5000000  -0.5000000   0.7142857), wk =   0.0156250
        k(   79) = (  -0.5000000  -0.5000000   0.8571429), wk =   0.0156250
        k(   80) = (  -0.5000000  -0.5000000   1.0000000), wk =   0.0156250

     Dense  grid:  1086517 G-vectors     FFT dimensions: ( 135, 135, 144)

     Smooth grid:   361485 G-vectors     FFT dimensions: (  96,  96, 100)

     Dynamical RAM for                 wfc:       4.60 MB

     Dynamical RAM for     wfc (w. buffer):     372.94 MB

     Dynamical RAM for           str. fact:       0.78 MB

     Dynamical RAM for           local pot:       0.00 MB

     Dynamical RAM for          nlocal pot:      12.09 MB

     Dynamical RAM for                qrad:      20.97 MB

     Dynamical RAM for          rho,v,vnew:       2.03 MB

     Dynamical RAM for           G-vectors:       1.01 MB

     Dynamical RAM for          h,s,v(r/c):       5.35 MB

     Dynamical RAM for          <psi|beta>:       7.34 MB

     Dynamical RAM for                 psi:      18.42 MB

     Dynamical RAM for                hpsi:      18.42 MB

     Dynamical RAM for                spsi:      18.42 MB

     Dynamical RAM for      wfcinit/wfcrot:      18.67 MB

     Dynamical RAM for           addusdens:      62.43 MB

     Estimated static dynamical RAM per process >     412.94 MB

     Estimated max dynamical RAM per process >     480.89 MB

     Estimated total dynamical RAM >      30.06 GB

     Check: negative core charge=   -0.000002

     The potential is recalculated from file :
     ./temp/ZnO.save/charge-density

     Starting wfcs are  548 randomized atomic wfcs

     Band Structure Calculation
     Davidson diagonalization with overlap

     Computing kpt #:     1
     total cpu time spent up to now is       24.4 secs

     Computing kpt #:     2
     total cpu time spent up to now is       41.3 secs

     Computing kpt #:     3
     total cpu time spent up to now is       58.0 secs

     Computing kpt #:     4
     total cpu time spent up to now is       74.5 secs

     Computing kpt #:     5
     total cpu time spent up to now is       91.1 secs

     Computing kpt #:     6
     total cpu time spent up to now is      107.9 secs

     Computing kpt #:     7
     total cpu time spent up to now is      124.8 secs

     Computing kpt #:     8
     total cpu time spent up to now is      141.4 secs

     Computing kpt #:     9
     total cpu time spent up to now is      158.3 secs

     Computing kpt #:    10
     total cpu time spent up to now is      175.0 secs

     Computing kpt #:    11
     total cpu time spent up to now is      191.6 secs

     Computing kpt #:    12
     total cpu time spent up to now is      208.2 secs

     Computing kpt #:    13
     total cpu time spent up to now is      224.8 secs

     Computing kpt #:    14
     total cpu time spent up to now is      241.3 secs

     Computing kpt #:    15
     total cpu time spent up to now is      258.0 secs

     Computing kpt #:    16
     total cpu time spent up to now is      274.9 secs

     Computing kpt #:    17
     total cpu time spent up to now is      291.5 secs

     Computing kpt #:    18
     total cpu time spent up to now is      308.2 secs

     Computing kpt #:    19
     total cpu time spent up to now is      324.7 secs

     Computing kpt #:    20
     total cpu time spent up to now is      341.3 secs

     Computing kpt #:    21
     total cpu time spent up to now is      367.1 secs

     Computing kpt #:    22
     total cpu time spent up to now is      383.7 secs

     Computing kpt #:    23
     total cpu time spent up to now is      400.3 secs

     Computing kpt #:    24
     total cpu time spent up to now is      417.1 secs

     Computing kpt #:    25
     total cpu time spent up to now is      434.0 secs

     Computing kpt #:    26
     total cpu time spent up to now is      450.7 secs

     Computing kpt #:    27
     total cpu time spent up to now is      467.4 secs

     Computing kpt #:    28
     total cpu time spent up to now is      484.1 secs

     Computing kpt #:    29
     total cpu time spent up to now is      500.7 secs

     Computing kpt #:    30
     total cpu time spent up to now is      517.5 secs

     Computing kpt #:    31
     total cpu time spent up to now is      534.3 secs

     Computing kpt #:    32
     total cpu time spent up to now is      551.2 secs

     Computing kpt #:    33
     total cpu time spent up to now is      567.8 secs

     Computing kpt #:    34
     total cpu time spent up to now is      584.4 secs

     Computing kpt #:    35
     total cpu time spent up to now is      601.0 secs

     Computing kpt #:    36
     total cpu time spent up to now is      617.5 secs

     Computing kpt #:    37
     total cpu time spent up to now is      634.1 secs

     Computing kpt #:    38
     total cpu time spent up to now is      650.7 secs

     Computing kpt #:    39
     total cpu time spent up to now is      667.2 secs

     Computing kpt #:    40
     total cpu time spent up to now is      683.9 secs

     Computing kpt #:    41
     total cpu time spent up to now is      700.6 secs

     Computing kpt #:    42
     total cpu time spent up to now is      717.3 secs

     Computing kpt #:    43
     total cpu time spent up to now is      733.9 secs

     Computing kpt #:    44
     total cpu time spent up to now is      750.5 secs

     Computing kpt #:    45
     total cpu time spent up to now is      767.0 secs

     Computing kpt #:    46
     total cpu time spent up to now is      783.7 secs

     Computing kpt #:    47
     total cpu time spent up to now is      800.3 secs

     Computing kpt #:    48
     total cpu time spent up to now is      817.0 secs

     Computing kpt #:    49
     total cpu time spent up to now is      833.8 secs

     Computing kpt #:    50
     total cpu time spent up to now is      850.5 secs

     Computing kpt #:    51
     total cpu time spent up to now is      867.2 secs

     Computing kpt #:    52
     total cpu time spent up to now is      883.9 secs

     Computing kpt #:    53
     total cpu time spent up to now is      900.5 secs

     Computing kpt #:    54
     total cpu time spent up to now is      917.2 secs

     Computing kpt #:    55
     total cpu time spent up to now is      933.9 secs

     Computing kpt #:    56
     total cpu time spent up to now is      950.9 secs

     Computing kpt #:    57
     total cpu time spent up to now is      967.6 secs

     Computing kpt #:    58
     total cpu time spent up to now is      984.3 secs

     Computing kpt #:    59
     total cpu time spent up to now is     1000.9 secs

     Computing kpt #:    60
     total cpu time spent up to now is     1017.5 secs

     Computing kpt #:    61
     total cpu time spent up to now is     1034.0 secs

     Computing kpt #:    62
     total cpu time spent up to now is     1050.5 secs

     Computing kpt #:    63
     total cpu time spent up to now is     1067.2 secs

     Computing kpt #:    64
     total cpu time spent up to now is     1083.9 secs

     Computing kpt #:    65
     total cpu time spent up to now is     1100.6 secs

     Computing kpt #:    66
     total cpu time spent up to now is     1117.2 secs

     Computing kpt #:    67
     total cpu time spent up to now is     1133.8 secs

     Computing kpt #:    68
     total cpu time spent up to now is     1150.4 secs

     Computing kpt #:    69
     total cpu time spent up to now is     1166.9 secs

     Computing kpt #:    70
     total cpu time spent up to now is     1232.9 secs

     Computing kpt #:    71
     total cpu time spent up to now is     1249.5 secs

     Computing kpt #:    72
     total cpu time spent up to now is     1266.2 secs

     Computing kpt #:    73
     total cpu time spent up to now is     1283.0 secs

     Computing kpt #:    74
     total cpu time spent up to now is     1299.9 secs

     Computing kpt #:    75
     total cpu time spent up to now is     1316.5 secs

     Computing kpt #:    76
     total cpu time spent up to now is     1333.2 secs

     Computing kpt #:    77
     total cpu time spent up to now is     1349.9 secs

     Computing kpt #:    78
     total cpu time spent up to now is     1366.6 secs

     Computing kpt #:    79
     total cpu time spent up to now is     1383.3 secs

     Computing kpt #:    80
     total cpu time spent up to now is     1400.1 secs

     ethr =  1.17E-12,  avg # of iterations = 12.9

     total cpu time spent up to now is     1400.1 secs

     End of band structure calculation

          k = 0.0000 0.0000 0.0000 ( 45257 PWs)   bands (ev):

  -115.0494-115.0466-115.0459-115.0419-115.0415-115.0405-115.0403-115.0400
  -115.0391-115.0385-115.0383-115.0378-115.0377-115.0367-115.0358-115.0322
  -115.0320-115.0320-115.0316-115.0314-115.0312-115.0294-115.0293-115.0274
  -115.0264-115.0258-115.0258-115.0203 -69.4083 -69.4071 -69.4060 -69.4052
   -69.4029 -69.4021 -69.4017 -69.4015 -69.4011 -69.4010 -69.4003 -69.4000
   -69.3998 -69.3993 -69.3992 -69.3987 -69.3987 -69.3986 -69.3984 -69.3983
   -69.3979 -69.3976 -69.3975 -69.3971 -69.3969 -69.3966 -69.3965 -69.3962
   -69.3956 -69.3950 -69.3950 -69.3948 -69.3943 -69.3943 -69.3931 -69.3929
   -69.3928 -69.3927 -69.3924 -69.3922 -69.3920 -69.3918 -69.3913 -69.3910
   -69.3910 -69.3906 -69.3906 -69.3900 -69.3898 -69.3897 -69.3896 -69.3893
   -69.3889 -69.3887 -69.3886 -69.3886 -69.3883 -69.3878 -69.3875 -69.3872
   -69.3870 -69.3870 -69.3866 -69.3865 -69.3864 -69.3864 -69.3858 -69.3854
   -69.3852 -69.3851 -69.3839 -69.3837 -69.3834 -69.3827 -69.3823 -69.3822
   -69.3813 -69.3811 -69.3808 -69.3803 -69.3799 -69.3787 -69.3772 -69.3744
   -64.5187 -64.5158 -64.5057 -64.5053 -64.5034 -64.5025 -64.5023 -64.4862
   -31.5093 -31.5068 -31.5060 -31.5035 -31.5025 -31.5021 -31.4980 -31.4956
   -31.4952 -31.4934 -31.4927 -31.4926 -31.4904 -31.4895 -31.4895 -31.4892
   -31.4885 -31.4881 -31.4872 -31.4856 -31.4825 -31.4741 -31.4713 -31.4695
    -9.8044  -9.4695  -9.4477  -9.3675  -9.3513  -9.3129  -9.3050  -9.2624
    -9.2155  -9.1632  -9.1574  -9.1453  -9.1254  -9.1197  -9.1006  -9.0811
    -9.0532  -9.0344  -9.0173  -9.0011  -8.9859  -8.9765  -8.9307  -8.9117
    -8.9006  -8.8919  -8.8885  -8.8699  -8.8576  -8.8454  -8.8124  -8.7862
    -8.7621  -8.7550  -8.7125  -8.6932   1.9976   2.0156   2.0233   2.0422
     2.0473   2.0544   2.0815   2.1115   2.1147   2.1219   2.1529   2.1686
     2.1750   2.1974   2.2081   2.2267   2.2655   2.2807   2.2864   2.3184
     2.3956   2.3993   2.4140   2.4335   2.4529   2.4593   2.4774   2.4946
     2.5021   2.5068   2.5239   2.5319   2.5360   2.5496   2.5549   2.5660
     2.5847   2.5918   2.6030   2.6169   2.6314   2.6326   2.6473   2.6512
     2.6577   2.6722   2.6757   2.6951   2.7083   2.7237   2.7323   2.7360
     2.7392   2.7476   2.7508   2.7546   2.7695   2.7729   2.7770   2.7847
     2.7857   2.8005   2.8130   2.8201   2.8404   2.8581   2.8825   2.8876
     2.9180   2.9464   2.9539   2.9575   3.0294   3.0391   3.0517   3.0544
     3.0700   3.0882   3.1106   3.1244   3.1326   3.1573   3.1641   3.1851
     3.1893   3.2129   3.2205   3.2261   3.2745   3.2851   3.2913   3.3157
     3.3272   3.3572   3.3622   3.3918   3.3996   3.4145   3.4403   3.4722
     3.4748   3.4816   3.5138   3.5263   3.5353   3.5454   3.5552   3.5692
     3.5731   3.5808   3.5849   3.5959   3.6011   3.6092   3.6133   3.6278
     3.6382   3.6385   3.6450   3.6497   3.6618   3.6662   3.6665   3.6731
     3.6746   3.6906   3.6966   3.7053   3.7157   3.7174   3.7293   3.7346
     3.7432   3.7725   3.7861   3.8073   3.8290   3.8597   3.8776   3.9052
     3.9269   4.0091   4.0332   4.0655   4.1185   4.1261   4.1568   4.1764
     4.2035   4.2257   4.2782   4.3140   4.3297   4.3863   4.4170   4.4429
     4.4626   4.5080   4.5461   4.5739   4.6208   4.6555   4.6702   4.7315
     4.7485   4.7894   4.8279   4.8819   4.8893   4.9641   4.9714   5.0083
     5.0668   5.0720   5.1642   5.2307   5.2692   5.2932   5.3068   5.4420
     5.5226   5.5719   5.5997   5.6104   5.6865   5.8037   5.8504   5.9795
     6.0054   6.0298   6.0415   6.0644   6.0666   6.0927   6.1544   6.1666
     6.1964   6.2160   6.2212   6.2445   6.2859   6.3675   6.4342   6.4600
     6.5414   6.5470   6.5629   6.5996   6.6226   6.6432   6.6538   6.6722
     6.6888   6.6973   6.7176   6.7327   6.7561   6.7606   6.7658   6.7920
     6.7974   6.8093   6.8152   6.8218   6.8398   6.8541   6.8730   6.9562
     7.0845   7.1146   7.1279   7.1379   7.1519   7.1698   7.1945   7.2134
     7.2409   7.2849   7.3247   7.3613   7.3959   7.5103   7.5205   7.5338
     7.5728   7.8130   7.8523   7.8626

     occupation numbers 
     1.0000   1.0000   1.0000   1.0000   1.0000   1.0000   1.0000   1.0000
     1.0000   1.0000   1.0000   1.0000   1.0000   1.0000   1.0000   1.0000
     1.0000   1.0000   1.0000   1.0000   1.0000   1.0000   1.0000   1.0000
     1.0000   1.0000   1.0000   1.0000   1.0000   1.0000   1.0000   1.0000
     1.0000   1.0000   1.0000   1.0000   1.0000   1.0000   1.0000   1.0000
     1.0000   1.0000   1.0000   1.0000   1.0000   1.0000   1.0000   1.0000
     1.0000   1.0000   1.0000   1.0000   1.0000   1.0000   1.0000   1.0000
     1.0000   1.0000   1.0000   1.0000   1.0000   1.0000   1.0000   1.0000
     1.0000   1.0000   1.0000   1.0000   1.0000   1.0000   1.0000   1.0000
     1.0000   1.0000   1.0000   1.0000   1.0000   1.0000   1.0000   1.0000
     1.0000   1.0000   1.0000   1.0000   1.0000   1.0000   1.0000   1.0000
     1.0000   1.0000   1.0000   1.0000   1.0000   1.0000   1.0000   1.0000
     1.0000   1.0000   1.0000   1.0000   1.0000   1.0000   1.0000   1.0000
     1.0000   1.0000   1.0000   1.0000   1.0000   1.0000   1.0000   1.0000
     1.0000   1.0000   1.0000   1.0000   1.0000   1.0000   1.0000   1.0000
     1.0000   1.0000   1.0000   1.0000   1.0000   1.0000   1.0000   1.0000
     1.0000   1.0000   1.0000   1.0000   1.0000   1.0000   1.0000   1.0000
     1.0000   1.0000   1.0000   1.0000   1.0000   1.0000   1.0000   1.0000
     1.0000   1.0000   1.0000   1.0000   1.0000   1.0000   1.0000   1.0000
     1.0000   1.0000   1.0000   1.0000   1.0000   1.0000   1.0000   1.0000
     1.0000   1.0000   1.0000   1.0000   1.0000   1.0000   1.0000   1.0000
     1.0000   1.0000   1.0000   1.0000   1.0000   1.0000   1.0000   1.0000
     1.0000   1.0000   1.0000   1.0000   1.0000   1.0000   1.0000   1.0000
     1.0000   1.0000   1.0000   1.0000   1.0000   1.0000   1.0000   1.0000
     1.0000   1.0000   1.0000   1.0000   1.0000   1.0000   1.0000   1.0000
     1.0000   1.0000   1.0000   1.0000   1.0000   1.0000   1.0000   1.0000
     1.0000   1.0000   1.0000   1.0000   1.0000   1.0000   1.0000   1.0000
     1.0000   1.0000   1.0000   1.0000   1.0000   1.0000   1.0000   1.0000
     1.0000   1.0000   1.0000   1.0000   1.0000   1.0000   1.0000   1.0000
     1.0000   1.0000   1.0000   1.0000   1.0000   1.0000   1.0000   1.0000
     1.0000   1.0000   1.0000   1.0000   1.0000   1.0000   1.0000   1.0000
     1.0000   1.0000   1.0000   1.0000   1.0000   1.0000   1.0000   1.0000
     1.0000   1.0000   1.0000   1.0000   1.0000   1.0000   1.0000   1.0000
     1.0000   1.0000   1.0000   1.0000   1.0000   1.0000   1.0000   1.0000
     1.0000   1.0000   1.0000   1.0000   1.0000   1.0000   1.0000   1.0000
     1.0000   1.0000   1.0000   1.0000   1.0000   1.0000   1.0000   1.0000
     1.0000   1.0000   1.0000   1.0000   1.0000   1.0000   1.0000   1.0000
     1.0000   1.0000   1.0000   1.0000   1.0000   1.0000   1.0000   1.0000
     1.0000   1.0000   1.0000   1.0000   1.0000   1.0000   1.0000   1.0000
     1.0000   1.0000   1.0000   1.0000   1.0000   1.0000   1.0000   1.0000
     1.0000   1.0000   1.0000   1.0000   1.0000   1.0000   1.0000   1.0000
     1.0000   1.0000   1.0000   1.0000   1.0000   1.0000   1.0000   1.0000
     1.0000   1.0000   1.0000   1.0000   1.0000   1.0000   1.0000   1.0000
     1.0000   1.0000   1.0000   1.0000   1.0000   1.0000   1.0000   1.0000
     1.0000   1.0000   1.0000   1.0000   1.0000   1.0000   1.0000   1.0000
     1.0000   1.0000   1.0000   1.0000   1.0000   1.0000   1.0000   1.0000
     1.0000   1.0000   1.0000   1.0000   1.0000   1.0000   1.0000   1.0000
     1.0000   1.0000   1.0000   1.0000   1.0000   1.0000   1.0000   1.0000
     1.0000   1.0000   1.0000   1.0000   1.0000   1.0000   1.0000   1.0000
     1.0000   1.0000   1.0000   1.0000   1.0000   1.0000   1.0000   1.0000
     1.0000   1.0000   1.0000   1.0000   1.0000   1.0000   1.0000   1.0000
     1.0000   1.0000   1.0000   1.0000   1.0000   1.0000   1.0000   1.0000
     1.0000   1.0000   1.0000   1.0000   1.0000   1.0000   1.0000   1.0000
     1.0000   1.0000   1.0000   1.0000

          k = 0.0000-0.0000 0.1336 ( 45144 PWs)   bands (ev):

  -115.0494-115.0466-115.0459-115.0419-115.0415-115.0405-115.0403-115.0400
  -115.0391-115.0385-115.0383-115.0378-115.0377-115.0367-115.0358-115.0322
  -115.0320-115.0320-115.0316-115.0314-115.0312-115.0294-115.0293-115.0274
  -115.0264-115.0258-115.0258-115.0203 -69.4083 -69.4071 -69.4060 -69.4052
   -69.4029 -69.4021 -69.4017 -69.4015 -69.4011 -69.4010 -69.4003 -69.4000
   -69.3998 -69.3993 -69.3992 -69.3987 -69.3987 -69.3986 -69.3984 -69.3983
   -69.3979 -69.3976 -69.3975 -69.3971 -69.3969 -69.3966 -69.3965 -69.3962
   -69.3956 -69.3950 -69.3950 -69.3948 -69.3943 -69.3943 -69.3931 -69.3929
   -69.3928 -69.3927 -69.3924 -69.3922 -69.3920 -69.3918 -69.3913 -69.3910
   -69.3910 -69.3906 -69.3906 -69.3900 -69.3898 -69.3897 -69.3896 -69.3893
   -69.3889 -69.3887 -69.3886 -69.3886 -69.3883 -69.3878 -69.3875 -69.3872
   -69.3870 -69.3870 -69.3866 -69.3865 -69.3864 -69.3864 -69.3858 -69.3854
   -69.3852 -69.3851 -69.3839 -69.3837 -69.3834 -69.3827 -69.3823 -69.3822
   -69.3813 -69.3811 -69.3808 -69.3803 -69.3799 -69.3787 -69.3772 -69.3744
   -64.5187 -64.5158 -64.5057 -64.5053 -64.5034 -64.5025 -64.5023 -64.4862
   -31.5093 -31.5068 -31.5060 -31.5035 -31.5025 -31.5021 -31.4980 -31.4956
   -31.4952 -31.4934 -31.4927 -31.4926 -31.4904 -31.4895 -31.4895 -31.4893
   -31.4885 -31.4881 -31.4872 -31.4856 -31.4825 -31.4741 -31.4713 -31.4695
    -9.7956  -9.5331  -9.3952  -9.3620  -9.3445  -9.3058  -9.2979  -9.2566
    -9.2192  -9.1889  -9.1769  -9.1602  -9.1281  -9.1090  -9.0945  -9.0834
    -9.0454  -9.0321  -9.0160  -8.9977  -8.9927  -8.9558  -8.9278  -8.9101
    -8.9011  -8.8946  -8.8874  -8.8700  -8.8603  -8.8440  -8.8138  -8.7843
    -8.7626  -8.7562  -8.7150  -8.6970   2.0053   2.0196   2.0290   2.0457
     2.0546   2.0710   2.0950   2.1122   2.1210   2.1273   2.1609   2.1695
     2.1800   2.1953   2.2052   2.2315   2.2713   2.2828   2.2889   2.3309
     2.3963   2.4027   2.4134   2.4307   2.4488   2.4555   2.4757   2.4850
     2.4985   2.5011   2.5198   2.5218   2.5323   2.5425   2.5496   2.5602
     2.5752   2.5912   2.6040   2.6147   2.6241   2.6336   2.6438   2.6529
     2.6569   2.6715   2.6758   2.6973   2.7158   2.7273   2.7323   2.7358
     2.7441   2.7485   2.7548   2.7585   2.7674   2.7729   2.7777   2.7817
     2.7907   2.8001   2.8076   2.8252   2.8357   2.8583   2.8764   2.8863
     2.9138   2.9370   2.9527   2.9545   3.0170   3.0305   3.0332   3.0459
     3.0609   3.0718   3.0858   3.1057   3.1189   3.1314   3.1450   3.1679
     3.1831   3.2020   3.2201   3.2355   3.2547   3.2809   3.2958   3.3159
     3.3237   3.3526   3.3571   3.3846   3.4034   3.4244   3.4385   3.4567
     3.4702   3.4802   3.4980   3.5245   3.5351   3.5484   3.5619   3.5685
     3.5768   3.5849   3.5948   3.6014   3.6043   3.6107   3.6187   3.6245
     3.6357   3.6385   3.6483   3.6537   3.6580   3.6620   3.6713   3.6767
     3.6881   3.6960   3.7028   3.7108   3.7195   3.7230   3.7311   3.7353
     3.7427   3.7769   3.7839   3.8020   3.8227   3.8355   3.8713   3.9006
     3.9461   4.0492   4.0926   4.1045   4.1495   4.1641   4.1755   4.1955
     4.2092   4.2388   4.2886   4.3210   4.3395   4.3830   4.4236   4.4395
     4.4693   4.5093   4.5321   4.5851   4.6395   4.6616   4.6794   4.7255
     4.7588   4.7959   4.8465   4.8863   4.8921   4.9711   4.9814   4.9990
     5.0354   5.0794   5.1058   5.1553   5.2044   5.2853   5.4254   5.4568
     5.5319   5.5800   5.6045   5.6557   5.7139   5.8191   5.8492   5.9715
     6.0200   6.0408   6.0512   6.0761   6.0882   6.1035   6.1459   6.1655
     6.1823   6.2008   6.2176   6.2219   6.2381   6.2901   6.3184   6.3713
     6.4081   6.4708   6.5091   6.5575   6.5784   6.6021   6.6091   6.6405
     6.6553   6.6852   6.7174   6.7495   6.7733   6.8054   6.8176   6.8381
     6.8533   6.8776   6.8846   6.8976   6.9167   6.9238   6.9324   6.9857
     7.0881   7.1257   7.1308   7.1525   7.1675   7.1792   7.2000   7.2153
     7.2382   7.2783   7.3142   7.3495   7.3852   7.4487   7.4793   7.5930
     7.6199   7.7078   7.8441   7.8545

     occupation numbers 
     1.0000   1.0000   1.0000   1.0000   1.0000   1.0000   1.0000   1.0000
     1.0000   1.0000   1.0000   1.0000   1.0000   1.0000   1.0000   1.0000
     1.0000   1.0000   1.0000   1.0000   1.0000   1.0000   1.0000   1.0000
     1.0000   1.0000   1.0000   1.0000   1.0000   1.0000   1.0000   1.0000
     1.0000   1.0000   1.0000   1.0000   1.0000   1.0000   1.0000   1.0000
     1.0000   1.0000   1.0000   1.0000   1.0000   1.0000   1.0000   1.0000
     1.0000   1.0000   1.0000   1.0000   1.0000   1.0000   1.0000   1.0000
     1.0000   1.0000   1.0000   1.0000   1.0000   1.0000   1.0000   1.0000
     1.0000   1.0000   1.0000   1.0000   1.0000   1.0000   1.0000   1.0000
     1.0000   1.0000   1.0000   1.0000   1.0000   1.0000   1.0000   1.0000
     1.0000   1.0000   1.0000   1.0000   1.0000   1.0000   1.0000   1.0000
     1.0000   1.0000   1.0000   1.0000   1.0000   1.0000   1.0000   1.0000
     1.0000   1.0000   1.0000   1.0000   1.0000   1.0000   1.0000   1.0000
     1.0000   1.0000   1.0000   1.0000   1.0000   1.0000   1.0000   1.0000
     1.0000   1.0000   1.0000   1.0000   1.0000   1.0000   1.0000   1.0000
     1.0000   1.0000   1.0000   1.0000   1.0000   1.0000   1.0000   1.0000
     1.0000   1.0000   1.0000   1.0000   1.0000   1.0000   1.0000   1.0000
     1.0000   1.0000   1.0000   1.0000   1.0000   1.0000   1.0000   1.0000
     1.0000   1.0000   1.0000   1.0000   1.0000   1.0000   1.0000   1.0000
     1.0000   1.0000   1.0000   1.0000   1.0000   1.0000   1.0000   1.0000
     1.0000   1.0000   1.0000   1.0000   1.0000   1.0000   1.0000   1.0000
     1.0000   1.0000   1.0000   1.0000   1.0000   1.0000   1.0000   1.0000
     1.0000   1.0000   1.0000   1.0000   1.0000   1.0000   1.0000   1.0000
     1.0000   1.0000   1.0000   1.0000   1.0000   1.0000   1.0000   1.0000
     1.0000   1.0000   1.0000   1.0000   1.0000   1.0000   1.0000   1.0000
     1.0000   1.0000   1.0000   1.0000   1.0000   1.0000   1.0000   1.0000
     1.0000   1.0000   1.0000   1.0000   1.0000   1.0000   1.0000   1.0000
     1.0000   1.0000   1.0000   1.0000   1.0000   1.0000   1.0000   1.0000
     1.0000   1.0000   1.0000   1.0000   1.0000   1.0000   1.0000   1.0000
     1.0000   1.0000   1.0000   1.0000   1.0000   1.0000   1.0000   1.0000
     1.0000   1.0000   1.0000   1.0000   1.0000   1.0000   1.0000   1.0000
     1.0000   1.0000   1.0000   1.0000   1.0000   1.0000   1.0000   1.0000
     1.0000   1.0000   1.0000   1.0000   1.0000   1.0000   1.0000   1.0000
     1.0000   1.0000   1.0000   1.0000   1.0000   1.0000   1.0000   1.0000
     1.0000   1.0000   1.0000   1.0000   1.0000   1.0000   1.0000   1.0000
     1.0000   1.0000   1.0000   1.0000   1.0000   1.0000   1.0000   1.0000
     1.0000   1.0000   1.0000   1.0000   1.0000   1.0000   1.0000   1.0000
     1.0000   1.0000   1.0000   1.0000   1.0000   1.0000   1.0000   1.0000
     1.0000   1.0000   1.0000   1.0000   1.0000   1.0000   1.0000   1.0000
     1.0000   1.0000   1.0000   1.0000   1.0000   1.0000   1.0000   1.0000
     1.0000   1.0000   1.0000   1.0000   1.0000   1.0000   1.0000   1.0000
     1.0000   1.0000   1.0000   1.0000   1.0000   1.0000   1.0000   1.0000
     1.0000   1.0000   1.0000   1.0000   1.0000   1.0000   1.0000   1.0000
     1.0000   1.0000   1.0000   1.0000   1.0000   1.0000   1.0000   1.0000
     1.0000   1.0000   1.0000   1.0000   1.0000   1.0000   1.0000   1.0000
     1.0000   1.0000   1.0000   1.0000   1.0000   1.0000   1.0000   1.0000
     1.0000   1.0000   1.0000   1.0000   1.0000   1.0000   1.0000   1.0000
     1.0000   1.0000   1.0000   1.0000   1.0000   1.0000   1.0000   1.0000
     1.0000   1.0000   1.0000   1.0000   1.0000   1.0000   1.0000   1.0000
     1.0000   1.0000   1.0000   1.0000   1.0000   1.0000   1.0000   1.0000
     1.0000   1.0000   1.0000   1.0000   1.0000   1.0000   1.0000   1.0000
     1.0000   1.0000   1.0000   1.0000   1.0000   1.0000   1.0000   1.0000
     1.0000   1.0000   1.0000   1.0000   1.0000   1.0000   1.0000   1.0000
     1.0000   1.0000   1.0000   1.0000

          k = 0.0000-0.0001 0.2672 ( 45163 PWs)   bands (ev):

  -115.0494-115.0466-115.0459-115.0419-115.0415-115.0405-115.0403-115.0400
  -115.0391-115.0385-115.0383-115.0378-115.0377-115.0367-115.0358-115.0322
  -115.0320-115.0320-115.0316-115.0314-115.0312-115.0294-115.0293-115.0274
  -115.0264-115.0258-115.0258-115.0203 -69.4083 -69.4071 -69.4060 -69.4052
   -69.4029 -69.4021 -69.4017 -69.4015 -69.4010 -69.4010 -69.4003 -69.4000
   -69.3998 -69.3993 -69.3992 -69.3987 -69.3987 -69.3986 -69.3984 -69.3983
   -69.3979 -69.3976 -69.3975 -69.3971 -69.3969 -69.3966 -69.3965 -69.3962
   -69.3956 -69.3950 -69.3950 -69.3948 -69.3943 -69.3943 -69.3931 -69.3929
   -69.3928 -69.3927 -69.3924 -69.3922 -69.3920 -69.3918 -69.3913 -69.3910
   -69.3910 -69.3906 -69.3906 -69.3900 -69.3898 -69.3897 -69.3896 -69.3893
   -69.3889 -69.3887 -69.3886 -69.3886 -69.3883 -69.3878 -69.3875 -69.3872
   -69.3870 -69.3870 -69.3866 -69.3865 -69.3864 -69.3864 -69.3858 -69.3854
   -69.3852 -69.3851 -69.3839 -69.3837 -69.3834 -69.3827 -69.3823 -69.3822
   -69.3813 -69.3811 -69.3808 -69.3803 -69.3799 -69.3787 -69.3772 -69.3744
   -64.5187 -64.5158 -64.5057 -64.5053 -64.5034 -64.5025 -64.5023 -64.4862
   -31.5093 -31.5068 -31.5060 -31.5035 -31.5025 -31.5021 -31.4980 -31.4956
   -31.4952 -31.4934 -31.4927 -31.4926 -31.4904 -31.4895 -31.4895 -31.4893
   -31.4885 -31.4879 -31.4872 -31.4857 -31.4825 -31.4741 -31.4713 -31.4695
    -9.7698  -9.6060  -9.3573  -9.3469  -9.3249  -9.2943  -9.2770  -9.2467
    -9.2294  -9.2210  -9.2037  -9.1797  -9.1474  -9.1264  -9.0927  -9.0733
    -9.0453  -9.0253  -9.0123  -8.9808  -8.9693  -8.9481  -8.9215  -8.9073
    -8.9017  -8.8956  -8.8869  -8.8711  -8.8667  -8.8410  -8.8162  -8.7810
    -8.7608  -8.7587  -8.7215  -8.7073   2.0246   2.0336   2.0424   2.0609
     2.0743   2.0883   2.1119   2.1275   2.1340   2.1464   2.1616   2.1779
     2.1923   2.2060   2.2107   2.2513   2.2821   2.2914   2.3074   2.3565
     2.3831   2.3984   2.4087   2.4208   2.4360   2.4453   2.4591   2.4656
     2.4771   2.4909   2.4936   2.5106   2.5193   2.5320   2.5445   2.5560
     2.5659   2.5882   2.6005   2.6129   2.6186   2.6332   2.6372   2.6536
     2.6636   2.6722   2.6823   2.6975   2.7170   2.7251   2.7265   2.7343
     2.7424   2.7532   2.7571   2.7618   2.7739   2.7799   2.7850   2.7900
     2.7950   2.8033   2.8122   2.8235   2.8318   2.8603   2.8693   2.8794
     2.8991   2.9175   2.9390   2.9450   2.9659   2.9851   3.0002   3.0087
     3.0266   3.0391   3.0510   3.0773   3.0905   3.1090   3.1229   3.1435
     3.1677   3.1870   3.2144   3.2334   3.2438   3.2712   3.2915   3.3152
     3.3239   3.3376   3.3611   3.3708   3.3910   3.4099   3.4256   3.4586
     3.4706   3.4825   3.4994   3.5324   3.5402   3.5499   3.5647   3.5696
     3.5768   3.5860   3.5973   3.5990   3.6056   3.6123   3.6210   3.6240
     3.6367   3.6443   3.6490   3.6556   3.6617   3.6734   3.6760   3.6887
     3.6970   3.7052   3.7148   3.7195   3.7292   3.7335   3.7365   3.7449
     3.7559   3.7744   3.7817   3.7968   3.8123   3.8170   3.8527   3.8788
     4.0244   4.1079   4.1572   4.1836   4.1928   4.2030   4.2217   4.2447
     4.2634   4.2761   4.3239   4.3391   4.3770   4.3938   4.4329   4.4393
     4.4755   4.4974   4.5301   4.5895   4.6436   4.6610   4.6966   4.7374
     4.7846   4.8158   4.8304   4.8721   4.9030   4.9280   4.9474   5.0026
     5.0439   5.0804   5.1228   5.1488   5.1830   5.2577   5.4653   5.5413
     5.5800   5.6216   5.6431   5.6711   5.7253   5.8101   5.8376   5.8810
     5.9611   6.0027   6.0228   6.0605   6.0696   6.0747   6.1229   6.1384
     6.1607   6.1876   6.2007   6.2126   6.2305   6.2435   6.2564   6.2852
     6.3715   6.3997   6.4160   6.4600   6.4936   6.5118   6.5245   6.5685
     6.6108   6.6260   6.6939   6.7329   6.8243   6.8648   6.8916   6.9199
     6.9279   6.9486   6.9810   6.9964   7.0096   7.0318   7.0419   7.0820
     7.1013   7.1442   7.1538   7.1802   7.1917   7.2009   7.2142   7.2270
     7.2408   7.2649   7.2899   7.3195   7.3572   7.3870   7.4162   7.4812
     7.6634   7.6829   7.8200   7.8309

     occupation numbers 
     1.0000   1.0000   1.0000   1.0000   1.0000   1.0000   1.0000   1.0000
     1.0000   1.0000   1.0000   1.0000   1.0000   1.0000   1.0000   1.0000
     1.0000   1.0000   1.0000   1.0000   1.0000   1.0000   1.0000   1.0000
     1.0000   1.0000   1.0000   1.0000   1.0000   1.0000   1.0000   1.0000
     1.0000   1.0000   1.0000   1.0000   1.0000   1.0000   1.0000   1.0000
     1.0000   1.0000   1.0000   1.0000   1.0000   1.0000   1.0000   1.0000
     1.0000   1.0000   1.0000   1.0000   1.0000   1.0000   1.0000   1.0000
     1.0000   1.0000   1.0000   1.0000   1.0000   1.0000   1.0000   1.0000
     1.0000   1.0000   1.0000   1.0000   1.0000   1.0000   1.0000   1.0000
     1.0000   1.0000   1.0000   1.0000   1.0000   1.0000   1.0000   1.0000
     1.0000   1.0000   1.0000   1.0000   1.0000   1.0000   1.0000   1.0000
     1.0000   1.0000   1.0000   1.0000   1.0000   1.0000   1.0000   1.0000
     1.0000   1.0000   1.0000   1.0000   1.0000   1.0000   1.0000   1.0000
     1.0000   1.0000   1.0000   1.0000   1.0000   1.0000   1.0000   1.0000
     1.0000   1.0000   1.0000   1.0000   1.0000   1.0000   1.0000   1.0000
     1.0000   1.0000   1.0000   1.0000   1.0000   1.0000   1.0000   1.0000
     1.0000   1.0000   1.0000   1.0000   1.0000   1.0000   1.0000   1.0000
     1.0000   1.0000   1.0000   1.0000   1.0000   1.0000   1.0000   1.0000
     1.0000   1.0000   1.0000   1.0000   1.0000   1.0000   1.0000   1.0000
     1.0000   1.0000   1.0000   1.0000   1.0000   1.0000   1.0000   1.0000
     1.0000   1.0000   1.0000   1.0000   1.0000   1.0000   1.0000   1.0000
     1.0000   1.0000   1.0000   1.0000   1.0000   1.0000   1.0000   1.0000
     1.0000   1.0000   1.0000   1.0000   1.0000   1.0000   1.0000   1.0000
     1.0000   1.0000   1.0000   1.0000   1.0000   1.0000   1.0000   1.0000
     1.0000   1.0000   1.0000   1.0000   1.0000   1.0000   1.0000   1.0000
     1.0000   1.0000   1.0000   1.0000   1.0000   1.0000   1.0000   1.0000
     1.0000   1.0000   1.0000   1.0000   1.0000   1.0000   1.0000   1.0000
     1.0000   1.0000   1.0000   1.0000   1.0000   1.0000   1.0000   1.0000
     1.0000   1.0000   1.0000   1.0000   1.0000   1.0000   1.0000   1.0000
     1.0000   1.0000   1.0000   1.0000   1.0000   1.0000   1.0000   1.0000
     1.0000   1.0000   1.0000   1.0000   1.0000   1.0000   1.0000   1.0000
     1.0000   1.0000   1.0000   1.0000   1.0000   1.0000   1.0000   1.0000
     1.0000   1.0000   1.0000   1.0000   1.0000   1.0000   1.0000   1.0000
     1.0000   1.0000   1.0000   1.0000   1.0000   1.0000   1.0000   1.0000
     1.0000   1.0000   1.0000   1.0000   1.0000   1.0000   1.0000   1.0000
     1.0000   1.0000   1.0000   1.0000   1.0000   1.0000   1.0000   1.0000
     1.0000   1.0000   1.0000   1.0000   1.0000   1.0000   1.0000   1.0000
     1.0000   1.0000   1.0000   1.0000   1.0000   1.0000   1.0000   1.0000
     1.0000   1.0000   1.0000   1.0000   1.0000   1.0000   1.0000   1.0000
     1.0000   1.0000   1.0000   1.0000   1.0000   1.0000   1.0000   1.0000
     1.0000   1.0000   1.0000   1.0000   1.0000   1.0000   1.0000   1.0000
     1.0000   1.0000   1.0000   1.0000   1.0000   1.0000   1.0000   1.0000
     1.0000   1.0000   1.0000   1.0000   1.0000   1.0000   1.0000   1.0000
     1.0000   1.0000   1.0000   1.0000   1.0000   1.0000   1.0000   1.0000
     1.0000   1.0000   1.0000   1.0000   1.0000   1.0000   1.0000   1.0000
     1.0000   1.0000   1.0000   1.0000   1.0000   1.0000   1.0000   1.0000
     1.0000   1.0000   1.0000   1.0000   1.0000   1.0000   1.0000   1.0000
     1.0000   1.0000   1.0000   1.0000   1.0000   1.0000   1.0000   1.0000
     1.0000   1.0000   1.0000   1.0000   1.0000   1.0000   1.0000   1.0000
     1.0000   1.0000   1.0000   1.0000   1.0000   1.0000   1.0000   1.0000
     1.0000   1.0000   1.0000   1.0000   1.0000   1.0000   1.0000   1.0000
     1.0000   1.0000   1.0000   1.0000   1.0000   1.0000   1.0000   1.0000
     1.0000   1.0000   1.0000   1.0000   1.0000   1.0000   1.0000   1.0000
     1.0000   1.0000   1.0000   1.0000

          k = 0.0000-0.0001 0.4008 ( 45195 PWs)   bands (ev):

  -115.0494-115.0466-115.0459-115.0419-115.0415-115.0405-115.0403-115.0400
  -115.0391-115.0385-115.0383-115.0378-115.0377-115.0367-115.0358-115.0322
  -115.0320-115.0320-115.0316-115.0314-115.0312-115.0294-115.0293-115.0274
  -115.0264-115.0258-115.0258-115.0203 -69.4083 -69.4071 -69.4060 -69.4052
   -69.4029 -69.4021 -69.4017 -69.4015 -69.4010 -69.4010 -69.4003 -69.4000
   -69.3998 -69.3993 -69.3992 -69.3987 -69.3987 -69.3986 -69.3984 -69.3983
   -69.3979 -69.3976 -69.3975 -69.3971 -69.3969 -69.3966 -69.3965 -69.3962
   -69.3956 -69.3950 -69.3950 -69.3948 -69.3943 -69.3943 -69.3931 -69.3929
   -69.3928 -69.3927 -69.3924 -69.3922 -69.3920 -69.3918 -69.3913 -69.3911
   -69.3910 -69.3906 -69.3906 -69.3900 -69.3898 -69.3897 -69.3896 -69.3893
   -69.3889 -69.3887 -69.3886 -69.3886 -69.3883 -69.3878 -69.3875 -69.3872
   -69.3871 -69.3870 -69.3866 -69.3865 -69.3864 -69.3864 -69.3858 -69.3854
   -69.3852 -69.3851 -69.3839 -69.3837 -69.3834 -69.3827 -69.3823 -69.3822
   -69.3813 -69.3811 -69.3808 -69.3803 -69.3799 -69.3787 -69.3772 -69.3744
   -64.5187 -64.5158 -64.5057 -64.5053 -64.5034 -64.5025 -64.5023 -64.4862
   -31.5093 -31.5068 -31.5060 -31.5035 -31.5025 -31.5021 -31.4981 -31.4956
   -31.4952 -31.4934 -31.4927 -31.4926 -31.4904 -31.4895 -31.4895 -31.4893
   -31.4885 -31.4878 -31.4871 -31.4857 -31.4825 -31.4742 -31.4713 -31.4695
    -9.7280  -9.6723  -9.3325  -9.3298  -9.3021  -9.2907  -9.2762  -9.2626
    -9.2465  -9.2223  -9.1967  -9.1927  -9.1583  -9.1296  -9.1132  -9.0952
    -9.0338  -9.0169  -8.9944  -8.9701  -8.9525  -8.9430  -8.9254  -8.9136
    -8.8967  -8.8902  -8.8850  -8.8763  -8.8702  -8.8402  -8.8167  -8.7810
    -8.7612  -8.7499  -8.7308  -8.7181   2.0447   2.0503   2.0616   2.0723
     2.0815   2.0913   2.1132   2.1313   2.1420   2.1524   2.1759   2.1882
     2.2177   2.2331   2.2495   2.2781   2.2935   2.3102   2.3297   2.3370
     2.3664   2.3812   2.3916   2.4011   2.4230   2.4275   2.4412   2.4510
     2.4595   2.4702   2.4873   2.4954   2.5097   2.5271   2.5365   2.5616
     2.5724   2.5861   2.5893   2.6160   2.6231   2.6370   2.6453   2.6543
     2.6607   2.6761   2.6801   2.6960   2.7068   2.7166   2.7259   2.7333
     2.7443   2.7492   2.7548   2.7655   2.7768   2.7838   2.7916   2.8000
     2.8028   2.8096   2.8176   2.8333   2.8375   2.8589   2.8644   2.8769
     2.8889   2.9015   2.9120   2.9195   2.9308   2.9396   2.9560   2.9671
     3.0018   3.0108   3.0399   3.0611   3.0865   3.1027   3.1168   3.1279
     3.1594   3.1743   3.2064   3.2290   3.2504   3.2623   3.2831   3.3112
     3.3231   3.3343   3.3439   3.3746   3.3785   3.3899   3.4305   3.4603
     3.4731   3.4914   3.5163   3.5376   3.5439   3.5476   3.5555   3.5682
     3.5769   3.5876   3.5923   3.5963   3.6078   3.6110   3.6165   3.6240
     3.6352   3.6446   3.6525   3.6619   3.6685   3.6754   3.6824   3.7004
     3.7047   3.7078   3.7174   3.7249   3.7353   3.7410   3.7444   3.7565
     3.7672   3.7809   3.7866   3.7932   3.8083   3.8139   3.8337   3.8493
     4.0983   4.1633   4.1863   4.2055   4.2170   4.2387   4.2504   4.2779
     4.2860   4.3127   4.3481   4.3848   4.4124   4.4272   4.4583   4.4735
     4.4901   4.5217   4.5408   4.5862   4.5995   4.6203   4.6417   4.6782
     4.7467   4.7570   4.8096   4.8641   4.9097   4.9508   5.0121   5.0315
     5.1207   5.1568   5.1738   5.2074   5.2249   5.2799   5.4587   5.5472
     5.5760   5.6144   5.6394   5.6965   5.7348   5.7489   5.7837   5.8090
     5.8540   5.8757   5.9166   5.9697   5.9917   6.0082   6.1438   6.1682
     6.2102   6.2199   6.2300   6.2660   6.2826   6.3043   6.3107   6.3294
     6.3407   6.3642   6.3846   6.4104   6.4204   6.4328   6.4453   6.4825
     6.5218   6.5307   6.7343   6.7657   6.8582   6.9097   6.9410   6.9618
     6.9756   6.9794   7.0076   7.0372   7.0617   7.0958   7.1101   7.1234
     7.1513   7.1671   7.1811   7.1868   7.2059   7.2177   7.2326   7.2418
     7.2445   7.2606   7.2753   7.2900   7.2977   7.3290   7.3428   7.3559
     7.7263   7.7410   7.7814   7.7934

     occupation numbers 
     1.0000   1.0000   1.0000   1.0000   1.0000   1.0000   1.0000   1.0000
     1.0000   1.0000   1.0000   1.0000   1.0000   1.0000   1.0000   1.0000
     1.0000   1.0000   1.0000   1.0000   1.0000   1.0000   1.0000   1.0000
     1.0000   1.0000   1.0000   1.0000   1.0000   1.0000   1.0000   1.0000
     1.0000   1.0000   1.0000   1.0000   1.0000   1.0000   1.0000   1.0000
     1.0000   1.0000   1.0000   1.0000   1.0000   1.0000   1.0000   1.0000
     1.0000   1.0000   1.0000   1.0000   1.0000   1.0000   1.0000   1.0000
     1.0000   1.0000   1.0000   1.0000   1.0000   1.0000   1.0000   1.0000
     1.0000   1.0000   1.0000   1.0000   1.0000   1.0000   1.0000   1.0000
     1.0000   1.0000   1.0000   1.0000   1.0000   1.0000   1.0000   1.0000
     1.0000   1.0000   1.0000   1.0000   1.0000   1.0000   1.0000   1.0000
     1.0000   1.0000   1.0000   1.0000   1.0000   1.0000   1.0000   1.0000
     1.0000   1.0000   1.0000   1.0000   1.0000   1.0000   1.0000   1.0000
     1.0000   1.0000   1.0000   1.0000   1.0000   1.0000   1.0000   1.0000
     1.0000   1.0000   1.0000   1.0000   1.0000   1.0000   1.0000   1.0000
     1.0000   1.0000   1.0000   1.0000   1.0000   1.0000   1.0000   1.0000
     1.0000   1.0000   1.0000   1.0000   1.0000   1.0000   1.0000   1.0000
     1.0000   1.0000   1.0000   1.0000   1.0000   1.0000   1.0000   1.0000
     1.0000   1.0000   1.0000   1.0000   1.0000   1.0000   1.0000   1.0000
     1.0000   1.0000   1.0000   1.0000   1.0000   1.0000   1.0000   1.0000
     1.0000   1.0000   1.0000   1.0000   1.0000   1.0000   1.0000   1.0000
     1.0000   1.0000   1.0000   1.0000   1.0000   1.0000   1.0000   1.0000
     1.0000   1.0000   1.0000   1.0000   1.0000   1.0000   1.0000   1.0000
     1.0000   1.0000   1.0000   1.0000   1.0000   1.0000   1.0000   1.0000
     1.0000   1.0000   1.0000   1.0000   1.0000   1.0000   1.0000   1.0000
     1.0000   1.0000   1.0000   1.0000   1.0000   1.0000   1.0000   1.0000
     1.0000   1.0000   1.0000   1.0000   1.0000   1.0000   1.0000   1.0000
     1.0000   1.0000   1.0000   1.0000   1.0000   1.0000   1.0000   1.0000
     1.0000   1.0000   1.0000   1.0000   1.0000   1.0000   1.0000   1.0000
     1.0000   1.0000   1.0000   1.0000   1.0000   1.0000   1.0000   1.0000
     1.0000   1.0000   1.0000   1.0000   1.0000   1.0000   1.0000   1.0000
     1.0000   1.0000   1.0000   1.0000   1.0000   1.0000   1.0000   1.0000
     1.0000   1.0000   1.0000   1.0000   1.0000   1.0000   1.0000   1.0000
     1.0000   1.0000   1.0000   1.0000   1.0000   1.0000   1.0000   1.0000
     1.0000   1.0000   1.0000   1.0000   1.0000   1.0000   1.0000   1.0000
     1.0000   1.0000   1.0000   1.0000   1.0000   1.0000   1.0000   1.0000
     1.0000   1.0000   1.0000   1.0000   1.0000   1.0000   1.0000   1.0000
     1.0000   1.0000   1.0000   1.0000   1.0000   1.0000   1.0000   1.0000
     1.0000   1.0000   1.0000   1.0000   1.0000   1.0000   1.0000   1.0000
     1.0000   1.0000   1.0000   1.0000   1.0000   1.0000   1.0000   1.0000
     1.0000   1.0000   1.0000   1.0000   1.0000   1.0000   1.0000   1.0000
     1.0000   1.0000   1.0000   1.0000   1.0000   1.0000   1.0000   1.0000
     1.0000   1.0000   1.0000   1.0000   1.0000   1.0000   1.0000   1.0000
     1.0000   1.0000   1.0000   1.0000   1.0000   1.0000   1.0000   1.0000
     1.0000   1.0000   1.0000   1.0000   1.0000   1.0000   1.0000   1.0000
     1.0000   1.0000   1.0000   1.0000   1.0000   1.0000   1.0000   1.0000
     1.0000   1.0000   1.0000   1.0000   1.0000   1.0000   1.0000   1.0000
     1.0000   1.0000   1.0000   1.0000   1.0000   1.0000   1.0000   1.0000
     1.0000   1.0000   1.0000   1.0000   1.0000   1.0000   1.0000   1.0000
     1.0000   1.0000   1.0000   1.0000   1.0000   1.0000   1.0000   1.0000
     1.0000   1.0000   1.0000   1.0000   1.0000   1.0000   1.0000   1.0000
     1.0000   1.0000   1.0000   1.0000   1.0000   1.0000   1.0000   1.0000
     1.0000   1.0000   1.0000   1.0000   1.0000   1.0000   1.0000   1.0000
     1.0000   1.0000   1.0000   1.0000

          k = 0.0000-0.0001 0.5344 ( 45195 PWs)   bands (ev):

  -115.0494-115.0466-115.0459-115.0419-115.0415-115.0405-115.0403-115.0400
  -115.0391-115.0385-115.0383-115.0378-115.0377-115.0367-115.0358-115.0322
  -115.0320-115.0320-115.0316-115.0314-115.0312-115.0294-115.0293-115.0274
  -115.0264-115.0258-115.0258-115.0203 -69.4083 -69.4071 -69.4060 -69.4052
   -69.4029 -69.4021 -69.4017 -69.4015 -69.4010 -69.4010 -69.4003 -69.4000
   -69.3998 -69.3993 -69.3992 -69.3987 -69.3987 -69.3986 -69.3984 -69.3983
   -69.3979 -69.3976 -69.3975 -69.3971 -69.3969 -69.3966 -69.3965 -69.3962
   -69.3956 -69.3950 -69.3950 -69.3948 -69.3943 -69.3943 -69.3931 -69.3929
   -69.3928 -69.3927 -69.3924 -69.3922 -69.3920 -69.3918 -69.3913 -69.3911
   -69.3910 -69.3906 -69.3906 -69.3900 -69.3898 -69.3897 -69.3896 -69.3893
   -69.3889 -69.3887 -69.3886 -69.3886 -69.3883 -69.3878 -69.3875 -69.3872
   -69.3871 -69.3870 -69.3866 -69.3865 -69.3864 -69.3864 -69.3858 -69.3854
   -69.3852 -69.3851 -69.3839 -69.3837 -69.3834 -69.3827 -69.3823 -69.3822
   -69.3813 -69.3811 -69.3808 -69.3803 -69.3799 -69.3787 -69.3772 -69.3744
   -64.5187 -64.5158 -64.5057 -64.5053 -64.5034 -64.5025 -64.5023 -64.4862
   -31.5093 -31.5068 -31.5060 -31.5035 -31.5025 -31.5021 -31.4981 -31.4956
   -31.4952 -31.4934 -31.4927 -31.4926 -31.4904 -31.4895 -31.4895 -31.4893
   -31.4885 -31.4878 -31.4871 -31.4857 -31.4825 -31.4742 -31.4713 -31.4695
    -9.7280  -9.6723  -9.3325  -9.3298  -9.3021  -9.2907  -9.2762  -9.2626
    -9.2465  -9.2223  -9.1967  -9.1927  -9.1583  -9.1296  -9.1132  -9.0952
    -9.0338  -9.0169  -8.9944  -8.9701  -8.9525  -8.9430  -8.9254  -8.9136
    -8.8967  -8.8902  -8.8850  -8.8763  -8.8702  -8.8402  -8.8167  -8.7810
    -8.7612  -8.7499  -8.7308  -8.7181   2.0447   2.0503   2.0616   2.0723
     2.0815   2.0913   2.1132   2.1313   2.1420   2.1524   2.1759   2.1882
     2.2177   2.2331   2.2495   2.2781   2.2935   2.3102   2.3297   2.3370
     2.3664   2.3812   2.3916   2.4011   2.4230   2.4275   2.4412   2.4510
     2.4595   2.4702   2.4873   2.4954   2.5097   2.5271   2.5365   2.5616
     2.5724   2.5861   2.5893   2.6160   2.6231   2.6370   2.6453   2.6543
     2.6607   2.6761   2.6801   2.6960   2.7068   2.7166   2.7259   2.7333
     2.7443   2.7492   2.7548   2.7655   2.7768   2.7838   2.7916   2.8000
     2.8028   2.8096   2.8176   2.8333   2.8375   2.8589   2.8644   2.8769
     2.8889   2.9015   2.9120   2.9195   2.9308   2.9396   2.9560   2.9671
     3.0018   3.0108   3.0399   3.0611   3.0865   3.1027   3.1168   3.1279
     3.1594   3.1743   3.2064   3.2290   3.2504   3.2623   3.2831   3.3112
     3.3231   3.3343   3.3439   3.3746   3.3785   3.3899   3.4305   3.4603
     3.4731   3.4914   3.5163   3.5376   3.5439   3.5476   3.5555   3.5682
     3.5769   3.5876   3.5923   3.5963   3.6078   3.6110   3.6165   3.6240
     3.6352   3.6446   3.6525   3.6619   3.6685   3.6754   3.6824   3.7004
     3.7047   3.7078   3.7174   3.7249   3.7353   3.7410   3.7444   3.7565
     3.7672   3.7809   3.7866   3.7932   3.8083   3.8139   3.8337   3.8493
     4.0983   4.1633   4.1863   4.2055   4.2170   4.2387   4.2504   4.2779
     4.2860   4.3127   4.3481   4.3848   4.4124   4.4272   4.4583   4.4735
     4.4901   4.5217   4.5408   4.5862   4.5995   4.6203   4.6417   4.6782
     4.7467   4.7570   4.8096   4.8641   4.9097   4.9508   5.0121   5.0315
     5.1207   5.1568   5.1738   5.2074   5.2249   5.2799   5.4587   5.5472
     5.5760   5.6144   5.6394   5.6965   5.7348   5.7489   5.7837   5.8090
     5.8540   5.8757   5.9166   5.9697   5.9917   6.0082   6.1438   6.1682
     6.2102   6.2199   6.2300   6.2660   6.2826   6.3043   6.3107   6.3294
     6.3407   6.3642   6.3846   6.4104   6.4204   6.4328   6.4453   6.4825
     6.5218   6.5307   6.7343   6.7657   6.8582   6.9097   6.9410   6.9618
     6.9756   6.9794   7.0076   7.0372   7.0617   7.0958   7.1101   7.1234
     7.1513   7.1671   7.1811   7.1868   7.2059   7.2177   7.2326   7.2418
     7.2445   7.2606   7.2753   7.2900   7.2977   7.3290   7.3428   7.3559
     7.7263   7.7410   7.7814   7.7934

     occupation numbers 
     1.0000   1.0000   1.0000   1.0000   1.0000   1.0000   1.0000   1.0000
     1.0000   1.0000   1.0000   1.0000   1.0000   1.0000   1.0000   1.0000
     1.0000   1.0000   1.0000   1.0000   1.0000   1.0000   1.0000   1.0000
     1.0000   1.0000   1.0000   1.0000   1.0000   1.0000   1.0000   1.0000
     1.0000   1.0000   1.0000   1.0000   1.0000   1.0000   1.0000   1.0000
     1.0000   1.0000   1.0000   1.0000   1.0000   1.0000   1.0000   1.0000
     1.0000   1.0000   1.0000   1.0000   1.0000   1.0000   1.0000   1.0000
     1.0000   1.0000   1.0000   1.0000   1.0000   1.0000   1.0000   1.0000
     1.0000   1.0000   1.0000   1.0000   1.0000   1.0000   1.0000   1.0000
     1.0000   1.0000   1.0000   1.0000   1.0000   1.0000   1.0000   1.0000
     1.0000   1.0000   1.0000   1.0000   1.0000   1.0000   1.0000   1.0000
     1.0000   1.0000   1.0000   1.0000   1.0000   1.0000   1.0000   1.0000
     1.0000   1.0000   1.0000   1.0000   1.0000   1.0000   1.0000   1.0000
     1.0000   1.0000   1.0000   1.0000   1.0000   1.0000   1.0000   1.0000
     1.0000   1.0000   1.0000   1.0000   1.0000   1.0000   1.0000   1.0000
     1.0000   1.0000   1.0000   1.0000   1.0000   1.0000   1.0000   1.0000
     1.0000   1.0000   1.0000   1.0000   1.0000   1.0000   1.0000   1.0000
     1.0000   1.0000   1.0000   1.0000   1.0000   1.0000   1.0000   1.0000
     1.0000   1.0000   1.0000   1.0000   1.0000   1.0000   1.0000   1.0000
     1.0000   1.0000   1.0000   1.0000   1.0000   1.0000   1.0000   1.0000
     1.0000   1.0000   1.0000   1.0000   1.0000   1.0000   1.0000   1.0000
     1.0000   1.0000   1.0000   1.0000   1.0000   1.0000   1.0000   1.0000
     1.0000   1.0000   1.0000   1.0000   1.0000   1.0000   1.0000   1.0000
     1.0000   1.0000   1.0000   1.0000   1.0000   1.0000   1.0000   1.0000
     1.0000   1.0000   1.0000   1.0000   1.0000   1.0000   1.0000   1.0000
     1.0000   1.0000   1.0000   1.0000   1.0000   1.0000   1.0000   1.0000
     1.0000   1.0000   1.0000   1.0000   1.0000   1.0000   1.0000   1.0000
     1.0000   1.0000   1.0000   1.0000   1.0000   1.0000   1.0000   1.0000
     1.0000   1.0000   1.0000   1.0000   1.0000   1.0000   1.0000   1.0000
     1.0000   1.0000   1.0000   1.0000   1.0000   1.0000   1.0000   1.0000
     1.0000   1.0000   1.0000   1.0000   1.0000   1.0000   1.0000   1.0000
     1.0000   1.0000   1.0000   1.0000   1.0000   1.0000   1.0000   1.0000
     1.0000   1.0000   1.0000   1.0000   1.0000   1.0000   1.0000   1.0000
     1.0000   1.0000   1.0000   1.0000   1.0000   1.0000   1.0000   1.0000
     1.0000   1.0000   1.0000   1.0000   1.0000   1.0000   1.0000   1.0000
     1.0000   1.0000   1.0000   1.0000   1.0000   1.0000   1.0000   1.0000
     1.0000   1.0000   1.0000   1.0000   1.0000   1.0000   1.0000   1.0000
     1.0000   1.0000   1.0000   1.0000   1.0000   1.0000   1.0000   1.0000
     1.0000   1.0000   1.0000   1.0000   1.0000   1.0000   1.0000   1.0000
     1.0000   1.0000   1.0000   1.0000   1.0000   1.0000   1.0000   1.0000
     1.0000   1.0000   1.0000   1.0000   1.0000   1.0000   1.0000   1.0000
     1.0000   1.0000   1.0000   1.0000   1.0000   1.0000   1.0000   1.0000
     1.0000   1.0000   1.0000   1.0000   1.0000   1.0000   1.0000   1.0000
     1.0000   1.0000   1.0000   1.0000   1.0000   1.0000   1.0000   1.0000
     1.0000   1.0000   1.0000   1.0000   1.0000   1.0000   1.0000   1.0000
     1.0000   1.0000   1.0000   1.0000   1.0000   1.0000   1.0000   1.0000
     1.0000   1.0000   1.0000   1.0000   1.0000   1.0000   1.0000   1.0000
     1.0000   1.0000   1.0000   1.0000   1.0000   1.0000   1.0000   1.0000
     1.0000   1.0000   1.0000   1.0000   1.0000   1.0000   1.0000   1.0000
     1.0000   1.0000   1.0000   1.0000   1.0000   1.0000   1.0000   1.0000
     1.0000   1.0000   1.0000   1.0000   1.0000   1.0000   1.0000   1.0000
     1.0000   1.0000   1.0000   1.0000   1.0000   1.0000   1.0000   1.0000
     1.0000   1.0000   1.0000   1.0000   1.0000   1.0000   1.0000   1.0000
     1.0000   1.0000   1.0000   1.0000

          k = 0.0000-0.0002 0.6679 ( 45163 PWs)   bands (ev):

  -115.0494-115.0466-115.0459-115.0419-115.0415-115.0405-115.0403-115.0400
  -115.0391-115.0385-115.0383-115.0378-115.0377-115.0367-115.0358-115.0322
  -115.0320-115.0320-115.0316-115.0314-115.0312-115.0294-115.0293-115.0274
  -115.0264-115.0258-115.0258-115.0203 -69.4083 -69.4071 -69.4060 -69.4052
   -69.4029 -69.4021 -69.4017 -69.4015 -69.4010 -69.4010 -69.4003 -69.4000
   -69.3998 -69.3993 -69.3992 -69.3987 -69.3987 -69.3986 -69.3984 -69.3983
   -69.3979 -69.3976 -69.3975 -69.3971 -69.3969 -69.3966 -69.3965 -69.3962
   -69.3956 -69.3950 -69.3950 -69.3948 -69.3943 -69.3943 -69.3931 -69.3929
   -69.3928 -69.3927 -69.3924 -69.3922 -69.3920 -69.3918 -69.3913 -69.3910
   -69.3910 -69.3906 -69.3906 -69.3900 -69.3898 -69.3897 -69.3896 -69.3893
   -69.3889 -69.3887 -69.3886 -69.3886 -69.3883 -69.3878 -69.3875 -69.3872
   -69.3870 -69.3870 -69.3866 -69.3865 -69.3864 -69.3864 -69.3858 -69.3854
   -69.3852 -69.3851 -69.3839 -69.3837 -69.3834 -69.3827 -69.3823 -69.3822
   -69.3813 -69.3811 -69.3808 -69.3803 -69.3799 -69.3787 -69.3772 -69.3744
   -64.5187 -64.5158 -64.5057 -64.5053 -64.5034 -64.5025 -64.5023 -64.4862
   -31.5093 -31.5068 -31.5060 -31.5035 -31.5025 -31.5021 -31.4980 -31.4956
   -31.4952 -31.4934 -31.4927 -31.4926 -31.4904 -31.4895 -31.4895 -31.4893
   -31.4885 -31.4879 -31.4872 -31.4857 -31.4825 -31.4741 -31.4713 -31.4695
    -9.7698  -9.6060  -9.3573  -9.3469  -9.3249  -9.2943  -9.2770  -9.2467
    -9.2294  -9.2210  -9.2037  -9.1797  -9.1474  -9.1264  -9.0927  -9.0733
    -9.0453  -9.0253  -9.0123  -8.9808  -8.9693  -8.9481  -8.9215  -8.9073
    -8.9017  -8.8956  -8.8869  -8.8711  -8.8667  -8.8410  -8.8162  -8.7810
    -8.7608  -8.7587  -8.7215  -8.7073   2.0246   2.0336   2.0424   2.0609
     2.0743   2.0883   2.1119   2.1275   2.1340   2.1464   2.1616   2.1779
     2.1923   2.2060   2.2107   2.2513   2.2821   2.2914   2.3074   2.3565
     2.3831   2.3984   2.4087   2.4208   2.4360   2.4453   2.4591   2.4656
     2.4771   2.4909   2.4936   2.5106   2.5193   2.5320   2.5445   2.5560
     2.5659   2.5882   2.6005   2.6129   2.6186   2.6332   2.6372   2.6536
     2.6636   2.6722   2.6823   2.6975   2.7170   2.7251   2.7265   2.7343
[...]
    -9.0381  -9.0283  -9.0065  -8.9828  -8.9631  -8.9603  -8.9526  -8.9370
    -8.9265  -8.8996  -8.8861  -8.8684  -8.8562  -8.8432  -8.8118  -8.7908
    -8.7669  -8.7425  -8.7112  -8.6942   2.0170   2.0413   2.0629   2.0677
     2.0757   2.0988   2.1357   2.1467   2.1628   2.1763   2.1838   2.1952
     2.2258   2.2321   2.2537   2.2640   2.2859   2.3050   2.3095   2.3376
     2.3523   2.3606   2.3907   2.3973   2.4177   2.4231   2.4601   2.4673
     2.4757   2.4961   2.5123   2.5216   2.5346   2.5404   2.5536   2.5588
     2.5663   2.5766   2.5886   2.6012   2.6081   2.6181   2.6250   2.6295
     2.6419   2.6519   2.6645   2.6684   2.6791   2.6909   2.7040   2.7107
     2.7200   2.7284   2.7359   2.7455   2.7476   2.7569   2.7589   2.7851
     2.7923   2.8018   2.8145   2.8260   2.8445   2.8638   2.8732   2.8813
     2.8857   2.9031   2.9148   2.9276   2.9353   2.9511   2.9814   2.9949
     3.0179   3.0266   3.0728   3.0801   3.1064   3.1199   3.1274   3.1584
     3.1794   3.2009   3.2236   3.2336   3.2452   3.2713   3.2758   3.3141
     3.3437   3.3545   3.3686   3.3790   3.4031   3.4221   3.4378   3.4593
     3.4799   3.4849   3.5041   3.5141   3.5305   3.5379   3.5490   3.5613
     3.5707   3.5796   3.5944   3.5985   3.6052   3.6200   3.6310   3.6361
     3.6412   3.6510   3.6617   3.6658   3.6781   3.6849   3.6918   3.7058
     3.7080   3.7150   3.7199   3.7289   3.7403   3.7459   3.7526   3.7661
     3.7752   3.7788   3.7847   3.8149   3.8268   3.8464   3.8522   3.8785
     3.9032   3.9509   3.9983   4.0338   4.0698   4.0984   4.1163   4.1353
     4.1807   4.2094   4.2564   4.2777   4.2990   4.3451   4.3736   4.4260
     4.4601   4.4971   4.5224   4.5460   4.6193   4.6875   4.7575   4.7814
     4.9642   4.9963   5.0595   5.1151   5.1286   5.1811   5.2319   5.2415
     5.2673   5.3086   5.3692   5.3860   5.4111   5.4325   5.4506   5.4990
     5.5125   5.5930   5.6435   5.6667   5.6935   5.7809   5.8004   5.8836
     5.8948   5.9248   5.9420   5.9690   5.9954   6.0090   6.1539   6.1847
     6.2432   6.2514   6.3206   6.3710   6.4073   6.4381   6.4531   6.4994
     6.5007   6.5265   6.5320   6.5641   6.6021   6.6352   6.6434   6.6521
     6.6674   6.6837   6.6900   6.7116   6.7205   6.7323   6.7585   6.7703
     6.7764   6.7814   6.7974   6.7980   6.8075   6.8189   6.8545   6.8576
     6.8934   6.9174   6.9373   6.9697   7.0335   7.0643   7.0728   7.0887
     7.1282   7.2407   7.2436   7.2678   7.2882   7.3152   7.3507   7.3781
     7.5904   7.6376   7.7008   7.7711

     occupation numbers 
     1.0000   1.0000   1.0000   1.0000   1.0000   1.0000   1.0000   1.0000
     1.0000   1.0000   1.0000   1.0000   1.0000   1.0000   1.0000   1.0000
     1.0000   1.0000   1.0000   1.0000   1.0000   1.0000   1.0000   1.0000
     1.0000   1.0000   1.0000   1.0000   1.0000   1.0000   1.0000   1.0000
     1.0000   1.0000   1.0000   1.0000   1.0000   1.0000   1.0000   1.0000
     1.0000   1.0000   1.0000   1.0000   1.0000   1.0000   1.0000   1.0000
     1.0000   1.0000   1.0000   1.0000   1.0000   1.0000   1.0000   1.0000
     1.0000   1.0000   1.0000   1.0000   1.0000   1.0000   1.0000   1.0000
     1.0000   1.0000   1.0000   1.0000   1.0000   1.0000   1.0000   1.0000
     1.0000   1.0000   1.0000   1.0000   1.0000   1.0000   1.0000   1.0000
     1.0000   1.0000   1.0000   1.0000   1.0000   1.0000   1.0000   1.0000
     1.0000   1.0000   1.0000   1.0000   1.0000   1.0000   1.0000   1.0000
     1.0000   1.0000   1.0000   1.0000   1.0000   1.0000   1.0000   1.0000
     1.0000   1.0000   1.0000   1.0000   1.0000   1.0000   1.0000   1.0000
     1.0000   1.0000   1.0000   1.0000   1.0000   1.0000   1.0000   1.0000
     1.0000   1.0000   1.0000   1.0000   1.0000   1.0000   1.0000   1.0000
     1.0000   1.0000   1.0000   1.0000   1.0000   1.0000   1.0000   1.0000
     1.0000   1.0000   1.0000   1.0000   1.0000   1.0000   1.0000   1.0000
     1.0000   1.0000   1.0000   1.0000   1.0000   1.0000   1.0000   1.0000
     1.0000   1.0000   1.0000   1.0000   1.0000   1.0000   1.0000   1.0000
     1.0000   1.0000   1.0000   1.0000   1.0000   1.0000   1.0000   1.0000
     1.0000   1.0000   1.0000   1.0000   1.0000   1.0000   1.0000   1.0000
     1.0000   1.0000   1.0000   1.0000   1.0000   1.0000   1.0000   1.0000
     1.0000   1.0000   1.0000   1.0000   1.0000   1.0000   1.0000   1.0000
     1.0000   1.0000   1.0000   1.0000   1.0000   1.0000   1.0000   1.0000
     1.0000   1.0000   1.0000   1.0000   1.0000   1.0000   1.0000   1.0000
     1.0000   1.0000   1.0000   1.0000   1.0000   1.0000   1.0000   1.0000
     1.0000   1.0000   1.0000   1.0000   1.0000   1.0000   1.0000   1.0000
     1.0000   1.0000   1.0000   1.0000   1.0000   1.0000   1.0000   1.0000
     1.0000   1.0000   1.0000   1.0000   1.0000   1.0000   1.0000   1.0000
     1.0000   1.0000   1.0000   1.0000   1.0000   1.0000   1.0000   1.0000
     1.0000   1.0000   1.0000   1.0000   1.0000   1.0000   1.0000   1.0000
     1.0000   1.0000   1.0000   1.0000   1.0000   1.0000   1.0000   1.0000
     1.0000   1.0000   1.0000   1.0000   1.0000   1.0000   1.0000   1.0000
     1.0000   1.0000   1.0000   1.0000   1.0000   1.0000   1.0000   1.0000
     1.0000   1.0000   1.0000   1.0000   1.0000   1.0000   1.0000   1.0000
     1.0000   1.0000   1.0000   1.0000   1.0000   1.0000   1.0000   1.0000
     1.0000   1.0000   1.0000   1.0000   1.0000   1.0000   1.0000   1.0000
     1.0000   1.0000   1.0000   1.0000   1.0000   1.0000   1.0000   1.0000
     1.0000   1.0000   1.0000   1.0000   1.0000   1.0000   1.0000   1.0000
     1.0000   1.0000   1.0000   1.0000   1.0000   1.0000   1.0000   1.0000
     1.0000   1.0000   1.0000   1.0000   1.0000   1.0000   1.0000   1.0000
     1.0000   1.0000   1.0000   1.0000   1.0000   1.0000   1.0000   1.0000
     1.0000   1.0000   1.0000   1.0000   1.0000   1.0000   1.0000   1.0000
     1.0000   1.0000   1.0000   1.0000   1.0000   1.0000   1.0000   1.0000
     1.0000   1.0000   1.0000   1.0000   1.0000   1.0000   1.0000   1.0000
     1.0000   1.0000   1.0000   1.0000   1.0000   1.0000   1.0000   1.0000
     1.0000   1.0000   1.0000   1.0000   1.0000   1.0000   1.0000   1.0000
     1.0000   1.0000   1.0000   1.0000   1.0000   1.0000   1.0000   1.0000
     1.0000   1.0000   1.0000   1.0000   1.0000   1.0000   1.0000   1.0000
     1.0000   1.0000   1.0000   1.0000   1.0000   1.0000   1.0000   1.0000
     1.0000   1.0000   1.0000   1.0000   1.0000   1.0000   1.0000   1.0000
     1.0000   1.0000   1.0000   1.0000   1.0000   1.0000   1.0000   1.0000
     1.0000   1.0000   1.0000   1.0000

     highest occupied level (ev):     7.8626



               ==================================================
                            POLARIZATION CALCULATION
                         !!! NOT THOROUGHLY TESTED !!!
               --------------------------------------------------


                     K-POINTS STRINGS USED IN CALCULATIONS
                     ~~~~~~~~~~~~~~~~~~~~~~~~~~~~~~~~~~~~~

       G-vector along string (2 pi/a):  0.00001 -0.00021  0.93512
       Modulus of the vector (1/bohr):  0.31964
       Number of k-points per string:   8
       Number of different strings  :  10


                               IONIC POLARIZATION
                               ~~~~~~~~~~~~~~~~~~

        Note: (mod 1) means that the phases (angles ranging from
        -pi to pi) have been mapped to the interval [-1/2,+1/2) by
        dividing by 2*pi; (mod 2) refers to the interval [-1,+1)

  ============================================================================
    Ion    Species    Charge              Position                Phase
  ----------------------------------------------------------------------------
     1        Zn      20.000       0.1658  0.0972  0.2074    -0.12071 (mod 2)
     2        Zn      20.000       0.1688  0.0952  0.7421    -0.12154 (mod 2)
     3        Zn      20.000       0.0007  0.3851  0.2064    -0.14151 (mod 2)
     4        Zn      20.000       0.0005  0.3863  0.7409    -0.14485 (mod 2)
     5        Zn      20.000      -0.1658  0.6745  0.2084    -0.10484 (mod 2)
     6        Zn      20.000      -0.1658  0.6741  0.7431    -0.10482 (mod 2)
     7        Zn      20.000       0.4989  0.0965  0.2077    -0.11627 (mod 2)
     8        Zn      20.000       0.5005  0.0959  0.7422    -0.12023 (mod 2)
     9        Zn      20.000       0.3327  0.3864  0.2051    -0.16591 (mod 2)
    10        Mg      10.000       0.3351  0.3834  0.7425     0.94259 (mod 2)
    11        Mg      10.000       0.1669  0.6758  0.2075    -0.06133 (mod 2)
    12        Zn      20.000       0.1672  0.6738  0.7404    -0.15634 (mod 2)
    13        Zn      20.000       0.8350  0.0969  0.2067    -0.13443 (mod 2)
    14        Zn      20.000       0.8313  0.0962  0.7417    -0.12808 (mod 2)
    15        Mg      10.000       0.6667  0.3872  0.2091    -0.04508 (mod 2)
    16        Zn      20.000       0.6666  0.3851  0.7401    -0.15896 (mod 2)
    17        Zn      20.000       0.4998  0.6751  0.2067    -0.13708 (mod 2)
    18        Mg      10.000       0.5016  0.6745  0.7436     0.95224 (mod 2)
    19        Mg      10.000      -0.0010  0.1921  0.4765     0.45510 (mod 2)
    20        Zn      20.000      -0.0006  0.1923  1.0081     0.85261 (mod 2)
    21        Zn      20.000      -0.1648  0.4815  0.4751     0.88434 (mod 2)
    22        Zn      20.000      -0.1682  0.4805  1.0099     0.88583 (mod 2)
    23        Zn      20.000      -0.3330  0.7698  0.4748     0.87608 (mod 2)
    24        Zn      20.000      -0.3320  0.7706  1.0100     0.88531 (mod 2)
    25        Zn      20.000       0.3334  0.1936  0.4747     0.87665 (mod 2)
    26        Zn      20.000       0.3337  0.1915  1.0101     0.89076 (mod 2)
    27        Mg      10.000       0.1670  0.4810  0.4737     0.42884 (mod 2)
    28        Mg      10.000       0.1655  0.4825  1.0079    -0.57605 (mod 2)
    29        Zn      20.000      -0.0003  0.7712  0.4751     0.88231 (mod 2)
    30        Zn      20.000       0.0008  0.7704  1.0100     0.88670 (mod 2)
    31        Zn      20.000       0.6663  0.1914  0.4730     0.84509 (mod 2)
    32        Mg      10.000       0.6665  0.1934  1.0097    -0.55824 (mod 2)
    33        Zn      20.000       0.4983  0.4823  0.4739     0.86087 (mod 2)
    34        Zn      20.000       0.5022  0.4806  1.0084     0.85746 (mod 2)
    35        Zn      20.000       0.3343  0.7709  0.4746     0.87376 (mod 2)
    36        Zn      20.000       0.3322  0.7708  1.0091     0.86865 (mod 2)
    37        O        6.000       0.1662  0.0965  0.0040     0.02226 (mod 2)
    38        O        6.000       0.1666  0.0964  0.5380    -0.98130 (mod 2)
    39        O        6.000       0.0001  0.3847  0.0026     0.01384 (mod 2)
    40        O        6.000       0.0013  0.3846  0.5375    -0.98494 (mod 2)
    41        O        6.000      -0.1659  0.6732  0.0042     0.02290 (mod 2)
    42        O        6.000      -0.1663  0.6739  0.5392    -0.97534 (mod 2)
    43        O        6.000       0.5006  0.0962  0.0038     0.02112 (mod 2)
    44        O        6.000       0.4997  0.0970  0.5385    -0.97843 (mod 2)
    45        O        6.000       0.3328  0.3856  0.0008     0.00410 (mod 2)
    46        O        6.000       0.3327  0.3856  0.5396    -0.97292 (mod 2)
    47        O        6.000       0.1668  0.6733  0.0049     0.02643 (mod 2)
    48        O        6.000       0.1670  0.6736  0.5361    -0.99268 (mod 2)
    49        O        6.000       0.8331  0.0967  0.0029     0.01637 (mod 2)
    50        O        6.000       0.8327  0.0966  0.5383    -0.97997 (mod 2)
    51        O        6.000       0.6668  0.3843  0.0062     0.03418 (mod 2)
    52        O        6.000       0.6666  0.3853  0.5358    -0.99424 (mod 2)
    53        O        6.000       0.5002  0.6739  0.0022     0.01170 (mod 2)
    54        O        6.000       0.5004  0.6743  0.5402    -0.96970 (mod 2)
    55        O        6.000      -0.0000  0.1934  0.2731    -0.46770 (mod 2)
    56        O        6.000       0.0001  0.1922  0.8036     0.50859 (mod 2)
    57        O        6.000      -0.1660  0.4818  0.2712    -0.47894 (mod 2)
    58        O        6.000      -0.1668  0.4809  0.8057     0.52018 (mod 2)
    59        O        6.000      -0.3333  0.7704  0.2710    -0.48068 (mod 2)
    60        O        6.000      -0.3324  0.7698  0.8065     0.52421 (mod 2)
    61        O        6.000       0.3328  0.1940  0.2707    -0.48146 (mod 2)
    62        O        6.000       0.3341  0.1920  0.8062     0.52336 (mod 2)
    63        O        6.000       0.1667  0.4832  0.2702    -0.48442 (mod 2)
    64        O        6.000       0.1684  0.4809  0.8047     0.51423 (mod 2)
    65        O        6.000       0.0003  0.7709  0.2716    -0.47738 (mod 2)
    66        O        6.000       0.0013  0.7697  0.8060     0.52145 (mod 2)
    67        O        6.000       0.6668  0.1935  0.2689    -0.49120 (mod 2)
    68        O        6.000       0.6663  0.1935  0.8068     0.52659 (mod 2)
    69        O        6.000       0.4993  0.4825  0.2703    -0.48372 (mod 2)
    70        O        6.000       0.5004  0.4817  0.8046     0.51373 (mod 2)
    71        O        6.000       0.3337  0.7711  0.2709    -0.48125 (mod 2)
    72        O        6.000       0.3338  0.7698  0.8052     0.51705 (mod 2)
  ----------------------------------------------------------------------------
                                               IONIC PHASE:  -0.40504 (mod 2)
  ============================================================================


                            ELECTRONIC POLARIZATION
                            ~~~~~~~~~~~~~~~~~~~~~~~

        Note: (mod 1) means that the phases (angles ranging from
        -pi to pi) have been mapped to the interval [-1/2,+1/2) by
        dividing by 2*pi; (mod 2) refers to the interval [-1,+1)

  ============================================================================
   Spin    String     Weight      First k-point in string         Phase
  ----------------------------------------------------------------------------
    up        1      0.062500      0.0000  0.0000  0.0000     0.07694 (mod 1)
    up        2      0.125000     -0.0001  0.2885 -0.0001     0.07150 (mod 1)
    up        3      0.062500      0.0003 -0.5771  0.0001     0.06824 (mod 1)
    up        4      0.125000      0.2499  0.1442 -0.0000     0.07155 (mod 1)
    up        5      0.125000      0.2498  0.4327 -0.0001     0.06823 (mod 1)
    up        6      0.125000      0.2502 -0.4329  0.0001     0.06820 (mod 1)
    up        7      0.125000      0.2501 -0.1444  0.0000     0.07152 (mod 1)
    up        8      0.062500     -0.4999 -0.2883  0.0001     0.06828 (mod 1)
    up        9      0.125000     -0.5000  0.0002 -0.0000     0.06823 (mod 1)
    up       10      0.062500     -0.4996 -0.8654  0.0002     0.06823 (mod 1)
  ----------------------------------------------------------------------------
   down       1      0.062500      0.0000  0.0000  0.0000     0.07694 (mod 1)
   down       2      0.125000     -0.0001  0.2885 -0.0001     0.07150 (mod 1)
   down       3      0.062500      0.0003 -0.5771  0.0001     0.06824 (mod 1)
   down       4      0.125000      0.2499  0.1442 -0.0000     0.07155 (mod 1)
   down       5      0.125000      0.2498  0.4327 -0.0001     0.06823 (mod 1)
   down       6      0.125000      0.2502 -0.4329  0.0001     0.06820 (mod 1)
   down       7      0.125000      0.2501 -0.1444  0.0000     0.07152 (mod 1)
   down       8      0.062500     -0.4999 -0.2883  0.0001     0.06828 (mod 1)
   down       9      0.125000     -0.5000  0.0002 -0.0000     0.06823 (mod 1)
   down      10      0.062500     -0.4996 -0.8654  0.0002     0.06823 (mod 1)
  ----------------------------------------------------------------------------
                                        Average phase (up):   0.07001 (mod 1)
                                      Average phase (down):   0.07001 (mod 1)
                                          ELECTRONIC PHASE:   0.14002 (mod 2)
  ============================================================================


                               SUMMARY OF PHASES
                               ~~~~~~~~~~~~~~~~~

                          Ionic Phase: -0.40504 (mod 2)
                     Electronic Phase:  0.14002 (mod 2)
                          TOTAL PHASE: -0.26503 (mod 2)


                             VALUES OF POLARIZATION
                             ~~~~~~~~~~~~~~~~~~~~~~

        The calculation of phases done along the direction of vector 3
        of the reciprocal lattice gives the following contribution to
        the polarization vector (in different units, and being Omega
        the volume of the unit cell):

           P =  -5.2096541  (mod  39.3141756)  (e/Omega).bohr

           P =  -0.0009053  (mod   0.0068315)  e/bohr^2

           P =  -0.0517553  (mod   0.3905670)  C/m^2

        The polarization direction is:  (-0.00002 , 0.00023 , 1.00000 )


               ==================================================



     Writing output data file ZnO.save/
 
     init_run     :      1.13s CPU      3.24s WALL (       1 calls)
     electrons    :   1892.07s CPU   2004.00s WALL (       1 calls)

     Called by init_run:
     wfcinit      :      0.00s CPU      0.00s WALL (       1 calls)
     wfcinit:atom :      0.37s CPU      0.45s WALL (      80 calls)
     wfcinit:wfcr :     64.06s CPU     67.31s WALL (      80 calls)
     potinit      :      0.15s CPU      0.70s WALL (       1 calls)
     hinit0       :      0.25s CPU      1.46s WALL (       1 calls)

     Called by electrons:
     c_bands      :   1283.76s CPU   1393.41s WALL (       1 calls)
     v_of_rho     :      0.13s CPU      0.47s WALL (       1 calls)
     v_h          :      0.00s CPU      0.00s WALL (       1 calls)
     v_xc         :      0.13s CPU      0.47s WALL (       1 calls)
     newd         :      0.14s CPU      0.27s WALL (       1 calls)

     Called by c_bands:
     init_us_2    :      1.30s CPU      1.59s WALL (     220 calls)
     cegterg      :   1215.54s CPU   1321.33s WALL (      80 calls)

     Called by sum_band:

     Called by *egterg:
     h_psi        :    357.43s CPU    368.80s WALL (    1190 calls)
     s_psi        :     71.46s CPU     71.51s WALL (    1190 calls)
     g_psi        :      1.24s CPU      1.26s WALL (    1030 calls)
     cdiaghg      :    470.94s CPU    552.04s WALL (    1110 calls)
     cegterg:over :    134.51s CPU    147.42s WALL (    1030 calls)
     cegterg:upda :    107.40s CPU    107.95s WALL (    1030 calls)
     cegterg:last :    116.94s CPU    117.52s WALL (     320 calls)
     cdiaghg:chol :     27.18s CPU     28.34s WALL (    1110 calls)
     cdiaghg:inve :     30.01s CPU     30.27s WALL (    1110 calls)
     cdiaghg:para :     80.31s CPU    152.42s WALL (    2220 calls)

     Called by h_psi:
     h_psi:pot    :    354.36s CPU    365.22s WALL (    1190 calls)
     h_psi:calbec :     84.52s CPU     92.80s WALL (    1190 calls)
     vloc_psi     :    197.05s CPU    199.12s WALL (    1190 calls)
     add_vuspsi   :     72.76s CPU     73.29s WALL (    1190 calls)

     General routines
     calbec       :    100.89s CPU    110.52s WALL (    1330 calls)
     fft          :      0.02s CPU      0.62s WALL (      13 calls)
     ffts         :      0.00s CPU      0.01s WALL (       1 calls)
     fftw         :    190.18s CPU    192.17s WALL (  777822 calls)
     interpolate  :      0.00s CPU      0.01s WALL (       1 calls)
 
     Parallel routines
     fft_scatt_xy :     20.16s CPU     20.35s WALL (  777836 calls)
     fft_scatt_yz :     89.14s CPU     90.31s WALL (  777836 calls)
 
     PWSCF        :  32m16.19s CPU  34m37.97s WALL

 
   This run was terminated on:  18:29:14  17Sep2021            

=------------------------------------------------------------------------------=
   JOB DONE.
=------------------------------------------------------------------------------=
