
     Program PWSCF v.6.4.1 starts on 15Jul2022 at  1:25:43 

     This program is part of the open-source Quantum ESPRESSO suite
     for quantum simulation of materials; please cite
         "P. Giannozzi et al., J. Phys.:Condens. Matter 21 395502 (2009);
         "P. Giannozzi et al., J. Phys.:Condens. Matter 29 465901 (2017);
          URL http://www.quantum-espresso.org", 
     in publications or presentations arising from this work. More details at
     http://www.quantum-espresso.org/quote

     Parallel version (MPI), running on   128 processors

     MPI processes distributed on     2 nodes
     K-points division:     npool     =       8
     R & G space division:  proc/nbgrp/npool/nimage =      16
     Waiting for input...
     Reading input from standard input
Warning: card &IONS ignored
Warning: card   UPSCALE           = 100.D0, ignored
Warning: card / ignored
Warning: card &CELL ignored
Warning: card   CELL_DYNAMICS     = 'BFGS' ignored
Warning: card   PRESS_CONV_THR    = 0.5D0 ignored
Warning: card   CELL_DOFREE = 'ALL' ignored
Warning: card / ignored

     Current dimensions of program PWSCF are:
     Max number of different atomic species (ntypx) = 10
     Max number of k-points (npk) =  40000
     Max angular momentum in pseudopotentials (lmaxx) =  3

     Subspace diagonalization in iterative solution of the eigenvalue problem:
     one sub-group per band group will be used
     scalapack distributed-memory algorithm (size of sub-group:  2*  2 procs)

 
     Parallelization info
     --------------------
     sticks:   dense  smooth     PW     G-vecs:    dense   smooth      PW
     Min         731     351     95                67268    22365    3224
     Max         732     352     96                67270    22367    3229
     Sum       11705    5617   1531              1076301   357851   51643
 


     bravais-lattice index     =            0
     lattice parameter (alat)  =      18.4226  a.u.
     unit-cell volume          =    5700.0529 (a.u.)^3
     number of atoms/cell      =           72
     number of atomic types    =            3
     number of electrons       =       816.00
     number of Kohn-Sham states=          490
     kinetic-energy cutoff     =      60.0000  Ry
     charge density cutoff     =     500.0000  Ry
     convergence threshold     =      1.0E-08
     mixing beta               =       0.5000
     number of iterations used =            8  plain     mixing
     Exchange-correlation      = SLA  PW   PSX  PSC ( 1  4 10  8 0 0)
     Using LIBXC version       =    4   3   4

     celldm(1)=  18.422634  celldm(2)=   0.000000  celldm(3)=   0.000000
     celldm(4)=   0.000000  celldm(5)=   0.000000  celldm(6)=   0.000000

     crystal axes: (cart. coord. in units of alat)
               a(1) = (   1.000000  -0.000928  -0.000030 )  
               a(2) = (  -0.500802   0.866030   0.000259 )  
               a(3) = (  -0.000032   0.000301   1.053232 )  

     reciprocal axes: (cart. coord. in units 2 pi/alat)
               b(1) = (  1.000537  0.578584 -0.000135 )  
               b(2) = (  0.001072  1.155315 -0.000331 )  
               b(3) = (  0.000028 -0.000267  0.949458 )  


     PseudoPot. # 1 for Zn read from file:
     ./GBRV_PBEsol/zn_pbesol_v1.uspp.F.UPF
     MD5 check sum: 7d8615e52efe7c1e2b1899de8658bae2
     Pseudo is Ultrasoft, Zval = 20.0
     Generated by new atomic code, or converted to UPF format
     Using radial grid of  943 points,  6 beta functions with: 
                l(1) =   0
                l(2) =   0
                l(3) =   1
                l(4) =   1
                l(5) =   2
                l(6) =   2
     Q(r) pseudized with  8 coefficients,  rinner =    1.100   1.100   1.100
                                                       1.100   1.100

     PseudoPot. # 2 for O  read from file:
     ./GBRV_PBEsol/o_pbesol_v1.2.uspp.F.UPF
     MD5 check sum: 501638753501ef6325af9037351f7734
     Pseudo is Ultrasoft + core correction, Zval =  6.0
     Generated by new atomic code, or converted to UPF format
     Using radial grid of  737 points,  5 beta functions with: 
                l(1) =   0
                l(2) =   0
                l(3) =   1
                l(4) =   1
                l(5) =   2
     Q(r) pseudized with  8 coefficients,  rinner =    0.900   0.900   0.900
                                                       0.900   0.900

     PseudoPot. # 3 for Mg read from file:
     ./GBRV_PBEsol/mg_pbesol_v1.4.uspp.F.UPF
     MD5 check sum: 4059f37963cf5867752dbf5ab2400678
     Pseudo is Ultrasoft, Zval = 10.0
     Generated by new atomic code, or converted to UPF format
     Using radial grid of  821 points,  7 beta functions with: 
                l(1) =   0
                l(2) =   0
                l(3) =   0
                l(4) =   1
                l(5) =   1
                l(6) =   2
                l(7) =   2
     Q(r) pseudized with  8 coefficients,  rinner =    1.200   1.200   1.200
                                                       1.200   1.200

     atomic species   valence    mass     pseudopotential
        Zn            20.00    65.38000     Zn( 1.00)
        O              6.00    15.99900     O ( 1.00)
        Mg            10.00    24.30500     Mg( 1.00)

     No symmetry found


                                    s                        frac. trans.

      isym =  1     identity                                     

 cryst.   s( 1) = (     1          0          0      )
                  (     0          1          0      )
                  (     0          0          1      )

 cart.    s( 1) = (  1.0000000  0.0000000 -0.0000000 )
                  (  0.0000000  1.0000000  0.0000000 )
                  (  0.0000000 -0.0000000  1.0000000 )


   Cartesian axes

     site n.     atom                  positions (alat units)
         1           Zn  tau(   1) = (   0.1665449   0.0963820   0.2057848  )
         2           Zn  tau(   2) = (   0.1668558   0.0959767   0.7315836  )
         3           Zn  tau(   3) = (   0.0010001   0.3842240   0.2049988  )
         4           Zn  tau(   4) = (  -0.0012834   0.3860987   0.7317780  )
         5           Zn  tau(   5) = (  -0.1666635   0.6767726   0.2045112  )
         6           Zn  tau(   6) = (  -0.1682669   0.6716834   0.7312625  )
         7           Zn  tau(   7) = (   0.4991696   0.0948786   0.2062769  )
         8           Zn  tau(   8) = (   0.5002000   0.0966465   0.7329678  )
         9           Zn  tau(   9) = (   0.3329306   0.3842948   0.2035682  )
        10           Mg  tau(  10) = (   0.3334856   0.3827452   0.7332736  )
        11           Mg  tau(  11) = (   0.1644918   0.6754976   0.2056106  )
        12           Zn  tau(  12) = (   0.1671236   0.6717602   0.7294572  )
        13           Zn  tau(  13) = (   0.8334755   0.0950217   0.2042629  )
        14           Mg  tau(  14) = (   0.8319970   0.0946213   0.7340402  )
        15           Zn  tau(  15) = (   0.6647257   0.3833073   0.2044153  )
        16           Mg  tau(  16) = (   0.6664546   0.3844400   0.7329248  )
        17           Mg  tau(  17) = (   0.4991271   0.6729210   0.2041247  )
        18           Mg  tau(  18) = (   0.4979377   0.6714504   0.7314829  )
        19           Zn  tau(  19) = (  -0.0014865   0.1926261   0.4699590  )
        20           Zn  tau(  20) = (   0.0012175   0.1944651   0.9952097  )
        21           Zn  tau(  21) = (  -0.1676758   0.4815904   0.4668397  )
        22           Mg  tau(  22) = (  -0.1658343   0.4813844   0.9982345  )
        23           Mg  tau(  23) = (  -0.3341182   0.7699600   0.4683280  )
        24           Mg  tau(  24) = (  -0.3326425   0.7719769   0.9940963  )
        25           Zn  tau(  25) = (   0.3337940   0.1938253   0.4695605  )
        26           Zn  tau(  26) = (   0.3337387   0.1918740   0.9964086  )
        27           Mg  tau(  27) = (   0.1672194   0.4788400   0.4676231  )
        28           Mg  tau(  28) = (   0.1661866   0.4814576   0.9946193  )
        29           Mg  tau(  29) = (  -0.0009392   0.7706184   0.4719472  )
        30           Zn  tau(  30) = (   0.0002313   0.7688547   0.9936665  )
        31           Zn  tau(  31) = (   0.6671214   0.1928335   0.4684556  )
        32           Zn  tau(  32) = (   0.6652868   0.1917094   0.9950601  )
        33           Zn  tau(  33) = (   0.4990935   0.4793513   0.4681045  )
        34           Zn  tau(  34) = (   0.4999630   0.4812576   0.9933351  )
        35           Zn  tau(  35) = (   0.3327665   0.7694826   0.4673587  )
        36           Zn  tau(  36) = (   0.3316613   0.7676248   0.9943707  )
        37           O   tau(  37) = (   0.1665538   0.0965568   0.0030675  )
        38           O   tau(  38) = (   0.1665075   0.0963286   0.5284128  )
        39           O   tau(  39) = (   0.0006748   0.3856645   0.0024702  )
        40           O   tau(  40) = (  -0.0008603   0.3856392   0.5285033  )
        41           O   tau(  41) = (  -0.1673853   0.6741396   0.0015755  )
        42           O   tau(  42) = (  -0.1679319   0.6739370   0.5285128  )
        43           O   tau(  43) = (   0.4998896   0.0944183   0.0033290  )
        44           O   tau(  44) = (   0.5000613   0.0969650   0.5297390  )
        45           O   tau(  45) = (   0.3329883   0.3850365   0.0002255  )
        46           O   tau(  46) = (   0.3326263   0.3848654   0.5315739  )
        47           O   tau(  47) = (   0.1655505   0.6723424   0.0039797  )
        48           O   tau(  48) = (   0.1656627   0.6718228   0.5259269  )
        49           O   tau(  49) = (   0.8336154   0.0952232   0.0005394  )
        50           O   tau(  50) = (   0.8325586   0.0950783   0.5316152  )
        51           O   tau(  51) = (   0.6663811   0.3842740   0.0011736  )
        52           O   tau(  52) = (   0.6666278   0.3848125   0.5305515  )
        53           O   tau(  53) = (   0.5009077   0.6737083   0.0017237  )
        54           O   tau(  54) = (   0.4996081   0.6730030   0.5288174  )
        55           O   tau(  55) = (  -0.0005185   0.1923832   0.2666660  )
        56           O   tau(  56) = (  -0.0005397   0.1924083   0.7918490  )
        57           O   tau(  57) = (  -0.1672916   0.4817354   0.2630150  )
        58           O   tau(  58) = (  -0.1676284   0.4805841   0.7959040  )
        59           O   tau(  59) = (  -0.3350020   0.7696144   0.2660041  )
        60           O   tau(  60) = (  -0.3353925   0.7688855   0.7918063  )
        61           O   tau(  61) = (   0.3332015   0.1927408   0.2662007  )
        62           O   tau(  62) = (   0.3331316   0.1910733   0.7935338  )
        63           O   tau(  63) = (   0.1669962   0.4823431   0.2652883  )
        64           O   tau(  64) = (   0.1671516   0.4798990   0.7923748  )
        65           O   tau(  65) = (  -0.0007269   0.7698725   0.2698205  )
        66           O   tau(  66) = (  -0.0002131   0.7685269   0.7900170  )
        67           O   tau(  67) = (   0.6668166   0.1913704   0.2655937  )
        68           O   tau(  68) = (   0.6668318   0.1924675   0.7924027  )
        69           O   tau(  69) = (   0.4992274   0.4808081   0.2651933  )
        70           O   tau(  70) = (   0.4995877   0.4798822   0.7905669  )
        71           O   tau(  71) = (   0.3327922   0.7687329   0.2643018  )
        72           O   tau(  72) = (   0.3326685   0.7683476   0.7916700  )

   Crystallographic axes

     site n.     atom                  positions (cryst. coord.)
         1           Zn  tau(   1) = (  0.2223717  0.1114620  0.1953630  )
         2           Zn  tau(   2) = (  0.2223773  0.1108203  0.6945871  )
         3           Zn  tau(   3) = (  0.2232788  0.4438328  0.1945351  )
         4           Zn  tau(   4) = (  0.2220076  0.4458220  0.6946894  )
         5           Zn  tau(   5) = (  0.2247891  0.7816389  0.1939892  )
         6           Zn  tau(   6) = (  0.2201692  0.7755833  0.6941189  )
         7           Zn  tau(   7) = (  0.5543052  0.1100816  0.1958399  )
         8           Zn  tau(   8) = (  0.5562879  0.1119510  0.6959104  )
         9           Zn  tau(   9) = (  0.5554288  0.4442710  0.1931860  )
        10           Mg  tau(  10) = (  0.5550161  0.4423062  0.6961196  )
        11           Mg  tau(  11) = (  0.5553845  0.7805206  0.1950426  )
        12           Zn  tau(  12) = (  0.5557846  0.7760323  0.6924142  )
        13           Zn  tau(  13) = (  0.8888739  0.1106061  0.1939369  )
        14           Mg  tau(  14) = (  0.8870915  0.1099667  0.6969384  )
        15           Zn  tau(  15) = (  0.8868308  0.4434857  0.1939999  )
        16           Mg  tau(  16) = (  0.8891446  0.4446214  0.6957973  )
        17           Mg  tau(  17) = (  0.8887091  0.7779032  0.1936419  )
        18           Mg  tau(  18) = (  0.8865970  0.7760285  0.6943468  )
        19           Zn  tau(  19) = (  0.1098996  0.2223867  0.4461549  )
        20           Zn  tau(  20) = (  0.1135982  0.2243406  0.9448581  )
        21           Zn  tau(  21) = (  0.1108116  0.5560542  0.4431113  )
        22           Mg  tau(  22) = (  0.1124631  0.5556425  0.9476487  )
        23           Mg  tau(  23) = (  0.1111255  0.8890329  0.4444427  )
        24           Mg  tau(  24) = (  0.1136980  0.8911908  0.9436373  )
        25           Zn  tau(  25) = (  0.4460542  0.2241318  0.4457855  )
        26           Zn  tau(  26) = (  0.4447988  0.2217032  0.9460063  )
        27           Mg  tau(  27) = (  0.4442953  0.5532355  0.4438652  )
        28           Mg  tau(  28) = (  0.4447053  0.5560843  0.9442254  )
        29           Mg  tau(  29) = (  0.4448640  0.8901496  0.4478880  )
        30           Zn  tau(  30) = (  0.4449443  0.8879407  0.9432393  )
        31           Zn  tau(  31) = (  0.7789871  0.2233438  0.4447461  )
        32           Zn  tau(  32) = (  0.7764301  0.2218690  0.9447353  )
        33           Zn  tau(  33) = (  0.7766435  0.5541819  0.4443314  )
        34           Zn  tau(  34) = (  0.7785455  0.5562115  0.9430155  )
        35           Zn  tau(  35) = (  0.7780926  0.8891967  0.4435411  )
        36           Zn  tau(  36) = (  0.7758408  0.8868749  0.9439174  )
        37           O   tau(  37) = (  0.2225091  0.1117311  0.0028913  )
        38           O   tau(  38) = (  0.2222599  0.1112937  0.5016848  )
        39           O   tau(  39) = (  0.2238141  0.4455637  0.0022422  )
        40           O   tau(  40) = (  0.2221926  0.4453589  0.5016887  )
        41           O   tau(  41) = (  0.2225708  0.7786633  0.0013109  )
        42           O   tau(  42) = (  0.2218356  0.7782544  0.5016159  )
        43           O   tau(  43) = (  0.5547866  0.1096177  0.0031494  )
        44           O   tau(  44) = (  0.5563609  0.1123861  0.5029531  )
        45           O   tau(  45) = (  0.5559431  0.4451952  0.0001204  )
        46           O   tau(  46) = (  0.5554102  0.4448215  0.5046136  )
        47           O   tau(  47) = (  0.5546454  0.7769432  0.0036034  )
        48           O   tau(  48) = (  0.5543866  0.7761704  0.4991706  )
        49           O   tau(  49) = (  0.8891579  0.1109064  0.0005099  )
        50           O   tau(  50) = (  0.8879450  0.1105622  0.5047442  )
        51           O   tau(  51) = (  0.8890739  0.4446715  0.0010301  )
        52           O   tau(  52) = (  0.8895607  0.4451188  0.5036522  )
        53           O   tau(  53) = (  0.8909734  0.7788816  0.0014704  )
        54           O   tau(  54) = (  0.8891939  0.7778910  0.5019240  )
        55           O   tau(  55) = (  0.1107550  0.2221744  0.2531368  )
        56           O   tau(  56) = (  0.1106775  0.2220297  0.7517761  )
        57           O   tau(  57) = (  0.1113074  0.5562896  0.2495883  )
        58           O   tau(  58) = (  0.1102323  0.5547828  0.7555445  )
        59           O   tau(  59) = (  0.1100686  0.8886996  0.2523446  )
        60           O   tau(  60) = (  0.1091851  0.8876831  0.7515721  )
        61           O   tau(  61) = (  0.4448614  0.2229455  0.2527042  )
        62           O   tau(  62) = (  0.4437555  0.2208446  0.7533854  )
        63           O   tau(  63) = (  0.4461261  0.5573493  0.2517559  )
        64           O   tau(  64) = (  0.4447963  0.5543516  0.7522031  )
        65           O   tau(  65) = (  0.4446721  0.8893549  0.2559774  )
        66           O   tau(  66) = (  0.4443374  0.8876288  0.7498826  )
        67           O   tau(  67) = (  0.7778630  0.2217202  0.2521375  )
        68           O   tau(  68) = (  0.7784418  0.2228134  0.7523204  )
        69           O   tau(  69) = (  0.7776478  0.5559322  0.2516753  )
        70           O   tau(  70) = (  0.7774016  0.5546892  0.7504959  )
        71           O   tau(  71) = (  0.7777119  0.8883978  0.2507472  )
        72           O   tau(  72) = (  0.7772940  0.8877782  0.7514614  )

     number of k points=    36  Marzari-Vanderbilt smearing, width (Ry)=  0.0010
                       cart. coord. in units 2pi/alat
        k(    1) = (   0.0000000   0.0000000   0.0000000), wk =   0.0312500
        k(    2) = (   0.0000070  -0.0000669   0.2373646), wk =   0.0625000
        k(    3) = (  -0.0000139   0.0001337  -0.4747291), wk =   0.0312500
        k(    4) = (   0.0002681   0.2888286  -0.0000827), wk =   0.0625000
        k(    5) = (   0.0002750   0.2887618   0.2372819), wk =   0.0625000
        k(    6) = (   0.0002541   0.2889624  -0.4748118), wk =   0.0625000
        k(    7) = (   0.0002611   0.2888955  -0.2374472), wk =   0.0625000
        k(    8) = (  -0.0005361  -0.5776573   0.0001653), wk =   0.0312500
        k(    9) = (  -0.0005292  -0.5777241   0.2375299), wk =   0.0625000
        k(   10) = (  -0.0005501  -0.5775236  -0.4745638), wk =   0.0312500
        k(   11) = (   0.2501344   0.1446460  -0.0000337), wk =   0.0625000
        k(   12) = (   0.2501413   0.1445791   0.2373308), wk =   0.0625000
        k(   13) = (   0.2501204   0.1447797  -0.4747629), wk =   0.0625000
        k(   14) = (   0.2501274   0.1447128  -0.2373983), wk =   0.0625000
        k(   15) = (   0.2504024   0.4334746  -0.0001164), wk =   0.0625000
        k(   16) = (   0.2504094   0.4334078   0.2372482), wk =   0.0625000
        k(   17) = (   0.2503885   0.4336083  -0.4748455), wk =   0.0625000
        k(   18) = (   0.2503954   0.4335415  -0.2374810), wk =   0.0625000
        k(   19) = (   0.2495982  -0.4330113   0.0001316), wk =   0.0625000
        k(   20) = (   0.2496052  -0.4330782   0.2374962), wk =   0.0625000
        k(   21) = (   0.2495843  -0.4328776  -0.4745975), wk =   0.0625000
        k(   22) = (   0.2495913  -0.4329445  -0.2372330), wk =   0.0625000
        k(   23) = (   0.2498663  -0.1441827   0.0000489), wk =   0.0625000
        k(   24) = (   0.2498733  -0.1442495   0.2374135), wk =   0.0625000
        k(   25) = (   0.2498524  -0.1440490  -0.4746802), wk =   0.0625000
        k(   26) = (   0.2498593  -0.1441158  -0.2373156), wk =   0.0625000
        k(   27) = (  -0.5002687  -0.2892920   0.0000675), wk =   0.0312500
        k(   28) = (  -0.5002617  -0.2893588   0.2374320), wk =   0.0625000
        k(   29) = (  -0.5002826  -0.2891583  -0.4746617), wk =   0.0312500
        k(   30) = (  -0.5000006  -0.0004633  -0.0000152), wk =   0.0625000
        k(   31) = (  -0.4999937  -0.0005302   0.2373494), wk =   0.0625000
        k(   32) = (  -0.5000146  -0.0003296  -0.4747443), wk =   0.0625000
        k(   33) = (  -0.5000076  -0.0003965  -0.2373798), wk =   0.0625000
        k(   34) = (  -0.5008048  -0.8669493   0.0002328), wk =   0.0312500
        k(   35) = (  -0.5007979  -0.8670161   0.2375974), wk =   0.0625000
        k(   36) = (  -0.5008188  -0.8668155  -0.4744963), wk =   0.0312500

                       cryst. coord.
        k(    1) = (   0.0000000   0.0000000   0.0000000), wk =   0.0312500
        k(    2) = (  -0.0000000  -0.0000000   0.2500000), wk =   0.0625000
        k(    3) = (   0.0000000   0.0000000  -0.5000000), wk =   0.0312500
        k(    4) = (   0.0000000   0.2500000  -0.0000000), wk =   0.0625000
        k(    5) = (   0.0000000   0.2500000   0.2500000), wk =   0.0625000
        k(    6) = (   0.0000000   0.2500000  -0.5000000), wk =   0.0625000
        k(    7) = (   0.0000000   0.2500000  -0.2500000), wk =   0.0625000
        k(    8) = (  -0.0000000  -0.5000000   0.0000000), wk =   0.0312500
        k(    9) = (  -0.0000000  -0.5000000   0.2500000), wk =   0.0625000
        k(   10) = (  -0.0000000  -0.5000000  -0.5000000), wk =   0.0312500
        k(   11) = (   0.2500000   0.0000000  -0.0000000), wk =   0.0625000
        k(   12) = (   0.2500000   0.0000000   0.2500000), wk =   0.0625000
        k(   13) = (   0.2500000   0.0000000  -0.5000000), wk =   0.0625000
        k(   14) = (   0.2500000   0.0000000  -0.2500000), wk =   0.0625000
        k(   15) = (   0.2500000   0.2500000  -0.0000000), wk =   0.0625000
        k(   16) = (   0.2500000   0.2500000   0.2500000), wk =   0.0625000
        k(   17) = (   0.2500000   0.2500000  -0.5000000), wk =   0.0625000
        k(   18) = (   0.2500000   0.2500000  -0.2500000), wk =   0.0625000
        k(   19) = (   0.2500000  -0.5000000   0.0000000), wk =   0.0625000
        k(   20) = (   0.2500000  -0.5000000   0.2500000), wk =   0.0625000
        k(   21) = (   0.2500000  -0.5000000  -0.5000000), wk =   0.0625000
        k(   22) = (   0.2500000  -0.5000000  -0.2500000), wk =   0.0625000
        k(   23) = (   0.2500000  -0.2500000   0.0000000), wk =   0.0625000
        k(   24) = (   0.2500000  -0.2500000   0.2500000), wk =   0.0625000
        k(   25) = (   0.2500000  -0.2500000  -0.5000000), wk =   0.0625000
        k(   26) = (   0.2500000  -0.2500000  -0.2500000), wk =   0.0625000
        k(   27) = (  -0.5000000  -0.0000000   0.0000000), wk =   0.0312500
        k(   28) = (  -0.5000000  -0.0000000   0.2500000), wk =   0.0625000
        k(   29) = (  -0.5000000  -0.0000000  -0.5000000), wk =   0.0312500
        k(   30) = (  -0.5000000   0.2500000  -0.0000000), wk =   0.0625000
        k(   31) = (  -0.5000000   0.2500000   0.2500000), wk =   0.0625000
        k(   32) = (  -0.5000000   0.2500000  -0.5000000), wk =   0.0625000
        k(   33) = (  -0.5000000   0.2500000  -0.2500000), wk =   0.0625000
        k(   34) = (  -0.5000000  -0.5000000   0.0000000), wk =   0.0312500
        k(   35) = (  -0.5000000  -0.5000000   0.2500000), wk =   0.0625000
        k(   36) = (  -0.5000000  -0.5000000  -0.5000000), wk =   0.0312500

     Dense  grid:  1076301 G-vectors     FFT dimensions: ( 135, 135, 144)

     Smooth grid:   357851 G-vectors     FFT dimensions: (  96,  96,  96)

     Dynamical RAM for                 wfc:      20.91 MB

     Dynamical RAM for     wfc (w. buffer):     125.43 MB

     Dynamical RAM for           str. fact:       3.08 MB

     Dynamical RAM for           local pot:       0.00 MB

     Dynamical RAM for          nlocal pot:      48.12 MB

     Dynamical RAM for                qrad:      21.02 MB

     Dynamical RAM for          rho,v,vnew:       6.83 MB

     Dynamical RAM for               rhoin:       2.28 MB

     Dynamical RAM for            rho*nmix:      16.42 MB

     Dynamical RAM for           G-vectors:       4.02 MB

     Dynamical RAM for          h,s,v(r/c):      43.96 MB

     Dynamical RAM for          <psi|beta>:       8.43 MB

     Dynamical RAM for                 psi:      83.62 MB

     Dynamical RAM for                hpsi:      83.62 MB

     Dynamical RAM for                spsi:      83.62 MB

     Dynamical RAM for      wfcinit/wfcrot:      50.13 MB

     Dynamical RAM for           addusdens:      31.82 MB

     Estimated static dynamical RAM per process >     237.57 MB

     Estimated max dynamical RAM per process >     540.83 MB

     Estimated total dynamical RAM >      67.60 GB

     Check: negative core charge=   -0.000002

     Initial potential from superposition of free atoms

     starting charge  812.39409, renormalised to  816.00000
     Starting wfcs are  516 randomized atomic wfcs

     total cpu time spent up to now is       14.9 secs

     Self-consistent Calculation

     iteration #  1     ecut=    60.00 Ry     beta= 0.50
     Davidson diagonalization with overlap
     ethr =  1.00E-02,  avg # of iterations =  4.6

     total cpu time spent up to now is       75.6 secs

     total energy              =  -13727.75207837 Ry
     Harris-Foulkes estimate   =  -13741.52174617 Ry
     estimated scf accuracy    <      20.63783034 Ry

     iteration #  2     ecut=    60.00 Ry     beta= 0.50
     Davidson diagonalization with overlap
     ethr =  2.53E-03,  avg # of iterations =  3.1

     total cpu time spent up to now is      146.1 secs

     total energy              =  -13733.90719462 Ry
     Harris-Foulkes estimate   =  -13738.94997560 Ry
     estimated scf accuracy    <      11.56542003 Ry

     iteration #  3     ecut=    60.00 Ry     beta= 0.50
     Davidson diagonalization with overlap
     ethr =  1.42E-03,  avg # of iterations =  2.9

     total cpu time spent up to now is      202.7 secs

     total energy              =  -13735.98535550 Ry
     Harris-Foulkes estimate   =  -13736.06890625 Ry
     estimated scf accuracy    <       0.22379228 Ry

     iteration #  4     ecut=    60.00 Ry     beta= 0.50
     Davidson diagonalization with overlap
     ethr =  2.74E-05,  avg # of iterations =  5.1

     total cpu time spent up to now is      288.9 secs

     total energy              =  -13736.00889043 Ry
     Harris-Foulkes estimate   =  -13736.04974345 Ry
     estimated scf accuracy    <       0.11942842 Ry

     iteration #  5     ecut=    60.00 Ry     beta= 0.50
     Davidson diagonalization with overlap
     ethr =  1.46E-05,  avg # of iterations =  4.8

     total cpu time spent up to now is      358.8 secs

     total energy              =  -13736.02615797 Ry
     Harris-Foulkes estimate   =  -13736.02659762 Ry
     estimated scf accuracy    <       0.00281650 Ry

     iteration #  6     ecut=    60.00 Ry     beta= 0.50
     Davidson diagonalization with overlap
     ethr =  3.45E-07,  avg # of iterations =  5.5

     total cpu time spent up to now is      455.0 secs

     total energy              =  -13736.02656993 Ry
     Harris-Foulkes estimate   =  -13736.02675246 Ry
     estimated scf accuracy    <       0.00060423 Ry

     iteration #  7     ecut=    60.00 Ry     beta= 0.50
     Davidson diagonalization with overlap
     ethr =  7.40E-08,  avg # of iterations =  2.0

     total cpu time spent up to now is      497.3 secs

     total energy              =  -13736.02670826 Ry
     Harris-Foulkes estimate   =  -13736.02672621 Ry
     estimated scf accuracy    <       0.00012537 Ry

     iteration #  8     ecut=    60.00 Ry     beta= 0.50
     Davidson diagonalization with overlap
     ethr =  1.54E-08,  avg # of iterations =  2.0

     total cpu time spent up to now is      538.3 secs

     total energy              =  -13736.02673421 Ry
     Harris-Foulkes estimate   =  -13736.02673099 Ry
     estimated scf accuracy    <       0.00001282 Ry

     iteration #  9     ecut=    60.00 Ry     beta= 0.50
     Davidson diagonalization with overlap
     ethr =  1.57E-09,  avg # of iterations =  2.0

     total cpu time spent up to now is      582.1 secs

     total energy              =  -13736.02673619 Ry
     Harris-Foulkes estimate   =  -13736.02673632 Ry
     estimated scf accuracy    <       0.00000192 Ry

     iteration # 10     ecut=    60.00 Ry     beta= 0.50
     Davidson diagonalization with overlap
     ethr =  2.35E-10,  avg # of iterations =  2.0

     total cpu time spent up to now is      629.8 secs

     total energy              =  -13736.02673662 Ry
     Harris-Foulkes estimate   =  -13736.02673666 Ry
     estimated scf accuracy    <       0.00000046 Ry

     iteration # 11     ecut=    60.00 Ry     beta= 0.50
     Davidson diagonalization with overlap
     ethr =  5.58E-11,  avg # of iterations =  2.0

     total cpu time spent up to now is      671.4 secs

     total energy              =  -13736.02673671 Ry
     Harris-Foulkes estimate   =  -13736.02673671 Ry
     estimated scf accuracy    <       0.00000004 Ry

     iteration # 12     ecut=    60.00 Ry     beta= 0.50
     Davidson diagonalization with overlap
     ethr =  4.78E-12,  avg # of iterations =  2.0

     total cpu time spent up to now is      719.0 secs

     End of self-consistent calculation

          k = 0.0000 0.0000 0.0000 ( 44617 PWs)   bands (ev):

  -115.2634-115.2574-115.2573-115.2546-115.2529-115.2506-115.2474-115.2452
  -115.2439-115.2436-115.2368-115.2362-115.2352-115.2338-115.2322-115.2316
  -115.2302-115.2294-115.2284-115.2283-115.2272-115.2270-115.2269-115.2200
   -69.6246 -69.6206 -69.6189 -69.6188 -69.6158 -69.6154 -69.6153 -69.6145
   -69.6141 -69.6132 -69.6126 -69.6099 -69.6097 -69.6089 -69.6081 -69.6074
   -69.6072 -69.6063 -69.6060 -69.6051 -69.6049 -69.6024 -69.6015 -69.6005
   -69.5998 -69.5997 -69.5989 -69.5989 -69.5982 -69.5979 -69.5974 -69.5973
   -69.5959 -69.5959 -69.5951 -69.5949 -69.5933 -69.5927 -69.5924 -69.5923
   -69.5918 -69.5913 -69.5911 -69.5905 -69.5900 -69.5899 -69.5899 -69.5894
   -69.5889 -69.5878 -69.5876 -69.5866 -69.5866 -69.5863 -69.5857 -69.5850
   -69.5845 -69.5842 -69.5839 -69.5838 -69.5836 -69.5830 -69.5823 -69.5821
   -69.5811 -69.5809 -69.5800 -69.5799 -69.5793 -69.5792 -69.5750 -69.5721
   -64.6896 -64.6855 -64.6823 -64.6785 -64.6738 -64.6655 -64.6626 -64.6544
   -64.6496 -64.6493 -64.6466 -64.6440 -31.6865 -31.6795 -31.6774 -31.6769
   -31.6760 -31.6738 -31.6725 -31.6708 -31.6705 -31.6684 -31.6672 -31.6649
   -31.6637 -31.6611 -31.6584 -31.6571 -31.6566 -31.6522 -31.6517 -31.6508
   -31.6502 -31.6467 -31.6432 -31.6424 -31.6418 -31.6412 -31.6381 -31.6373
   -31.6366 -31.6354 -31.6340 -31.6338 -31.6325 -31.6289 -31.6250 -31.6229
    -9.9893  -9.6452  -9.6111  -9.5659  -9.5515  -9.5151  -9.4680  -9.4186
    -9.3667  -9.3479  -9.3358  -9.3070  -9.2913  -9.2747  -9.2580  -9.2244
    -9.1914  -9.1783  -9.1721  -9.1328  -9.1271  -9.1081  -9.1007  -9.0610
    -9.0301  -9.0244  -9.0190  -8.9916  -8.9818  -8.9707  -8.9426  -8.9363
    -8.9244  -8.8901  -8.8800  -8.7899   1.8076   1.8341   1.8475   1.8534
     1.8875   1.8921   1.9391   1.9617   1.9875   1.9986   2.0198   2.0322
     2.0360   2.0974   2.1039   2.1267   2.1459   2.1818   2.1971   2.2124
     2.2289   2.2481   2.2675   2.2842   2.3008   2.3072   2.3265   2.3368
     2.3606   2.3642   2.3797   2.3877   2.4050   2.4137   2.4250   2.4432
     2.4486   2.4493   2.4694   2.4837   2.4935   2.4957   2.5038   2.5178
     2.5208   2.5339   2.5426   2.5508   2.5604   2.5697   2.5762   2.5928
     2.6101   2.6216   2.6322   2.6452   2.6809   2.6968   2.7129   2.7315
     2.7587   2.7702   2.7836   2.7967   2.8232   2.8366   2.8444   2.8739
     2.8909   2.9084   2.9153   2.9477   2.9663   2.9811   2.9829   3.0172
     3.0319   3.0440   3.0536   3.0658   3.0777   3.0932   3.1310   3.1381
     3.1545   3.1625   3.1781   3.2046   3.2191   3.2212   3.2341   3.2580
     3.2732   3.2830   3.2990   3.3158   3.3275   3.3344   3.3519   3.3679
     3.3763   3.3910   3.3977   3.4042   3.4144   3.4267   3.4382   3.4395
     3.4427   3.4565   3.4684   3.4727   3.5033   3.5068   3.5201   3.5234
     3.5482   3.5739   3.5860   3.6266   3.6590   3.7295   3.7807   3.8033
     3.8232   3.8799   3.8955   3.9009   3.9730   3.9823   4.0104   4.0240
     4.0797   4.0808   4.1029   4.1399   4.1752   4.2184   4.2878   4.3724
     4.3787   4.4128   4.4398   4.4634   4.4936   4.5733   4.5831   4.6238
     4.6478   4.6800   4.7581   4.7902   4.8088   4.8580   4.8820   4.9683
     5.0136   5.0347   5.0750   5.1626   5.1935   5.2878   5.3164   5.3367
     5.4198   5.4680   5.5765   5.6371   5.7096   5.7201   5.7389   5.7500
     5.8060   5.8611   5.8867   5.9004   5.9306   5.9400   5.9491   5.9680
     6.0436   6.0612   6.1436   6.1683   6.1946   6.2016   6.2626   6.2761
     6.3181   6.3359   6.3669   6.3993   6.4266   6.4458   6.4673   6.5070
     6.5215   6.5264   6.5473   6.5738   6.5872   6.5909   6.6056   6.6142
     6.6619   6.6819   6.6911   6.7104   6.7523   6.7910   6.8386   6.8563
     6.8732   6.9051   6.9102   6.9494   6.9595   7.0073   7.0569   7.0822
     7.1496   7.2046   7.2132   7.2390   7.2584   7.5232   7.5350   7.5894
     9.1030  11.6238  11.6569  12.2486  12.3061  12.3634  12.3929  12.5148
    12.7306  13.1819  13.1895  13.2189  13.2611  13.2692  13.3381  13.3763
    13.4096  13.4448  13.5083  13.5721  13.7353  13.8207  15.2564  15.2687
    15.3285  15.3677  15.4323  15.4449  15.5127  15.5347  15.5647  15.5873
    15.6047  15.6272  15.6543  15.6640  15.6897  15.7037  15.7374  15.7732
    15.8189  15.8829  15.9211  16.0213  16.0974  16.1356  16.2278  16.2458
    16.2672  16.2923  16.4326  16.5565  16.5822  16.5947  16.6644  16.6842
    16.6939  16.7002  16.7081  16.7257  16.7399  16.8968  17.1504  17.3409
    17.3559  17.4928  17.6659  17.8262  18.0190  18.0373  18.0529  18.1625
    18.2820  18.5031  18.6535  18.7050  18.7712  18.8485  18.9167  18.9922
    19.0259  19.0899

     occupation numbers 
     1.0000   1.0000   1.0000   1.0000   1.0000   1.0000   1.0000   1.0000
     1.0000   1.0000   1.0000   1.0000   1.0000   1.0000   1.0000   1.0000
     1.0000   1.0000   1.0000   1.0000   1.0000   1.0000   1.0000   1.0000
     1.0000   1.0000   1.0000   1.0000   1.0000   1.0000   1.0000   1.0000
     1.0000   1.0000   1.0000   1.0000   1.0000   1.0000   1.0000   1.0000
     1.0000   1.0000   1.0000   1.0000   1.0000   1.0000   1.0000   1.0000
     1.0000   1.0000   1.0000   1.0000   1.0000   1.0000   1.0000   1.0000
     1.0000   1.0000   1.0000   1.0000   1.0000   1.0000   1.0000   1.0000
     1.0000   1.0000   1.0000   1.0000   1.0000   1.0000   1.0000   1.0000
     1.0000   1.0000   1.0000   1.0000   1.0000   1.0000   1.0000   1.0000
     1.0000   1.0000   1.0000   1.0000   1.0000   1.0000   1.0000   1.0000
     1.0000   1.0000   1.0000   1.0000   1.0000   1.0000   1.0000   1.0000
     1.0000   1.0000   1.0000   1.0000   1.0000   1.0000   1.0000   1.0000
     1.0000   1.0000   1.0000   1.0000   1.0000   1.0000   1.0000   1.0000
     1.0000   1.0000   1.0000   1.0000   1.0000   1.0000   1.0000   1.0000
     1.0000   1.0000   1.0000   1.0000   1.0000   1.0000   1.0000   1.0000
     1.0000   1.0000   1.0000   1.0000   1.0000   1.0000   1.0000   1.0000
     1.0000   1.0000   1.0000   1.0000   1.0000   1.0000   1.0000   1.0000
     1.0000   1.0000   1.0000   1.0000   1.0000   1.0000   1.0000   1.0000
     1.0000   1.0000   1.0000   1.0000   1.0000   1.0000   1.0000   1.0000
     1.0000   1.0000   1.0000   1.0000   1.0000   1.0000   1.0000   1.0000
     1.0000   1.0000   1.0000   1.0000   1.0000   1.0000   1.0000   1.0000
     1.0000   1.0000   1.0000   1.0000   1.0000   1.0000   1.0000   1.0000
     1.0000   1.0000   1.0000   1.0000   1.0000   1.0000   1.0000   1.0000
     1.0000   1.0000   1.0000   1.0000   1.0000   1.0000   1.0000   1.0000
     1.0000   1.0000   1.0000   1.0000   1.0000   1.0000   1.0000   1.0000
     1.0000   1.0000   1.0000   1.0000   1.0000   1.0000   1.0000   1.0000
     1.0000   1.0000   1.0000   1.0000   1.0000   1.0000   1.0000   1.0000
     1.0000   1.0000   1.0000   1.0000   1.0000   1.0000   1.0000   1.0000
     1.0000   1.0000   1.0000   1.0000   1.0000   1.0000   1.0000   1.0000
     1.0000   1.0000   1.0000   1.0000   1.0000   1.0000   1.0000   1.0000
     1.0000   1.0000   1.0000   1.0000   1.0000   1.0000   1.0000   1.0000
     1.0000   1.0000   1.0000   1.0000   1.0000   1.0000   1.0000   1.0000
     1.0000   1.0000   1.0000   1.0000   1.0000   1.0000   1.0000   1.0000
     1.0000   1.0000   1.0000   1.0000   1.0000   1.0000   1.0000   1.0000
     1.0000   1.0000   1.0000   1.0000   1.0000   1.0000   1.0000   1.0000
     1.0000   1.0000   1.0000   1.0000   1.0000   1.0000   1.0000   1.0000
     1.0000   1.0000   1.0000   1.0000   1.0000   1.0000   1.0000   1.0000
     1.0000   1.0000   1.0000   1.0000   1.0000   1.0000   1.0000   1.0000
     1.0000   1.0000   1.0000   1.0000   1.0000   1.0000   1.0000   1.0000
     1.0000   1.0000   1.0000   1.0000   1.0000   1.0000   1.0000   1.0000
     1.0000   1.0000   1.0000   1.0000   1.0000   1.0000   1.0000   1.0000
     1.0000   1.0000   1.0000   1.0000   1.0000   1.0000   1.0000   1.0000
     1.0000   1.0000   1.0000   1.0000   1.0000   1.0000   1.0000   1.0000
     1.0000   1.0000   1.0000   1.0000   1.0000   1.0000   1.0000   1.0000
     1.0000   1.0000   1.0000   1.0000   1.0000   1.0000   1.0000   1.0000
     1.0000   1.0000   1.0000   1.0000   1.0000   1.0000   1.0000   1.0000
     1.0000   1.0000   1.0000   1.0000   1.0000   1.0000   1.0000   1.0000
     1.0000   1.0000   1.0000   1.0000   1.0000   1.0000   1.0000   1.0000
     1.0000   1.0000   1.0000   1.0000   1.0000   1.0000   1.0000   1.0000
     1.0000   1.0000   1.0000   1.0000   1.0000   1.0000   1.0000   1.0000
     0.0000   0.0000   0.0000   0.0000   0.0000   0.0000   0.0000   0.0000
     0.0000   0.0000   0.0000   0.0000   0.0000   0.0000   0.0000   0.0000
     0.0000   0.0000   0.0000   0.0000   0.0000   0.0000   0.0000   0.0000
     0.0000   0.0000   0.0000   0.0000   0.0000   0.0000   0.0000   0.0000
     0.0000   0.0000   0.0000   0.0000   0.0000   0.0000   0.0000   0.0000
     0.0000   0.0000   0.0000   0.0000   0.0000   0.0000   0.0000   0.0000
     0.0000   0.0000   0.0000   0.0000   0.0000   0.0000   0.0000   0.0000
     0.0000   0.0000   0.0000   0.0000   0.0000   0.0000   0.0000   0.0000
     0.0000   0.0000   0.0000   0.0000   0.0000   0.0000   0.0000   0.0000
     0.0000   0.0000   0.0000   0.0000   0.0000   0.0000   0.0000   0.0000
     0.0000   0.0000

          k = 0.0000-0.0001 0.2374 ( 44779 PWs)   bands (ev):

  -115.2634-115.2574-115.2573-115.2546-115.2529-115.2506-115.2474-115.2452
  -115.2439-115.2436-115.2368-115.2362-115.2352-115.2338-115.2322-115.2316
  -115.2302-115.2294-115.2284-115.2283-115.2272-115.2270-115.2269-115.2200
   -69.6246 -69.6206 -69.6189 -69.6188 -69.6158 -69.6154 -69.6153 -69.6145
   -69.6141 -69.6132 -69.6126 -69.6099 -69.6097 -69.6089 -69.6081 -69.6074
   -69.6072 -69.6063 -69.6060 -69.6051 -69.6049 -69.6024 -69.6015 -69.6005
   -69.5998 -69.5997 -69.5989 -69.5989 -69.5982 -69.5979 -69.5974 -69.5973
   -69.5959 -69.5959 -69.5951 -69.5949 -69.5933 -69.5927 -69.5924 -69.5923
   -69.5918 -69.5913 -69.5911 -69.5905 -69.5900 -69.5899 -69.5899 -69.5894
   -69.5889 -69.5878 -69.5876 -69.5866 -69.5866 -69.5863 -69.5857 -69.5850
   -69.5845 -69.5842 -69.5839 -69.5838 -69.5836 -69.5830 -69.5823 -69.5821
   -69.5811 -69.5809 -69.5800 -69.5799 -69.5793 -69.5792 -69.5750 -69.5721
   -64.6896 -64.6855 -64.6823 -64.6785 -64.6738 -64.6655 -64.6626 -64.6544
   -64.6496 -64.6493 -64.6466 -64.6440 -31.6865 -31.6795 -31.6774 -31.6769
   -31.6760 -31.6739 -31.6726 -31.6708 -31.6706 -31.6685 -31.6672 -31.6649
   -31.6636 -31.6611 -31.6584 -31.6571 -31.6565 -31.6522 -31.6518 -31.6508
   -31.6503 -31.6467 -31.6432 -31.6424 -31.6417 -31.6412 -31.6381 -31.6373
   -31.6366 -31.6354 -31.6340 -31.6338 -31.6325 -31.6289 -31.6250 -31.6229
    -9.9644  -9.7530  -9.5694  -9.5428  -9.5225  -9.4970  -9.4549  -9.4142
    -9.3886  -9.3608  -9.3375  -9.3283  -9.3182  -9.2703  -9.2412  -9.2291
    -9.2133  -9.1919  -9.1648  -9.1397  -9.1103  -9.0913  -9.0696  -9.0531
    -9.0224  -9.0175  -9.0118  -8.9948  -8.9792  -8.9620  -8.9470  -8.9428
    -8.9296  -8.9022  -8.8938  -8.7933   1.8257   1.8520   1.8666   1.8806
     1.8995   1.9126   1.9513   1.9767   1.9988   2.0087   2.0232   2.0414
     2.0618   2.0969   2.1138   2.1364   2.1441   2.2003   2.2018   2.2177
     2.2332   2.2502   2.2689   2.2830   2.2865   2.3036   2.3153   2.3203
     2.3483   2.3617   2.3725   2.3887   2.3997   2.4069   2.4163   2.4346
     2.4426   2.4551   2.4627   2.4704   2.4848   2.4938   2.5067   2.5169
     2.5314   2.5390   2.5471   2.5565   2.5643   2.5692   2.5804   2.5946
     2.6056   2.6178   2.6377   2.6395   2.6628   2.6828   2.7087   2.7243
     2.7425   2.7525   2.7633   2.7718   2.7914   2.8021   2.8179   2.8551
     2.8595   2.8836   2.9016   2.9131   2.9421   2.9558   2.9734   2.9847
     3.0041   3.0160   3.0329   3.0391   3.0625   3.0686   3.0958   3.1143
     3.1339   3.1580   3.1718   3.1967   3.2088   3.2253   3.2272   3.2541
     3.2643   3.2764   3.3061   3.3216   3.3338   3.3502   3.3540   3.3645
     3.3759   3.3950   3.4075   3.4134   3.4212   3.4254   3.4406   3.4450
     3.4516   3.4637   3.4716   3.4860   3.4987   3.5088   3.5253   3.5358
     3.5492   3.5640   3.5755   3.6091   3.7153   3.7562   3.7970   3.8524
     3.8710   3.9161   3.9361   3.9639   3.9871   4.0233   4.0499   4.0780
     4.0874   4.0993   4.1320   4.1601   4.1911   4.2228   4.3042   4.3843
     4.3875   4.4135   4.4476   4.5039   4.5315   4.5671   4.5821   4.6513
     4.6665   4.6888   4.7157   4.7670   4.8010   4.8508   4.8978   4.9333
     4.9653   5.0267   5.2028   5.2445   5.2762   5.3119   5.3383   5.3785
     5.4386   5.5127   5.5744   5.6352   5.6797   5.7076   5.7353   5.7831
     5.8065   5.8236   5.8382   5.8708   5.8926   5.9187   5.9373   5.9640
     5.9773   5.9928   6.0151   6.0301   6.0652   6.1271   6.1881   6.2044
     6.2174   6.2567   6.2856   6.3376   6.3719   6.4244   6.4484   6.5019
     6.5197   6.5746   6.5885   6.6019   6.6335   6.6513   6.6809   6.6974
     6.7189   6.7431   6.7695   6.8017   6.8274   6.8512   6.8636   6.8665
     6.9068   6.9451   6.9524   6.9756   6.9939   7.0110   7.0388   7.0604
     7.1165   7.1278   7.1567   7.2930   7.3169   7.3449   7.5202   7.5717
     9.4286  10.8838  12.2267  12.2844  12.3270  12.3813  12.4347  12.5417
    12.7313  12.7580  12.8318  12.9335  12.9705  13.0065  13.1517  13.5296
    13.8507  13.8629  13.9544  13.9886  14.0278  14.1387  14.9919  15.0262
    15.0981  15.1164  15.1549  15.2443  15.3461  15.3565  15.5206  15.5252
    15.6088  15.6213  15.6664  15.6835  15.7245  15.7618  15.8362  15.9055
    15.9378  15.9933  16.0429  16.0686  16.1120  16.1717  16.2030  16.2685
    16.3456  16.3948  16.5246  16.5573  16.5743  16.6003  16.6386  16.6615
    16.6992  16.7722  16.8140  16.8497  16.8960  16.9642  17.0721  17.2742
    17.3964  17.5089  17.5384  17.7420  17.8252  17.9148  17.9980  18.0971
    18.2485  18.3971  18.4672  18.5797  18.6711  18.7752  18.8322  18.9654
    19.0481  19.0806

     occupation numbers 
     1.0000   1.0000   1.0000   1.0000   1.0000   1.0000   1.0000   1.0000
     1.0000   1.0000   1.0000   1.0000   1.0000   1.0000   1.0000   1.0000
     1.0000   1.0000   1.0000   1.0000   1.0000   1.0000   1.0000   1.0000
     1.0000   1.0000   1.0000   1.0000   1.0000   1.0000   1.0000   1.0000
     1.0000   1.0000   1.0000   1.0000   1.0000   1.0000   1.0000   1.0000
     1.0000   1.0000   1.0000   1.0000   1.0000   1.0000   1.0000   1.0000
     1.0000   1.0000   1.0000   1.0000   1.0000   1.0000   1.0000   1.0000
     1.0000   1.0000   1.0000   1.0000   1.0000   1.0000   1.0000   1.0000
     1.0000   1.0000   1.0000   1.0000   1.0000   1.0000   1.0000   1.0000
     1.0000   1.0000   1.0000   1.0000   1.0000   1.0000   1.0000   1.0000
     1.0000   1.0000   1.0000   1.0000   1.0000   1.0000   1.0000   1.0000
     1.0000   1.0000   1.0000   1.0000   1.0000   1.0000   1.0000   1.0000
     1.0000   1.0000   1.0000   1.0000   1.0000   1.0000   1.0000   1.0000
     1.0000   1.0000   1.0000   1.0000   1.0000   1.0000   1.0000   1.0000
     1.0000   1.0000   1.0000   1.0000   1.0000   1.0000   1.0000   1.0000
     1.0000   1.0000   1.0000   1.0000   1.0000   1.0000   1.0000   1.0000
     1.0000   1.0000   1.0000   1.0000   1.0000   1.0000   1.0000   1.0000
     1.0000   1.0000   1.0000   1.0000   1.0000   1.0000   1.0000   1.0000
     1.0000   1.0000   1.0000   1.0000   1.0000   1.0000   1.0000   1.0000
     1.0000   1.0000   1.0000   1.0000   1.0000   1.0000   1.0000   1.0000
     1.0000   1.0000   1.0000   1.0000   1.0000   1.0000   1.0000   1.0000
     1.0000   1.0000   1.0000   1.0000   1.0000   1.0000   1.0000   1.0000
     1.0000   1.0000   1.0000   1.0000   1.0000   1.0000   1.0000   1.0000
     1.0000   1.0000   1.0000   1.0000   1.0000   1.0000   1.0000   1.0000
     1.0000   1.0000   1.0000   1.0000   1.0000   1.0000   1.0000   1.0000
     1.0000   1.0000   1.0000   1.0000   1.0000   1.0000   1.0000   1.0000
     1.0000   1.0000   1.0000   1.0000   1.0000   1.0000   1.0000   1.0000
     1.0000   1.0000   1.0000   1.0000   1.0000   1.0000   1.0000   1.0000
     1.0000   1.0000   1.0000   1.0000   1.0000   1.0000   1.0000   1.0000
     1.0000   1.0000   1.0000   1.0000   1.0000   1.0000   1.0000   1.0000
     1.0000   1.0000   1.0000   1.0000   1.0000   1.0000   1.0000   1.0000
     1.0000   1.0000   1.0000   1.0000   1.0000   1.0000   1.0000   1.0000
     1.0000   1.0000   1.0000   1.0000   1.0000   1.0000   1.0000   1.0000
     1.0000   1.0000   1.0000   1.0000   1.0000   1.0000   1.0000   1.0000
     1.0000   1.0000   1.0000   1.0000   1.0000   1.0000   1.0000   1.0000
     1.0000   1.0000   1.0000   1.0000   1.0000   1.0000   1.0000   1.0000
     1.0000   1.0000   1.0000   1.0000   1.0000   1.0000   1.0000   1.0000
     1.0000   1.0000   1.0000   1.0000   1.0000   1.0000   1.0000   1.0000
     1.0000   1.0000   1.0000   1.0000   1.0000   1.0000   1.0000   1.0000
     1.0000   1.0000   1.0000   1.0000   1.0000   1.0000   1.0000   1.0000
     1.0000   1.0000   1.0000   1.0000   1.0000   1.0000   1.0000   1.0000
     1.0000   1.0000   1.0000   1.0000   1.0000   1.0000   1.0000   1.0000
     1.0000   1.0000   1.0000   1.0000   1.0000   1.0000   1.0000   1.0000
     1.0000   1.0000   1.0000   1.0000   1.0000   1.0000   1.0000   1.0000
     1.0000   1.0000   1.0000   1.0000   1.0000   1.0000   1.0000   1.0000
     1.0000   1.0000   1.0000   1.0000   1.0000   1.0000   1.0000   1.0000
     1.0000   1.0000   1.0000   1.0000   1.0000   1.0000   1.0000   1.0000
     1.0000   1.0000   1.0000   1.0000   1.0000   1.0000   1.0000   1.0000
     1.0000   1.0000   1.0000   1.0000   1.0000   1.0000   1.0000   1.0000
     1.0000   1.0000   1.0000   1.0000   1.0000   1.0000   1.0000   1.0000
     1.0000   1.0000   1.0000   1.0000   1.0000   1.0000   1.0000   1.0000
     0.0000   0.0000   0.0000   0.0000   0.0000   0.0000   0.0000   0.0000
     0.0000   0.0000   0.0000   0.0000   0.0000   0.0000   0.0000   0.0000
     0.0000   0.0000   0.0000   0.0000   0.0000   0.0000   0.0000   0.0000
     0.0000   0.0000   0.0000   0.0000   0.0000   0.0000   0.0000   0.0000
     0.0000   0.0000   0.0000   0.0000   0.0000   0.0000   0.0000   0.0000
     0.0000   0.0000   0.0000   0.0000   0.0000   0.0000   0.0000   0.0000
     0.0000   0.0000   0.0000   0.0000   0.0000   0.0000   0.0000   0.0000
     0.0000   0.0000   0.0000   0.0000   0.0000   0.0000   0.0000   0.0000
     0.0000   0.0000   0.0000   0.0000   0.0000   0.0000   0.0000   0.0000
     0.0000   0.0000   0.0000   0.0000   0.0000   0.0000   0.0000   0.0000
     0.0000   0.0000

          k =-0.0000 0.0001-0.4747 ( 44762 PWs)   bands (ev):

  -115.2634-115.2574-115.2573-115.2546-115.2529-115.2506-115.2474-115.2452
  -115.2439-115.2436-115.2368-115.2362-115.2352-115.2338-115.2322-115.2316
  -115.2302-115.2294-115.2284-115.2283-115.2272-115.2270-115.2269-115.2200
   -69.6246 -69.6206 -69.6189 -69.6188 -69.6158 -69.6154 -69.6153 -69.6145
   -69.6141 -69.6132 -69.6126 -69.6099 -69.6097 -69.6089 -69.6081 -69.6074
   -69.6072 -69.6063 -69.6060 -69.6051 -69.6049 -69.6024 -69.6015 -69.6005
   -69.5998 -69.5997 -69.5989 -69.5989 -69.5982 -69.5979 -69.5974 -69.5973
   -69.5959 -69.5959 -69.5951 -69.5949 -69.5933 -69.5927 -69.5924 -69.5923
   -69.5918 -69.5913 -69.5911 -69.5906 -69.5900 -69.5899 -69.5899 -69.5894
   -69.5889 -69.5878 -69.5876 -69.5866 -69.5866 -69.5863 -69.5857 -69.5850
   -69.5845 -69.5842 -69.5839 -69.5838 -69.5836 -69.5830 -69.5823 -69.5821
   -69.5811 -69.5809 -69.5800 -69.5799 -69.5793 -69.5792 -69.5750 -69.5721
   -64.6896 -64.6855 -64.6823 -64.6785 -64.6738 -64.6655 -64.6626 -64.6544
   -64.6496 -64.6493 -64.6466 -64.6440 -31.6865 -31.6795 -31.6773 -31.6769
   -31.6760 -31.6740 -31.6726 -31.6708 -31.6706 -31.6685 -31.6672 -31.6650
   -31.6636 -31.6610 -31.6584 -31.6571 -31.6564 -31.6522 -31.6518 -31.6508
   -31.6503 -31.6467 -31.6432 -31.6424 -31.6417 -31.6412 -31.6381 -31.6373
   -31.6366 -31.6354 -31.6340 -31.6338 -31.6325 -31.6289 -31.6250 -31.6229
    -9.9183  -9.8364  -9.5486  -9.5247  -9.5064  -9.4958  -9.4391  -9.4168
    -9.4000  -9.3815  -9.3513  -9.3153  -9.2982  -9.2838  -9.2729  -9.2524
    -9.2140  -9.1949  -9.1446  -9.1380  -9.0945  -9.0871  -9.0650  -9.0322
    -9.0238  -9.0128  -8.9921  -8.9903  -8.9793  -8.9543  -8.9457  -8.9378
    -8.9322  -8.9243  -8.9215  -8.7968   1.8441   1.8669   1.8899   1.9115
     1.9201   1.9392   1.9607   1.9716   1.9964   2.0124   2.0553   2.0793
     2.0900   2.1039   2.1379   2.1432   2.1610   2.1973   2.2105   2.2166
     2.2218   2.2350   2.2467   2.2727   2.2868   2.2918   2.2965   2.3136
     2.3400   2.3465   2.3642   2.3762   2.4012   2.4060   2.4072   2.4274
     2.4388   2.4546   2.4643   2.4684   2.4901   2.4950   2.5033   2.5174
     2.5307   2.5410   2.5569   2.5639   2.5687   2.5846   2.5964   2.6070
     2.6148   2.6219   2.6298   2.6406   2.6508   2.6696   2.6782   2.6856
     2.6951   2.7085   2.7253   2.7398   2.7605   2.7735   2.7895   2.8344
     2.8447   2.8552   2.8744   2.9052   2.9232   2.9398   2.9590   2.9676
     2.9845   2.9936   3.0116   3.0352   3.0481   3.0626   3.0826   3.1082
     3.1257   3.1303   3.1687   3.1703   3.2038   3.2195   3.2259   3.2454
     3.2681   3.2824   3.3045   3.3277   3.3376   3.3571   3.3636   3.3768
     3.3798   3.3986   3.4102   3.4176   3.4241   3.4282   3.4443   3.4476
     3.4563   3.4710   3.4825   3.4867   3.4987   3.5092   3.5230   3.5367
     3.5429   3.5585   3.5855   3.6051   3.7465   3.8119   3.8280   3.8566
     3.9205   3.9519   3.9935   3.9950   4.0217   4.0357   4.0470   4.1086
     4.1284   4.1394   4.1827   4.2101   4.2193   4.2631   4.2825   4.2982
     4.3379   4.3832   4.3994   4.4551   4.4694   4.5851   4.6251   4.6344
     4.6747   4.7660   4.7961   4.8812   4.9134   4.9335   4.9548   4.9703
     5.0059   5.0339   5.2580   5.3070   5.3187   5.3439   5.3986   5.4146
     5.4298   5.4673   5.5379   5.5465   5.5672   5.5850   5.6153   5.6275
     5.6618   5.6971   5.7735   5.8992   5.9006   5.9338   5.9539   5.9732
     6.0243   6.0565   6.0585   6.0925   6.0962   6.1060   6.1384   6.1539
     6.1655   6.2001   6.2201   6.2396   6.2454   6.2602   6.5002   6.5274
     6.5507   6.5777   6.6030   6.6389   6.6660   6.6691   6.7175   6.7443
     6.7614   6.7768   6.8176   6.8420   6.8659   6.8854   6.9003   6.9045
     6.9306   6.9576   6.9728   7.0084   7.0227   7.0370   7.0485   7.0571
     7.0706   7.0859   7.0903   7.1253   7.3649   7.3969   7.4992   7.5479
    10.0482  10.1702  12.3322  12.3554  12.4043  12.4471  12.4644  12.5175
    12.5504  12.6810  12.7168  12.7581  12.8866  12.9102  13.0677  13.3335
    14.4026  14.4203  14.4614  14.4704  14.5114  14.5315  14.5471  14.6102
    14.6432  14.6752  14.7008  14.7238  15.3984  15.4047  15.4551  15.4560
    15.6128  15.6247  15.6737  15.6904  15.7634  15.7913  15.8362  15.9007
    15.9557  16.0191  16.0652  16.1073  16.2436  16.2733  16.2947  16.3995
    16.4277  16.4736  16.4863  16.5582  16.5619  16.5820  16.6341  16.6589
    16.6666  16.6822  16.9191  16.9868  17.0631  17.1231  17.1870  17.2284
    17.2802  17.3814  17.4786  17.6415  17.7387  17.8942  17.9761  18.0379
    18.1434  18.2446  18.3612  18.4676  18.5603  18.6983  18.7852  18.8756
    19.0435  19.1280

     occupation numbers 
     1.0000   1.0000   1.0000   1.0000   1.0000   1.0000   1.0000   1.0000
     1.0000   1.0000   1.0000   1.0000   1.0000   1.0000   1.0000   1.0000
     1.0000   1.0000   1.0000   1.0000   1.0000   1.0000   1.0000   1.0000
     1.0000   1.0000   1.0000   1.0000   1.0000   1.0000   1.0000   1.0000
     1.0000   1.0000   1.0000   1.0000   1.0000   1.0000   1.0000   1.0000
     1.0000   1.0000   1.0000   1.0000   1.0000   1.0000   1.0000   1.0000
     1.0000   1.0000   1.0000   1.0000   1.0000   1.0000   1.0000   1.0000
     1.0000   1.0000   1.0000   1.0000   1.0000   1.0000   1.0000   1.0000
     1.0000   1.0000   1.0000   1.0000   1.0000   1.0000   1.0000   1.0000
     1.0000   1.0000   1.0000   1.0000   1.0000   1.0000   1.0000   1.0000
     1.0000   1.0000   1.0000   1.0000   1.0000   1.0000   1.0000   1.0000
     1.0000   1.0000   1.0000   1.0000   1.0000   1.0000   1.0000   1.0000
     1.0000   1.0000   1.0000   1.0000   1.0000   1.0000   1.0000   1.0000
     1.0000   1.0000   1.0000   1.0000   1.0000   1.0000   1.0000   1.0000
     1.0000   1.0000   1.0000   1.0000   1.0000   1.0000   1.0000   1.0000
     1.0000   1.0000   1.0000   1.0000   1.0000   1.0000   1.0000   1.0000
     1.0000   1.0000   1.0000   1.0000   1.0000   1.0000   1.0000   1.0000
     1.0000   1.0000   1.0000   1.0000   1.0000   1.0000   1.0000   1.0000
     1.0000   1.0000   1.0000   1.0000   1.0000   1.0000   1.0000   1.0000
     1.0000   1.0000   1.0000   1.0000   1.0000   1.0000   1.0000   1.0000
     1.0000   1.0000   1.0000   1.0000   1.0000   1.0000   1.0000   1.0000
     1.0000   1.0000   1.0000   1.0000   1.0000   1.0000   1.0000   1.0000
     1.0000   1.0000   1.0000   1.0000   1.0000   1.0000   1.0000   1.0000
     1.0000   1.0000   1.0000   1.0000   1.0000   1.0000   1.0000   1.0000
     1.0000   1.0000   1.0000   1.0000   1.0000   1.0000   1.0000   1.0000
     1.0000   1.0000   1.0000   1.0000   1.0000   1.0000   1.0000   1.0000
     1.0000   1.0000   1.0000   1.0000   1.0000   1.0000   1.0000   1.0000
     1.0000   1.0000   1.0000   1.0000   1.0000   1.0000   1.0000   1.0000
     1.0000   1.0000   1.0000   1.0000   1.0000   1.0000   1.0000   1.0000
     1.0000   1.0000   1.0000   1.0000   1.0000   1.0000   1.0000   1.0000
     1.0000   1.0000   1.0000   1.0000   1.0000   1.0000   1.0000   1.0000
     1.0000   1.0000   1.0000   1.0000   1.0000   1.0000   1.0000   1.0000
     1.0000   1.0000   1.0000   1.0000   1.0000   1.0000   1.0000   1.0000
     1.0000   1.0000   1.0000   1.0000   1.0000   1.0000   1.0000   1.0000
     1.0000   1.0000   1.0000   1.0000   1.0000   1.0000   1.0000   1.0000
     1.0000   1.0000   1.0000   1.0000   1.0000   1.0000   1.0000   1.0000
     1.0000   1.0000   1.0000   1.0000   1.0000   1.0000   1.0000   1.0000
     1.0000   1.0000   1.0000   1.0000   1.0000   1.0000   1.0000   1.0000
     1.0000   1.0000   1.0000   1.0000   1.0000   1.0000   1.0000   1.0000
     1.0000   1.0000   1.0000   1.0000   1.0000   1.0000   1.0000   1.0000
     1.0000   1.0000   1.0000   1.0000   1.0000   1.0000   1.0000   1.0000
     1.0000   1.0000   1.0000   1.0000   1.0000   1.0000   1.0000   1.0000
     1.0000   1.0000   1.0000   1.0000   1.0000   1.0000   1.0000   1.0000
     1.0000   1.0000   1.0000   1.0000   1.0000   1.0000   1.0000   1.0000
     1.0000   1.0000   1.0000   1.0000   1.0000   1.0000   1.0000   1.0000
     1.0000   1.0000   1.0000   1.0000   1.0000   1.0000   1.0000   1.0000
     1.0000   1.0000   1.0000   1.0000   1.0000   1.0000   1.0000   1.0000
     1.0000   1.0000   1.0000   1.0000   1.0000   1.0000   1.0000   1.0000
     1.0000   1.0000   1.0000   1.0000   1.0000   1.0000   1.0000   1.0000
     1.0000   1.0000   1.0000   1.0000   1.0000   1.0000   1.0000   1.0000
     1.0000   1.0000   1.0000   1.0000   1.0000   1.0000   1.0000   1.0000
     0.0000   0.0000   0.0000   0.0000   0.0000   0.0000   0.0000   0.0000
     0.0000   0.0000   0.0000   0.0000   0.0000   0.0000   0.0000   0.0000
     0.0000   0.0000   0.0000   0.0000   0.0000   0.0000   0.0000   0.0000
     0.0000   0.0000   0.0000   0.0000   0.0000   0.0000   0.0000   0.0000
     0.0000   0.0000   0.0000   0.0000   0.0000   0.0000   0.0000   0.0000
     0.0000   0.0000   0.0000   0.0000   0.0000   0.0000   0.0000   0.0000
     0.0000   0.0000   0.0000   0.0000   0.0000   0.0000   0.0000   0.0000
     0.0000   0.0000   0.0000   0.0000   0.0000   0.0000   0.0000   0.0000
     0.0000   0.0000   0.0000   0.0000   0.0000   0.0000   0.0000   0.0000
     0.0000   0.0000   0.0000   0.0000   0.0000   0.0000   0.0000   0.0000
     0.0000   0.0000

          k = 0.0003 0.2888-0.0001 ( 44714 PWs)   bands (ev):

  -115.2634-115.2574-115.2573-115.2546-115.2529-115.2506-115.2474-115.2452
  -115.2439-115.2436-115.2368-115.2362-115.2352-115.2338-115.2322-115.2316
  -115.2302-115.2294-115.2284-115.2283-115.2272-115.2270-115.2269-115.2200
   -69.6246 -69.6206 -69.6189 -69.6188 -69.6158 -69.6154 -69.6153 -69.6145
   -69.6141 -69.6132 -69.6126 -69.6099 -69.6097 -69.6089 -69.6081 -69.6074
   -69.6072 -69.6063 -69.6060 -69.6051 -69.6049 -69.6024 -69.6015 -69.6005
   -69.5998 -69.5997 -69.5989 -69.5989 -69.5982 -69.5979 -69.5974 -69.5973
   -69.5959 -69.5959 -69.5951 -69.5949 -69.5933 -69.5927 -69.5924 -69.5923
   -69.5918 -69.5913 -69.5911 -69.5905 -69.5900 -69.5899 -69.5899 -69.5894
   -69.5889 -69.5878 -69.5876 -69.5866 -69.5866 -69.5863 -69.5857 -69.5850
   -69.5845 -69.5842 -69.5839 -69.5838 -69.5836 -69.5830 -69.5823 -69.5821
   -69.5811 -69.5809 -69.5800 -69.5799 -69.5793 -69.5792 -69.5750 -69.5721
   -64.6896 -64.6855 -64.6823 -64.6785 -64.6738 -64.6655 -64.6626 -64.6544
   -64.6496 -64.6493 -64.6466 -64.6440 -31.6865 -31.6795 -31.6774 -31.6769
   -31.6760 -31.6738 -31.6725 -31.6708 -31.6705 -31.6684 -31.6672 -31.6649
   -31.6637 -31.6611 -31.6584 -31.6571 -31.6566 -31.6528 -31.6522 -31.6508
   -31.6502 -31.6466 -31.6424 -31.6423 -31.6417 -31.6411 -31.6381 -31.6373
   -31.6366 -31.6353 -31.6338 -31.6333 -31.6325 -31.6289 -31.6252 -31.6235
    -9.9564  -9.6815  -9.6027  -9.5829  -9.5773  -9.5477  -9.4467  -9.4018
    -9.3611  -9.3496  -9.3231  -9.3012  -9.2959  -9.2834  -9.2608  -9.2336
    -9.1932  -9.1684  -9.1544  -9.1309  -9.1143  -9.0971  -9.0845  -9.0756
    -9.0377  -9.0256  -9.0142  -8.9935  -8.9870  -8.9798  -8.9432  -8.9356
    -8.9266  -8.8868  -8.8780  -8.7895   1.8194   1.8425   1.8541   1.8666
     1.8968   1.9078   1.9564   1.9801   1.9990   2.0203   2.0338   2.0572
     2.0628   2.0963   2.1211   2.1271   2.1526   2.1826   2.1954   2.2168
     2.2302   2.2376   2.2730   2.2820   2.2991   2.3105   2.3136   2.3273
     2.3436   2.3506   2.3703   2.3780   2.3909   2.4070   2.4191   2.4359
     2.4450   2.4590   2.4669   2.4768   2.4858   2.5000   2.5063   2.5148
     2.5247   2.5309   2.5375   2.5461   2.5525   2.5665   2.5742   2.5840
     2.6073   2.6217   2.6293   2.6440   2.6601   2.6837   2.6909   2.7144
     2.7382   2.7418   2.7544   2.7784   2.7955   2.8051   2.8217   2.8386
     2.8642   2.8790   2.9051   2.9242   2.9432   2.9545   2.9804   3.0006
     3.0220   3.0260   3.0504   3.0647   3.0777   3.0986   3.1101   3.1231
     3.1448   3.1635   3.1747   3.1872   3.1998   3.2221   3.2388   3.2529
     3.2807   3.2933   3.3166   3.3220   3.3390   3.3475   3.3576   3.3658
     3.3827   3.3890   3.3976   3.4104   3.4261   3.4324   3.4431   3.4514
     3.4564   3.4742   3.4775   3.4865   3.4992   3.5090   3.5236   3.5355
     3.5509   3.5710   3.5957   3.6186   3.6483   3.6938   3.7515   3.7584
     3.7950   3.8191   3.8470   3.8897   3.9148   3.9495   3.9892   4.0492
     4.0738   4.1154   4.1612   4.1870   4.1931   4.2233   4.2806   4.3186
     4.3708   4.4102   4.4509   4.5111   4.5833   4.6360   4.6665   4.6943
     4.7666   4.8246   4.8564   4.8797   4.9414   4.9911   5.0372   5.0722
     5.1125   5.1364   5.1747   5.2161   5.2558   5.2803   5.3113   5.3312
     5.3859   5.4125   5.4883   5.5238   5.5662   5.5959   5.6593   5.7492
     5.8223   5.8622   5.9294   5.9632   5.9776   6.0101   6.0335   6.0547
     6.0747   6.0983   6.1383   6.1591   6.1974   6.2137   6.2362   6.2634
     6.2719   6.2959   6.3085   6.3332   6.3979   6.4265   6.4362   6.4606
     6.4903   6.5008   6.5391   6.5434   6.5863   6.6051   6.6198   6.6357
     6.6444   6.6754   6.6816   6.6944   6.7155   6.7205   6.7338   6.7581
     6.7959   6.8330   6.9173   6.9601   6.9960   7.0219   7.0414   7.0676
     7.0959   7.1121   7.1465   7.1660   7.2278   7.2404   7.4963   7.5668
     9.5530  11.4096  11.8456  11.8609  12.0251  12.1406  12.8270  12.8699
    12.9755  13.0701  13.2016  13.2480  13.2832  13.3546  13.4648  13.5767
    13.6157  13.6607  13.7061  13.7846  13.8783  14.0319  14.7804  14.8794
    14.9690  14.9927  15.0355  15.0607  15.1655  15.2808  15.3106  15.3488
    15.3985  15.4570  15.5113  15.5806  15.6527  15.6893  15.7683  15.8074
    15.9141  15.9716  16.0019  16.0685  16.1876  16.3048  16.3737  16.3978
    16.4642  16.5244  16.5438  16.6019  16.6293  16.7118  16.7646  16.8690
    16.9074  16.9473  17.0005  17.0696  17.1315  17.1569  17.2455  17.3784
    17.5435  17.6423  17.7220  17.9182  17.9899  18.0873  18.1481  18.2385
    18.3185  18.4741  18.6061  18.6909  18.7324  18.7865  18.8134  18.8729
    18.9577  19.0038

     occupation numbers 
     1.0000   1.0000   1.0000   1.0000   1.0000   1.0000   1.0000   1.0000
     1.0000   1.0000   1.0000   1.0000   1.0000   1.0000   1.0000   1.0000
     1.0000   1.0000   1.0000   1.0000   1.0000   1.0000   1.0000   1.0000
     1.0000   1.0000   1.0000   1.0000   1.0000   1.0000   1.0000   1.0000
     1.0000   1.0000   1.0000   1.0000   1.0000   1.0000   1.0000   1.0000
     1.0000   1.0000   1.0000   1.0000   1.0000   1.0000   1.0000   1.0000
     1.0000   1.0000   1.0000   1.0000   1.0000   1.0000   1.0000   1.0000
     1.0000   1.0000   1.0000   1.0000   1.0000   1.0000   1.0000   1.0000
     1.0000   1.0000   1.0000   1.0000   1.0000   1.0000   1.0000   1.0000
     1.0000   1.0000   1.0000   1.0000   1.0000   1.0000   1.0000   1.0000
     1.0000   1.0000   1.0000   1.0000   1.0000   1.0000   1.0000   1.0000
     1.0000   1.0000   1.0000   1.0000   1.0000   1.0000   1.0000   1.0000
     1.0000   1.0000   1.0000   1.0000   1.0000   1.0000   1.0000   1.0000
     1.0000   1.0000   1.0000   1.0000   1.0000   1.0000   1.0000   1.0000
     1.0000   1.0000   1.0000   1.0000   1.0000   1.0000   1.0000   1.0000
     1.0000   1.0000   1.0000   1.0000   1.0000   1.0000   1.0000   1.0000
     1.0000   1.0000   1.0000   1.0000   1.0000   1.0000   1.0000   1.0000
     1.0000   1.0000   1.0000   1.0000   1.0000   1.0000   1.0000   1.0000
     1.0000   1.0000   1.0000   1.0000   1.0000   1.0000   1.0000   1.0000
     1.0000   1.0000   1.0000   1.0000   1.0000   1.0000   1.0000   1.0000
     1.0000   1.0000   1.0000   1.0000   1.0000   1.0000   1.0000   1.0000
     1.0000   1.0000   1.0000   1.0000   1.0000   1.0000   1.0000   1.0000
     1.0000   1.0000   1.0000   1.0000   1.0000   1.0000   1.0000   1.0000
     1.0000   1.0000   1.0000   1.0000   1.0000   1.0000   1.0000   1.0000
     1.0000   1.0000   1.0000   1.0000   1.0000   1.0000   1.0000   1.0000
     1.0000   1.0000   1.0000   1.0000   1.0000   1.0000   1.0000   1.0000
     1.0000   1.0000   1.0000   1.0000   1.0000   1.0000   1.0000   1.0000
     1.0000   1.0000   1.0000   1.0000   1.0000   1.0000   1.0000   1.0000
     1.0000   1.0000   1.0000   1.0000   1.0000   1.0000   1.0000   1.0000
     1.0000   1.0000   1.0000   1.0000   1.0000   1.0000   1.0000   1.0000
     1.0000   1.0000   1.0000   1.0000   1.0000   1.0000   1.0000   1.0000
     1.0000   1.0000   1.0000   1.0000   1.0000   1.0000   1.0000   1.0000
     1.0000   1.0000   1.0000   1.0000   1.0000   1.0000   1.0000   1.0000
     1.0000   1.0000   1.0000   1.0000   1.0000   1.0000   1.0000   1.0000
     1.0000   1.0000   1.0000   1.0000   1.0000   1.0000   1.0000   1.0000
     1.0000   1.0000   1.0000   1.0000   1.0000   1.0000   1.0000   1.0000
     1.0000   1.0000   1.0000   1.0000   1.0000   1.0000   1.0000   1.0000
     1.0000   1.0000   1.0000   1.0000   1.0000   1.0000   1.0000   1.0000
     1.0000   1.0000   1.0000   1.0000   1.0000   1.0000   1.0000   1.0000
     1.0000   1.0000   1.0000   1.0000   1.0000   1.0000   1.0000   1.0000
     1.0000   1.0000   1.0000   1.0000   1.0000   1.0000   1.0000   1.0000
     1.0000   1.0000   1.0000   1.0000   1.0000   1.0000   1.0000   1.0000
     1.0000   1.0000   1.0000   1.0000   1.0000   1.0000   1.0000   1.0000
     1.0000   1.0000   1.0000   1.0000   1.0000   1.0000   1.0000   1.0000
     1.0000   1.0000   1.0000   1.0000   1.0000   1.0000   1.0000   1.0000
     1.0000   1.0000   1.0000   1.0000   1.0000   1.0000   1.0000   1.0000
     1.0000   1.0000   1.0000   1.0000   1.0000   1.0000   1.0000   1.0000
     1.0000   1.0000   1.0000   1.0000   1.0000   1.0000   1.0000   1.0000
     1.0000   1.0000   1.0000   1.0000   1.0000   1.0000   1.0000   1.0000
     1.0000   1.0000   1.0000   1.0000   1.0000   1.0000   1.0000   1.0000
     1.0000   1.0000   1.0000   1.0000   1.0000   1.0000   1.0000   1.0000
     0.0000   0.0000   0.0000   0.0000   0.0000   0.0000   0.0000   0.0000
     0.0000   0.0000   0.0000   0.0000   0.0000   0.0000   0.0000   0.0000
     0.0000   0.0000   0.0000   0.0000   0.0000   0.0000   0.0000   0.0000
     0.0000   0.0000   0.0000   0.0000   0.0000   0.0000   0.0000   0.0000
     0.0000   0.0000   0.0000   0.0000   0.0000   0.0000   0.0000   0.0000
     0.0000   0.0000   0.0000   0.0000   0.0000   0.0000   0.0000   0.0000
     0.0000   0.0000   0.0000   0.0000   0.0000   0.0000   0.0000   0.0000
     0.0000   0.0000   0.0000   0.0000   0.0000   0.0000   0.0000   0.0000
     0.0000   0.0000   0.0000   0.0000   0.0000   0.0000   0.0000   0.0000
     0.0000   0.0000   0.0000   0.0000   0.0000   0.0000   0.0000   0.0000
     0.0000   0.0000

          k = 0.0003 0.2888 0.2373 ( 44744 PWs)   bands (ev):

  -115.2634-115.2574-115.2573-115.2546-115.2529-115.2506-115.2474-115.2452
  -115.2439-115.2436-115.2368-115.2362-115.2352-115.2338-115.2322-115.2316
  -115.2302-115.2294-115.2284-115.2283-115.2272-115.2270-115.2269-115.2200
   -69.6246 -69.6206 -69.6189 -69.6188 -69.6158 -69.6154 -69.6153 -69.6145
   -69.6141 -69.6132 -69.6126 -69.6099 -69.6097 -69.6089 -69.6081 -69.6074
   -69.6072 -69.6063 -69.6060 -69.6051 -69.6049 -69.6024 -69.6015 -69.6005
   -69.5998 -69.5997 -69.5989 -69.5989 -69.5982 -69.5979 -69.5974 -69.5973
   -69.5959 -69.5959 -69.5951 -69.5949 -69.5933 -69.5927 -69.5924 -69.5923
   -69.5918 -69.5913 -69.5911 -69.5905 -69.5900 -69.5899 -69.5899 -69.5894
   -69.5889 -69.5878 -69.5876 -69.5866 -69.5866 -69.5863 -69.5857 -69.5850
   -69.5845 -69.5842 -69.5839 -69.5838 -69.5836 -69.5830 -69.5823 -69.5821
   -69.5811 -69.5809 -69.5800 -69.5799 -69.5793 -69.5792 -69.5750 -69.5721
   -64.6896 -64.6855 -64.6823 -64.6785 -64.6738 -64.6655 -64.6626 -64.6544
   -64.6496 -64.6493 -64.6466 -64.6440 -31.6865 -31.6795 -31.6774 -31.6769
   -31.6760 -31.6739 -31.6726 -31.6708 -31.6706 -31.6685 -31.6672 -31.6649
   -31.6636 -31.6611 -31.6584 -31.6571 -31.6565 -31.6528 -31.6522 -31.6508
   -31.6503 -31.6466 -31.6424 -31.6423 -31.6417 -31.6412 -31.6381 -31.6373
   -31.6366 -31.6353 -31.6338 -31.6333 -31.6325 -31.6289 -31.6252 -31.6235
    -9.9322  -9.7374  -9.6151  -9.5805  -9.5567  -9.5057  -9.4602  -9.4174
    -9.3916  -9.3823  -9.3214  -9.2851  -9.2717  -9.2623  -9.2373  -9.2147
    -9.2040  -9.1879  -9.1567  -9.1400  -9.1170  -9.1027  -9.0778  -9.0674
    -9.0287  -9.0183  -9.0130  -8.9937  -8.9759  -8.9678  -8.9507  -8.9398
    -8.9290  -8.8972  -8.8898  -8.7923   1.8413   1.8632   1.8740   1.8912
     1.9209   1.9289   1.9696   2.0001   2.0136   2.0255   2.0297   2.0570
     2.0811   2.1028   2.1245   2.1413   2.1661   2.1845   2.2075   2.2203
     2.2375   2.2449   2.2638   2.2772   2.2918   2.3006   2.3070   2.3200
     2.3353   2.3455   2.3617   2.3784   2.3918   2.4030   2.4149   2.4266
     2.4411   2.4444   2.4595   2.4684   2.4742   2.4971   2.5017   2.5067
     2.5141   2.5211   2.5374   2.5483   2.5608   2.5643   2.5876   2.5954
     2.6103   2.6216   2.6328   2.6387   2.6552   2.6639   2.6858   2.7028
     2.7091   2.7192   2.7308   2.7513   2.7791   2.7870   2.7996   2.8176
     2.8385   2.8561   2.8630   2.9036   2.9216   2.9403   2.9511   2.9755
     2.9860   3.0107   3.0208   3.0494   3.0628   3.0778   3.1004   3.1095
     3.1198   3.1408   3.1595   3.1834   3.2122   3.2348   3.2472   3.2553
     3.2789   3.2965   3.3146   3.3293   3.3339   3.3631   3.3671   3.3745
     3.3858   3.3974   3.4043   3.4160   3.4213   3.4320   3.4408   3.4429
     3.4601   3.4663   3.4771   3.4856   3.4955   3.5065   3.5274   3.5424
     3.5627   3.5699   3.5959   3.6095   3.6782   3.7062   3.7450   3.8010
     3.8463   3.8829   3.9081   3.9379   3.9833   3.9890   4.0324   4.0486
     4.0755   4.1449   4.1837   4.1972   4.2114   4.2445   4.3073   4.3275
     4.3754   4.4187   4.4698   4.5270   4.5869   4.6353   4.6825   4.7099
     4.7587   4.7830   4.8181   4.8699   4.9119   4.9615   4.9825   5.0563
     5.1104   5.1586   5.2104   5.2478   5.2652   5.3301   5.3995   5.4350
     5.4756   5.5217   5.5547   5.5772   5.6167   5.6471   5.6893   5.7150
     5.7299   5.8396   5.8542   5.8975   5.9049   5.9233   5.9559   5.9691
     6.0095   6.0176   6.0419   6.0695   6.1317   6.1475   6.1686   6.2165
     6.2297   6.2690   6.2962   6.3194   6.3512   6.3803   6.4243   6.4644
     6.4783   6.5014   6.5206   6.5589   6.5827   6.6226   6.6429   6.6642
     6.6709   6.7119   6.7177   6.7467   6.7685   6.7974   6.8159   6.8387
     6.8881   6.9068   6.9195   6.9489   6.9795   7.0112   7.0300   7.0487
     7.0664   7.0883   7.1100   7.1414   7.2820   7.3087   7.4553   7.5467
     9.7950  11.0845  11.5456  12.0690  12.1576  12.2967  12.5060  12.6932
    12.7610  12.9570  13.1391  13.2491  13.3407  13.3743  13.4787  13.6643
    13.7694  13.9038  13.9485  14.0969  14.1662  14.2262  14.7159  14.7736
    14.8428  14.9415  14.9625  15.0681  15.1029  15.1406  15.1608  15.1964
    15.2549  15.3176  15.3426  15.3920  15.6522  15.8030  15.8477  15.9861
    16.0122  16.0823  16.1489  16.1880  16.2079  16.2789  16.3334  16.3952
    16.4192  16.4825  16.5682  16.5974  16.6721  16.7346  16.7855  16.8670
    16.9415  16.9536  17.0033  17.0611  17.1608  17.2205  17.2941  17.4067
    17.5764  17.6257  17.6457  17.8174  17.8801  17.9725  18.0962  18.1982
    18.2766  18.4003  18.4764  18.5470  18.6346  18.7262  18.8408  18.9156
    19.0073  19.0801

     occupation numbers 
     1.0000   1.0000   1.0000   1.0000   1.0000   1.0000   1.0000   1.0000
     1.0000   1.0000   1.0000   1.0000   1.0000   1.0000   1.0000   1.0000
     1.0000   1.0000   1.0000   1.0000   1.0000   1.0000   1.0000   1.0000
     1.0000   1.0000   1.0000   1.0000   1.0000   1.0000   1.0000   1.0000
     1.0000   1.0000   1.0000   1.0000   1.0000   1.0000   1.0000   1.0000
     1.0000   1.0000   1.0000   1.0000   1.0000   1.0000   1.0000   1.0000
     1.0000   1.0000   1.0000   1.0000   1.0000   1.0000   1.0000   1.0000
     1.0000   1.0000   1.0000   1.0000   1.0000   1.0000   1.0000   1.0000
     1.0000   1.0000   1.0000   1.0000   1.0000   1.0000   1.0000   1.0000
     1.0000   1.0000   1.0000   1.0000   1.0000   1.0000   1.0000   1.0000
     1.0000   1.0000   1.0000   1.0000   1.0000   1.0000   1.0000   1.0000
     1.0000   1.0000   1.0000   1.0000   1.0000   1.0000   1.0000   1.0000
     1.0000   1.0000   1.0000   1.0000   1.0000   1.0000   1.0000   1.0000
     1.0000   1.0000   1.0000   1.0000   1.0000   1.0000   1.0000   1.0000
     1.0000   1.0000   1.0000   1.0000   1.0000   1.0000   1.0000   1.0000
     1.0000   1.0000   1.0000   1.0000   1.0000   1.0000   1.0000   1.0000
     1.0000   1.0000   1.0000   1.0000   1.0000   1.0000   1.0000   1.0000
     1.0000   1.0000   1.0000   1.0000   1.0000   1.0000   1.0000   1.0000
     1.0000   1.0000   1.0000   1.0000   1.0000   1.0000   1.0000   1.0000
     1.0000   1.0000   1.0000   1.0000   1.0000   1.0000   1.0000   1.0000
     1.0000   1.0000   1.0000   1.0000   1.0000   1.0000   1.0000   1.0000
     1.0000   1.0000   1.0000   1.0000   1.0000   1.0000   1.0000   1.0000
     1.0000   1.0000   1.0000   1.0000   1.0000   1.0000   1.0000   1.0000
     1.0000   1.0000   1.0000   1.0000   1.0000   1.0000   1.0000   1.0000
     1.0000   1.0000   1.0000   1.0000   1.0000   1.0000   1.0000   1.0000
     1.0000   1.0000   1.0000   1.0000   1.0000   1.0000   1.0000   1.0000
     1.0000   1.0000   1.0000   1.0000   1.0000   1.0000   1.0000   1.0000
     1.0000   1.0000   1.0000   1.0000   1.0000   1.0000   1.0000   1.0000
     1.0000   1.0000   1.0000   1.0000   1.0000   1.0000   1.0000   1.0000
     1.0000   1.0000   1.0000   1.0000   1.0000   1.0000   1.0000   1.0000
     1.0000   1.0000   1.0000   1.0000   1.0000   1.0000   1.0000   1.0000
     1.0000   1.0000   1.0000   1.0000   1.0000   1.0000   1.0000   1.0000
     1.0000   1.0000   1.0000   1.0000   1.0000   1.0000   1.0000   1.0000
     1.0000   1.0000   1.0000   1.0000   1.0000   1.0000   1.0000   1.0000
     1.0000   1.0000   1.0000   1.0000   1.0000   1.0000   1.0000   1.0000
     1.0000   1.0000   1.0000   1.0000   1.0000   1.0000   1.0000   1.0000
     1.0000   1.0000   1.0000   1.0000   1.0000   1.0000   1.0000   1.0000
     1.0000   1.0000   1.0000   1.0000   1.0000   1.0000   1.0000   1.0000
     1.0000   1.0000   1.0000   1.0000   1.0000   1.0000   1.0000   1.0000
     1.0000   1.0000   1.0000   1.0000   1.0000   1.0000   1.0000   1.0000
     1.0000   1.0000   1.0000   1.0000   1.0000   1.0000   1.0000   1.0000
     1.0000   1.0000   1.0000   1.0000   1.0000   1.0000   1.0000   1.0000
     1.0000   1.0000   1.0000   1.0000   1.0000   1.0000   1.0000   1.0000
     1.0000   1.0000   1.0000   1.0000   1.0000   1.0000   1.0000   1.0000
     1.0000   1.0000   1.0000   1.0000   1.0000   1.0000   1.0000   1.0000
     1.0000   1.0000   1.0000   1.0000   1.0000   1.0000   1.0000   1.0000
     1.0000   1.0000   1.0000   1.0000   1.0000   1.0000   1.0000   1.0000
     1.0000   1.0000   1.0000   1.0000   1.0000   1.0000   1.0000   1.0000
     1.0000   1.0000   1.0000   1.0000   1.0000   1.0000   1.0000   1.0000
     1.0000   1.0000   1.0000   1.0000   1.0000   1.0000   1.0000   1.0000
     1.0000   1.0000   1.0000   1.0000   1.0000   1.0000   1.0000   1.0000
     0.0000   0.0000   0.0000   0.0000   0.0000   0.0000   0.0000   0.0000
     0.0000   0.0000   0.0000   0.0000   0.0000   0.0000   0.0000   0.0000
     0.0000   0.0000   0.0000   0.0000   0.0000   0.0000   0.0000   0.0000
     0.0000   0.0000   0.0000   0.0000   0.0000   0.0000   0.0000   0.0000
     0.0000   0.0000   0.0000   0.0000   0.0000   0.0000   0.0000   0.0000
     0.0000   0.0000   0.0000   0.0000   0.0000   0.0000   0.0000   0.0000
     0.0000   0.0000   0.0000   0.0000   0.0000   0.0000   0.0000   0.0000
     0.0000   0.0000   0.0000   0.0000   0.0000   0.0000   0.0000   0.0000
     0.0000   0.0000   0.0000   0.0000   0.0000   0.0000   0.0000   0.0000
     0.0000   0.0000   0.0000   0.0000   0.0000   0.0000   0.0000   0.0000
     0.0000   0.0000

          k = 0.0003 0.2890-0.4748 ( 44752 PWs)   bands (ev):

  -115.2634-115.2574-115.2573-115.2546-115.2529-115.2506-115.2474-115.2452
  -115.2439-115.2436-115.2368-115.2362-115.2352-115.2338-115.2322-115.2316
  -115.2302-115.2294-115.2284-115.2283-115.2272-115.2270-115.2269-115.2200
   -69.6246 -69.6206 -69.6189 -69.6188 -69.6158 -69.6154 -69.6153 -69.6145
   -69.6141 -69.6132 -69.6126 -69.6099 -69.6097 -69.6089 -69.6081 -69.6074
   -69.6072 -69.6063 -69.6060 -69.6051 -69.6049 -69.6024 -69.6015 -69.6005
   -69.5998 -69.5997 -69.5989 -69.5989 -69.5982 -69.5979 -69.5974 -69.5973
   -69.5959 -69.5959 -69.5951 -69.5949 -69.5933 -69.5927 -69.5924 -69.5923
   -69.5918 -69.5913 -69.5911 -69.5906 -69.5900 -69.5899 -69.5899 -69.5894
   -69.5889 -69.5878 -69.5876 -69.5866 -69.5866 -69.5863 -69.5857 -69.5850
   -69.5845 -69.5842 -69.5839 -69.5838 -69.5836 -69.5830 -69.5823 -69.5821
   -69.5811 -69.5809 -69.5800 -69.5799 -69.5793 -69.5792 -69.5750 -69.5721
   -64.6896 -64.6855 -64.6823 -64.6785 -64.6738 -64.6655 -64.6626 -64.6544
   -64.6496 -64.6493 -64.6466 -64.6440 -31.6865 -31.6795 -31.6773 -31.6769
   -31.6760 -31.6740 -31.6726 -31.6708 -31.6706 -31.6685 -31.6672 -31.6650
   -31.6636 -31.6610 -31.6584 -31.6571 -31.6564 -31.6528 -31.6522 -31.6508
   -31.6503 -31.6466 -31.6424 -31.6423 -31.6416 -31.6412 -31.6381 -31.6373
   -31.6365 -31.6353 -31.6338 -31.6333 -31.6325 -31.6289 -31.6252 -31.6235
    -9.8903  -9.8048  -9.5958  -9.5655  -9.5568  -9.5308  -9.4618  -9.4305
    -9.3886  -9.3689  -9.3242  -9.2852  -9.2728  -9.2537  -9.2355  -9.2181
    -9.2080  -9.1828  -9.1562  -9.1402  -9.1028  -9.1007  -9.0767  -9.0481
    -9.0383  -9.0243  -9.0126  -8.9928  -8.9764  -8.9484  -8.9400  -8.9365
    -8.9294  -8.9181  -8.9104  -8.7952   1.8629   1.8825   1.9036   1.9206
     1.9405   1.9576   1.9798   1.9986   2.0197   2.0324   2.0691   2.0859
     2.0914   2.1081   2.1377   2.1590   2.1622   2.1951   2.2052   2.2183
     2.2212   2.2349   2.2595   2.2666   2.2776   2.2939   2.3014   2.3170
     2.3232   2.3485   2.3555   2.3759   2.3891   2.3974   2.4011   2.4167
     2.4346   2.4503   2.4569   2.4655   2.4750   2.4866   2.4953   2.5056
     2.5106   2.5356   2.5427   2.5569   2.5624   2.5703   2.5865   2.5934
     2.6005   2.6097   2.6194   2.6275   2.6425   2.6643   2.6740   2.6876
     2.6911   2.7010   2.7055   2.7187   2.7359   2.7525   2.7763   2.7869
     2.8068   2.8260   2.8433   2.8766   2.9044   2.9075   2.9373   2.9568
     2.9674   2.9893   3.0185   3.0303   3.0591   3.0735   3.0946   3.0982
     3.1237   3.1397   3.1625   3.1800   3.2039   3.2189   3.2422   3.2718
     3.2942   3.3074   3.3192   3.3264   3.3504   3.3593   3.3673   3.3737
     3.3842   3.3942   3.4038   3.4162   3.4208   3.4353   3.4412   3.4561
     3.4607   3.4679   3.4766   3.4881   3.5032   3.5113   3.5300   3.5364
     3.5580   3.5621   3.5824   3.6293   3.6577   3.7313   3.8135   3.8722
     3.8859   3.9148   3.9462   3.9609   4.0169   4.0258   4.0543   4.0678
     4.1117   4.1589   4.1673   4.2009   4.2288   4.2788   4.3172   4.3397
     4.3972   4.4244   4.4815   4.5241   4.5686   4.6163   4.6461   4.6872
     4.7251   4.7613   4.7947   4.8800   4.9458   5.0070   5.0272   5.0942
     5.1971   5.2226   5.3001   5.3374   5.3635   5.3870   5.4297   5.4551
     5.4838   5.5420   5.5650   5.5881   5.6138   5.6454   5.6642   5.6996
     5.7274   5.7448   5.7817   5.7995   5.8217   5.8511   5.8718   5.8844
     5.9126   5.9535   5.9839   6.0041   6.0547   6.0713   6.1077   6.1468
     6.2491   6.2730   6.3055   6.3264   6.3686   6.3986   6.4324   6.4847
     6.5021   6.5254   6.5468   6.5617   6.5944   6.6153   6.6437   6.6595
     6.7077   6.7241   6.7389   6.7595   6.7876   6.7998   6.8357   6.8477
     6.8982   6.9003   6.9401   6.9546   6.9938   7.0185   7.0364   7.0409
     7.0566   7.1187   7.1304   7.1405   7.3300   7.3564   7.4061   7.5213
    10.3152  10.4360  11.7649  11.8490  12.2022  12.3344  12.3501  12.4510
    12.9166  12.9584  13.1075  13.1768  13.2413  13.3681  13.4132  13.5541
    14.2563  14.3032  14.4276  14.4575  14.5087  14.5307  14.5568  14.6027
    14.6493  14.6852  14.7212  14.7445  14.8346  14.9668  14.9957  15.0741
    15.2540  15.2706  15.2880  15.3162  15.8532  15.8820  15.9441  15.9753
    16.0642  16.1401  16.2034  16.2515  16.2944  16.3264  16.3795  16.3945
    16.4250  16.4563  16.5056  16.5658  16.6235  16.6542  16.7412  16.7912
    16.8896  17.0102  17.1084  17.1909  17.2576  17.3200  17.3969  17.4305
    17.4734  17.5703  17.6315  17.8057  17.8348  17.9023  17.9989  18.1344
    18.2541  18.3385  18.4070  18.4730  18.5120  18.6450  18.7773  18.8522
    19.0097  19.1213

     occupation numbers 
     1.0000   1.0000   1.0000   1.0000   1.0000   1.0000   1.0000   1.0000
     1.0000   1.0000   1.0000   1.0000   1.0000   1.0000   1.0000   1.0000
     1.0000   1.0000   1.0000   1.0000   1.0000   1.0000   1.0000   1.0000
     1.0000   1.0000   1.0000   1.0000   1.0000   1.0000   1.0000   1.0000
     1.0000   1.0000   1.0000   1.0000   1.0000   1.0000   1.0000   1.0000
[...]
     2.8166   2.8451   2.8612   2.8873   2.9121   2.9430   2.9558   2.9704
     2.9947   3.0071   3.0199   3.0344   3.0444   3.0699   3.0851   3.1150
     3.1392   3.1499   3.1693   3.1922   3.2016   3.2159   3.2486   3.2695
     3.2768   3.2945   3.3119   3.3292   3.3414   3.3623   3.3683   3.3904
     3.3974   3.4130   3.4199   3.4222   3.4300   3.4447   3.4482   3.4594
     3.4752   3.4891   3.4955   3.5071   3.5146   3.5257   3.5315   3.5413
     3.5500   3.5653   3.5814   3.5958   3.6627   3.7015   3.7539   3.7708
     3.8139   3.8565   3.8735   3.9096   3.9393   3.9703   4.0066   4.0156
     4.0694   4.1027   4.1422   4.1674   4.2075   4.2694   4.3159   4.3660
     4.4217   4.4641   4.4724   4.5286   4.6485   4.6715   4.7671   4.8008
     4.8958   4.9467   4.9793   5.0384   5.0662   5.1205   5.1415   5.1508
     5.1797   5.2164   5.2519   5.2650   5.2948   5.3222   5.3301   5.3765
     5.3999   5.4063   5.4813   5.5248   5.5874   5.6318   5.6767   5.7308
     5.7760   5.8193   5.8472   5.8703   5.9133   5.9349   5.9625   5.9964
     6.0253   6.0638   6.0923   6.1179   6.1317   6.1689   6.1880   6.2042
     6.2512   6.2727   6.3081   6.3239   6.3566   6.3794   6.4398   6.4467
     6.4550   6.4565   6.4886   6.5078   6.5397   6.5614   6.5740   6.5932
     6.6233   6.6479   6.6782   6.6914   6.7086   6.7282   6.7659   6.7767
     6.8001   6.8147   6.8422   6.8799   6.9288   6.9617   6.9879   7.0384
     7.0729   7.0913   7.1058   7.1682   7.2872   7.3317   7.3815   7.4057
    10.5442  10.6378  11.5685  11.6775  12.0369  12.1261  12.6605  12.7043
    13.0985  13.1061  13.4589  13.6713  13.7373  13.7833  13.8564  13.8850
    13.9251  13.9682  14.0158  14.0567  14.1408  14.1945  14.2457  14.4582
    14.4986  14.5330  14.5700  14.6222  14.6593  14.7065  15.1550  15.2111
    15.2403  15.2737  15.3113  15.3777  15.5608  15.8054  15.8446  15.9295
    15.9842  16.1647  16.2091  16.2321  16.2572  16.3069  16.3172  16.3963
    16.4318  16.4611  16.5197  16.6484  16.7489  16.8000  16.9398  16.9870
    17.1295  17.1836  17.3098  17.3774  17.4826  17.5551  17.5983  17.6329
    17.7126  17.7222  17.8199  17.8949  18.0073  18.1555  18.1967  18.2733
    18.4480  18.4885  18.5234  18.5515  18.6290  18.7207  18.7443  18.8073
    18.9138  18.9773

     occupation numbers 
     1.0000   1.0000   1.0000   1.0000   1.0000   1.0000   1.0000   1.0000
     1.0000   1.0000   1.0000   1.0000   1.0000   1.0000   1.0000   1.0000
     1.0000   1.0000   1.0000   1.0000   1.0000   1.0000   1.0000   1.0000
     1.0000   1.0000   1.0000   1.0000   1.0000   1.0000   1.0000   1.0000
     1.0000   1.0000   1.0000   1.0000   1.0000   1.0000   1.0000   1.0000
     1.0000   1.0000   1.0000   1.0000   1.0000   1.0000   1.0000   1.0000
     1.0000   1.0000   1.0000   1.0000   1.0000   1.0000   1.0000   1.0000
     1.0000   1.0000   1.0000   1.0000   1.0000   1.0000   1.0000   1.0000
     1.0000   1.0000   1.0000   1.0000   1.0000   1.0000   1.0000   1.0000
     1.0000   1.0000   1.0000   1.0000   1.0000   1.0000   1.0000   1.0000
     1.0000   1.0000   1.0000   1.0000   1.0000   1.0000   1.0000   1.0000
     1.0000   1.0000   1.0000   1.0000   1.0000   1.0000   1.0000   1.0000
     1.0000   1.0000   1.0000   1.0000   1.0000   1.0000   1.0000   1.0000
     1.0000   1.0000   1.0000   1.0000   1.0000   1.0000   1.0000   1.0000
     1.0000   1.0000   1.0000   1.0000   1.0000   1.0000   1.0000   1.0000
     1.0000   1.0000   1.0000   1.0000   1.0000   1.0000   1.0000   1.0000
     1.0000   1.0000   1.0000   1.0000   1.0000   1.0000   1.0000   1.0000
     1.0000   1.0000   1.0000   1.0000   1.0000   1.0000   1.0000   1.0000
     1.0000   1.0000   1.0000   1.0000   1.0000   1.0000   1.0000   1.0000
     1.0000   1.0000   1.0000   1.0000   1.0000   1.0000   1.0000   1.0000
     1.0000   1.0000   1.0000   1.0000   1.0000   1.0000   1.0000   1.0000
     1.0000   1.0000   1.0000   1.0000   1.0000   1.0000   1.0000   1.0000
     1.0000   1.0000   1.0000   1.0000   1.0000   1.0000   1.0000   1.0000
     1.0000   1.0000   1.0000   1.0000   1.0000   1.0000   1.0000   1.0000
     1.0000   1.0000   1.0000   1.0000   1.0000   1.0000   1.0000   1.0000
     1.0000   1.0000   1.0000   1.0000   1.0000   1.0000   1.0000   1.0000
     1.0000   1.0000   1.0000   1.0000   1.0000   1.0000   1.0000   1.0000
     1.0000   1.0000   1.0000   1.0000   1.0000   1.0000   1.0000   1.0000
     1.0000   1.0000   1.0000   1.0000   1.0000   1.0000   1.0000   1.0000
     1.0000   1.0000   1.0000   1.0000   1.0000   1.0000   1.0000   1.0000
     1.0000   1.0000   1.0000   1.0000   1.0000   1.0000   1.0000   1.0000
     1.0000   1.0000   1.0000   1.0000   1.0000   1.0000   1.0000   1.0000
     1.0000   1.0000   1.0000   1.0000   1.0000   1.0000   1.0000   1.0000
     1.0000   1.0000   1.0000   1.0000   1.0000   1.0000   1.0000   1.0000
     1.0000   1.0000   1.0000   1.0000   1.0000   1.0000   1.0000   1.0000
     1.0000   1.0000   1.0000   1.0000   1.0000   1.0000   1.0000   1.0000
     1.0000   1.0000   1.0000   1.0000   1.0000   1.0000   1.0000   1.0000
     1.0000   1.0000   1.0000   1.0000   1.0000   1.0000   1.0000   1.0000
     1.0000   1.0000   1.0000   1.0000   1.0000   1.0000   1.0000   1.0000
     1.0000   1.0000   1.0000   1.0000   1.0000   1.0000   1.0000   1.0000
     1.0000   1.0000   1.0000   1.0000   1.0000   1.0000   1.0000   1.0000
     1.0000   1.0000   1.0000   1.0000   1.0000   1.0000   1.0000   1.0000
     1.0000   1.0000   1.0000   1.0000   1.0000   1.0000   1.0000   1.0000
     1.0000   1.0000   1.0000   1.0000   1.0000   1.0000   1.0000   1.0000
     1.0000   1.0000   1.0000   1.0000   1.0000   1.0000   1.0000   1.0000
     1.0000   1.0000   1.0000   1.0000   1.0000   1.0000   1.0000   1.0000
     1.0000   1.0000   1.0000   1.0000   1.0000   1.0000   1.0000   1.0000
     1.0000   1.0000   1.0000   1.0000   1.0000   1.0000   1.0000   1.0000
     1.0000   1.0000   1.0000   1.0000   1.0000   1.0000   1.0000   1.0000
     1.0000   1.0000   1.0000   1.0000   1.0000   1.0000   1.0000   1.0000
     1.0000   1.0000   1.0000   1.0000   1.0000   1.0000   1.0000   1.0000
     0.0000   0.0000   0.0000   0.0000   0.0000   0.0000   0.0000   0.0000
     0.0000   0.0000   0.0000   0.0000   0.0000   0.0000   0.0000   0.0000
     0.0000   0.0000   0.0000   0.0000   0.0000   0.0000   0.0000   0.0000
     0.0000   0.0000   0.0000   0.0000   0.0000   0.0000   0.0000   0.0000
     0.0000   0.0000   0.0000   0.0000   0.0000   0.0000   0.0000   0.0000
     0.0000   0.0000   0.0000   0.0000   0.0000   0.0000   0.0000   0.0000
     0.0000   0.0000   0.0000   0.0000   0.0000   0.0000   0.0000   0.0000
     0.0000   0.0000   0.0000   0.0000   0.0000   0.0000   0.0000   0.0000
     0.0000   0.0000   0.0000   0.0000   0.0000   0.0000   0.0000   0.0000
     0.0000   0.0000   0.0000   0.0000   0.0000   0.0000   0.0000   0.0000
     0.0000   0.0000

          k =-0.5008-0.8668-0.4745 ( 44724 PWs)   bands (ev):

  -115.2634-115.2574-115.2573-115.2546-115.2529-115.2506-115.2474-115.2452
  -115.2439-115.2436-115.2368-115.2362-115.2352-115.2338-115.2322-115.2316
  -115.2302-115.2294-115.2284-115.2283-115.2272-115.2270-115.2269-115.2200
   -69.6246 -69.6206 -69.6189 -69.6188 -69.6158 -69.6154 -69.6153 -69.6145
   -69.6141 -69.6132 -69.6126 -69.6099 -69.6097 -69.6089 -69.6081 -69.6074
   -69.6072 -69.6063 -69.6060 -69.6051 -69.6049 -69.6024 -69.6015 -69.6005
   -69.5998 -69.5997 -69.5989 -69.5989 -69.5982 -69.5979 -69.5974 -69.5973
   -69.5959 -69.5959 -69.5951 -69.5949 -69.5933 -69.5927 -69.5924 -69.5923
   -69.5918 -69.5913 -69.5911 -69.5906 -69.5900 -69.5900 -69.5899 -69.5894
   -69.5889 -69.5878 -69.5876 -69.5866 -69.5866 -69.5863 -69.5857 -69.5850
   -69.5845 -69.5842 -69.5839 -69.5838 -69.5836 -69.5830 -69.5823 -69.5821
   -69.5811 -69.5809 -69.5800 -69.5799 -69.5793 -69.5792 -69.5750 -69.5721
   -64.6896 -64.6855 -64.6823 -64.6785 -64.6738 -64.6655 -64.6626 -64.6544
   -64.6496 -64.6493 -64.6466 -64.6440 -31.6865 -31.6795 -31.6773 -31.6768
   -31.6759 -31.6740 -31.6726 -31.6708 -31.6706 -31.6685 -31.6672 -31.6649
   -31.6636 -31.6612 -31.6584 -31.6571 -31.6563 -31.6536 -31.6521 -31.6509
   -31.6503 -31.6466 -31.6427 -31.6416 -31.6415 -31.6410 -31.6381 -31.6373
   -31.6365 -31.6351 -31.6339 -31.6326 -31.6321 -31.6290 -31.6259 -31.6241
    -9.8136  -9.7634  -9.7305  -9.6732  -9.5347  -9.4972  -9.4682  -9.4297
    -9.3737  -9.3450  -9.3125  -9.2853  -9.2661  -9.2343  -9.2156  -9.1989
    -9.1944  -9.1854  -9.1761  -9.1471  -9.1218  -9.1051  -9.0689  -9.0576
    -9.0397  -9.0191  -9.0068  -8.9891  -8.9695  -8.9596  -8.9550  -8.9428
    -8.9349  -8.9161  -8.9002  -8.7886   1.9063   1.9416   1.9561   1.9660
     1.9801   1.9976   2.0097   2.0226   2.0389   2.0448   2.0607   2.0815
     2.0891   2.1173   2.1257   2.1327   2.1463   2.1622   2.1692   2.1816
     2.2015   2.2240   2.2295   2.2457   2.2749   2.2949   2.3148   2.3273
     2.3382   2.3560   2.3692   2.3735   2.3895   2.3939   2.4093   2.4156
     2.4229   2.4356   2.4390   2.4529   2.4642   2.4726   2.4824   2.4870
     2.4997   2.5061   2.5172   2.5252   2.5430   2.5536   2.5586   2.5661
     2.5888   2.5951   2.6107   2.6161   2.6265   2.6366   2.6450   2.6652
     2.6796   2.6811   2.7075   2.7199   2.7362   2.7461   2.7724   2.7818
     2.7987   2.8107   2.8203   2.8493   2.8999   2.9267   2.9365   2.9680
     2.9772   2.9895   3.0124   3.0216   3.0307   3.0572   3.0804   3.1029
     3.1343   3.1554   3.1605   3.1948   3.1999   3.2150   3.2469   3.2691
     3.2849   3.2976   3.3205   3.3317   3.3580   3.3648   3.3775   3.3870
     3.3910   3.4119   3.4197   3.4229   3.4340   3.4381   3.4516   3.4762
     3.4823   3.4838   3.5028   3.5097   3.5132   3.5221   3.5313   3.5438
     3.5565   3.5692   3.5756   3.6063   3.6647   3.7338   3.7455   3.8166
     3.8631   3.8894   3.9070   3.9424   3.9678   4.0021   4.0296   4.0887
     4.1072   4.1325   4.1389   4.2106   4.2191   4.2420   4.2936   4.3787
     4.4455   4.4609   4.4927   4.5364   4.5482   4.6159   4.7002   4.7397
     4.9594   5.0204   5.0393   5.0696   5.0826   5.1260   5.1516   5.1538
     5.1818   5.2152   5.2515   5.2954   5.3189   5.3997   5.4375   5.4805
     5.5076   5.5200   5.5783   5.5976   5.6074   5.6396   5.6748   5.6928
     5.7133   5.7284   5.7382   5.7685   5.7811   5.8404   5.8724   5.8920
     5.9775   6.0289   6.0422   6.0705   6.1272   6.1535   6.1612   6.2034
     6.2189   6.2325   6.2407   6.2738   6.3032   6.3621   6.3745   6.4118
     6.4452   6.4841   6.5240   6.5385   6.5729   6.5879   6.6164   6.6392
     6.6438   6.6627   6.6725   6.6899   6.7044   6.7130   6.7379   6.7620
     6.7967   6.8131   6.8616   6.8661   6.9135   6.9814   7.0314   7.0771
     7.1421   7.2016   7.2283   7.2426   7.2593   7.2809   7.3108   7.3767
    10.9124  11.0072  11.0301  11.1284  12.2188  12.2592  12.3321  12.4140
    13.4555  13.5041  13.5754  13.6136  13.6648  13.7265  13.8205  13.8427
    13.9100  13.9520  14.0731  14.1101  14.1649  14.2763  14.3328  14.3799
    14.6385  14.6618  14.7363  14.7440  14.8843  14.8919  14.9285  14.9578
    14.9667  14.9918  15.0243  15.0546  15.8112  15.9001  16.0218  16.0357
    16.0561  16.1245  16.1351  16.1649  16.2292  16.3269  16.4367  16.4621
    16.4783  16.5012  16.5526  16.5606  16.6642  16.7820  16.8313  16.8674
    17.1205  17.1763  17.2574  17.4085  17.4870  17.5464  17.6157  17.6765
    17.7321  17.7404  17.8109  17.8512  18.0481  18.1354  18.1848  18.2249
    18.2779  18.3329  18.6054  18.6793  18.7124  18.7412  18.7915  18.8855
    18.9623  19.0695

     occupation numbers 
     1.0000   1.0000   1.0000   1.0000   1.0000   1.0000   1.0000   1.0000
     1.0000   1.0000   1.0000   1.0000   1.0000   1.0000   1.0000   1.0000
     1.0000   1.0000   1.0000   1.0000   1.0000   1.0000   1.0000   1.0000
     1.0000   1.0000   1.0000   1.0000   1.0000   1.0000   1.0000   1.0000
     1.0000   1.0000   1.0000   1.0000   1.0000   1.0000   1.0000   1.0000
     1.0000   1.0000   1.0000   1.0000   1.0000   1.0000   1.0000   1.0000
     1.0000   1.0000   1.0000   1.0000   1.0000   1.0000   1.0000   1.0000
     1.0000   1.0000   1.0000   1.0000   1.0000   1.0000   1.0000   1.0000
     1.0000   1.0000   1.0000   1.0000   1.0000   1.0000   1.0000   1.0000
     1.0000   1.0000   1.0000   1.0000   1.0000   1.0000   1.0000   1.0000
     1.0000   1.0000   1.0000   1.0000   1.0000   1.0000   1.0000   1.0000
     1.0000   1.0000   1.0000   1.0000   1.0000   1.0000   1.0000   1.0000
     1.0000   1.0000   1.0000   1.0000   1.0000   1.0000   1.0000   1.0000
     1.0000   1.0000   1.0000   1.0000   1.0000   1.0000   1.0000   1.0000
     1.0000   1.0000   1.0000   1.0000   1.0000   1.0000   1.0000   1.0000
     1.0000   1.0000   1.0000   1.0000   1.0000   1.0000   1.0000   1.0000
     1.0000   1.0000   1.0000   1.0000   1.0000   1.0000   1.0000   1.0000
     1.0000   1.0000   1.0000   1.0000   1.0000   1.0000   1.0000   1.0000
     1.0000   1.0000   1.0000   1.0000   1.0000   1.0000   1.0000   1.0000
     1.0000   1.0000   1.0000   1.0000   1.0000   1.0000   1.0000   1.0000
     1.0000   1.0000   1.0000   1.0000   1.0000   1.0000   1.0000   1.0000
     1.0000   1.0000   1.0000   1.0000   1.0000   1.0000   1.0000   1.0000
     1.0000   1.0000   1.0000   1.0000   1.0000   1.0000   1.0000   1.0000
     1.0000   1.0000   1.0000   1.0000   1.0000   1.0000   1.0000   1.0000
     1.0000   1.0000   1.0000   1.0000   1.0000   1.0000   1.0000   1.0000
     1.0000   1.0000   1.0000   1.0000   1.0000   1.0000   1.0000   1.0000
     1.0000   1.0000   1.0000   1.0000   1.0000   1.0000   1.0000   1.0000
     1.0000   1.0000   1.0000   1.0000   1.0000   1.0000   1.0000   1.0000
     1.0000   1.0000   1.0000   1.0000   1.0000   1.0000   1.0000   1.0000
     1.0000   1.0000   1.0000   1.0000   1.0000   1.0000   1.0000   1.0000
     1.0000   1.0000   1.0000   1.0000   1.0000   1.0000   1.0000   1.0000
     1.0000   1.0000   1.0000   1.0000   1.0000   1.0000   1.0000   1.0000
     1.0000   1.0000   1.0000   1.0000   1.0000   1.0000   1.0000   1.0000
     1.0000   1.0000   1.0000   1.0000   1.0000   1.0000   1.0000   1.0000
     1.0000   1.0000   1.0000   1.0000   1.0000   1.0000   1.0000   1.0000
     1.0000   1.0000   1.0000   1.0000   1.0000   1.0000   1.0000   1.0000
     1.0000   1.0000   1.0000   1.0000   1.0000   1.0000   1.0000   1.0000
     1.0000   1.0000   1.0000   1.0000   1.0000   1.0000   1.0000   1.0000
     1.0000   1.0000   1.0000   1.0000   1.0000   1.0000   1.0000   1.0000
     1.0000   1.0000   1.0000   1.0000   1.0000   1.0000   1.0000   1.0000
     1.0000   1.0000   1.0000   1.0000   1.0000   1.0000   1.0000   1.0000
     1.0000   1.0000   1.0000   1.0000   1.0000   1.0000   1.0000   1.0000
     1.0000   1.0000   1.0000   1.0000   1.0000   1.0000   1.0000   1.0000
     1.0000   1.0000   1.0000   1.0000   1.0000   1.0000   1.0000   1.0000
     1.0000   1.0000   1.0000   1.0000   1.0000   1.0000   1.0000   1.0000
     1.0000   1.0000   1.0000   1.0000   1.0000   1.0000   1.0000   1.0000
     1.0000   1.0000   1.0000   1.0000   1.0000   1.0000   1.0000   1.0000
     1.0000   1.0000   1.0000   1.0000   1.0000   1.0000   1.0000   1.0000
     1.0000   1.0000   1.0000   1.0000   1.0000   1.0000   1.0000   1.0000
     1.0000   1.0000   1.0000   1.0000   1.0000   1.0000   1.0000   1.0000
     1.0000   1.0000   1.0000   1.0000   1.0000   1.0000   1.0000   1.0000
     0.0000   0.0000   0.0000   0.0000   0.0000   0.0000   0.0000   0.0000
     0.0000   0.0000   0.0000   0.0000   0.0000   0.0000   0.0000   0.0000
     0.0000   0.0000   0.0000   0.0000   0.0000   0.0000   0.0000   0.0000
     0.0000   0.0000   0.0000   0.0000   0.0000   0.0000   0.0000   0.0000
     0.0000   0.0000   0.0000   0.0000   0.0000   0.0000   0.0000   0.0000
     0.0000   0.0000   0.0000   0.0000   0.0000   0.0000   0.0000   0.0000
     0.0000   0.0000   0.0000   0.0000   0.0000   0.0000   0.0000   0.0000
     0.0000   0.0000   0.0000   0.0000   0.0000   0.0000   0.0000   0.0000
     0.0000   0.0000   0.0000   0.0000   0.0000   0.0000   0.0000   0.0000
     0.0000   0.0000   0.0000   0.0000   0.0000   0.0000   0.0000   0.0000
     0.0000   0.0000

     the Fermi energy is     8.6516 ev

!    total energy              =  -13736.02673671 Ry
     Harris-Foulkes estimate   =  -13736.02673672 Ry
     estimated scf accuracy    <          6.2E-09 Ry

     The total energy is the sum of the following terms:

     one-electron contribution =  -11443.34972624 Ry
     hartree contribution      =    6010.29687609 Ry
     xc contribution           =   -1465.62981509 Ry
     ewald contribution        =   -6837.34407148 Ry
     smearing contrib. (-TS)   =       0.00000000 Ry

     convergence has been achieved in  12 iterations

     Writing output data file ZnO.save/
 
     init_run     :     13.44s CPU     14.21s WALL (       1 calls)
     electrons    :    689.07s CPU    704.14s WALL (       1 calls)

     Called by init_run:
     wfcinit      :     11.29s CPU     11.74s WALL (       1 calls)
     wfcinit:atom :      0.09s CPU      0.11s WALL (       5 calls)
     wfcinit:wfcr :     10.79s CPU     11.17s WALL (       5 calls)
     potinit      :      0.99s CPU      1.06s WALL (       1 calls)
     hinit0       :      0.74s CPU      0.85s WALL (       1 calls)

     Called by electrons:
     c_bands      :    639.06s CPU    652.75s WALL (      12 calls)
     sum_band     :     43.25s CPU     44.11s WALL (      12 calls)
     v_of_rho     :      5.33s CPU      5.65s WALL (      13 calls)
     v_h          :      0.14s CPU      0.19s WALL (      13 calls)
     v_xc         :      5.19s CPU      5.45s WALL (      13 calls)
     newd         :      1.24s CPU      1.38s WALL (      13 calls)
     mix_rho      :      0.33s CPU      0.43s WALL (      12 calls)

     Called by c_bands:
     init_us_2    :      4.19s CPU      4.24s WALL (     125 calls)
     cegterg      :    559.10s CPU    572.23s WALL (      60 calls)

     Called by sum_band:
     sum_band:bec :      0.23s CPU      0.23s WALL (      60 calls)
     addusdens    :      1.06s CPU      1.11s WALL (      12 calls)

     Called by *egterg:
     h_psi        :    185.30s CPU    188.68s WALL (     257 calls)
     s_psi        :     48.63s CPU     48.69s WALL (     257 calls)
     g_psi        :      0.70s CPU      0.70s WALL (     192 calls)
     cdiaghg      :    208.18s CPU    214.06s WALL (     252 calls)
     cegterg:over :     54.04s CPU     55.57s WALL (     192 calls)
     cegterg:upda :     34.96s CPU     35.39s WALL (     192 calls)
     cegterg:last :     19.79s CPU     19.86s WALL (      60 calls)
     cdiaghg:chol :     10.07s CPU     10.17s WALL (     252 calls)
     cdiaghg:inve :      3.10s CPU      3.11s WALL (     252 calls)
     cdiaghg:para :     50.02s CPU     54.69s WALL (     504 calls)

     Called by h_psi:
     h_psi:pot    :    183.65s CPU    185.98s WALL (     257 calls)
     h_psi:calbec :     49.48s CPU     50.97s WALL (     257 calls)
     vloc_psi     :     85.08s CPU     85.69s WALL (     257 calls)
     add_vuspsi   :     49.09s CPU     49.32s WALL (     257 calls)

     General routines
     calbec       :     69.05s CPU     71.14s WALL (     317 calls)
     fft          :      1.27s CPU      1.76s WALL (     167 calls)
     ffts         :      0.05s CPU      0.06s WALL (      25 calls)
     fftw         :     95.72s CPU     96.42s WALL (  175150 calls)
     interpolate  :      0.15s CPU      0.18s WALL (      13 calls)
 
     Parallel routines
     fft_scatt_xy :     15.50s CPU     15.59s WALL (  175342 calls)
     fft_scatt_yz :     28.42s CPU     29.10s WALL (  175342 calls)
 
     PWSCF        :  11m46.59s CPU  12m 6.98s WALL

 
   This run was terminated on:   1:37:50  15Jul2022            

=------------------------------------------------------------------------------=
   JOB DONE.
=------------------------------------------------------------------------------=
