
     Program PWSCF v.6.4.1 starts on 15Jul2022 at  2:12:46 

     This program is part of the open-source Quantum ESPRESSO suite
     for quantum simulation of materials; please cite
         "P. Giannozzi et al., J. Phys.:Condens. Matter 21 395502 (2009);
         "P. Giannozzi et al., J. Phys.:Condens. Matter 29 465901 (2017);
          URL http://www.quantum-espresso.org", 
     in publications or presentations arising from this work. More details at
     http://www.quantum-espresso.org/quote

     Parallel version (MPI), running on   128 processors

     MPI processes distributed on     2 nodes
     R & G space division:  proc/nbgrp/npool/nimage =     128
     Waiting for input...
     Reading input from standard input
Warning: card &IONS ignored
Warning: card   UPSCALE           = 100.D0, ignored
Warning: card / ignored
Warning: card &CELL ignored
Warning: card   CELL_DYNAMICS     = 'BFGS' ignored
Warning: card   PRESS_CONV_THR    = 0.5D0 ignored
Warning: card   CELL_DOFREE = 'ALL' ignored
Warning: card / ignored

     Current dimensions of program PWSCF are:
     Max number of different atomic species (ntypx) = 10
     Max number of k-points (npk) =  40000
     Max angular momentum in pseudopotentials (lmaxx) =  3

     Atomic positions and unit cell read from directory:
     ./temp/ZnO.save/
 

     Subspace diagonalization in iterative solution of the eigenvalue problem:
     one sub-group per band group will be used
     scalapack distributed-memory algorithm (size of sub-group:  8*  8 procs)

 
     Parallelization info
     --------------------
     sticks:   dense  smooth     PW     G-vecs:    dense   smooth      PW
     Min          91      44     12                 8534     2837     420
     Max          92      45     13                 8544     2842     427
     Sum       11725    5643   1581              1092999   363553   54103
 


     bravais-lattice index     =            0
     lattice parameter (alat)  =      18.4447  a.u.
     unit-cell volume          =    5789.0670 (a.u.)^3
     number of atoms/cell      =           72
     number of atomic types    =            3
     number of electrons       =       776.00
     number of Kohn-Sham states=          388
     kinetic-energy cutoff     =      60.0000  Ry
     charge density cutoff     =     500.0000  Ry
     Exchange-correlation      = SLA  PW   PSX  PSC ( 1  4 10  8 0 0)
     Using LIBXC version       =    4   3   4

     celldm(1)=  18.444651  celldm(2)=   0.000000  celldm(3)=   0.000000
     celldm(4)=   0.000000  celldm(5)=   0.000000  celldm(6)=   0.000000

     crystal axes: (cart. coord. in units of alat)
               a(1) = (   1.000000  -0.000668   0.000654 )  
               a(2) = (  -0.500577   0.867025  -0.000259 )  
               a(3) = (   0.000697   0.000083   1.064471 )  

     reciprocal axes: (cart. coord. in units 2 pi/alat)
               b(1) = (  1.000387  0.577573 -0.000700 )  
               b(2) = (  0.000771  1.153815 -0.000090 )  
               b(3) = ( -0.000614 -0.000074  0.939434 )  


     PseudoPot. # 1 for Zn read from file:
     ./GBRV_PBEsol/zn_pbesol_v1.uspp.F.UPF
     MD5 check sum: 7d8615e52efe7c1e2b1899de8658bae2
     Pseudo is Ultrasoft, Zval = 20.0
     Generated by new atomic code, or converted to UPF format
     Using radial grid of  943 points,  6 beta functions with: 
                l(1) =   0
                l(2) =   0
                l(3) =   1
                l(4) =   1
                l(5) =   2
                l(6) =   2
     Q(r) pseudized with  8 coefficients,  rinner =    1.100   1.100   1.100
                                                       1.100   1.100

     PseudoPot. # 2 for O  read from file:
     ./GBRV_PBEsol/o_pbesol_v1.2.uspp.F.UPF
     MD5 check sum: 501638753501ef6325af9037351f7734
     Pseudo is Ultrasoft + core correction, Zval =  6.0
     Generated by new atomic code, or converted to UPF format
     Using radial grid of  737 points,  5 beta functions with: 
                l(1) =   0
                l(2) =   0
                l(3) =   1
                l(4) =   1
                l(5) =   2
     Q(r) pseudized with  8 coefficients,  rinner =    0.900   0.900   0.900
                                                       0.900   0.900

     PseudoPot. # 3 for Mg read from file:
     ./GBRV_PBEsol/mg_pbesol_v1.4.uspp.F.UPF
     MD5 check sum: 4059f37963cf5867752dbf5ab2400678
     Pseudo is Ultrasoft, Zval = 10.0
     Generated by new atomic code, or converted to UPF format
     Using radial grid of  821 points,  7 beta functions with: 
                l(1) =   0
                l(2) =   0
                l(3) =   0
                l(4) =   1
                l(5) =   1
                l(6) =   2
                l(7) =   2
     Q(r) pseudized with  8 coefficients,  rinner =    1.200   1.200   1.200
                                                       1.200   1.200

     atomic species   valence    mass     pseudopotential
        Zn            20.00    65.38000     Zn( 1.00)
        O              6.00    15.99900     O ( 1.00)
        Mg            10.00    24.30500     Mg( 1.00)

     No symmetry found


                                    s                        frac. trans.

      isym =  1     identity                                     

 cryst.   s( 1) = (     1          0          0      )
                  (     0          1          0      )
                  (     0          0          1      )

 cart.    s( 1) = (  1.0000000 -0.0000000  0.0000000 )
                  ( -0.0000000  1.0000000  0.0000000 )
                  ( -0.0000000 -0.0000000  1.0000000 )


   Cartesian axes

     site n.     atom                  positions (alat units)
         1           Zn  tau(   1) = (   0.1647479   0.0954963   0.2085511  )
         2           Zn  tau(   2) = (   0.3321197   0.3844125   0.2060951  )
         3           Zn  tau(   3) = (   0.6690176   0.3847929   0.2058923  )
         4           Zn  tau(   4) = (   0.1677834   0.0960696   0.7405757  )
         5           Zn  tau(   5) = (   0.5011639   0.0961245   0.7380051  )
         6           Zn  tau(   6) = (   0.8320118   0.0962813   0.7362300  )
         7           Zn  tau(   7) = (  -0.0002203   0.3866914   0.7375309  )
         8           Zn  tau(   8) = (   0.6662707   0.3851745   0.7385494  )
         9           Zn  tau(   9) = (   0.1654240   0.6740292   0.7383025  )
        10           Zn  tau(  10) = (   0.5001903   0.6718868   0.7361787  )
        11           Zn  tau(  11) = (   0.3321118   0.1937678   0.4737127  )
        12           Zn  tau(  12) = (   0.6670801   0.1931068   0.4715051  )
        13           Zn  tau(  13) = (   0.1669814   0.4804715   0.4722229  )
        14           Zn  tau(  14) = (   0.4994429   0.4798945   0.4709077  )
        15           Zn  tau(  15) = (  -0.0022644   0.7689957   0.4709066  )
        16           Zn  tau(  16) = (  -0.0005711   0.1924310   1.0046010  )
        17           Zn  tau(  17) = (   0.3338696   0.1903217   1.0060387  )
        18           Zn  tau(  18) = (   0.1655852   0.4817903   1.0055937  )
        19           Zn  tau(  19) = (  -0.3345052   0.7696881   1.0042903  )
        20           Zn  tau(  20) = (   0.0006353   0.7715771   1.0061262  )
        21           Mg  tau(  21) = (   0.4982431   0.0972160   0.2098375  )
        22           Mg  tau(  22) = (   0.8354746   0.0954923   0.2084534  )
        23           Mg  tau(  23) = (   0.0020064   0.3827236   0.2073683  )
        24           Mg  tau(  24) = (  -0.1676163   0.6756800   0.2054846  )
        25           Mg  tau(  25) = (   0.1669151   0.6742817   0.2081849  )
        26           Mg  tau(  26) = (   0.4998603   0.6753368   0.2084361  )
        27           Mg  tau(  27) = (   0.3337097   0.3851514   0.7403073  )
        28           Mg  tau(  28) = (  -0.1652269   0.6751143   0.7389189  )
        29           Mg  tau(  29) = (   0.0022537   0.1933264   0.4757788  )
        30           Mg  tau(  30) = (  -0.1667173   0.4822435   0.4719653  )
        31           Mg  tau(  31) = (  -0.3316146   0.7718072   0.4741564  )
        32           Mg  tau(  32) = (   0.3312947   0.7692458   0.4740204  )
        33           Mg  tau(  33) = (   0.6674713   0.1920635   1.0061910  )
        34           Mg  tau(  34) = (  -0.1649024   0.4806158   1.0038330  )
        35           Mg  tau(  35) = (   0.5021431   0.4819983   1.0073377  )
        36           Mg  tau(  36) = (   0.3349101   0.7708439   1.0027184  )
        37           O   tau(  37) = (   0.1654948   0.0953183   0.0038548  )
        38           O   tau(  38) = (   0.5004197   0.0964949   0.0065291  )
        39           O   tau(  39) = (   0.8325406   0.0948075   0.0048777  )
        40           O   tau(  40) = (  -0.0005083   0.3844672   0.0046015  )
        41           O   tau(  41) = (   0.3332863   0.3847816   0.0014414  )
        42           O   tau(  42) = (   0.6677094   0.3845994   0.0018122  )
        43           O   tau(  43) = (  -0.1672928   0.6732395   0.0018692  )
        44           O   tau(  44) = (   0.1675626   0.6747968   0.0044206  )
        45           O   tau(  45) = (   0.4984015   0.6737236   0.0053264  )
        46           O   tau(  46) = (   0.1671078   0.0960561   0.5370620  )
        47           O   tau(  47) = (   0.5000733   0.0958909   0.5337075  )
        48           O   tau(  48) = (   0.8340675   0.0956546   0.5330240  )
        49           O   tau(  49) = (  -0.0007244   0.3856444   0.5336994  )
        50           O   tau(  50) = (   0.3334430   0.3855843   0.5375773  )
        51           O   tau(  51) = (   0.6666151   0.3850819   0.5349355  )
        52           O   tau(  52) = (  -0.1676946   0.6733724   0.5361371  )
        53           O   tau(  53) = (   0.1649151   0.6734183   0.5343582  )
        54           O   tau(  54) = (   0.5000389   0.6739346   0.5322153  )
        55           O   tau(  55) = (  -0.0001879   0.1925350   0.2728546  )
        56           O   tau(  56) = (   0.3316378   0.1928661   0.2702571  )
        57           O   tau(  57) = (   0.6673295   0.1917660   0.2673337  )
        58           O   tau(  58) = (  -0.1642495   0.4826852   0.2683160  )
        59           O   tau(  59) = (   0.1666586   0.4818205   0.2687558  )
        60           O   tau(  60) = (   0.5004489   0.4809851   0.2667267  )
        61           O   tau(  61) = (  -0.3332407   0.7700165   0.2712959  )
        62           O   tau(  62) = (  -0.0005939   0.7707316   0.2674394  )
        63           O   tau(  63) = (   0.3329674   0.7703709   0.2705018  )
        64           O   tau(  64) = (  -0.0003897   0.1930938   0.8000735  )
        65           O   tau(  65) = (   0.3345149   0.1924597   0.8021672  )
        66           O   tau(  66) = (   0.6669736   0.1925779   0.8028453  )
        67           O   tau(  67) = (  -0.1665936   0.4826752   0.8007581  )
        68           O   tau(  68) = (   0.1667574   0.4816381   0.8016197  )
        69           O   tau(  69) = (   0.4998342   0.4811111   0.8039179  )
        70           O   tau(  70) = (  -0.3334820   0.7697313   0.7998962  )
        71           O   tau(  71) = (   0.0004441   0.7714212   0.8021217  )
        72           O   tau(  72) = (   0.3336060   0.7701556   0.7992609  )

   Crystallographic axes

     site n.     atom                  positions (cryst. coord.)
         1           Zn  tau(   1) = (  0.2198218  0.1102933  0.1958119  )
         2           Zn  tau(   2) = (  0.5541304  0.4437783  0.1933804  )
         3           Zn  tau(   3) = (  0.8913784  0.4444770  0.1929829  )
         4           Zn  tau(   4) = (  0.2228172  0.1109093  0.6956122  )
         5           Zn  tau(   5) = (  0.5563602  0.1112299  0.6929925  )
         6           Zn  tau(   6) = (  0.8874280  0.1116661  0.6911218  )
         7           Zn  tau(   7) = (  0.2226061  0.4461037  0.6928334  )
         8           Zn  tau(   8) = (  0.8884781  0.4448673  0.6933810  )
         9           Zn  tau(   9) = (  0.5542726  0.7777659  0.6934353  )
        10           Zn  tau(  10) = (  0.8879326  0.7755523  0.6912347  )
        11           Zn  tau(  11) = (  0.4438239  0.2237856  0.4448037  )
        12           Zn  tau(  12) = (  0.7785415  0.2232814  0.4425242  )
        13           Zn  tau(  13) = (  0.4442231  0.5544613  0.4434843  )
        14           Zn  tau(  14) = (  0.7764809  0.5540520  0.4420447  )
        15           Zn  tau(  15) = (  0.4415566  0.8872343  0.4423303  )
        16           Zn  tau(  16) = (  0.1098686  0.2219388  0.9437429  )
        17           Zn  tau(  17) = (  0.4432195  0.2197629  0.9448883  )
        18           Zn  tau(  18) = (  0.4432148  0.5559339  0.9445520  )
        19           Zn  tau(  19) = (  0.1092139  0.8877291  0.9436134  )
        20           Zn  tau(  20) = (  0.4455738  0.8901669  0.9451321  )
        21           Mg  tau(  21) = (  0.5544384  0.1125346  0.1968154  )
        22           Mg  tau(  22) = (  0.8908058  0.1108060  0.1953081  )
        23           Mg  tau(  23) = (  0.2229130  0.4415750  0.1947794  )
        24           Mg  tau(  24) = (  0.2224298  0.7794617  0.1930922  )
        25           Mg  tau(  25) = (  0.5562811  0.7781061  0.1954236  )
        26           Mg  tau(  26) = (  0.8899644  0.7795801  0.1954550  )
        27           Mg  tau(  27) = (  0.5557739  0.4445841  0.6952367  )
        28           Mg  tau(  28) = (  0.2241201  0.7787629  0.6942173  )
        29           Mg  tau(  29) = (  0.1135819  0.2230218  0.4469473  )
        30           Mg  tau(  30) = (  0.1114190  0.5562486  0.4434471  )
        31           Mg  tau(  31) = (  0.1137006  0.8902241  0.4455853  )
        32           Mg  tau(  32) = (  0.7753871  0.8877798  0.4450507  )
        33           Mg  tau(  33) = (  0.7779562  0.2220299  0.9448264  )
        34           Mg  tau(  34) = (  0.1119222  0.5543241  0.9431010  )
        35           Mg  tau(  35) = (  0.7800218  0.5564333  0.9459837  )
        36           Mg  tau(  36) = (  0.7795569  0.8895790  0.9417255  )
        37           O   tau(  37) = (  0.2206094  0.1101069  0.0035126  )
        38           O   tau(  38) = (  0.5563417  0.1117226  0.0058192  )
        39           O   tau(  39) = (  0.8876175  0.1100319  0.0040639  )
        40           O   tau(  40) = (  0.2215463  0.4436030  0.0042947  )
        41           O   tau(  41) = (  0.5556538  0.4442235  0.0011209  )
        42           O   tau(  42) = (  0.8901008  0.4442711  0.0012639  )
        43           O   tau(  43) = (  0.2214864  0.7766644  0.0018088  )
        44           O   tau(  44) = (  0.5573690  0.7787192  0.0039999  )
        45           O   tau(  45) = (  0.8877154  0.7777360  0.0046478  )
        46           O   tau(  46) = (  0.2222760  0.1109115  0.5044248  )
        47           O   tau(  47) = (  0.5552773  0.1109780  0.5010691  )
        48           O   tau(  48) = (  0.8892648  0.1109630  0.5002218  )
        49           O   tau(  49) = (  0.2216398  0.4449136  0.5013475  )
        50           O   tau(  50) = (  0.5558990  0.4451015  0.5047853  )
        51           O   tau(  51) = (  0.8889116  0.4447790  0.5020989  )
        52           O   tau(  52) = (  0.2207873  0.7767693  0.5037188  )
        53           O   tau(  53) = (  0.5535535  0.7770790  0.5018433  )
        54           O   tau(  54) = (  0.8891066  0.7779333  0.4996244  )
        55           O   tau(  55) = (  0.1108241  0.2221250  0.2563148  )
        56           O   tau(  56) = (  0.4429713  0.2227632  0.2536709  )
        57           O   tau(  57) = (  0.7781595  0.2217529  0.2507185  )
        58           O   tau(  58) = (  0.1142853  0.5567785  0.2521304  )
        59           O   tau(  59) = (  0.4448217  0.5560359  0.2523404  )
        60           O   tau(  60) = (  0.7782601  0.5553296  0.2502293  )
        61           O   tau(  61) = (  0.1111815  0.8881749  0.2550123  )
        62           O   tau(  62) = (  0.4443728  0.8892569  0.2511850  )
        63           O   tau(  63) = (  0.7778526  0.8890976  0.2538572  )
        64           O   tau(  64) = (  0.1105761  0.2227222  0.7516025  )
        65           O   tau(  65) = (  0.4452426  0.2222486  0.7533639  )
        66           O   tau(  66) = (  0.7778977  0.2226413  0.7537967  )
        67           O   tau(  67) = (  0.1115619  0.5567172  0.7523264  )
        68           O   tau(  68) = (  0.4444423  0.5557776  0.7529311  )
        69           O   tau(  69) = (  0.7773420  0.5554261  0.7548856  )
        70           O   tau(  70) = (  0.1104056  0.8877981  0.7515978  )
        71           O   tau(  71) = (  0.4454353  0.8900052  0.7534833  )
        72           O   tau(  72) = (  0.7779971  0.8888022  0.7505913  )

     number of k points=    80
                       cart. coord. in units 2pi/alat
        k(    1) = (   0.0000000   0.0000000   0.0000000), wk =   0.0156250
        k(    2) = (  -0.0000877  -0.0000106   0.1342049), wk =   0.0156250
        k(    3) = (  -0.0001755  -0.0000212   0.2684099), wk =   0.0156250
        k(    4) = (  -0.0002632  -0.0000318   0.4026148), wk =   0.0156250
        k(    5) = (  -0.0003509  -0.0000423   0.5368197), wk =   0.0156250
        k(    6) = (  -0.0004387  -0.0000529   0.6710246), wk =   0.0156250
        k(    7) = (  -0.0005264  -0.0000635   0.8052296), wk =   0.0156250
        k(    8) = (  -0.0006141  -0.0000741   0.9394345), wk =   0.0156250
        k(    9) = (   0.0001928   0.2884536  -0.0000225), wk =   0.0312500
        k(   10) = (   0.0001051   0.2884431   0.1341824), wk =   0.0312500
        k(   11) = (   0.0000173   0.2884325   0.2683874), wk =   0.0312500
        k(   12) = (  -0.0000704   0.2884219   0.4025923), wk =   0.0312500
        k(   13) = (  -0.0001581   0.2884113   0.5367972), wk =   0.0312500
        k(   14) = (  -0.0002459   0.2884007   0.6710021), wk =   0.0312500
        k(   15) = (  -0.0003336   0.2883901   0.8052071), wk =   0.0312500
        k(   16) = (  -0.0004213   0.2883796   0.9394120), wk =   0.0312500
        k(   17) = (  -0.0003856  -0.5769073   0.0000450), wk =   0.0156250
        k(   18) = (  -0.0004733  -0.5769179   0.1342499), wk =   0.0156250
        k(   19) = (  -0.0005610  -0.5769285   0.2684548), wk =   0.0156250
        k(   20) = (  -0.0006488  -0.5769391   0.4026598), wk =   0.0156250
        k(   21) = (  -0.0007365  -0.5769496   0.5368647), wk =   0.0156250
        k(   22) = (  -0.0008242  -0.5769602   0.6710696), wk =   0.0156250
        k(   23) = (  -0.0009120  -0.5769708   0.8052746), wk =   0.0156250
        k(   24) = (  -0.0009997  -0.5769814   0.9394795), wk =   0.0156250
        k(   25) = (   0.2500967   0.1443934  -0.0001750), wk =   0.0312500
        k(   26) = (   0.2500090   0.1443828   0.1340300), wk =   0.0312500
        k(   27) = (   0.2499213   0.1443722   0.2682349), wk =   0.0312500
        k(   28) = (   0.2498335   0.1443616   0.4024398), wk =   0.0312500
        k(   29) = (   0.2497458   0.1443510   0.5366448), wk =   0.0312500
        k(   30) = (   0.2496581   0.1443404   0.6708497), wk =   0.0312500
        k(   31) = (   0.2495703   0.1443298   0.8050546), wk =   0.0312500
        k(   32) = (   0.2494826   0.1443193   0.9392595), wk =   0.0312500
        k(   33) = (   0.2502895   0.4328470  -0.0001974), wk =   0.0312500
        k(   34) = (   0.2502018   0.4328364   0.1340075), wk =   0.0312500
        k(   35) = (   0.2501140   0.4328258   0.2682124), wk =   0.0312500
        k(   36) = (   0.2500263   0.4328152   0.4024173), wk =   0.0312500
        k(   37) = (   0.2499386   0.4328047   0.5366223), wk =   0.0312500
        k(   38) = (   0.2498509   0.4327941   0.6708272), wk =   0.0312500
        k(   39) = (   0.2497631   0.4327835   0.8050321), wk =   0.0312500
        k(   40) = (   0.2496754   0.4327729   0.9392370), wk =   0.0312500
        k(   41) = (   0.2497111  -0.4325139  -0.0001300), wk =   0.0312500
        k(   42) = (   0.2496234  -0.4325245   0.1340750), wk =   0.0312500
        k(   43) = (   0.2495357  -0.4325351   0.2682799), wk =   0.0312500
        k(   44) = (   0.2494479  -0.4325457   0.4024848), wk =   0.0312500
        k(   45) = (   0.2493602  -0.4325563   0.5366897), wk =   0.0312500
        k(   46) = (   0.2492725  -0.4325669   0.6708947), wk =   0.0312500
        k(   47) = (   0.2491848  -0.4325775   0.8050996), wk =   0.0312500
        k(   48) = (   0.2490970  -0.4325880   0.9393045), wk =   0.0312500
        k(   49) = (   0.2499039  -0.1440603  -0.0001525), wk =   0.0312500
        k(   50) = (   0.2498162  -0.1440709   0.1340525), wk =   0.0312500
        k(   51) = (   0.2497285  -0.1440815   0.2682574), wk =   0.0312500
        k(   52) = (   0.2496407  -0.1440921   0.4024623), wk =   0.0312500
        k(   53) = (   0.2495530  -0.1441026   0.5366672), wk =   0.0312500
        k(   54) = (   0.2494653  -0.1441132   0.6708722), wk =   0.0312500
        k(   55) = (   0.2493775  -0.1441238   0.8050771), wk =   0.0312500
        k(   56) = (   0.2492898  -0.1441344   0.9392820), wk =   0.0312500
        k(   57) = (  -0.5001934  -0.2887867   0.0003499), wk =   0.0156250
        k(   58) = (  -0.5002812  -0.2887973   0.1345548), wk =   0.0156250
        k(   59) = (  -0.5003689  -0.2888079   0.2687598), wk =   0.0156250
        k(   60) = (  -0.5004566  -0.2888185   0.4029647), wk =   0.0156250
        k(   61) = (  -0.5005444  -0.2888290   0.5371696), wk =   0.0156250
        k(   62) = (  -0.5006321  -0.2888396   0.6713746), wk =   0.0156250
        k(   63) = (  -0.5007198  -0.2888502   0.8055795), wk =   0.0156250
        k(   64) = (  -0.5008076  -0.2888608   0.9397844), wk =   0.0156250
        k(   65) = (  -0.5000007  -0.0003331   0.0003274), wk =   0.0312500
        k(   66) = (  -0.5000884  -0.0003436   0.1345324), wk =   0.0312500
        k(   67) = (  -0.5001761  -0.0003542   0.2687373), wk =   0.0312500
        k(   68) = (  -0.5002639  -0.0003648   0.4029422), wk =   0.0312500
        k(   69) = (  -0.5003516  -0.0003754   0.5371471), wk =   0.0312500
        k(   70) = (  -0.5004393  -0.0003860   0.6713521), wk =   0.0312500
        k(   71) = (  -0.5005270  -0.0003966   0.8055570), wk =   0.0312500
        k(   72) = (  -0.5006148  -0.0004071   0.9397619), wk =   0.0312500
        k(   73) = (  -0.5005790  -0.8656940   0.0003949), wk =   0.0156250
        k(   74) = (  -0.5006668  -0.8657046   0.1345998), wk =   0.0156250
        k(   75) = (  -0.5007545  -0.8657152   0.2688048), wk =   0.0156250
        k(   76) = (  -0.5008422  -0.8657258   0.4030097), wk =   0.0156250
        k(   77) = (  -0.5009299  -0.8657363   0.5372146), wk =   0.0156250
        k(   78) = (  -0.5010177  -0.8657469   0.6714195), wk =   0.0156250
        k(   79) = (  -0.5011054  -0.8657575   0.8056245), wk =   0.0156250
        k(   80) = (  -0.5011931  -0.8657681   0.9398294), wk =   0.0156250

                       cryst. coord.
        k(    1) = (   0.0000000   0.0000000   0.0000000), wk =   0.0156250
        k(    2) = (  -0.0000000   0.0000000   0.1428571), wk =   0.0156250
        k(    3) = (  -0.0000000   0.0000000   0.2857143), wk =   0.0156250
        k(    4) = (  -0.0000000   0.0000000   0.4285714), wk =   0.0156250
        k(    5) = (  -0.0000000   0.0000000   0.5714286), wk =   0.0156250
        k(    6) = (   0.0000000   0.0000000   0.7142857), wk =   0.0156250
        k(    7) = (  -0.0000000   0.0000000   0.8571429), wk =   0.0156250
        k(    8) = (  -0.0000000   0.0000000   1.0000000), wk =   0.0156250
        k(    9) = (  -0.0000000   0.2500000   0.0000000), wk =   0.0312500
        k(   10) = (  -0.0000000   0.2500000   0.1428571), wk =   0.0312500
        k(   11) = (  -0.0000000   0.2500000   0.2857143), wk =   0.0312500
        k(   12) = (  -0.0000000   0.2500000   0.4285714), wk =   0.0312500
        k(   13) = (  -0.0000000   0.2500000   0.5714286), wk =   0.0312500
        k(   14) = (  -0.0000000   0.2500000   0.7142857), wk =   0.0312500
        k(   15) = (  -0.0000000   0.2500000   0.8571429), wk =   0.0312500
        k(   16) = (  -0.0000000   0.2500000   1.0000000), wk =   0.0312500
        k(   17) = (   0.0000000  -0.5000000  -0.0000000), wk =   0.0156250
        k(   18) = (  -0.0000000  -0.5000000   0.1428571), wk =   0.0156250
        k(   19) = (   0.0000000  -0.5000000   0.2857143), wk =   0.0156250
        k(   20) = (   0.0000000  -0.5000000   0.4285714), wk =   0.0156250
        k(   21) = (   0.0000000  -0.5000000   0.5714286), wk =   0.0156250
        k(   22) = (   0.0000000  -0.5000000   0.7142857), wk =   0.0156250
        k(   23) = (   0.0000000  -0.5000000   0.8571429), wk =   0.0156250
        k(   24) = (   0.0000000  -0.5000000   1.0000000), wk =   0.0156250
        k(   25) = (   0.2500000  -0.0000000   0.0000000), wk =   0.0312500
        k(   26) = (   0.2500000  -0.0000000   0.1428571), wk =   0.0312500
        k(   27) = (   0.2500000  -0.0000000   0.2857143), wk =   0.0312500
        k(   28) = (   0.2500000  -0.0000000   0.4285714), wk =   0.0312500
        k(   29) = (   0.2500000  -0.0000000   0.5714286), wk =   0.0312500
        k(   30) = (   0.2500000  -0.0000000   0.7142857), wk =   0.0312500
        k(   31) = (   0.2500000  -0.0000000   0.8571429), wk =   0.0312500
        k(   32) = (   0.2500000  -0.0000000   1.0000000), wk =   0.0312500
        k(   33) = (   0.2500000   0.2500000   0.0000000), wk =   0.0312500
        k(   34) = (   0.2500000   0.2500000   0.1428571), wk =   0.0312500
        k(   35) = (   0.2500000   0.2500000   0.2857143), wk =   0.0312500
        k(   36) = (   0.2500000   0.2500000   0.4285714), wk =   0.0312500
        k(   37) = (   0.2500000   0.2500000   0.5714286), wk =   0.0312500
        k(   38) = (   0.2500000   0.2500000   0.7142857), wk =   0.0312500
        k(   39) = (   0.2500000   0.2500000   0.8571429), wk =   0.0312500
        k(   40) = (   0.2500000   0.2500000   1.0000000), wk =   0.0312500
        k(   41) = (   0.2500000  -0.5000000   0.0000000), wk =   0.0312500
        k(   42) = (   0.2500000  -0.5000000   0.1428571), wk =   0.0312500
        k(   43) = (   0.2500000  -0.5000000   0.2857143), wk =   0.0312500
        k(   44) = (   0.2500000  -0.5000000   0.4285714), wk =   0.0312500
        k(   45) = (   0.2500000  -0.5000000   0.5714286), wk =   0.0312500
        k(   46) = (   0.2500000  -0.5000000   0.7142857), wk =   0.0312500
        k(   47) = (   0.2500000  -0.5000000   0.8571429), wk =   0.0312500
        k(   48) = (   0.2500000  -0.5000000   1.0000000), wk =   0.0312500
        k(   49) = (   0.2500000  -0.2500000   0.0000000), wk =   0.0312500
        k(   50) = (   0.2500000  -0.2500000   0.1428571), wk =   0.0312500
        k(   51) = (   0.2500000  -0.2500000   0.2857143), wk =   0.0312500
        k(   52) = (   0.2500000  -0.2500000   0.4285714), wk =   0.0312500
        k(   53) = (   0.2500000  -0.2500000   0.5714286), wk =   0.0312500
        k(   54) = (   0.2500000  -0.2500000   0.7142857), wk =   0.0312500
        k(   55) = (   0.2500000  -0.2500000   0.8571429), wk =   0.0312500
        k(   56) = (   0.2500000  -0.2500000   1.0000000), wk =   0.0312500
        k(   57) = (  -0.5000000   0.0000000  -0.0000000), wk =   0.0156250
        k(   58) = (  -0.5000000  -0.0000000   0.1428571), wk =   0.0156250
        k(   59) = (  -0.5000000   0.0000000   0.2857143), wk =   0.0156250
        k(   60) = (  -0.5000000   0.0000000   0.4285714), wk =   0.0156250
        k(   61) = (  -0.5000000   0.0000000   0.5714286), wk =   0.0156250
        k(   62) = (  -0.5000000   0.0000000   0.7142857), wk =   0.0156250
        k(   63) = (  -0.5000000   0.0000000   0.8571429), wk =   0.0156250
        k(   64) = (  -0.5000000   0.0000000   1.0000000), wk =   0.0156250
        k(   65) = (  -0.5000000   0.2500000  -0.0000000), wk =   0.0312500
        k(   66) = (  -0.5000000   0.2500000   0.1428571), wk =   0.0312500
        k(   67) = (  -0.5000000   0.2500000   0.2857143), wk =   0.0312500
        k(   68) = (  -0.5000000   0.2500000   0.4285714), wk =   0.0312500
        k(   69) = (  -0.5000000   0.2500000   0.5714286), wk =   0.0312500
        k(   70) = (  -0.5000000   0.2500000   0.7142857), wk =   0.0312500
        k(   71) = (  -0.5000000   0.2500000   0.8571429), wk =   0.0312500
        k(   72) = (  -0.5000000   0.2500000   1.0000000), wk =   0.0312500
        k(   73) = (  -0.5000000  -0.5000000  -0.0000000), wk =   0.0156250
        k(   74) = (  -0.5000000  -0.5000000   0.1428571), wk =   0.0156250
        k(   75) = (  -0.5000000  -0.5000000   0.2857143), wk =   0.0156250
        k(   76) = (  -0.5000000  -0.5000000   0.4285714), wk =   0.0156250
        k(   77) = (  -0.5000000  -0.5000000   0.5714286), wk =   0.0156250
        k(   78) = (  -0.5000000  -0.5000000   0.7142857), wk =   0.0156250
        k(   79) = (  -0.5000000  -0.5000000   0.8571429), wk =   0.0156250
        k(   80) = (  -0.5000000  -0.5000000   1.0000000), wk =   0.0156250

     Dense  grid:  1092999 G-vectors     FFT dimensions: ( 135, 135, 144)

     Smooth grid:   363553 G-vectors     FFT dimensions: (  96,  96, 100)

     Dynamical RAM for                 wfc:       2.10 MB

     Dynamical RAM for     wfc (w. buffer):     169.76 MB

     Dynamical RAM for           str. fact:       0.39 MB

     Dynamical RAM for           local pot:       0.00 MB

     Dynamical RAM for          nlocal pot:       6.11 MB

     Dynamical RAM for                qrad:      21.05 MB

     Dynamical RAM for          rho,v,vnew:       1.23 MB

     Dynamical RAM for           G-vectors:       0.51 MB

     Dynamical RAM for          h,s,v(r/c):       1.72 MB

     Dynamical RAM for          <psi|beta>:       6.70 MB

     Dynamical RAM for                 psi:       8.38 MB

     Dynamical RAM for                hpsi:       8.38 MB

     Dynamical RAM for                spsi:       8.38 MB

     Dynamical RAM for      wfcinit/wfcrot:      10.59 MB

     Dynamical RAM for           addusdens:      31.42 MB

     Estimated static dynamical RAM per process >     200.96 MB

     Estimated max dynamical RAM per process >     234.54 MB

     Estimated total dynamical RAM >      29.32 GB

     Check: negative core charge=   -0.000002

     The potential is recalculated from file :
     ./temp/ZnO.save/charge-density

     Starting wfcs are  484 randomized atomic wfcs

     Band Structure Calculation
     Davidson diagonalization with overlap

     Computing kpt #:     1
     total cpu time spent up to now is       18.9 secs

     Computing kpt #:     2
     total cpu time spent up to now is       31.5 secs

     Computing kpt #:     3
     total cpu time spent up to now is       44.0 secs

     Computing kpt #:     4
     total cpu time spent up to now is       56.4 secs

     Computing kpt #:     5
     total cpu time spent up to now is       69.0 secs

     Computing kpt #:     6
     total cpu time spent up to now is       81.5 secs

     Computing kpt #:     7
     total cpu time spent up to now is       94.1 secs

     Computing kpt #:     8
     total cpu time spent up to now is      106.6 secs

     Computing kpt #:     9
     total cpu time spent up to now is      119.2 secs

     Computing kpt #:    10
     total cpu time spent up to now is      131.7 secs

     Computing kpt #:    11
     total cpu time spent up to now is      144.2 secs

     Computing kpt #:    12
     total cpu time spent up to now is      156.8 secs

     Computing kpt #:    13
     total cpu time spent up to now is      169.2 secs

     Computing kpt #:    14
     total cpu time spent up to now is      181.7 secs

     Computing kpt #:    15
     total cpu time spent up to now is      194.4 secs

     Computing kpt #:    16
     total cpu time spent up to now is      207.0 secs

     Computing kpt #:    17
     total cpu time spent up to now is      219.5 secs

     Computing kpt #:    18
     total cpu time spent up to now is      232.0 secs

     Computing kpt #:    19
     total cpu time spent up to now is      244.6 secs

     Computing kpt #:    20
     total cpu time spent up to now is      257.1 secs

     Computing kpt #:    21
     total cpu time spent up to now is      269.7 secs

     Computing kpt #:    22
     total cpu time spent up to now is      282.3 secs

     Computing kpt #:    23
     total cpu time spent up to now is      294.8 secs

     Computing kpt #:    24
     total cpu time spent up to now is      307.3 secs

     Computing kpt #:    25
     total cpu time spent up to now is      320.0 secs

     Computing kpt #:    26
     total cpu time spent up to now is      332.5 secs

     Computing kpt #:    27
     total cpu time spent up to now is      345.0 secs

     Computing kpt #:    28
     total cpu time spent up to now is      357.5 secs

     Computing kpt #:    29
     total cpu time spent up to now is      370.2 secs

     Computing kpt #:    30
     total cpu time spent up to now is      382.7 secs

     Computing kpt #:    31
     total cpu time spent up to now is      395.5 secs

     Computing kpt #:    32
     total cpu time spent up to now is      408.0 secs

     Computing kpt #:    33
     total cpu time spent up to now is      420.5 secs

     Computing kpt #:    34
     total cpu time spent up to now is      433.2 secs

     Computing kpt #:    35
     total cpu time spent up to now is      445.7 secs

     Computing kpt #:    36
     total cpu time spent up to now is      458.3 secs

     Computing kpt #:    37
     total cpu time spent up to now is      470.9 secs

     Computing kpt #:    38
     total cpu time spent up to now is      483.5 secs

     Computing kpt #:    39
     total cpu time spent up to now is      496.0 secs

     Computing kpt #:    40
     total cpu time spent up to now is      508.6 secs

     Computing kpt #:    41
     total cpu time spent up to now is      521.2 secs

     Computing kpt #:    42
     total cpu time spent up to now is      533.7 secs

     Computing kpt #:    43
     total cpu time spent up to now is      546.2 secs

     Computing kpt #:    44
     total cpu time spent up to now is      558.8 secs

     Computing kpt #:    45
     total cpu time spent up to now is      571.3 secs

     Computing kpt #:    46
     total cpu time spent up to now is      583.9 secs

     Computing kpt #:    47
     total cpu time spent up to now is      596.4 secs

     Computing kpt #:    48
     total cpu time spent up to now is      609.0 secs

     Computing kpt #:    49
     total cpu time spent up to now is      621.6 secs

     Computing kpt #:    50
     total cpu time spent up to now is      634.4 secs

     Computing kpt #:    51
     total cpu time spent up to now is      646.9 secs

     Computing kpt #:    52
     total cpu time spent up to now is      659.5 secs

     Computing kpt #:    53
     total cpu time spent up to now is      672.1 secs

     Computing kpt #:    54
     total cpu time spent up to now is      684.7 secs

     Computing kpt #:    55
     total cpu time spent up to now is      697.3 secs

     Computing kpt #:    56
     total cpu time spent up to now is      710.0 secs

     Computing kpt #:    57
     total cpu time spent up to now is      722.6 secs

     Computing kpt #:    58
     total cpu time spent up to now is      735.2 secs

     Computing kpt #:    59
     total cpu time spent up to now is      747.8 secs

     Computing kpt #:    60
     total cpu time spent up to now is      760.4 secs

     Computing kpt #:    61
     total cpu time spent up to now is      772.9 secs

     Computing kpt #:    62
     total cpu time spent up to now is      785.5 secs

     Computing kpt #:    63
     total cpu time spent up to now is      798.1 secs

     Computing kpt #:    64
     total cpu time spent up to now is      810.7 secs

     Computing kpt #:    65
     total cpu time spent up to now is      823.2 secs

     Computing kpt #:    66
     total cpu time spent up to now is      835.7 secs

     Computing kpt #:    67
     total cpu time spent up to now is      848.3 secs

     Computing kpt #:    68
     total cpu time spent up to now is      860.9 secs

     Computing kpt #:    69
     total cpu time spent up to now is      873.6 secs

     Computing kpt #:    70
     total cpu time spent up to now is      886.1 secs

     Computing kpt #:    71
     total cpu time spent up to now is      898.6 secs

     Computing kpt #:    72
     total cpu time spent up to now is      911.3 secs

     Computing kpt #:    73
     total cpu time spent up to now is      923.8 secs

     Computing kpt #:    74
     total cpu time spent up to now is      936.5 secs

     Computing kpt #:    75
     total cpu time spent up to now is      949.0 secs

     Computing kpt #:    76
     total cpu time spent up to now is      961.6 secs

     Computing kpt #:    77
     total cpu time spent up to now is      974.2 secs

     Computing kpt #:    78
     total cpu time spent up to now is      986.8 secs

     Computing kpt #:    79
     total cpu time spent up to now is      999.3 secs

     Computing kpt #:    80
     total cpu time spent up to now is     1011.8 secs

     ethr =  1.29E-12,  avg # of iterations = 12.1

     total cpu time spent up to now is     1011.9 secs

     End of band structure calculation

          k = 0.0000 0.0000 0.0000 ( 45465 PWs)   bands (ev):

  -115.8093-115.8053-115.8023-115.8014-115.7999-115.7999-115.7994-115.7987
  -115.7977-115.7971-115.7963-115.7955-115.7932-115.7886-115.7880-115.7863
  -115.7840-115.7787-115.7767-115.7642 -70.1701 -70.1657 -70.1647 -70.1620
   -70.1614 -70.1608 -70.1607 -70.1595 -70.1593 -70.1592 -70.1589 -70.1583
   -70.1579 -70.1576 -70.1569 -70.1567 -70.1565 -70.1564 -70.1564 -70.1562
   -70.1561 -70.1560 -70.1557 -70.1541 -70.1534 -70.1532 -70.1532 -70.1530
   -70.1528 -70.1520 -70.1507 -70.1503 -70.1494 -70.1494 -70.1488 -70.1488
   -70.1485 -70.1473 -70.1471 -70.1458 -70.1456 -70.1443 -70.1441 -70.1439
   -70.1431 -70.1422 -70.1406 -70.1400 -70.1398 -70.1395 -70.1382 -70.1373
   -70.1372 -70.1363 -70.1330 -70.1281 -70.1269 -70.1252 -70.1210 -70.1147
   -65.2812 -65.2708 -65.2572 -65.2544 -65.2411 -65.2340 -65.2311 -65.2278
   -65.2243 -65.2190 -65.2163 -65.2101 -65.2068 -65.2066 -65.1965 -65.1881
   -32.2711 -32.2651 -32.2644 -32.2623 -32.2575 -32.2549 -32.2465 -32.2451
   -32.2438 -32.2418 -32.2406 -32.2368 -32.2328 -32.2287 -32.2282 -32.2255
   -32.2235 -32.2225 -32.2221 -32.2205 -32.2170 -32.2160 -32.2146 -32.2114
   -32.2100 -32.2094 -32.2082 -32.2074 -32.2071 -32.2048 -32.2022 -32.2017
   -32.2001 -32.1994 -32.1973 -32.1955 -32.1948 -32.1942 -32.1914 -32.1914
   -32.1873 -32.1867 -32.1863 -32.1813 -32.1768 -32.1755 -32.1707 -32.1677
   -10.3673 -10.0598 -10.0165  -9.9461  -9.9249  -9.8928  -9.8594  -9.8553
    -9.7987  -9.7703  -9.7269  -9.7035  -9.6868  -9.6689  -9.6552  -9.6144
    -9.6115  -9.5798  -9.5650  -9.5524  -9.5415  -9.5108  -9.4929  -9.4780
    -9.4637  -9.4354  -9.4193  -9.3865  -9.3614  -9.3141  -9.2892  -9.2775
    -9.2495  -9.2167  -9.2041  -9.0668   1.4169   1.4524   1.4769   1.4827
     1.5064   1.5240   1.5492   1.5597   1.5832   1.6024   1.6282   1.6378
     1.7003   1.7136   1.7336   1.7437   1.7533   1.7718   1.7816   1.7992
     1.8163   1.8369   1.8518   1.8789   1.8886   1.9070   1.9180   1.9325
     1.9369   1.9520   1.9570   1.9707   1.9787   2.0092   2.0122   2.0218
     2.0298   2.0464   2.0595   2.0684   2.0715   2.0926   2.1102   2.1122
     2.1279   2.1366   2.1580   2.1824   2.2016   2.2262   2.2550   2.2806
     2.2994   2.3153   2.3385   2.3476   2.3634   2.3760   2.3844   2.4133
     2.4262   2.4444   2.4666   2.4783   2.4903   2.4981   2.5092   2.5260
     2.5418   2.5672   2.5721   2.5869   2.5963   2.6197   2.6340   2.6420
     2.6736   2.6954   2.7093   2.7182   2.7268   2.7417   2.7643   2.7767
     2.7904   2.7994   2.8125   2.8227   2.8415   2.8534   2.8671   2.8874
     2.8952   2.9021   2.9156   2.9276   2.9392   2.9457   2.9783   2.9871
     2.9963   3.1082   3.2123   3.2447   3.2988   3.3170   3.3348   3.3995
     3.4173   3.4328   3.4669   3.4903   3.5394   3.5596   3.6033   3.6228
     3.6685   3.6962   3.7348   3.7774   3.8114   3.8559   3.9434   3.9761
     4.0034   4.0136   4.0452   4.0836   4.1023   4.1599   4.1791   4.2244
     4.2519   4.2705   4.3001   4.3965   4.4387   4.4504   4.4696   4.5415
     4.6199   4.6668   4.7393   4.7709   4.8085   4.9366   4.9846   5.1087
     5.1404   5.1568   5.1626   5.1919   5.2479   5.2571   5.2867   5.3252
     5.3402   5.3585   5.3730   5.4027   5.4162   5.4938   5.5417   5.5692
     5.5986   5.6157   5.6382   5.6545   5.6755   5.6919   5.7139   5.7522
     5.7710   5.7942   5.8152   5.8365   5.8542   5.8897   5.9249   5.9335
     5.9447   5.9810   6.0018   6.0149   6.0504   6.0708   6.0828   6.1112
     6.1630   6.1948   6.2302   6.2607   6.2835   6.2998   6.3273   6.3381
     6.3561   6.3644   6.3924   6.4542   6.5077   6.5889   6.6051   6.6243
     6.6766   6.8786   6.9129   6.9321

     occupation numbers 
     1.0000   1.0000   1.0000   1.0000   1.0000   1.0000   1.0000   1.0000
     1.0000   1.0000   1.0000   1.0000   1.0000   1.0000   1.0000   1.0000
     1.0000   1.0000   1.0000   1.0000   1.0000   1.0000   1.0000   1.0000
     1.0000   1.0000   1.0000   1.0000   1.0000   1.0000   1.0000   1.0000
     1.0000   1.0000   1.0000   1.0000   1.0000   1.0000   1.0000   1.0000
     1.0000   1.0000   1.0000   1.0000   1.0000   1.0000   1.0000   1.0000
     1.0000   1.0000   1.0000   1.0000   1.0000   1.0000   1.0000   1.0000
     1.0000   1.0000   1.0000   1.0000   1.0000   1.0000   1.0000   1.0000
     1.0000   1.0000   1.0000   1.0000   1.0000   1.0000   1.0000   1.0000
     1.0000   1.0000   1.0000   1.0000   1.0000   1.0000   1.0000   1.0000
     1.0000   1.0000   1.0000   1.0000   1.0000   1.0000   1.0000   1.0000
     1.0000   1.0000   1.0000   1.0000   1.0000   1.0000   1.0000   1.0000
     1.0000   1.0000   1.0000   1.0000   1.0000   1.0000   1.0000   1.0000
     1.0000   1.0000   1.0000   1.0000   1.0000   1.0000   1.0000   1.0000
     1.0000   1.0000   1.0000   1.0000   1.0000   1.0000   1.0000   1.0000
     1.0000   1.0000   1.0000   1.0000   1.0000   1.0000   1.0000   1.0000
     1.0000   1.0000   1.0000   1.0000   1.0000   1.0000   1.0000   1.0000
     1.0000   1.0000   1.0000   1.0000   1.0000   1.0000   1.0000   1.0000
     1.0000   1.0000   1.0000   1.0000   1.0000   1.0000   1.0000   1.0000
     1.0000   1.0000   1.0000   1.0000   1.0000   1.0000   1.0000   1.0000
     1.0000   1.0000   1.0000   1.0000   1.0000   1.0000   1.0000   1.0000
     1.0000   1.0000   1.0000   1.0000   1.0000   1.0000   1.0000   1.0000
     1.0000   1.0000   1.0000   1.0000   1.0000   1.0000   1.0000   1.0000
     1.0000   1.0000   1.0000   1.0000   1.0000   1.0000   1.0000   1.0000
     1.0000   1.0000   1.0000   1.0000   1.0000   1.0000   1.0000   1.0000
     1.0000   1.0000   1.0000   1.0000   1.0000   1.0000   1.0000   1.0000
     1.0000   1.0000   1.0000   1.0000   1.0000   1.0000   1.0000   1.0000
     1.0000   1.0000   1.0000   1.0000   1.0000   1.0000   1.0000   1.0000
     1.0000   1.0000   1.0000   1.0000   1.0000   1.0000   1.0000   1.0000
     1.0000   1.0000   1.0000   1.0000   1.0000   1.0000   1.0000   1.0000
     1.0000   1.0000   1.0000   1.0000   1.0000   1.0000   1.0000   1.0000
     1.0000   1.0000   1.0000   1.0000   1.0000   1.0000   1.0000   1.0000
     1.0000   1.0000   1.0000   1.0000   1.0000   1.0000   1.0000   1.0000
     1.0000   1.0000   1.0000   1.0000   1.0000   1.0000   1.0000   1.0000
     1.0000   1.0000   1.0000   1.0000   1.0000   1.0000   1.0000   1.0000
     1.0000   1.0000   1.0000   1.0000   1.0000   1.0000   1.0000   1.0000
     1.0000   1.0000   1.0000   1.0000   1.0000   1.0000   1.0000   1.0000
     1.0000   1.0000   1.0000   1.0000   1.0000   1.0000   1.0000   1.0000
     1.0000   1.0000   1.0000   1.0000   1.0000   1.0000   1.0000   1.0000
     1.0000   1.0000   1.0000   1.0000   1.0000   1.0000   1.0000   1.0000
     1.0000   1.0000   1.0000   1.0000   1.0000   1.0000   1.0000   1.0000
     1.0000   1.0000   1.0000   1.0000   1.0000   1.0000   1.0000   1.0000
     1.0000   1.0000   1.0000   1.0000   1.0000   1.0000   1.0000   1.0000
     1.0000   1.0000   1.0000   1.0000   1.0000   1.0000   1.0000   1.0000
     1.0000   1.0000   1.0000   1.0000   1.0000   1.0000   1.0000   1.0000
     1.0000   1.0000   1.0000   1.0000   1.0000   1.0000   1.0000   1.0000
     1.0000   1.0000   1.0000   1.0000   1.0000   1.0000   1.0000   1.0000
     1.0000   1.0000   1.0000   1.0000   1.0000   1.0000   1.0000   1.0000
     1.0000   1.0000   1.0000   1.0000

          k =-0.0001-0.0000 0.1342 ( 45420 PWs)   bands (ev):

  -115.8093-115.8053-115.8023-115.8014-115.7999-115.7999-115.7994-115.7987
  -115.7977-115.7971-115.7963-115.7955-115.7932-115.7886-115.7880-115.7863
  -115.7840-115.7787-115.7767-115.7642 -70.1701 -70.1657 -70.1647 -70.1620
   -70.1614 -70.1608 -70.1607 -70.1595 -70.1593 -70.1592 -70.1589 -70.1583
   -70.1579 -70.1576 -70.1569 -70.1567 -70.1565 -70.1564 -70.1564 -70.1562
   -70.1561 -70.1560 -70.1557 -70.1541 -70.1534 -70.1532 -70.1532 -70.1530
   -70.1528 -70.1520 -70.1507 -70.1503 -70.1494 -70.1494 -70.1488 -70.1488
   -70.1485 -70.1473 -70.1471 -70.1458 -70.1456 -70.1443 -70.1441 -70.1439
   -70.1431 -70.1422 -70.1406 -70.1400 -70.1398 -70.1395 -70.1382 -70.1373
   -70.1372 -70.1363 -70.1330 -70.1281 -70.1269 -70.1252 -70.1210 -70.1147
   -65.2812 -65.2708 -65.2572 -65.2544 -65.2411 -65.2340 -65.2311 -65.2278
   -65.2243 -65.2190 -65.2163 -65.2101 -65.2068 -65.2066 -65.1965 -65.1881
   -32.2711 -32.2651 -32.2644 -32.2623 -32.2575 -32.2549 -32.2465 -32.2451
   -32.2438 -32.2418 -32.2406 -32.2368 -32.2328 -32.2287 -32.2282 -32.2255
   -32.2235 -32.2225 -32.2221 -32.2205 -32.2170 -32.2160 -32.2146 -32.2114
   -32.2100 -32.2094 -32.2082 -32.2074 -32.2071 -32.2048 -32.2022 -32.2017
   -32.2001 -32.1994 -32.1973 -32.1955 -32.1948 -32.1942 -32.1914 -32.1914
   -32.1873 -32.1867 -32.1863 -32.1813 -32.1768 -32.1755 -32.1707 -32.1677
   -10.3602 -10.0985  -9.9917  -9.9445  -9.9202  -9.8893  -9.8623  -9.8393
    -9.7990  -9.7763  -9.7369  -9.7148  -9.6970  -9.6665  -9.6461  -9.6133
    -9.6069  -9.5838  -9.5704  -9.5492  -9.5406  -9.5035  -9.4913  -9.4749
    -9.4587  -9.4357  -9.4195  -9.3867  -9.3618  -9.3155  -9.2894  -9.2781
    -9.2506  -9.2179  -9.2054  -9.0672   1.4188   1.4594   1.4786   1.4876
     1.5080   1.5290   1.5532   1.5644   1.5874   1.6066   1.6289   1.6443
     1.7026   1.7140   1.7352   1.7443   1.7583   1.7724   1.7840   1.7997
     1.8174   1.8400   1.8509   1.8782   1.8887   1.9025   1.9171   1.9274
     1.9398   1.9522   1.9597   1.9709   1.9774   2.0019   2.0136   2.0204
     2.0332   2.0473   2.0528   2.0646   2.0797   2.0931   2.1057   2.1128
     2.1267   2.1369   2.1536   2.1782   2.2011   2.2273   2.2508   2.2757
     2.2982   2.3099   2.3318   2.3467   2.3539   2.3687   2.3796   2.4027
     2.4230   2.4320   2.4564   2.4685   2.4880   2.4913   2.5061   2.5134
     2.5371   2.5570   2.5669   2.5820   2.5964   2.6105   2.6309   2.6418
     2.6707   2.6859   2.7028   2.7163   2.7272   2.7497   2.7569   2.7746
     2.7962   2.7988   2.8178   2.8243   2.8428   2.8491   2.8659   2.8869
     2.8980   2.9022   2.9172   2.9302   2.9337   2.9466   2.9739   2.9948
     3.0127   3.1163   3.2021   3.2657   3.3055   3.3280   3.3466   3.4026
     3.4214   3.4405   3.4650   3.5011   3.5479   3.5630   3.6137   3.6311
     3.6724   3.7106   3.7377   3.7805   3.8337   3.8634   3.9574   3.9825
     3.9949   4.0260   4.0502   4.0916   4.1126   4.1580   4.1829   4.2150
     4.2509   4.2647   4.3011   4.3310   4.3648   4.4207   4.5400   4.5804
     4.6609   4.7023   4.7558   4.7776   4.8589   4.9242   5.0002   5.1087
     5.1521   5.1662   5.1765   5.2069   5.2513   5.2665   5.2867   5.2987
     5.3134   5.3240   5.3665   5.3714   5.3813   5.4499   5.4744   5.4968
     5.5434   5.5754   5.6201   5.6460   5.6812   5.6917   5.7090   5.7358
     5.7673   5.7981   5.8109   5.8505   5.8612   5.9044   5.9294   5.9513
     5.9849   5.9955   6.0015   6.0389   6.0631   6.0914   6.1053   6.1350
     6.1683   6.2000   6.2421   6.2719   6.2907   6.3074   6.3360   6.3434
     6.3655   6.3769   6.3967   6.4507   6.4988   6.5578   6.5971   6.6485
     6.6930   6.8031   6.9095   6.9288

     occupation numbers 
     1.0000   1.0000   1.0000   1.0000   1.0000   1.0000   1.0000   1.0000
     1.0000   1.0000   1.0000   1.0000   1.0000   1.0000   1.0000   1.0000
     1.0000   1.0000   1.0000   1.0000   1.0000   1.0000   1.0000   1.0000
     1.0000   1.0000   1.0000   1.0000   1.0000   1.0000   1.0000   1.0000
     1.0000   1.0000   1.0000   1.0000   1.0000   1.0000   1.0000   1.0000
     1.0000   1.0000   1.0000   1.0000   1.0000   1.0000   1.0000   1.0000
     1.0000   1.0000   1.0000   1.0000   1.0000   1.0000   1.0000   1.0000
     1.0000   1.0000   1.0000   1.0000   1.0000   1.0000   1.0000   1.0000
     1.0000   1.0000   1.0000   1.0000   1.0000   1.0000   1.0000   1.0000
     1.0000   1.0000   1.0000   1.0000   1.0000   1.0000   1.0000   1.0000
     1.0000   1.0000   1.0000   1.0000   1.0000   1.0000   1.0000   1.0000
     1.0000   1.0000   1.0000   1.0000   1.0000   1.0000   1.0000   1.0000
     1.0000   1.0000   1.0000   1.0000   1.0000   1.0000   1.0000   1.0000
     1.0000   1.0000   1.0000   1.0000   1.0000   1.0000   1.0000   1.0000
     1.0000   1.0000   1.0000   1.0000   1.0000   1.0000   1.0000   1.0000
     1.0000   1.0000   1.0000   1.0000   1.0000   1.0000   1.0000   1.0000
     1.0000   1.0000   1.0000   1.0000   1.0000   1.0000   1.0000   1.0000
     1.0000   1.0000   1.0000   1.0000   1.0000   1.0000   1.0000   1.0000
     1.0000   1.0000   1.0000   1.0000   1.0000   1.0000   1.0000   1.0000
     1.0000   1.0000   1.0000   1.0000   1.0000   1.0000   1.0000   1.0000
     1.0000   1.0000   1.0000   1.0000   1.0000   1.0000   1.0000   1.0000
     1.0000   1.0000   1.0000   1.0000   1.0000   1.0000   1.0000   1.0000
     1.0000   1.0000   1.0000   1.0000   1.0000   1.0000   1.0000   1.0000
     1.0000   1.0000   1.0000   1.0000   1.0000   1.0000   1.0000   1.0000
     1.0000   1.0000   1.0000   1.0000   1.0000   1.0000   1.0000   1.0000
     1.0000   1.0000   1.0000   1.0000   1.0000   1.0000   1.0000   1.0000
     1.0000   1.0000   1.0000   1.0000   1.0000   1.0000   1.0000   1.0000
     1.0000   1.0000   1.0000   1.0000   1.0000   1.0000   1.0000   1.0000
     1.0000   1.0000   1.0000   1.0000   1.0000   1.0000   1.0000   1.0000
     1.0000   1.0000   1.0000   1.0000   1.0000   1.0000   1.0000   1.0000
     1.0000   1.0000   1.0000   1.0000   1.0000   1.0000   1.0000   1.0000
     1.0000   1.0000   1.0000   1.0000   1.0000   1.0000   1.0000   1.0000
     1.0000   1.0000   1.0000   1.0000   1.0000   1.0000   1.0000   1.0000
     1.0000   1.0000   1.0000   1.0000   1.0000   1.0000   1.0000   1.0000
     1.0000   1.0000   1.0000   1.0000   1.0000   1.0000   1.0000   1.0000
     1.0000   1.0000   1.0000   1.0000   1.0000   1.0000   1.0000   1.0000
     1.0000   1.0000   1.0000   1.0000   1.0000   1.0000   1.0000   1.0000
     1.0000   1.0000   1.0000   1.0000   1.0000   1.0000   1.0000   1.0000
     1.0000   1.0000   1.0000   1.0000   1.0000   1.0000   1.0000   1.0000
     1.0000   1.0000   1.0000   1.0000   1.0000   1.0000   1.0000   1.0000
     1.0000   1.0000   1.0000   1.0000   1.0000   1.0000   1.0000   1.0000
     1.0000   1.0000   1.0000   1.0000   1.0000   1.0000   1.0000   1.0000
     1.0000   1.0000   1.0000   1.0000   1.0000   1.0000   1.0000   1.0000
     1.0000   1.0000   1.0000   1.0000   1.0000   1.0000   1.0000   1.0000
     1.0000   1.0000   1.0000   1.0000   1.0000   1.0000   1.0000   1.0000
     1.0000   1.0000   1.0000   1.0000   1.0000   1.0000   1.0000   1.0000
     1.0000   1.0000   1.0000   1.0000   1.0000   1.0000   1.0000   1.0000
     1.0000   1.0000   1.0000   1.0000   1.0000   1.0000   1.0000   1.0000
     1.0000   1.0000   1.0000   1.0000

          k =-0.0002-0.0000 0.2684 ( 45427 PWs)   bands (ev):

  -115.8093-115.8053-115.8023-115.8014-115.7999-115.7999-115.7994-115.7987
  -115.7977-115.7971-115.7963-115.7955-115.7932-115.7886-115.7880-115.7863
  -115.7840-115.7787-115.7767-115.7642 -70.1701 -70.1657 -70.1647 -70.1620
   -70.1614 -70.1608 -70.1607 -70.1595 -70.1593 -70.1592 -70.1589 -70.1583
   -70.1579 -70.1576 -70.1569 -70.1567 -70.1565 -70.1564 -70.1564 -70.1562
   -70.1561 -70.1560 -70.1557 -70.1541 -70.1534 -70.1532 -70.1532 -70.1530
   -70.1528 -70.1520 -70.1507 -70.1503 -70.1494 -70.1494 -70.1488 -70.1488
   -70.1485 -70.1473 -70.1471 -70.1458 -70.1456 -70.1443 -70.1441 -70.1439
   -70.1431 -70.1422 -70.1406 -70.1400 -70.1398 -70.1395 -70.1382 -70.1373
   -70.1372 -70.1363 -70.1330 -70.1281 -70.1269 -70.1252 -70.1210 -70.1147
   -65.2812 -65.2708 -65.2572 -65.2544 -65.2411 -65.2340 -65.2311 -65.2278
   -65.2243 -65.2190 -65.2163 -65.2101 -65.2068 -65.2066 -65.1965 -65.1881
   -32.2711 -32.2651 -32.2644 -32.2623 -32.2575 -32.2549 -32.2465 -32.2450
   -32.2438 -32.2418 -32.2406 -32.2368 -32.2328 -32.2287 -32.2282 -32.2255
   -32.2235 -32.2225 -32.2220 -32.2205 -32.2170 -32.2160 -32.2146 -32.2114
   -32.2100 -32.2094 -32.2082 -32.2074 -32.2071 -32.2048 -32.2022 -32.2017
   -32.2001 -32.1994 -32.1973 -32.1955 -32.1948 -32.1941 -32.1914 -32.1914
   -32.1873 -32.1867 -32.1863 -32.1813 -32.1768 -32.1755 -32.1707 -32.1677
   -10.3405 -10.1547  -9.9681  -9.9382  -9.9104  -9.8808  -9.8603  -9.8280
    -9.7967  -9.7797  -9.7527  -9.7374  -9.7095  -9.6632  -9.6461  -9.6103
    -9.6020  -9.5869  -9.5782  -9.5441  -9.5367  -9.4926  -9.4830  -9.4662
    -9.4513  -9.4388  -9.4180  -9.3868  -9.3631  -9.3188  -9.2899  -9.2796
    -9.2532  -9.2206  -9.2083  -9.0683   1.4232   1.4723   1.4835   1.4982
     1.5139   1.5416   1.5628   1.5759   1.5948   1.6136   1.6374   1.6586
     1.7056   1.7207   1.7391   1.7517   1.7635   1.7763   1.7864   1.8029
     1.8196   1.8448   1.8500   1.8740   1.8879   1.8947   1.9094   1.9202
     1.9426   1.9502   1.9631   1.9653   1.9763   1.9973   2.0081   2.0162
     2.0353   2.0459   2.0528   2.0720   2.0826   2.0974   2.1036   2.1085
     2.1256   2.1379   2.1471   2.1745   2.1914   2.2222   2.2410   2.2621
     2.2823   2.2956   2.3186   2.3273   2.3433   2.3538   2.3662   2.3824
     2.4003   2.4173   2.4326   2.4597   2.4673   2.4763   2.4981   2.5103
     2.5241   2.5321   2.5504   2.5739   2.5929   2.6013   2.6196   2.6421
     2.6608   2.6803   2.6980   2.7134   2.7319   2.7479   2.7537   2.7753
     2.7953   2.8007   2.8182   2.8205   2.8472   2.8563   2.8754   2.8850
     2.9006   2.9044   2.9160   2.9270   2.9367   2.9579   2.9761   2.9908
     3.0550   3.1230   3.2152   3.2947   3.3100   3.3434   3.3695   3.3904
     3.4335   3.4571   3.4951   3.5257   3.5536   3.5852   3.6218   3.6469
     3.6832   3.6911   3.7456   3.7938   3.8585   3.8844   3.9379   3.9689
     4.0133   4.0439   4.0707   4.0985   4.1326   4.1651   4.1761   4.2119
     4.2338   4.2809   4.3075   4.3452   4.3737   4.4128   4.5719   4.6437
     4.7079   4.7625   4.7769   4.8263   4.8731   4.9214   5.0166   5.0539
     5.0977   5.1285   5.1724   5.1854   5.2086   5.2346   5.2655   5.2724
     5.3005   5.3145   5.3392   5.3609   5.3868   5.3955   5.4298   5.4657
     5.4918   5.5315   5.5784   5.5938   5.6330   5.6575   5.6817   5.6978
     5.7456   5.7701   5.8022   5.8555   5.9176   5.9422   5.9562   5.9657
     5.9784   6.0207   6.0471   6.0694   6.0805   6.1168   6.1555   6.1729
     6.1917   6.2262   6.2609   6.2824   6.3097   6.3226   6.3471   6.3687
     6.3792   6.4048   6.4221   6.4530   6.4754   6.5215   6.5725   6.6267
     6.6936   6.7212   6.9010   6.9206

     occupation numbers 
     1.0000   1.0000   1.0000   1.0000   1.0000   1.0000   1.0000   1.0000
     1.0000   1.0000   1.0000   1.0000   1.0000   1.0000   1.0000   1.0000
     1.0000   1.0000   1.0000   1.0000   1.0000   1.0000   1.0000   1.0000
     1.0000   1.0000   1.0000   1.0000   1.0000   1.0000   1.0000   1.0000
     1.0000   1.0000   1.0000   1.0000   1.0000   1.0000   1.0000   1.0000
     1.0000   1.0000   1.0000   1.0000   1.0000   1.0000   1.0000   1.0000
     1.0000   1.0000   1.0000   1.0000   1.0000   1.0000   1.0000   1.0000
     1.0000   1.0000   1.0000   1.0000   1.0000   1.0000   1.0000   1.0000
     1.0000   1.0000   1.0000   1.0000   1.0000   1.0000   1.0000   1.0000
     1.0000   1.0000   1.0000   1.0000   1.0000   1.0000   1.0000   1.0000
     1.0000   1.0000   1.0000   1.0000   1.0000   1.0000   1.0000   1.0000
     1.0000   1.0000   1.0000   1.0000   1.0000   1.0000   1.0000   1.0000
     1.0000   1.0000   1.0000   1.0000   1.0000   1.0000   1.0000   1.0000
     1.0000   1.0000   1.0000   1.0000   1.0000   1.0000   1.0000   1.0000
     1.0000   1.0000   1.0000   1.0000   1.0000   1.0000   1.0000   1.0000
     1.0000   1.0000   1.0000   1.0000   1.0000   1.0000   1.0000   1.0000
     1.0000   1.0000   1.0000   1.0000   1.0000   1.0000   1.0000   1.0000
     1.0000   1.0000   1.0000   1.0000   1.0000   1.0000   1.0000   1.0000
     1.0000   1.0000   1.0000   1.0000   1.0000   1.0000   1.0000   1.0000
     1.0000   1.0000   1.0000   1.0000   1.0000   1.0000   1.0000   1.0000
     1.0000   1.0000   1.0000   1.0000   1.0000   1.0000   1.0000   1.0000
     1.0000   1.0000   1.0000   1.0000   1.0000   1.0000   1.0000   1.0000
     1.0000   1.0000   1.0000   1.0000   1.0000   1.0000   1.0000   1.0000
     1.0000   1.0000   1.0000   1.0000   1.0000   1.0000   1.0000   1.0000
     1.0000   1.0000   1.0000   1.0000   1.0000   1.0000   1.0000   1.0000
     1.0000   1.0000   1.0000   1.0000   1.0000   1.0000   1.0000   1.0000
     1.0000   1.0000   1.0000   1.0000   1.0000   1.0000   1.0000   1.0000
     1.0000   1.0000   1.0000   1.0000   1.0000   1.0000   1.0000   1.0000
     1.0000   1.0000   1.0000   1.0000   1.0000   1.0000   1.0000   1.0000
     1.0000   1.0000   1.0000   1.0000   1.0000   1.0000   1.0000   1.0000
     1.0000   1.0000   1.0000   1.0000   1.0000   1.0000   1.0000   1.0000
     1.0000   1.0000   1.0000   1.0000   1.0000   1.0000   1.0000   1.0000
     1.0000   1.0000   1.0000   1.0000   1.0000   1.0000   1.0000   1.0000
     1.0000   1.0000   1.0000   1.0000   1.0000   1.0000   1.0000   1.0000
     1.0000   1.0000   1.0000   1.0000   1.0000   1.0000   1.0000   1.0000
     1.0000   1.0000   1.0000   1.0000   1.0000   1.0000   1.0000   1.0000
     1.0000   1.0000   1.0000   1.0000   1.0000   1.0000   1.0000   1.0000
     1.0000   1.0000   1.0000   1.0000   1.0000   1.0000   1.0000   1.0000
     1.0000   1.0000   1.0000   1.0000   1.0000   1.0000   1.0000   1.0000
     1.0000   1.0000   1.0000   1.0000   1.0000   1.0000   1.0000   1.0000
     1.0000   1.0000   1.0000   1.0000   1.0000   1.0000   1.0000   1.0000
     1.0000   1.0000   1.0000   1.0000   1.0000   1.0000   1.0000   1.0000
     1.0000   1.0000   1.0000   1.0000   1.0000   1.0000   1.0000   1.0000
     1.0000   1.0000   1.0000   1.0000   1.0000   1.0000   1.0000   1.0000
     1.0000   1.0000   1.0000   1.0000   1.0000   1.0000   1.0000   1.0000
     1.0000   1.0000   1.0000   1.0000   1.0000   1.0000   1.0000   1.0000
     1.0000   1.0000   1.0000   1.0000   1.0000   1.0000   1.0000   1.0000
     1.0000   1.0000   1.0000   1.0000   1.0000   1.0000   1.0000   1.0000
     1.0000   1.0000   1.0000   1.0000

          k =-0.0003-0.0000 0.4026 ( 45473 PWs)   bands (ev):

  -115.8093-115.8053-115.8023-115.8014-115.7999-115.7999-115.7994-115.7987
  -115.7977-115.7971-115.7963-115.7955-115.7932-115.7886-115.7880-115.7863
  -115.7840-115.7787-115.7767-115.7642 -70.1701 -70.1657 -70.1647 -70.1620
   -70.1614 -70.1608 -70.1607 -70.1595 -70.1593 -70.1592 -70.1589 -70.1583
   -70.1579 -70.1576 -70.1569 -70.1567 -70.1565 -70.1564 -70.1564 -70.1562
   -70.1561 -70.1560 -70.1557 -70.1541 -70.1534 -70.1532 -70.1532 -70.1530
   -70.1528 -70.1520 -70.1507 -70.1503 -70.1494 -70.1494 -70.1488 -70.1488
   -70.1485 -70.1473 -70.1471 -70.1458 -70.1456 -70.1443 -70.1441 -70.1439
   -70.1431 -70.1422 -70.1406 -70.1400 -70.1398 -70.1395 -70.1382 -70.1373
   -70.1372 -70.1363 -70.1330 -70.1281 -70.1269 -70.1252 -70.1210 -70.1147
   -65.2812 -65.2708 -65.2572 -65.2544 -65.2411 -65.2340 -65.2311 -65.2278
   -65.2243 -65.2190 -65.2163 -65.2101 -65.2068 -65.2066 -65.1965 -65.1881
   -32.2711 -32.2651 -32.2644 -32.2623 -32.2575 -32.2549 -32.2465 -32.2450
   -32.2438 -32.2418 -32.2406 -32.2368 -32.2328 -32.2287 -32.2283 -32.2255
   -32.2235 -32.2225 -32.2220 -32.2205 -32.2170 -32.2160 -32.2146 -32.2114
   -32.2100 -32.2094 -32.2082 -32.2074 -32.2071 -32.2048 -32.2022 -32.2017
   -32.2001 -32.1994 -32.1973 -32.1955 -32.1948 -32.1941 -32.1914 -32.1914
   -32.1873 -32.1867 -32.1863 -32.1813 -32.1768 -32.1755 -32.1707 -32.1677
   -10.3174 -10.1983  -9.9565  -9.9289  -9.9025  -9.8742  -9.8585  -9.8368
    -9.7915  -9.7809  -9.7662  -9.7458  -9.7009  -9.6703  -9.6569  -9.6087
    -9.6040  -9.5863  -9.5793  -9.5422  -9.5308  -9.4866  -9.4686  -9.4591
    -9.4545  -9.4399  -9.4163  -9.3851  -9.3655  -9.3212  -9.2901  -9.2809
    -9.2553  -9.2230  -9.2108  -9.0691   1.4264   1.4797   1.4879   1.5056
     1.5207   1.5571   1.5695   1.5864   1.5977   1.6149   1.6532   1.6716
     1.7088   1.7327   1.7433   1.7607   1.7641   1.7709   1.7942   1.8112
     1.8221   1.8364   1.8507   1.8681   1.8855   1.8903   1.9031   1.9156
     1.9322   1.9500   1.9603   1.9659   1.9722   1.9945   2.0095   2.0148
     2.0382   2.0444   2.0600   2.0740   2.0854   2.0981   2.1013   2.1128
     2.1294   2.1411   2.1527   2.1675   2.1812   2.2020   2.2257   2.2450
     2.2547   2.2885   2.3013   2.3178   2.3271   2.3433   2.3580   2.3665
     2.3802   2.4049   2.4288   2.4456   2.4598   2.4706   2.4834   2.5044
     2.5185   2.5281   2.5378   2.5724   2.5886   2.5950   2.6107   2.6324
     2.6606   2.6787   2.6947   2.7120   2.7330   2.7427   2.7556   2.7789
     2.7963   2.8018   2.8147   2.8215   2.8523   2.8631   2.8779   2.8828
     2.9001   2.9093   2.9163   2.9240   2.9415   2.9621   2.9792   2.9885
     3.0903   3.1385   3.2308   3.3005   3.3261   3.3516   3.3669   3.3930
     3.4484   3.4812   3.5179   3.5465   3.5737   3.5971   3.6210   3.6501
     3.6673   3.7075   3.7383   3.7712   3.8326   3.8713   3.9021   3.9605
     4.0283   4.0411   4.0647   4.0944   4.1322   4.1845   4.2210   4.2516
     4.2655   4.3295   4.3494   4.3937   4.4287   4.4808   4.5816   4.7026
     4.7342   4.7626   4.8037   4.8565   4.8804   4.9149   4.9213   4.9513
     4.9847   5.0439   5.0634   5.1264   5.1625   5.1982   5.2442   5.2913
     5.3203   5.3461   5.3619   5.3860   5.4121   5.4435   5.4755   5.4986
     5.5141   5.5286   5.5456   5.5829   5.5919   5.6152   5.6439   5.6574
     5.6764   5.7059   5.7832   5.8748   5.9149   5.9401   5.9751   5.9962
     6.0038   6.0369   6.0601   6.0800   6.1026   6.1428   6.1712   6.1942
     6.2218   6.2445   6.2607   6.2963   6.3278   6.3426   6.3495   6.3856
     6.3970   6.4176   6.4397   6.4469   6.4699   6.4799   6.5185   6.5568
     6.7135   6.7408   6.8930   6.9129

     occupation numbers 
     1.0000   1.0000   1.0000   1.0000   1.0000   1.0000   1.0000   1.0000
     1.0000   1.0000   1.0000   1.0000   1.0000   1.0000   1.0000   1.0000
     1.0000   1.0000   1.0000   1.0000   1.0000   1.0000   1.0000   1.0000
     1.0000   1.0000   1.0000   1.0000   1.0000   1.0000   1.0000   1.0000
     1.0000   1.0000   1.0000   1.0000   1.0000   1.0000   1.0000   1.0000
     1.0000   1.0000   1.0000   1.0000   1.0000   1.0000   1.0000   1.0000
     1.0000   1.0000   1.0000   1.0000   1.0000   1.0000   1.0000   1.0000
     1.0000   1.0000   1.0000   1.0000   1.0000   1.0000   1.0000   1.0000
     1.0000   1.0000   1.0000   1.0000   1.0000   1.0000   1.0000   1.0000
     1.0000   1.0000   1.0000   1.0000   1.0000   1.0000   1.0000   1.0000
     1.0000   1.0000   1.0000   1.0000   1.0000   1.0000   1.0000   1.0000
     1.0000   1.0000   1.0000   1.0000   1.0000   1.0000   1.0000   1.0000
     1.0000   1.0000   1.0000   1.0000   1.0000   1.0000   1.0000   1.0000
     1.0000   1.0000   1.0000   1.0000   1.0000   1.0000   1.0000   1.0000
     1.0000   1.0000   1.0000   1.0000   1.0000   1.0000   1.0000   1.0000
     1.0000   1.0000   1.0000   1.0000   1.0000   1.0000   1.0000   1.0000
     1.0000   1.0000   1.0000   1.0000   1.0000   1.0000   1.0000   1.0000
     1.0000   1.0000   1.0000   1.0000   1.0000   1.0000   1.0000   1.0000
     1.0000   1.0000   1.0000   1.0000   1.0000   1.0000   1.0000   1.0000
     1.0000   1.0000   1.0000   1.0000   1.0000   1.0000   1.0000   1.0000
     1.0000   1.0000   1.0000   1.0000   1.0000   1.0000   1.0000   1.0000
     1.0000   1.0000   1.0000   1.0000   1.0000   1.0000   1.0000   1.0000
     1.0000   1.0000   1.0000   1.0000   1.0000   1.0000   1.0000   1.0000
     1.0000   1.0000   1.0000   1.0000   1.0000   1.0000   1.0000   1.0000
     1.0000   1.0000   1.0000   1.0000   1.0000   1.0000   1.0000   1.0000
     1.0000   1.0000   1.0000   1.0000   1.0000   1.0000   1.0000   1.0000
     1.0000   1.0000   1.0000   1.0000   1.0000   1.0000   1.0000   1.0000
     1.0000   1.0000   1.0000   1.0000   1.0000   1.0000   1.0000   1.0000
     1.0000   1.0000   1.0000   1.0000   1.0000   1.0000   1.0000   1.0000
     1.0000   1.0000   1.0000   1.0000   1.0000   1.0000   1.0000   1.0000
     1.0000   1.0000   1.0000   1.0000   1.0000   1.0000   1.0000   1.0000
     1.0000   1.0000   1.0000   1.0000   1.0000   1.0000   1.0000   1.0000
     1.0000   1.0000   1.0000   1.0000   1.0000   1.0000   1.0000   1.0000
     1.0000   1.0000   1.0000   1.0000   1.0000   1.0000   1.0000   1.0000
     1.0000   1.0000   1.0000   1.0000   1.0000   1.0000   1.0000   1.0000
     1.0000   1.0000   1.0000   1.0000   1.0000   1.0000   1.0000   1.0000
     1.0000   1.0000   1.0000   1.0000   1.0000   1.0000   1.0000   1.0000
     1.0000   1.0000   1.0000   1.0000   1.0000   1.0000   1.0000   1.0000
     1.0000   1.0000   1.0000   1.0000   1.0000   1.0000   1.0000   1.0000
     1.0000   1.0000   1.0000   1.0000   1.0000   1.0000   1.0000   1.0000
     1.0000   1.0000   1.0000   1.0000   1.0000   1.0000   1.0000   1.0000
     1.0000   1.0000   1.0000   1.0000   1.0000   1.0000   1.0000   1.0000
     1.0000   1.0000   1.0000   1.0000   1.0000   1.0000   1.0000   1.0000
     1.0000   1.0000   1.0000   1.0000   1.0000   1.0000   1.0000   1.0000
     1.0000   1.0000   1.0000   1.0000   1.0000   1.0000   1.0000   1.0000
     1.0000   1.0000   1.0000   1.0000   1.0000   1.0000   1.0000   1.0000
     1.0000   1.0000   1.0000   1.0000   1.0000   1.0000   1.0000   1.0000
     1.0000   1.0000   1.0000   1.0000   1.0000   1.0000   1.0000   1.0000
     1.0000   1.0000   1.0000   1.0000

          k =-0.0004-0.0000 0.5368 ( 45473 PWs)   bands (ev):

  -115.8093-115.8053-115.8023-115.8014-115.7999-115.7999-115.7994-115.7987
  -115.7977-115.7971-115.7963-115.7955-115.7932-115.7886-115.7880-115.7863
  -115.7840-115.7787-115.7767-115.7642 -70.1701 -70.1657 -70.1647 -70.1620
   -70.1614 -70.1608 -70.1607 -70.1595 -70.1593 -70.1592 -70.1589 -70.1583
   -70.1579 -70.1576 -70.1569 -70.1567 -70.1565 -70.1564 -70.1564 -70.1562
   -70.1561 -70.1560 -70.1557 -70.1541 -70.1534 -70.1532 -70.1532 -70.1530
   -70.1528 -70.1520 -70.1507 -70.1503 -70.1494 -70.1494 -70.1488 -70.1488
   -70.1485 -70.1473 -70.1471 -70.1458 -70.1456 -70.1443 -70.1441 -70.1439
   -70.1431 -70.1422 -70.1406 -70.1400 -70.1398 -70.1395 -70.1382 -70.1373
   -70.1372 -70.1363 -70.1330 -70.1281 -70.1269 -70.1252 -70.1210 -70.1147
   -65.2812 -65.2708 -65.2572 -65.2544 -65.2411 -65.2340 -65.2311 -65.2278
   -65.2243 -65.2190 -65.2163 -65.2101 -65.2068 -65.2066 -65.1965 -65.1881
   -32.2711 -32.2651 -32.2644 -32.2623 -32.2575 -32.2549 -32.2465 -32.2450
   -32.2438 -32.2418 -32.2406 -32.2368 -32.2328 -32.2287 -32.2283 -32.2255
   -32.2235 -32.2225 -32.2220 -32.2205 -32.2170 -32.2160 -32.2146 -32.2114
   -32.2100 -32.2094 -32.2082 -32.2074 -32.2071 -32.2048 -32.2022 -32.2017
   -32.2001 -32.1994 -32.1973 -32.1955 -32.1948 -32.1941 -32.1914 -32.1914
   -32.1873 -32.1867 -32.1863 -32.1813 -32.1768 -32.1755 -32.1707 -32.1677
   -10.3174 -10.1983  -9.9565  -9.9289  -9.9025  -9.8742  -9.8585  -9.8368
    -9.7915  -9.7809  -9.7662  -9.7458  -9.7009  -9.6703  -9.6569  -9.6087
    -9.6040  -9.5863  -9.5793  -9.5422  -9.5308  -9.4866  -9.4686  -9.4591
    -9.4545  -9.4399  -9.4163  -9.3851  -9.3655  -9.3212  -9.2901  -9.2809
    -9.2553  -9.2230  -9.2108  -9.0691   1.4264   1.4797   1.4879   1.5056
     1.5207   1.5571   1.5695   1.5864   1.5977   1.6149   1.6532   1.6716
     1.7088   1.7327   1.7433   1.7607   1.7641   1.7709   1.7942   1.8112
     1.8221   1.8364   1.8507   1.8681   1.8855   1.8903   1.9031   1.9156
     1.9322   1.9500   1.9603   1.9659   1.9722   1.9945   2.0095   2.0148
     2.0382   2.0444   2.0600   2.0740   2.0854   2.0981   2.1013   2.1128
     2.1294   2.1411   2.1527   2.1675   2.1812   2.2020   2.2257   2.2450
     2.2547   2.2885   2.3013   2.3178   2.3271   2.3433   2.3580   2.3665
     2.3802   2.4049   2.4288   2.4456   2.4598   2.4706   2.4834   2.5044
     2.5185   2.5281   2.5378   2.5724   2.5886   2.5950   2.6107   2.6324
     2.6606   2.6787   2.6947   2.7120   2.7330   2.7427   2.7556   2.7789
     2.7963   2.8018   2.8147   2.8215   2.8523   2.8631   2.8779   2.8828
     2.9001   2.9093   2.9163   2.9240   2.9415   2.9621   2.9792   2.9885
     3.0903   3.1385   3.2308   3.3005   3.3261   3.3516   3.3669   3.3930
     3.4484   3.4812   3.5179   3.5465   3.5737   3.5971   3.6210   3.6501
     3.6673   3.7075   3.7383   3.7712   3.8326   3.8713   3.9021   3.9605
     4.0283   4.0411   4.0647   4.0944   4.1322   4.1845   4.2210   4.2516
     4.2655   4.3295   4.3494   4.3937   4.4287   4.4808   4.5816   4.7026
     4.7342   4.7626   4.8037   4.8565   4.8804   4.9149   4.9213   4.9513
     4.9847   5.0439   5.0634   5.1264   5.1625   5.1982   5.2442   5.2913
     5.3203   5.3461   5.3619   5.3860   5.4121   5.4435   5.4755   5.4986
     5.5141   5.5286   5.5456   5.5829   5.5919   5.6152   5.6439   5.6574
     5.6764   5.7059   5.7832   5.8748   5.9149   5.9401   5.9751   5.9962
     6.0038   6.0369   6.0601   6.0800   6.1026   6.1428   6.1712   6.1942
     6.2218   6.2445   6.2607   6.2963   6.3278   6.3426   6.3495   6.3856
     6.3970   6.4176   6.4397   6.4469   6.4699   6.4799   6.5185   6.5568
     6.7135   6.7408   6.8930   6.9129

     occupation numbers 
     1.0000   1.0000   1.0000   1.0000   1.0000   1.0000   1.0000   1.0000
     1.0000   1.0000   1.0000   1.0000   1.0000   1.0000   1.0000   1.0000
     1.0000   1.0000   1.0000   1.0000   1.0000   1.0000   1.0000   1.0000
     1.0000   1.0000   1.0000   1.0000   1.0000   1.0000   1.0000   1.0000
     1.0000   1.0000   1.0000   1.0000   1.0000   1.0000   1.0000   1.0000
     1.0000   1.0000   1.0000   1.0000   1.0000   1.0000   1.0000   1.0000
     1.0000   1.0000   1.0000   1.0000   1.0000   1.0000   1.0000   1.0000
     1.0000   1.0000   1.0000   1.0000   1.0000   1.0000   1.0000   1.0000
     1.0000   1.0000   1.0000   1.0000   1.0000   1.0000   1.0000   1.0000
     1.0000   1.0000   1.0000   1.0000   1.0000   1.0000   1.0000   1.0000
     1.0000   1.0000   1.0000   1.0000   1.0000   1.0000   1.0000   1.0000
     1.0000   1.0000   1.0000   1.0000   1.0000   1.0000   1.0000   1.0000
     1.0000   1.0000   1.0000   1.0000   1.0000   1.0000   1.0000   1.0000
     1.0000   1.0000   1.0000   1.0000   1.0000   1.0000   1.0000   1.0000
     1.0000   1.0000   1.0000   1.0000   1.0000   1.0000   1.0000   1.0000
     1.0000   1.0000   1.0000   1.0000   1.0000   1.0000   1.0000   1.0000
     1.0000   1.0000   1.0000   1.0000   1.0000   1.0000   1.0000   1.0000
     1.0000   1.0000   1.0000   1.0000   1.0000   1.0000   1.0000   1.0000
     1.0000   1.0000   1.0000   1.0000   1.0000   1.0000   1.0000   1.0000
     1.0000   1.0000   1.0000   1.0000   1.0000   1.0000   1.0000   1.0000
     1.0000   1.0000   1.0000   1.0000   1.0000   1.0000   1.0000   1.0000
     1.0000   1.0000   1.0000   1.0000   1.0000   1.0000   1.0000   1.0000
     1.0000   1.0000   1.0000   1.0000   1.0000   1.0000   1.0000   1.0000
     1.0000   1.0000   1.0000   1.0000   1.0000   1.0000   1.0000   1.0000
     1.0000   1.0000   1.0000   1.0000   1.0000   1.0000   1.0000   1.0000
     1.0000   1.0000   1.0000   1.0000   1.0000   1.0000   1.0000   1.0000
     1.0000   1.0000   1.0000   1.0000   1.0000   1.0000   1.0000   1.0000
     1.0000   1.0000   1.0000   1.0000   1.0000   1.0000   1.0000   1.0000
     1.0000   1.0000   1.0000   1.0000   1.0000   1.0000   1.0000   1.0000
     1.0000   1.0000   1.0000   1.0000   1.0000   1.0000   1.0000   1.0000
     1.0000   1.0000   1.0000   1.0000   1.0000   1.0000   1.0000   1.0000
     1.0000   1.0000   1.0000   1.0000   1.0000   1.0000   1.0000   1.0000
     1.0000   1.0000   1.0000   1.0000   1.0000   1.0000   1.0000   1.0000
     1.0000   1.0000   1.0000   1.0000   1.0000   1.0000   1.0000   1.0000
     1.0000   1.0000   1.0000   1.0000   1.0000   1.0000   1.0000   1.0000
     1.0000   1.0000   1.0000   1.0000   1.0000   1.0000   1.0000   1.0000
     1.0000   1.0000   1.0000   1.0000   1.0000   1.0000   1.0000   1.0000
     1.0000   1.0000   1.0000   1.0000   1.0000   1.0000   1.0000   1.0000
     1.0000   1.0000   1.0000   1.0000   1.0000   1.0000   1.0000   1.0000
     1.0000   1.0000   1.0000   1.0000   1.0000   1.0000   1.0000   1.0000
     1.0000   1.0000   1.0000   1.0000   1.0000   1.0000   1.0000   1.0000
     1.0000   1.0000   1.0000   1.0000   1.0000   1.0000   1.0000   1.0000
     1.0000   1.0000   1.0000   1.0000   1.0000   1.0000   1.0000   1.0000
     1.0000   1.0000   1.0000   1.0000   1.0000   1.0000   1.0000   1.0000
     1.0000   1.0000   1.0000   1.0000   1.0000   1.0000   1.0000   1.0000
     1.0000   1.0000   1.0000   1.0000   1.0000   1.0000   1.0000   1.0000
     1.0000   1.0000   1.0000   1.0000   1.0000   1.0000   1.0000   1.0000
     1.0000   1.0000   1.0000   1.0000   1.0000   1.0000   1.0000   1.0000
     1.0000   1.0000   1.0000   1.0000

          k =-0.0004-0.0001 0.6710 ( 45427 PWs)   bands (ev):

  -115.8093-115.8053-115.8023-115.8014-115.7999-115.7999-115.7994-115.7987
  -115.7977-115.7971-115.7963-115.7955-115.7932-115.7886-115.7880-115.7863
  -115.7840-115.7787-115.7767-115.7642 -70.1701 -70.1657 -70.1647 -70.1620
   -70.1614 -70.1608 -70.1607 -70.1595 -70.1593 -70.1592 -70.1589 -70.1583
   -70.1579 -70.1576 -70.1569 -70.1567 -70.1565 -70.1564 -70.1564 -70.1562
   -70.1561 -70.1560 -70.1557 -70.1541 -70.1534 -70.1532 -70.1532 -70.1530
   -70.1528 -70.1520 -70.1507 -70.1503 -70.1494 -70.1494 -70.1488 -70.1488
   -70.1485 -70.1473 -70.1471 -70.1458 -70.1456 -70.1443 -70.1441 -70.1439
   -70.1431 -70.1422 -70.1406 -70.1400 -70.1398 -70.1395 -70.1382 -70.1373
   -70.1372 -70.1363 -70.1330 -70.1281 -70.1269 -70.1252 -70.1210 -70.1147
   -65.2812 -65.2708 -65.2572 -65.2544 -65.2411 -65.2340 -65.2311 -65.2278
   -65.2243 -65.2190 -65.2163 -65.2101 -65.2068 -65.2066 -65.1965 -65.1881
   -32.2711 -32.2651 -32.2644 -32.2623 -32.2575 -32.2549 -32.2465 -32.2450
   -32.2438 -32.2418 -32.2406 -32.2368 -32.2328 -32.2287 -32.2282 -32.2255
   -32.2235 -32.2225 -32.2220 -32.2205 -32.2170 -32.2160 -32.2146 -32.2114
   -32.2100 -32.2094 -32.2082 -32.2074 -32.2071 -32.2048 -32.2022 -32.2017
   -32.2001 -32.1994 -32.1973 -32.1955 -32.1948 -32.1941 -32.1914 -32.1914
   -32.1873 -32.1867 -32.1863 -32.1813 -32.1768 -32.1755 -32.1707 -32.1677
   -10.3405 -10.1547  -9.9681  -9.9382  -9.9104  -9.8808  -9.8603  -9.8280
    -9.7967  -9.7797  -9.7527  -9.7374  -9.7095  -9.6632  -9.6461  -9.6103
    -9.6020  -9.5869  -9.5782  -9.5441  -9.5367  -9.4926  -9.4830  -9.4662
    -9.4513  -9.4388  -9.4180  -9.3868  -9.3631  -9.3188  -9.2899  -9.2796
    -9.2532  -9.2206  -9.2083  -9.0683   1.4232   1.4723   1.4835   1.4982
     1.5139   1.5416   1.5628   1.5759   1.5948   1.6136   1.6374   1.6586
     1.7056   1.7207   1.7391   1.7517   1.7635   1.7763   1.7864   1.8029
     1.8196   1.8448   1.8500   1.8740   1.8879   1.8947   1.9094   1.9202
     1.9426   1.9502   1.9631   1.9653   1.9763   1.9973   2.0081   2.0162
     2.0353   2.0459   2.0528   2.0720   2.0826   2.0974   2.1036   2.1085
     2.1256   2.1379   2.1471   2.1745   2.1914   2.2222   2.2410   2.2621
     2.2823   2.2956   2.3186   2.3273   2.3433   2.3538   2.3662   2.3824
     2.4003   2.4173   2.4326   2.4597   2.4673   2.4763   2.4981   2.5103
     2.5241   2.5321   2.5504   2.5739   2.5929   2.6013   2.6196   2.6421
     2.6608   2.6803   2.6980   2.7134   2.7319   2.7479   2.7537   2.7753
     2.7953   2.8007   2.8182   2.8205   2.8472   2.8563   2.8754   2.8850
     2.9006   2.9044   2.9160   2.9270   2.9367   2.9579   2.9761   2.9908
     3.0550   3.1230   3.2152   3.2947   3.3100   3.3434   3.3695   3.3904
     3.4335   3.4571   3.4951   3.5257   3.5536   3.5852   3.6218   3.6469
     3.6832   3.6911   3.7456   3.7938   3.8585   3.8844   3.9379   3.9689
     4.0133   4.0439   4.0707   4.0985   4.1326   4.1651   4.1761   4.2119
     4.2338   4.2809   4.3075   4.3452   4.3737   4.4128   4.5719   4.6437
     4.7079   4.7625   4.7769   4.8263   4.8731   4.9214   5.0166   5.0539
     5.0977   5.1285   5.1724   5.1854   5.2086   5.2346   5.2655   5.2724
     5.3005   5.3145   5.3392   5.3609   5.3868   5.3955   5.4298   5.4657
     5.4918   5.5315   5.5784   5.5938   5.6330   5.6575   5.6817   5.6978
     5.7456   5.7701   5.8022   5.8555   5.9176   5.9422   5.9562   5.9657
     5.9784   6.0207   6.0471   6.0694   6.0805   6.1168   6.1555   6.1729
     6.1917   6.2262   6.2609   6.2824   6.3097   6.3226   6.3471   6.3687
     6.3792   6.4048   6.4221   6.4530   6.4754   6.5215   6.5725   6.6267
     6.6936   6.7212   6.9010   6.9206

     occupation numbers 
     1.0000   1.0000   1.0000   1.0000   1.0000   1.0000   1.0000   1.0000
     1.0000   1.0000   1.0000   1.0000   1.0000   1.0000   1.0000   1.0000
     1.0000   1.0000   1.0000   1.0000   1.0000   1.0000   1.0000   1.0000
     1.0000   1.0000   1.0000   1.0000   1.0000   1.0000   1.0000   1.0000
     1.0000   1.0000   1.0000   1.0000   1.0000   1.0000   1.0000   1.0000
     1.0000   1.0000   1.0000   1.0000   1.0000   1.0000   1.0000   1.0000
     1.0000   1.0000   1.0000   1.0000   1.0000   1.0000   1.0000   1.0000
     1.0000   1.0000   1.0000   1.0000   1.0000   1.0000   1.0000   1.0000
     1.0000   1.0000   1.0000   1.0000   1.0000   1.0000   1.0000   1.0000
     1.0000   1.0000   1.0000   1.0000   1.0000   1.0000   1.0000   1.0000
     1.0000   1.0000   1.0000   1.0000   1.0000   1.0000   1.0000   1.0000
     1.0000   1.0000   1.0000   1.0000   1.0000   1.0000   1.0000   1.0000
     1.0000   1.0000   1.0000   1.0000   1.0000   1.0000   1.0000   1.0000
     1.0000   1.0000   1.0000   1.0000   1.0000   1.0000   1.0000   1.0000
     1.0000   1.0000   1.0000   1.0000   1.0000   1.0000   1.0000   1.0000
     1.0000   1.0000   1.0000   1.0000   1.0000   1.0000   1.0000   1.0000
     1.0000   1.0000   1.0000   1.0000   1.0000   1.0000   1.0000   1.0000
     1.0000   1.0000   1.0000   1.0000   1.0000   1.0000   1.0000   1.0000
     1.0000   1.0000   1.0000   1.0000   1.0000   1.0000   1.0000   1.0000
     1.0000   1.0000   1.0000   1.0000   1.0000   1.0000   1.0000   1.0000
     1.0000   1.0000   1.0000   1.0000   1.0000   1.0000   1.0000   1.0000
     1.0000   1.0000   1.0000   1.0000   1.0000   1.0000   1.0000   1.0000
     1.0000   1.0000   1.0000   1.0000   1.0000   1.0000   1.0000   1.0000
     1.0000   1.0000   1.0000   1.0000   1.0000   1.0000   1.0000   1.0000
     1.0000   1.0000   1.0000   1.0000   1.0000   1.0000   1.0000   1.0000
     1.0000   1.0000   1.0000   1.0000   1.0000   1.0000   1.0000   1.0000
[...]
   -65.2812 -65.2708 -65.2572 -65.2544 -65.2411 -65.2340 -65.2311 -65.2278
   -65.2243 -65.2190 -65.2163 -65.2101 -65.2068 -65.2066 -65.1965 -65.1881
   -32.2711 -32.2651 -32.2644 -32.2623 -32.2575 -32.2549 -32.2465 -32.2451
   -32.2443 -32.2420 -32.2405 -32.2368 -32.2329 -32.2286 -32.2282 -32.2256
   -32.2232 -32.2225 -32.2221 -32.2207 -32.2171 -32.2160 -32.2145 -32.2105
   -32.2099 -32.2094 -32.2082 -32.2073 -32.2071 -32.2048 -32.2026 -32.2018
   -32.1992 -32.1985 -32.1975 -32.1959 -32.1948 -32.1942 -32.1916 -32.1905
   -32.1877 -32.1868 -32.1864 -32.1813 -32.1770 -32.1761 -32.1707 -32.1676
   -10.2493 -10.2114 -10.0328  -9.9607  -9.9425  -9.8878  -9.8702  -9.8127
    -9.7858  -9.7752  -9.7230  -9.6984  -9.6737  -9.6684  -9.6612  -9.6381
    -9.6148  -9.5850  -9.5611  -9.5309  -9.5191  -9.5059  -9.4935  -9.4743
    -9.4654  -9.4282  -9.4198  -9.4027  -9.3388  -9.2992  -9.2956  -9.2825
    -9.2659  -9.2430  -9.1770  -9.0666   1.4504   1.4788   1.5144   1.5349
     1.5474   1.5562   1.5867   1.6096   1.6135   1.6315   1.6468   1.6649
     1.6944   1.7029   1.7148   1.7181   1.7413   1.7582   1.7771   1.8059
     1.8110   1.8227   1.8473   1.8711   1.8809   1.8945   1.9085   1.9276
     1.9405   1.9474   1.9584   1.9688   1.9786   1.9898   2.0033   2.0153
     2.0282   2.0341   2.0445   2.0633   2.0722   2.0853   2.0931   2.1130
     2.1252   2.1431   2.1471   2.1585   2.1729   2.1870   2.2099   2.2168
     2.2298   2.2464   2.2771   2.3203   2.3355   2.3416   2.3697   2.3997
     2.4107   2.4204   2.4263   2.4542   2.4730   2.4906   2.5029   2.5129
     2.5390   2.5453   2.5544   2.5890   2.6069   2.6273   2.6433   2.6509
     2.6592   2.6886   2.7046   2.7105   2.7237   2.7262   2.7459   2.7658
     2.7706   2.7809   2.8041   2.8226   2.8348   2.8607   2.8731   2.8867
     2.8983   2.9079   2.9152   2.9357   2.9517   2.9597   2.9625   2.9946
     3.0165   3.0430   3.1158   3.1492   3.2036   3.2386   3.2874   3.3109
     3.3541   3.3875   3.3907   3.4229   3.5215   3.5468   3.5823   3.5969
     3.6718   3.7384   3.7688   3.8351   3.8873   3.9543   4.0133   4.0241
     4.1354   4.1724   4.2588   4.3137   4.3504   4.3720   4.4136   4.4458
     4.4554   4.5244   4.5303   4.5467   4.5890   4.5965   4.6421   4.6610
     4.6961   4.7308   4.7580   4.7694   4.8499   4.9321   4.9818   5.0084
     5.0102   5.0464   5.0728   5.1033   5.1294   5.1889   5.2504   5.3148
     5.3494   5.4002   5.4434   5.4520   5.4792   5.4883   5.5137   5.5538
     5.5752   5.6185   5.6259   5.6493   5.6659   5.6856   5.6900   5.7231
     5.7475   5.7708   5.8068   5.8314   5.8491   5.8687   5.8853   5.9044
     5.9280   5.9591   5.9597   5.9817   6.0087   6.0146   6.0318   6.0598
     6.0830   6.1072   6.1239   6.1424   6.1605   6.1893   6.2118   6.2347
     6.2695   6.3210   6.3499   6.3733   6.4074   6.4413   6.4606   6.4841
     6.6811   6.7570   6.7790   6.7921

     occupation numbers 
     1.0000   1.0000   1.0000   1.0000   1.0000   1.0000   1.0000   1.0000
     1.0000   1.0000   1.0000   1.0000   1.0000   1.0000   1.0000   1.0000
     1.0000   1.0000   1.0000   1.0000   1.0000   1.0000   1.0000   1.0000
     1.0000   1.0000   1.0000   1.0000   1.0000   1.0000   1.0000   1.0000
     1.0000   1.0000   1.0000   1.0000   1.0000   1.0000   1.0000   1.0000
     1.0000   1.0000   1.0000   1.0000   1.0000   1.0000   1.0000   1.0000
     1.0000   1.0000   1.0000   1.0000   1.0000   1.0000   1.0000   1.0000
     1.0000   1.0000   1.0000   1.0000   1.0000   1.0000   1.0000   1.0000
     1.0000   1.0000   1.0000   1.0000   1.0000   1.0000   1.0000   1.0000
     1.0000   1.0000   1.0000   1.0000   1.0000   1.0000   1.0000   1.0000
     1.0000   1.0000   1.0000   1.0000   1.0000   1.0000   1.0000   1.0000
     1.0000   1.0000   1.0000   1.0000   1.0000   1.0000   1.0000   1.0000
     1.0000   1.0000   1.0000   1.0000   1.0000   1.0000   1.0000   1.0000
     1.0000   1.0000   1.0000   1.0000   1.0000   1.0000   1.0000   1.0000
     1.0000   1.0000   1.0000   1.0000   1.0000   1.0000   1.0000   1.0000
     1.0000   1.0000   1.0000   1.0000   1.0000   1.0000   1.0000   1.0000
     1.0000   1.0000   1.0000   1.0000   1.0000   1.0000   1.0000   1.0000
     1.0000   1.0000   1.0000   1.0000   1.0000   1.0000   1.0000   1.0000
     1.0000   1.0000   1.0000   1.0000   1.0000   1.0000   1.0000   1.0000
     1.0000   1.0000   1.0000   1.0000   1.0000   1.0000   1.0000   1.0000
     1.0000   1.0000   1.0000   1.0000   1.0000   1.0000   1.0000   1.0000
     1.0000   1.0000   1.0000   1.0000   1.0000   1.0000   1.0000   1.0000
     1.0000   1.0000   1.0000   1.0000   1.0000   1.0000   1.0000   1.0000
     1.0000   1.0000   1.0000   1.0000   1.0000   1.0000   1.0000   1.0000
     1.0000   1.0000   1.0000   1.0000   1.0000   1.0000   1.0000   1.0000
     1.0000   1.0000   1.0000   1.0000   1.0000   1.0000   1.0000   1.0000
     1.0000   1.0000   1.0000   1.0000   1.0000   1.0000   1.0000   1.0000
     1.0000   1.0000   1.0000   1.0000   1.0000   1.0000   1.0000   1.0000
     1.0000   1.0000   1.0000   1.0000   1.0000   1.0000   1.0000   1.0000
     1.0000   1.0000   1.0000   1.0000   1.0000   1.0000   1.0000   1.0000
     1.0000   1.0000   1.0000   1.0000   1.0000   1.0000   1.0000   1.0000
     1.0000   1.0000   1.0000   1.0000   1.0000   1.0000   1.0000   1.0000
     1.0000   1.0000   1.0000   1.0000   1.0000   1.0000   1.0000   1.0000
     1.0000   1.0000   1.0000   1.0000   1.0000   1.0000   1.0000   1.0000
     1.0000   1.0000   1.0000   1.0000   1.0000   1.0000   1.0000   1.0000
     1.0000   1.0000   1.0000   1.0000   1.0000   1.0000   1.0000   1.0000
     1.0000   1.0000   1.0000   1.0000   1.0000   1.0000   1.0000   1.0000
     1.0000   1.0000   1.0000   1.0000   1.0000   1.0000   1.0000   1.0000
     1.0000   1.0000   1.0000   1.0000   1.0000   1.0000   1.0000   1.0000
     1.0000   1.0000   1.0000   1.0000   1.0000   1.0000   1.0000   1.0000
     1.0000   1.0000   1.0000   1.0000   1.0000   1.0000   1.0000   1.0000
     1.0000   1.0000   1.0000   1.0000   1.0000   1.0000   1.0000   1.0000
     1.0000   1.0000   1.0000   1.0000   1.0000   1.0000   1.0000   1.0000
     1.0000   1.0000   1.0000   1.0000   1.0000   1.0000   1.0000   1.0000
     1.0000   1.0000   1.0000   1.0000   1.0000   1.0000   1.0000   1.0000
     1.0000   1.0000   1.0000   1.0000   1.0000   1.0000   1.0000   1.0000
     1.0000   1.0000   1.0000   1.0000   1.0000   1.0000   1.0000   1.0000
     1.0000   1.0000   1.0000   1.0000   1.0000   1.0000   1.0000   1.0000
     1.0000   1.0000   1.0000   1.0000

     highest occupied level (ev):     6.9321



               ==================================================
                            POLARIZATION CALCULATION
                         !!! NOT THOROUGHLY TESTED !!!
               --------------------------------------------------


                     K-POINTS STRINGS USED IN CALCULATIONS
                     ~~~~~~~~~~~~~~~~~~~~~~~~~~~~~~~~~~~~~

       G-vector along string (2 pi/a): -0.00061 -0.00007  0.93943
       Modulus of the vector (1/bohr):  0.32002
       Number of k-points per string:   8
       Number of different strings  :  10


                               IONIC POLARIZATION
                               ~~~~~~~~~~~~~~~~~~

        Note: (mod 1) means that the phases (angles ranging from
        -pi to pi) have been mapped to the interval [-1/2,+1/2) by
        dividing by 2*pi; (mod 2) refers to the interval [-1,+1)

  ============================================================================
    Ion    Species    Charge              Position                Phase
  ----------------------------------------------------------------------------
     1        Zn      20.000       0.1647  0.0955  0.2086    -0.08376 (mod 2)
     2        Zn      20.000       0.3321  0.3844  0.2061    -0.13239 (mod 2)
     3        Zn      20.000       0.6690  0.3848  0.2059    -0.14034 (mod 2)
     4        Zn      20.000       0.1678  0.0961  0.7406    -0.08776 (mod 2)
     5        Zn      20.000       0.5012  0.0961  0.7380    -0.14015 (mod 2)
     6        Zn      20.000       0.8320  0.0963  0.7362    -0.17756 (mod 2)
     7        Zn      20.000      -0.0002  0.3867  0.7375    -0.14333 (mod 2)
     8        Zn      20.000       0.6663  0.3852  0.7385    -0.13238 (mod 2)
     9        Zn      20.000       0.1654  0.6740  0.7383    -0.13129 (mod 2)
    10        Zn      20.000       0.5002  0.6719  0.7362    -0.17531 (mod 2)
    11        Zn      20.000       0.3321  0.1938  0.4737     0.89607 (mod 2)
    12        Zn      20.000       0.6671  0.1931  0.4715     0.85048 (mod 2)
    13        Zn      20.000       0.1670  0.4805  0.4722     0.86969 (mod 2)
    14        Zn      20.000       0.4994  0.4799  0.4709     0.84089 (mod 2)
    15        Zn      20.000      -0.0023  0.7690  0.4709     0.84661 (mod 2)
    16        Zn      20.000      -0.0006  0.1924  1.0046     0.87486 (mod 2)
    17        Zn      20.000       0.3339  0.1903  1.0060     0.89777 (mod 2)
    18        Zn      20.000       0.1656  0.4818  1.0056     0.89104 (mod 2)
    19        Zn      20.000      -0.3345  0.7697  1.0043     0.87227 (mod 2)
    20        Zn      20.000       0.0006  0.7716  1.0061     0.90264 (mod 2)
    21        Mg      10.000       0.4982  0.0972  0.2098    -0.03185 (mod 2)
    22        Mg      10.000       0.8355  0.0955  0.2085    -0.04692 (mod 2)
    23        Mg      10.000       0.0020  0.3827  0.2074    -0.05221 (mod 2)
    24        Mg      10.000      -0.1676  0.6757  0.2055    -0.06908 (mod 2)
    25        Mg      10.000       0.1669  0.6743  0.2082    -0.04576 (mod 2)
    26        Mg      10.000       0.4999  0.6753  0.2084    -0.04545 (mod 2)
    27        Mg      10.000       0.3337  0.3852  0.7403     0.95237 (mod 2)
    28        Mg      10.000      -0.1652  0.6751  0.7389     0.94217 (mod 2)
    29        Mg      10.000       0.0023  0.1933  0.4758     0.46947 (mod 2)
    30        Mg      10.000      -0.1667  0.4822  0.4720     0.43447 (mod 2)
    31        Mg      10.000      -0.3316  0.7718  0.4742     0.45585 (mod 2)
    32        Mg      10.000       0.3313  0.7692  0.4740     0.45051 (mod 2)
    33        Mg      10.000       0.6675  0.1921  1.0062    -0.55174 (mod 2)
    34        Mg      10.000      -0.1649  0.4806  1.0038    -0.56899 (mod 2)
    35        Mg      10.000       0.5021  0.4820  1.0073    -0.54016 (mod 2)
    36        Mg      10.000       0.3349  0.7708  1.0027    -0.58275 (mod 2)
    37        O        6.000       0.1655  0.0953  0.0039     0.02108 (mod 2)
    38        O        6.000       0.5004  0.0965  0.0065     0.03492 (mod 2)
    39        O        6.000       0.8325  0.0948  0.0049     0.02438 (mod 2)
    40        O        6.000      -0.0005  0.3845  0.0046     0.02577 (mod 2)
    41        O        6.000       0.3333  0.3848  0.0014     0.00673 (mod 2)
    42        O        6.000       0.6677  0.3846  0.0018     0.00758 (mod 2)
    43        O        6.000      -0.1673  0.6732  0.0019     0.01085 (mod 2)
    44        O        6.000       0.1676  0.6748  0.0044     0.02400 (mod 2)
    45        O        6.000       0.4984  0.6737  0.0053     0.02789 (mod 2)
    46        O        6.000       0.1671  0.0961  0.5371    -0.97345 (mod 2)
    47        O        6.000       0.5001  0.0959  0.5337    -0.99359 (mod 2)
    48        O        6.000       0.8341  0.0957  0.5330    -0.99867 (mod 2)
    49        O        6.000      -0.0007  0.3856  0.5337    -0.99191 (mod 2)
    50        O        6.000       0.3334  0.3856  0.5376    -0.97129 (mod 2)
    51        O        6.000       0.6666  0.3851  0.5349    -0.98741 (mod 2)
    52        O        6.000      -0.1677  0.6734  0.5361    -0.97769 (mod 2)
    53        O        6.000       0.1649  0.6734  0.5344    -0.98894 (mod 2)
    54        O        6.000       0.5000  0.6739  0.5322     0.99775 (mod 2)
    55        O        6.000      -0.0002  0.1925  0.2729    -0.46211 (mod 2)
    56        O        6.000       0.3316  0.1929  0.2703    -0.47797 (mod 2)
    57        O        6.000       0.6673  0.1918  0.2673    -0.49569 (mod 2)
    58        O        6.000      -0.1642  0.4827  0.2683    -0.48722 (mod 2)
    59        O        6.000       0.1667  0.4818  0.2688    -0.48596 (mod 2)
    60        O        6.000       0.5004  0.4810  0.2667    -0.49862 (mod 2)
    61        O        6.000      -0.3332  0.7700  0.2713    -0.46993 (mod 2)
    62        O        6.000      -0.0006  0.7707  0.2674    -0.49289 (mod 2)
    63        O        6.000       0.3330  0.7704  0.2705    -0.47686 (mod 2)
    64        O        6.000      -0.0004  0.1931  0.8001     0.50962 (mod 2)
    65        O        6.000       0.3345  0.1925  0.8022     0.52018 (mod 2)
    66        O        6.000       0.6670  0.1926  0.8028     0.52278 (mod 2)
    67        O        6.000      -0.1666  0.4827  0.8008     0.51396 (mod 2)
    68        O        6.000       0.1668  0.4816  0.8016     0.51759 (mod 2)
    69        O        6.000       0.4998  0.4811  0.8039     0.52931 (mod 2)
    70        O        6.000      -0.3335  0.7697  0.7999     0.50959 (mod 2)
    71        O        6.000       0.0004  0.7714  0.8021     0.52090 (mod 2)
    72        O        6.000       0.3336  0.7702  0.7993     0.50355 (mod 2)
  ----------------------------------------------------------------------------
                                               IONIC PHASE:   0.16621 (mod 2)
  ============================================================================


                            ELECTRONIC POLARIZATION
                            ~~~~~~~~~~~~~~~~~~~~~~~

        Note: (mod 1) means that the phases (angles ranging from
        -pi to pi) have been mapped to the interval [-1/2,+1/2) by
        dividing by 2*pi; (mod 2) refers to the interval [-1,+1)

  ============================================================================
   Spin    String     Weight      First k-point in string         Phase
  ----------------------------------------------------------------------------
    up        1      0.062500      0.0000  0.0000  0.0000    -0.18480 (mod 1)
    up        2      0.125000      0.0002  0.2885 -0.0000    -0.18794 (mod 1)
    up        3      0.062500     -0.0004 -0.5769  0.0000    -0.19022 (mod 1)
    up        4      0.125000      0.2501  0.1444 -0.0002    -0.18786 (mod 1)
    up        5      0.125000      0.2503  0.4328 -0.0002    -0.19018 (mod 1)
    up        6      0.125000      0.2497 -0.4325 -0.0001    -0.19025 (mod 1)
    up        7      0.125000      0.2499 -0.1441 -0.0002    -0.18797 (mod 1)
    up        8      0.062500     -0.5002 -0.2888  0.0003    -0.19012 (mod 1)
    up        9      0.125000     -0.5000 -0.0003  0.0003    -0.19020 (mod 1)
    up       10      0.062500     -0.5006 -0.8657  0.0004    -0.19026 (mod 1)
  ----------------------------------------------------------------------------
   down       1      0.062500      0.0000  0.0000  0.0000    -0.18480 (mod 1)
   down       2      0.125000      0.0002  0.2885 -0.0000    -0.18794 (mod 1)
   down       3      0.062500     -0.0004 -0.5769  0.0000    -0.19022 (mod 1)
   down       4      0.125000      0.2501  0.1444 -0.0002    -0.18786 (mod 1)
   down       5      0.125000      0.2503  0.4328 -0.0002    -0.19018 (mod 1)
   down       6      0.125000      0.2497 -0.4325 -0.0001    -0.19025 (mod 1)
   down       7      0.125000      0.2499 -0.1441 -0.0002    -0.18797 (mod 1)
   down       8      0.062500     -0.5002 -0.2888  0.0003    -0.19012 (mod 1)
   down       9      0.125000     -0.5000 -0.0003  0.0003    -0.19020 (mod 1)
   down      10      0.062500     -0.5006 -0.8657  0.0004    -0.19026 (mod 1)
  ----------------------------------------------------------------------------
                                        Average phase (up):  -0.18901 (mod 1)
                                      Average phase (down):  -0.18901 (mod 1)
                                          ELECTRONIC PHASE:  -0.37802 (mod 2)
  ============================================================================


                               SUMMARY OF PHASES
                               ~~~~~~~~~~~~~~~~~

                          Ionic Phase:  0.16621 (mod 2)
                     Electronic Phase: -0.37802 (mod 2)
                          TOTAL PHASE: -0.21182 (mod 2)


                             VALUES OF POLARIZATION
                             ~~~~~~~~~~~~~~~~~~~~~~

        The calculation of phases done along the direction of vector 3
        of the reciprocal lattice gives the following contribution to
        the polarization vector (in different units, and being Omega
        the volume of the unit cell):

           P =  -4.1587555  (mod  39.2675864)  (e/Omega).bohr

           P =  -0.0007184  (mod   0.0067831)  e/bohr^2

           P =  -0.0410711  (mod   0.3877992)  C/m^2

        The polarization direction is:  ( 0.00065 , 0.00008 , 1.00000 )


               ==================================================



     Writing output data file ZnO.save/
 
     init_run     :      2.54s CPU      5.09s WALL (       1 calls)
     electrons    :   1370.10s CPU   1397.77s WALL (       1 calls)

     Called by init_run:
     wfcinit      :      0.00s CPU      0.02s WALL (       1 calls)
     wfcinit:atom :      0.14s CPU      0.15s WALL (      80 calls)
     wfcinit:wfcr :     62.35s CPU     63.79s WALL (      80 calls)
     potinit      :      0.20s CPU      0.28s WALL (       1 calls)
     hinit0       :      1.59s CPU      3.81s WALL (       1 calls)

     Called by electrons:
     c_bands      :    979.74s CPU   1005.79s WALL (       1 calls)
     v_of_rho     :      0.14s CPU      0.17s WALL (       1 calls)
     v_h          :      0.01s CPU      0.01s WALL (       1 calls)
     v_xc         :      0.13s CPU      0.15s WALL (       1 calls)
     newd         :      0.08s CPU      0.12s WALL (       1 calls)

     Called by c_bands:
     init_us_2    :      0.78s CPU      0.81s WALL (     220 calls)
     cegterg      :    914.75s CPU    939.28s WALL (      80 calls)

     Called by sum_band:

     Called by *egterg:
     h_psi        :    405.93s CPU    416.14s WALL (    1130 calls)
     s_psi        :     35.68s CPU     35.73s WALL (    1130 calls)
     g_psi        :      0.32s CPU      0.33s WALL (     970 calls)
     cdiaghg      :    281.22s CPU    286.81s WALL (    1050 calls)
     cegterg:over :     69.27s CPU     78.88s WALL (     970 calls)
     cegterg:upda :     88.09s CPU     88.30s WALL (     970 calls)
     cegterg:last :     81.55s CPU     81.74s WALL (     320 calls)
     cdiaghg:chol :     15.68s CPU     16.00s WALL (    1050 calls)
     cdiaghg:inve :     11.77s CPU     11.83s WALL (    1050 calls)
     cdiaghg:para :     42.40s CPU     45.77s WALL (    2100 calls)

     Called by h_psi:
     h_psi:pot    :    404.97s CPU    415.17s WALL (    1130 calls)
     h_psi:calbec :     50.68s CPU     58.24s WALL (    1130 calls)
     vloc_psi     :    318.12s CPU    320.63s WALL (    1130 calls)
     add_vuspsi   :     36.16s CPU     36.29s WALL (    1130 calls)

     General routines
     calbec       :     63.50s CPU     72.25s WALL (    1270 calls)
     fft          :      1.53s CPU      3.60s WALL (      13 calls)
     ffts         :      0.01s CPU      0.01s WALL (       1 calls)
     fftw         :    314.57s CPU    317.06s WALL (  706964 calls)
     interpolate  :      0.02s CPU      0.02s WALL (       1 calls)
 
     Parallel routines
     fft_scatt_xy :      9.20s CPU      9.27s WALL (  706978 calls)
     fft_scatt_yz :    270.18s CPU    274.42s WALL (  706978 calls)
 
     PWSCF        :  24m 3.31s CPU  24m53.76s WALL

 
   This run was terminated on:   2:37:39  15Jul2022            

=------------------------------------------------------------------------------=
   JOB DONE.
=------------------------------------------------------------------------------=
