
     Program PWSCF v.6.4.1 starts on 15Jul2022 at  2:10:43 

     This program is part of the open-source Quantum ESPRESSO suite
     for quantum simulation of materials; please cite
         "P. Giannozzi et al., J. Phys.:Condens. Matter 21 395502 (2009);
         "P. Giannozzi et al., J. Phys.:Condens. Matter 29 465901 (2017);
          URL http://www.quantum-espresso.org", 
     in publications or presentations arising from this work. More details at
     http://www.quantum-espresso.org/quote

     Parallel version (MPI), running on   128 processors

     MPI processes distributed on     2 nodes
     R & G space division:  proc/nbgrp/npool/nimage =     128
     Waiting for input...
     Reading input from standard input
Warning: card &IONS ignored
Warning: card   UPSCALE           = 100.D0, ignored
Warning: card / ignored
Warning: card &CELL ignored
Warning: card   CELL_DYNAMICS     = 'BFGS' ignored
Warning: card   PRESS_CONV_THR    = 0.5D0 ignored
Warning: card   CELL_DOFREE = 'ALL' ignored
Warning: card / ignored

     Current dimensions of program PWSCF are:
     Max number of different atomic species (ntypx) = 10
     Max number of k-points (npk) =  40000
     Max angular momentum in pseudopotentials (lmaxx) =  3

     Atomic positions and unit cell read from directory:
     ./temp/ZnO.save/
 

     Subspace diagonalization in iterative solution of the eigenvalue problem:
     one sub-group per band group will be used
     scalapack distributed-memory algorithm (size of sub-group:  8*  8 procs)

 
     Parallelization info
     --------------------
     sticks:   dense  smooth     PW     G-vecs:    dense   smooth      PW
     Min          91      43     12                 8447     2804     416
     Max          92      44     13                 8453     2813     422
     Sum       11681    5607   1573              1081587   359645   53643
 


     bravais-lattice index     =            0
     lattice parameter (alat)  =      18.3962  a.u.
     unit-cell volume          =    5727.3405 (a.u.)^3
     number of atoms/cell      =           72
     number of atomic types    =            3
     number of electrons       =       836.00
     number of Kohn-Sham states=          418
     kinetic-energy cutoff     =      60.0000  Ry
     charge density cutoff     =     500.0000  Ry
     Exchange-correlation      = SLA  PW   PSX  PSC ( 1  4 10  8 0 0)
     Using LIBXC version       =    4   3   4

     celldm(1)=  18.396228  celldm(2)=   0.000000  celldm(3)=   0.000000
     celldm(4)=   0.000000  celldm(5)=   0.000000  celldm(6)=   0.000000

     crystal axes: (cart. coord. in units of alat)
               a(1) = (   0.999999  -0.001169  -0.000248 )  
               a(2) = (  -0.501010   0.867329   0.000213 )  
               a(3) = (  -0.000266   0.000110   1.061394 )  

     reciprocal axes: (cart. coord. in units 2 pi/alat)
               b(1) = (  1.000676  0.578038  0.000191 )  
               b(2) = (  0.001348  1.153744 -0.000119 )  
               b(3) = (  0.000234 -0.000096  0.942157 )  


     PseudoPot. # 1 for Zn read from file:
     ./GBRV_PBEsol/zn_pbesol_v1.uspp.F.UPF
     MD5 check sum: 7d8615e52efe7c1e2b1899de8658bae2
     Pseudo is Ultrasoft, Zval = 20.0
     Generated by new atomic code, or converted to UPF format
     Using radial grid of  943 points,  6 beta functions with: 
                l(1) =   0
                l(2) =   0
                l(3) =   1
                l(4) =   1
                l(5) =   2
                l(6) =   2
     Q(r) pseudized with  8 coefficients,  rinner =    1.100   1.100   1.100
                                                       1.100   1.100

     PseudoPot. # 2 for O  read from file:
     ./GBRV_PBEsol/o_pbesol_v1.2.uspp.F.UPF
     MD5 check sum: 501638753501ef6325af9037351f7734
     Pseudo is Ultrasoft + core correction, Zval =  6.0
     Generated by new atomic code, or converted to UPF format
     Using radial grid of  737 points,  5 beta functions with: 
                l(1) =   0
                l(2) =   0
                l(3) =   1
                l(4) =   1
                l(5) =   2
     Q(r) pseudized with  8 coefficients,  rinner =    0.900   0.900   0.900
                                                       0.900   0.900

     PseudoPot. # 3 for Mg read from file:
     ./GBRV_PBEsol/mg_pbesol_v1.4.uspp.F.UPF
     MD5 check sum: 4059f37963cf5867752dbf5ab2400678
     Pseudo is Ultrasoft, Zval = 10.0
     Generated by new atomic code, or converted to UPF format
     Using radial grid of  821 points,  7 beta functions with: 
                l(1) =   0
                l(2) =   0
                l(3) =   0
                l(4) =   1
                l(5) =   1
                l(6) =   2
                l(7) =   2
     Q(r) pseudized with  8 coefficients,  rinner =    1.200   1.200   1.200
                                                       1.200   1.200

     atomic species   valence    mass     pseudopotential
        Zn            20.00    65.38000     Zn( 1.00)
        O              6.00    15.99900     O ( 1.00)
        Mg            10.00    24.30500     Mg( 1.00)

     No symmetry found


                                    s                        frac. trans.

      isym =  1     identity                                     

 cryst.   s( 1) = (     1          0          0      )
                  (     0          1          0      )
                  (     0          0          1      )

 cart.    s( 1) = (  1.0000000  0.0000000 -0.0000000 )
                  (  0.0000000  1.0000000  0.0000000 )
                  (  0.0000000 -0.0000000  1.0000000 )


   Cartesian axes

     site n.     atom                  positions (alat units)
         1           Zn  tau(   1) = (   0.1677697   0.0963991   0.2060138  )
         2           Zn  tau(   2) = (   0.1665669   0.0967621   0.7366091  )
         3           Zn  tau(   3) = (  -0.0009580   0.3859395   0.2058107  )
         4           Zn  tau(   4) = (  -0.0004432   0.3846039   0.7362331  )
         5           Zn  tau(   5) = (  -0.1674869   0.6737000   0.2056354  )
         6           Zn  tau(   6) = (  -0.1680483   0.6747426   0.7362462  )
         7           Zn  tau(   7) = (   0.4990070   0.0946515   0.2052967  )
         8           Mg  tau(   8) = (   0.4996473   0.0950347   0.7389371  )
         9           Zn  tau(   9) = (   0.3324497   0.3851594   0.2054701  )
        10           Mg  tau(  10) = (   0.3321037   0.3856639   0.7389418  )
        11           Mg  tau(  11) = (   0.1649606   0.6745918   0.2075107  )
        12           Zn  tau(  12) = (   0.1635660   0.6728443   0.7358209  )
        13           Zn  tau(  13) = (   0.8314206   0.0914429   0.2061173  )
        14           Zn  tau(  14) = (   0.8340947   0.0978039   0.7371202  )
        15           Mg  tau(  15) = (   0.6648127   0.3822582   0.2065667  )
        16           Zn  tau(  16) = (   0.6659593   0.3845079   0.7350447  )
        17           Mg  tau(  17) = (   0.4969102   0.6739442   0.2071152  )
        18           Zn  tau(  18) = (   0.5015577   0.6733913   0.7349450  )
        19           Zn  tau(  19) = (  -0.0001713   0.1932684   0.4703740  )
        20           Mg  tau(  20) = (   0.0006720   0.1932075   1.0049271  )
        21           Mg  tau(  21) = (  -0.1662217   0.4823950   0.4716949  )
        22           Mg  tau(  22) = (  -0.1666640   0.4821497   1.0014952  )
        23           Zn  tau(  23) = (  -0.3330120   0.7716474   0.4703726  )
        24           Mg  tau(  24) = (  -0.3334268   0.7717114   1.0032664  )
        25           Zn  tau(  25) = (   0.3340361   0.1931852   0.4714888  )
        26           Zn  tau(  26) = (   0.3319721   0.1921335   1.0017588  )
        27           Zn  tau(  27) = (   0.1666374   0.4799243   0.4711606  )
        28           Zn  tau(  28) = (   0.1646014   0.4824946   1.0027508  )
        29           Zn  tau(  29) = (  -0.0024192   0.7720005   0.4715233  )
        30           Zn  tau(  30) = (  -0.0007530   0.7688146   1.0026751  )
        31           Zn  tau(  31) = (   0.6656985   0.1910585   0.4713841  )
        32           Zn  tau(  32) = (   0.6671193   0.1929779   1.0023516  )
        33           Zn  tau(  33) = (   0.4984524   0.4801350   0.4701467  )
        34           Zn  tau(  34) = (   0.5011245   0.4823230   1.0021289  )
        35           Mg  tau(  35) = (   0.3321371   0.7714974   0.4740161  )
        36           Zn  tau(  36) = (   0.3323122   0.7688625   0.9997514  )
        37           O   tau(  37) = (   0.1665527   0.0959095   0.0029627  )
        38           O   tau(  38) = (   0.1664286   0.0966392   0.5330277  )
        39           O   tau(  39) = (  -0.0012926   0.3853762   0.0025570  )
        40           O   tau(  40) = (  -0.0006020   0.3851338   0.5332299  )
        41           O   tau(  41) = (  -0.1679195   0.6735283   0.0021726  )
        42           O   tau(  42) = (  -0.1679314   0.6743523   0.5333783  )
        43           O   tau(  43) = (   0.4999595   0.0954620   0.0013317  )
        44           O   tau(  44) = (   0.4994565   0.0959763   0.5361920  )
        45           O   tau(  45) = (   0.3331754   0.3855286   0.0011997  )
        46           O   tau(  46) = (   0.3327814   0.3850398   0.5361509  )
        47           O   tau(  47) = (   0.1664825   0.6742579   0.0049348  )
        48           O   tau(  48) = (   0.1649471   0.6738955   0.5318664  )
        49           O   tau(  49) = (   0.8336643   0.0943949   0.0022234  )
        50           O   tau(  50) = (   0.8333271   0.0964418   0.5338875  )
        51           O   tau(  51) = (   0.6675173   0.3850631   0.0041296  )
        52           O   tau(  52) = (   0.6664273   0.3846827   0.5311131  )
        53           O   tau(  53) = (   0.4998702   0.6746819   0.0041921  )
        54           O   tau(  54) = (   0.4994099   0.6737860   0.5313271  )
        55           O   tau(  55) = (  -0.0010159   0.1919760   0.2663621  )
        56           O   tau(  56) = (   0.0006232   0.1929901   0.8019186  )
        57           O   tau(  57) = (  -0.1687207   0.4808105   0.2688532  )
        58           O   tau(  58) = (  -0.1673518   0.4817160   0.7983338  )
        59           O   tau(  59) = (  -0.3348612   0.7704788   0.2665355  )
        60           O   tau(  60) = (  -0.3338917   0.7716645   0.8005451  )
        61           O   tau(  61) = (   0.3337299   0.1929185   0.2684224  )
        62           O   tau(  62) = (   0.3336867   0.1929426   0.7983205  )
        63           O   tau(  63) = (   0.1659755   0.4815496   0.2677770  )
        64           O   tau(  64) = (   0.1656053   0.4815464   0.7993879  )
        65           O   tau(  65) = (  -0.0017110   0.7702339   0.2682518  )
        66           O   tau(  66) = (  -0.0011568   0.7701968   0.7993943  )
        67           O   tau(  67) = (   0.6659274   0.1902624   0.2679585  )
        68           O   tau(  68) = (   0.6662688   0.1923346   0.7988198  )
        69           O   tau(  69) = (   0.4994846   0.4810492   0.2668514  )
        70           O   tau(  70) = (   0.4998332   0.4813423   0.7985503  )
        71           O   tau(  71) = (   0.3313548   0.7682632   0.2716128  )
        72           O   tau(  72) = (   0.3325375   0.7698409   0.7956660  )

   Crystallographic axes

     site n.     atom                  positions (cryst. coord.)
         1           Zn  tau(   1) = (  0.2236448  0.1114217  0.1941273  )
         2           Zn  tau(   2) = (  0.2227522  0.1117759  0.6940313  )
         3           Zn  tau(   3) = (  0.2221683  0.4452497  0.1938687  )
         4           Zn  tau(   4) = (  0.2220126  0.4436466  0.6936103  )
         5           Zn  tau(   5) = (  0.2218632  0.7770272  0.1936369  )
         6           Zn  tau(   6) = (  0.2220053  0.7781664  0.6935556  )
         7           Zn  tau(   7) = (  0.5540958  0.1098521  0.1935292  )
         8           Mg  tau(   8) = (  0.5550599  0.1102318  0.6963026  )
         9           Zn  tau(   9) = (  0.5553505  0.4447994  0.1936257  )
        10           Mg  tau(  10) = (  0.5553977  0.4453176  0.6962399  )
        11           Mg  tau(  11) = (  0.5550515  0.7785042  0.1954812  )
        12           Zn  tau(  12) = (  0.5527465  0.7764235  0.6932325  )
        13           Zn  tau(  13) = (  0.8848797  0.1065984  0.1943803  )
        14           Zn  tau(  14) = (  0.8913338  0.1138780  0.6946686  )
        15           Mg  tau(  15) = (  0.8862615  0.4419002  0.1947368  )
        16           Zn  tau(  16) = (  0.8888101  0.4444345  0.6926463  )
        17           Mg  tau(  17) = (  0.8868512  0.7782047  0.1951862  )
        18           Zn  tau(  18) = (  0.8912828  0.7775104  0.6924861  )
        19           Zn  tau(  19) = (  0.1116348  0.2229262  0.4431477  )
        20           Mg  tau(  20) = (  0.1125454  0.2227936  0.9467811  )
        21           Mg  tau(  21) = (  0.1125985  0.5562803  0.4443256  )
        22           Mg  tau(  22) = (  0.1121151  0.5559338  0.9434808  )
        23           Zn  tau(  23) = (  0.1128939  0.8897788  0.4430129  )
        24           Mg  tau(  24) = (  0.1126175  0.8897889  0.9450826  )
        25           Zn  tau(  25) = (  0.4460203  0.2232808  0.4442761  )
        26           Zn  tau(  26) = (  0.4434481  0.2220017  0.9438735  )
        27           Zn  tau(  27) = (  0.4442544  0.5538787  0.4439001  )
        28           Zn  tau(  28) = (  0.4438041  0.5567783  0.9447411  )
        29           Zn  tau(  29) = (  0.4439147  0.8906319  0.4441742  )
        30           Zn  tau(  30) = (  0.4438417  0.8868954  0.9446035  )
        31           Zn  tau(  31) = (  0.7766777  0.2212744  0.4442551  )
        32           Zn  tau(  32) = (  0.7793102  0.2234278  0.9445102  )
        33           Zn  tau(  33) = (  0.7764155  0.5545693  0.4430224  )
        34           Zn  tau(  34) = (  0.7804556  0.5570342  0.9442337  )
        35           Mg  tau(  35) = (  0.7784069  0.8905023  0.4466011  )
        36           Zn  tau(  36) = (  0.7771594  0.8874001  0.9419267  )
        37           O   tau(  37) = (  0.2221052  0.1108792  0.0028209  )
        38           O   tau(  38) = (  0.2225039  0.1116581  0.5022256  )
        39           O   tau(  39) = (  0.2214691  0.4446235  0.0023717  )
        40           O   tau(  40) = (  0.2221213  0.4442818  0.5023492  )
        41           O   tau(  41) = (  0.2212923  0.7768527  0.0019428  )
        42           O   tau(  42) = (  0.2218580  0.7777404  0.5024222  )
        43           O   tau(  43) = (  0.5554786  0.1108127  0.0013622  )
        44           O   tau(  44) = (  0.5553745  0.1113419  0.5052846  )
        45           O   tau(  45) = (  0.5562511  0.4452505  0.0011710  )
        46           O   tau(  46) = (  0.5556764  0.4446226  0.5051792  )
        47           O   tau(  47) = (  0.5563428  0.7781451  0.0046233  )
        48           O   tau(  48) = (  0.5546972  0.7776623  0.5010755  )
        49           O   tau(  49) = (  0.8887925  0.1100315  0.0022804  )
        50           O   tau(  50) = (  0.8897396  0.1123295  0.5031914  )
        51           O   tau(  51) = (  0.8905506  0.4451640  0.0040095  )
        52           O   tau(  52) = (  0.8893406  0.4446611  0.5005107  )
        53           O   tau(  53) = (  0.8902008  0.7790839  0.0040013  )
        54           O   tau(  54) = (  0.8893229  0.7779871  0.5006455  )
        55           O   tau(  55) = (  0.1100036  0.2214582  0.2509363  )
        56           O   tau(  56) = (  0.1123321  0.2225668  0.7555151  )
        57           O   tau(  57) = (  0.1091432  0.5544729  0.2532163  )
        58           O   tau(  58) = (  0.1111374  0.5554567  0.7520706  )
        59           O   tau(  59) = (  0.1103292  0.8884524  0.2509660  )
        60           O   tau(  60) = (  0.1120865  0.8897582  0.7540872  )
        61           O   tau(  61) = (  0.4455211  0.2229967  0.2529555  )
        62           O   tau(  62) = (  0.4455928  0.2229616  0.7522029  )
        63           O   tau(  63) = (  0.4444928  0.5557772  0.2522804  )
        64           O   tau(  64) = (  0.4442219  0.5557098  0.7531415  )
        65           O   tau(  65) = (  0.4435635  0.8886188  0.2526608  )
        66           O   tau(  66) = (  0.4441979  0.8885137  0.7530808  )
        67           O   tau(  67) = (  0.7764077  0.2203802  0.2525963  )
        68           O   tau(  68) = (  0.7780484  0.2227085  0.7527511  )
        69           O   tau(  69) = (  0.7779380  0.5556495  0.2514863  )
        70           O   tau(  70) = (  0.7785577  0.5559251  0.7524304  )
        71           O   tau(  71) = (  0.7757160  0.8867938  0.2559054  )
        72           O   tau(  72) = (  0.7779114  0.8885535  0.7496461  )

     number of k points=    80
                       cart. coord. in units 2pi/alat
        k(    1) = (   0.0000000   0.0000000   0.0000000), wk =   0.0156250
        k(    2) = (   0.0000334  -0.0000138   0.1345939), wk =   0.0156250
        k(    3) = (   0.0000667  -0.0000275   0.2691878), wk =   0.0156250
        k(    4) = (   0.0001001  -0.0000413   0.4037817), wk =   0.0156250
        k(    5) = (   0.0001334  -0.0000550   0.5383757), wk =   0.0156250
        k(    6) = (   0.0001668  -0.0000688   0.6729696), wk =   0.0156250
        k(    7) = (   0.0002002  -0.0000826   0.8075635), wk =   0.0156250
        k(    8) = (   0.0002335  -0.0000963   0.9421574), wk =   0.0156250
        k(    9) = (   0.0003371   0.2884361  -0.0000297), wk =   0.0312500
        k(   10) = (   0.0003705   0.2884223   0.1345642), wk =   0.0312500
        k(   11) = (   0.0004038   0.2884085   0.2691582), wk =   0.0312500
        k(   12) = (   0.0004372   0.2883948   0.4037521), wk =   0.0312500
        k(   13) = (   0.0004706   0.2883810   0.5383460), wk =   0.0312500
        k(   14) = (   0.0005039   0.2883673   0.6729399), wk =   0.0312500
        k(   15) = (   0.0005373   0.2883535   0.8075338), wk =   0.0312500
        k(   16) = (   0.0005706   0.2883397   0.9421277), wk =   0.0312500
        k(   17) = (  -0.0006742  -0.5768721   0.0000594), wk =   0.0156250
        k(   18) = (  -0.0006409  -0.5768859   0.1346533), wk =   0.0156250
        k(   19) = (  -0.0006075  -0.5768996   0.2692472), wk =   0.0156250
        k(   20) = (  -0.0005741  -0.5769134   0.4038411), wk =   0.0156250
        k(   21) = (  -0.0005408  -0.5769272   0.5384350), wk =   0.0156250
        k(   22) = (  -0.0005074  -0.5769409   0.6730289), wk =   0.0156250
        k(   23) = (  -0.0004740  -0.5769547   0.8076228), wk =   0.0156250
        k(   24) = (  -0.0004407  -0.5769685   0.9422168), wk =   0.0156250
        k(   25) = (   0.2501691   0.1445095   0.0000477), wk =   0.0312500
        k(   26) = (   0.2502024   0.1444957   0.1346416), wk =   0.0312500
        k(   27) = (   0.2502358   0.1444820   0.2692355), wk =   0.0312500
        k(   28) = (   0.2502692   0.1444682   0.4038294), wk =   0.0312500
        k(   29) = (   0.2503025   0.1444545   0.5384233), wk =   0.0312500
        k(   30) = (   0.2503359   0.1444407   0.6730173), wk =   0.0312500
        k(   31) = (   0.2503693   0.1444269   0.8076112), wk =   0.0312500
        k(   32) = (   0.2504026   0.1444132   0.9422051), wk =   0.0312500
        k(   33) = (   0.2505062   0.4329456   0.0000180), wk =   0.0312500
        k(   34) = (   0.2505396   0.4329318   0.1346119), wk =   0.0312500
        k(   35) = (   0.2505729   0.4329180   0.2692058), wk =   0.0312500
        k(   36) = (   0.2506063   0.4329043   0.4037997), wk =   0.0312500
        k(   37) = (   0.2506396   0.4328905   0.5383937), wk =   0.0312500
        k(   38) = (   0.2506730   0.4328768   0.6729876), wk =   0.0312500
        k(   39) = (   0.2507064   0.4328630   0.8075815), wk =   0.0312500
        k(   40) = (   0.2507397   0.4328492   0.9421754), wk =   0.0312500
        k(   41) = (   0.2494949  -0.4323626   0.0001070), wk =   0.0312500
        k(   42) = (   0.2495282  -0.4323764   0.1347009), wk =   0.0312500
        k(   43) = (   0.2495616  -0.4323901   0.2692949), wk =   0.0312500
        k(   44) = (   0.2495950  -0.4324039   0.4038888), wk =   0.0312500
        k(   45) = (   0.2496283  -0.4324177   0.5384827), wk =   0.0312500
        k(   46) = (   0.2496617  -0.4324314   0.6730766), wk =   0.0312500
        k(   47) = (   0.2496950  -0.4324452   0.8076705), wk =   0.0312500
        k(   48) = (   0.2497284  -0.4324590   0.9422644), wk =   0.0312500
        k(   49) = (   0.2498320  -0.1439266   0.0000774), wk =   0.0312500
        k(   50) = (   0.2498653  -0.1439403   0.1346713), wk =   0.0312500
        k(   51) = (   0.2498987  -0.1439541   0.2692652), wk =   0.0312500
        k(   52) = (   0.2499321  -0.1439678   0.4038591), wk =   0.0312500
        k(   53) = (   0.2499654  -0.1439816   0.5384530), wk =   0.0312500
        k(   54) = (   0.2499988  -0.1439954   0.6730469), wk =   0.0312500
        k(   55) = (   0.2500321  -0.1440091   0.8076408), wk =   0.0312500
        k(   56) = (   0.2500655  -0.1440229   0.9422348), wk =   0.0312500
        k(   57) = (  -0.5003382  -0.2890190  -0.0000954), wk =   0.0156250
        k(   58) = (  -0.5003048  -0.2890328   0.1344986), wk =   0.0156250
        k(   59) = (  -0.5002715  -0.2890465   0.2690925), wk =   0.0156250
        k(   60) = (  -0.5002381  -0.2890603   0.4036864), wk =   0.0156250
        k(   61) = (  -0.5002047  -0.2890740   0.5382803), wk =   0.0156250
        k(   62) = (  -0.5001714  -0.2890878   0.6728742), wk =   0.0156250
        k(   63) = (  -0.5001380  -0.2891016   0.8074681), wk =   0.0156250
        k(   64) = (  -0.5001046  -0.2891153   0.9420621), wk =   0.0156250
        k(   65) = (  -0.5000011  -0.0005829  -0.0001250), wk =   0.0312500
        k(   66) = (  -0.4999677  -0.0005967   0.1344689), wk =   0.0312500
        k(   67) = (  -0.4999343  -0.0006105   0.2690628), wk =   0.0312500
        k(   68) = (  -0.4999010  -0.0006242   0.4036567), wk =   0.0312500
        k(   69) = (  -0.4998676  -0.0006380   0.5382506), wk =   0.0312500
        k(   70) = (  -0.4998343  -0.0006517   0.6728446), wk =   0.0312500
        k(   71) = (  -0.4998009  -0.0006655   0.8074385), wk =   0.0312500
        k(   72) = (  -0.4997675  -0.0006793   0.9420324), wk =   0.0312500
        k(   73) = (  -0.5010124  -0.8658911  -0.0000360), wk =   0.0156250
        k(   74) = (  -0.5009790  -0.8659049   0.1345579), wk =   0.0156250
        k(   75) = (  -0.5009457  -0.8659187   0.2691518), wk =   0.0156250
        k(   76) = (  -0.5009123  -0.8659324   0.4037457), wk =   0.0156250
        k(   77) = (  -0.5008789  -0.8659462   0.5383397), wk =   0.0156250
        k(   78) = (  -0.5008456  -0.8659599   0.6729336), wk =   0.0156250
        k(   79) = (  -0.5008122  -0.8659737   0.8075275), wk =   0.0156250
        k(   80) = (  -0.5007789  -0.8659875   0.9421214), wk =   0.0156250

                       cryst. coord.
        k(    1) = (   0.0000000   0.0000000   0.0000000), wk =   0.0156250
        k(    2) = (  -0.0000000   0.0000000   0.1428571), wk =   0.0156250
        k(    3) = (  -0.0000000   0.0000000   0.2857143), wk =   0.0156250
        k(    4) = (  -0.0000000   0.0000000   0.4285714), wk =   0.0156250
        k(    5) = (  -0.0000000   0.0000000   0.5714286), wk =   0.0156250
        k(    6) = (  -0.0000000   0.0000000   0.7142857), wk =   0.0156250
        k(    7) = (  -0.0000000   0.0000000   0.8571429), wk =   0.0156250
        k(    8) = (  -0.0000000   0.0000000   1.0000000), wk =   0.0156250
        k(    9) = (   0.0000000   0.2500000  -0.0000000), wk =   0.0312500
        k(   10) = (   0.0000000   0.2500000   0.1428571), wk =   0.0312500
        k(   11) = (   0.0000000   0.2500000   0.2857143), wk =   0.0312500
        k(   12) = (   0.0000000   0.2500000   0.4285714), wk =   0.0312500
        k(   13) = (   0.0000000   0.2500000   0.5714286), wk =   0.0312500
        k(   14) = (   0.0000000   0.2500000   0.7142857), wk =   0.0312500
        k(   15) = (   0.0000000   0.2500000   0.8571429), wk =   0.0312500
        k(   16) = (   0.0000000   0.2500000   1.0000000), wk =   0.0312500
        k(   17) = (  -0.0000000  -0.5000000   0.0000000), wk =   0.0156250
        k(   18) = (  -0.0000000  -0.5000000   0.1428571), wk =   0.0156250
        k(   19) = (  -0.0000000  -0.5000000   0.2857143), wk =   0.0156250
        k(   20) = (  -0.0000000  -0.5000000   0.4285714), wk =   0.0156250
        k(   21) = (  -0.0000000  -0.5000000   0.5714286), wk =   0.0156250
        k(   22) = (  -0.0000000  -0.5000000   0.7142857), wk =   0.0156250
        k(   23) = (  -0.0000000  -0.5000000   0.8571429), wk =   0.0156250
        k(   24) = (  -0.0000000  -0.5000000   1.0000000), wk =   0.0156250
        k(   25) = (   0.2500000  -0.0000000  -0.0000000), wk =   0.0312500
        k(   26) = (   0.2500000   0.0000000   0.1428571), wk =   0.0312500
        k(   27) = (   0.2500000   0.0000000   0.2857143), wk =   0.0312500
        k(   28) = (   0.2500000   0.0000000   0.4285714), wk =   0.0312500
        k(   29) = (   0.2500000  -0.0000000   0.5714286), wk =   0.0312500
        k(   30) = (   0.2500000   0.0000000   0.7142857), wk =   0.0312500
        k(   31) = (   0.2500000  -0.0000000   0.8571429), wk =   0.0312500
        k(   32) = (   0.2500000   0.0000000   1.0000000), wk =   0.0312500
        k(   33) = (   0.2500000   0.2500000  -0.0000000), wk =   0.0312500
        k(   34) = (   0.2500000   0.2500000   0.1428571), wk =   0.0312500
        k(   35) = (   0.2500000   0.2500000   0.2857143), wk =   0.0312500
        k(   36) = (   0.2500000   0.2500000   0.4285714), wk =   0.0312500
        k(   37) = (   0.2500000   0.2500000   0.5714286), wk =   0.0312500
        k(   38) = (   0.2500000   0.2500000   0.7142857), wk =   0.0312500
        k(   39) = (   0.2500000   0.2500000   0.8571429), wk =   0.0312500
        k(   40) = (   0.2500000   0.2500000   1.0000000), wk =   0.0312500
        k(   41) = (   0.2500000  -0.5000000   0.0000000), wk =   0.0312500
        k(   42) = (   0.2500000  -0.5000000   0.1428571), wk =   0.0312500
        k(   43) = (   0.2500000  -0.5000000   0.2857143), wk =   0.0312500
        k(   44) = (   0.2500000  -0.5000000   0.4285714), wk =   0.0312500
        k(   45) = (   0.2500000  -0.5000000   0.5714286), wk =   0.0312500
        k(   46) = (   0.2500000  -0.5000000   0.7142857), wk =   0.0312500
        k(   47) = (   0.2500000  -0.5000000   0.8571429), wk =   0.0312500
        k(   48) = (   0.2500000  -0.5000000   1.0000000), wk =   0.0312500
        k(   49) = (   0.2500000  -0.2500000  -0.0000000), wk =   0.0312500
        k(   50) = (   0.2500000  -0.2500000   0.1428571), wk =   0.0312500
        k(   51) = (   0.2500000  -0.2500000   0.2857143), wk =   0.0312500
        k(   52) = (   0.2500000  -0.2500000   0.4285714), wk =   0.0312500
        k(   53) = (   0.2500000  -0.2500000   0.5714286), wk =   0.0312500
        k(   54) = (   0.2500000  -0.2500000   0.7142857), wk =   0.0312500
        k(   55) = (   0.2500000  -0.2500000   0.8571429), wk =   0.0312500
        k(   56) = (   0.2500000  -0.2500000   1.0000000), wk =   0.0312500
        k(   57) = (  -0.5000000   0.0000000   0.0000000), wk =   0.0156250
        k(   58) = (  -0.5000000  -0.0000000   0.1428571), wk =   0.0156250
        k(   59) = (  -0.5000000  -0.0000000   0.2857143), wk =   0.0156250
        k(   60) = (  -0.5000000  -0.0000000   0.4285714), wk =   0.0156250
        k(   61) = (  -0.5000000  -0.0000000   0.5714286), wk =   0.0156250
        k(   62) = (  -0.5000000  -0.0000000   0.7142857), wk =   0.0156250
        k(   63) = (  -0.5000000   0.0000000   0.8571429), wk =   0.0156250
        k(   64) = (  -0.5000000  -0.0000000   1.0000000), wk =   0.0156250
        k(   65) = (  -0.5000000   0.2500000  -0.0000000), wk =   0.0312500
        k(   66) = (  -0.5000000   0.2500000   0.1428571), wk =   0.0312500
        k(   67) = (  -0.5000000   0.2500000   0.2857143), wk =   0.0312500
        k(   68) = (  -0.5000000   0.2500000   0.4285714), wk =   0.0312500
        k(   69) = (  -0.5000000   0.2500000   0.5714286), wk =   0.0312500
        k(   70) = (  -0.5000000   0.2500000   0.7142857), wk =   0.0312500
        k(   71) = (  -0.5000000   0.2500000   0.8571429), wk =   0.0312500
        k(   72) = (  -0.5000000   0.2500000   1.0000000), wk =   0.0312500
        k(   73) = (  -0.5000000  -0.5000000   0.0000000), wk =   0.0156250
        k(   74) = (  -0.5000000  -0.5000000   0.1428571), wk =   0.0156250
        k(   75) = (  -0.5000000  -0.5000000   0.2857143), wk =   0.0156250
        k(   76) = (  -0.5000000  -0.5000000   0.4285714), wk =   0.0156250
        k(   77) = (  -0.5000000  -0.5000000   0.5714286), wk =   0.0156250
        k(   78) = (  -0.5000000  -0.5000000   0.7142857), wk =   0.0156250
        k(   79) = (  -0.5000000  -0.5000000   0.8571429), wk =   0.0156250
        k(   80) = (  -0.5000000  -0.5000000   1.0000000), wk =   0.0156250

     Dense  grid:  1081587 G-vectors     FFT dimensions: ( 135, 135, 144)

     Smooth grid:   359645 G-vectors     FFT dimensions: (  96,  96, 100)

     Dynamical RAM for                 wfc:       2.24 MB

     Dynamical RAM for     wfc (w. buffer):     181.34 MB

     Dynamical RAM for           str. fact:       0.39 MB

     Dynamical RAM for           local pot:       0.00 MB

     Dynamical RAM for          nlocal pot:       6.03 MB

     Dynamical RAM for                qrad:      20.99 MB

     Dynamical RAM for          rho,v,vnew:       1.22 MB

     Dynamical RAM for           G-vectors:       0.51 MB

     Dynamical RAM for          h,s,v(r/c):       2.00 MB

     Dynamical RAM for          <psi|beta>:       7.18 MB

     Dynamical RAM for                 psi:       8.95 MB

     Dynamical RAM for                hpsi:       8.95 MB

     Dynamical RAM for                spsi:       8.95 MB

     Dynamical RAM for      wfcinit/wfcrot:      12.18 MB

     Dynamical RAM for           addusdens:      31.08 MB

     Estimated static dynamical RAM per process >     212.38 MB

     Estimated max dynamical RAM per process >     248.42 MB

     Estimated total dynamical RAM >      31.05 GB

     Check: negative core charge=   -0.000002

     The potential is recalculated from file :
     ./temp/ZnO.save/charge-density

     Starting wfcs are  532 randomized atomic wfcs

     Band Structure Calculation
     Davidson diagonalization with overlap

     Computing kpt #:     1
     total cpu time spent up to now is       21.1 secs

     Computing kpt #:     2
     total cpu time spent up to now is       35.7 secs

     Computing kpt #:     3
     total cpu time spent up to now is       50.0 secs

     Computing kpt #:     4
     total cpu time spent up to now is       64.4 secs

     Computing kpt #:     5
     total cpu time spent up to now is       78.6 secs

     Computing kpt #:     6
     total cpu time spent up to now is       93.0 secs

     Computing kpt #:     7
     total cpu time spent up to now is      107.5 secs

     Computing kpt #:     8
     total cpu time spent up to now is      121.8 secs

     Computing kpt #:     9
     total cpu time spent up to now is      136.1 secs

     Computing kpt #:    10
     total cpu time spent up to now is      150.5 secs

     Computing kpt #:    11
     total cpu time spent up to now is      164.7 secs

     Computing kpt #:    12
     total cpu time spent up to now is      179.0 secs

     Computing kpt #:    13
     total cpu time spent up to now is      193.3 secs

     Computing kpt #:    14
     total cpu time spent up to now is      207.5 secs

     Computing kpt #:    15
     total cpu time spent up to now is      221.9 secs

     Computing kpt #:    16
     total cpu time spent up to now is      236.3 secs

     Computing kpt #:    17
     total cpu time spent up to now is      250.6 secs

     Computing kpt #:    18
     total cpu time spent up to now is      264.8 secs

     Computing kpt #:    19
     total cpu time spent up to now is      279.0 secs

     Computing kpt #:    20
     total cpu time spent up to now is      293.2 secs

     Computing kpt #:    21
     total cpu time spent up to now is      307.5 secs

     Computing kpt #:    22
     total cpu time spent up to now is      321.7 secs

     Computing kpt #:    23
     total cpu time spent up to now is      336.0 secs

     Computing kpt #:    24
     total cpu time spent up to now is      350.2 secs

     Computing kpt #:    25
     total cpu time spent up to now is      364.6 secs

     Computing kpt #:    26
     total cpu time spent up to now is      378.9 secs

     Computing kpt #:    27
     total cpu time spent up to now is      393.3 secs

     Computing kpt #:    28
     total cpu time spent up to now is      407.5 secs

     Computing kpt #:    29
     total cpu time spent up to now is      421.8 secs

     Computing kpt #:    30
     total cpu time spent up to now is      436.1 secs

     Computing kpt #:    31
     total cpu time spent up to now is      450.5 secs

     Computing kpt #:    32
     total cpu time spent up to now is      464.9 secs

     Computing kpt #:    33
     total cpu time spent up to now is      479.2 secs

     Computing kpt #:    34
     total cpu time spent up to now is      493.4 secs

     Computing kpt #:    35
     total cpu time spent up to now is      507.7 secs

     Computing kpt #:    36
     total cpu time spent up to now is      521.9 secs

     Computing kpt #:    37
     total cpu time spent up to now is      536.1 secs

     Computing kpt #:    38
     total cpu time spent up to now is      550.4 secs

     Computing kpt #:    39
     total cpu time spent up to now is      564.7 secs

     Computing kpt #:    40
     total cpu time spent up to now is      579.0 secs

     Computing kpt #:    41
     total cpu time spent up to now is      593.3 secs

     Computing kpt #:    42
     total cpu time spent up to now is      607.7 secs

     Computing kpt #:    43
     total cpu time spent up to now is      621.9 secs

     Computing kpt #:    44
     total cpu time spent up to now is      636.2 secs

     Computing kpt #:    45
     total cpu time spent up to now is      650.3 secs

     Computing kpt #:    46
     total cpu time spent up to now is      664.7 secs

     Computing kpt #:    47
     total cpu time spent up to now is      678.9 secs

     Computing kpt #:    48
     total cpu time spent up to now is      693.3 secs

     Computing kpt #:    49
     total cpu time spent up to now is      707.7 secs

     Computing kpt #:    50
     total cpu time spent up to now is      722.2 secs

     Computing kpt #:    51
     total cpu time spent up to now is      736.4 secs

     Computing kpt #:    52
     total cpu time spent up to now is      750.8 secs

     Computing kpt #:    53
     total cpu time spent up to now is      765.1 secs

     Computing kpt #:    54
     total cpu time spent up to now is      779.4 secs

     Computing kpt #:    55
     total cpu time spent up to now is      793.8 secs

     Computing kpt #:    56
     total cpu time spent up to now is      808.3 secs

     Computing kpt #:    57
     total cpu time spent up to now is      822.7 secs

     Computing kpt #:    58
     total cpu time spent up to now is      837.0 secs

     Computing kpt #:    59
     total cpu time spent up to now is      851.3 secs

     Computing kpt #:    60
     total cpu time spent up to now is      865.6 secs

     Computing kpt #:    61
     total cpu time spent up to now is      879.8 secs

     Computing kpt #:    62
     total cpu time spent up to now is      894.0 secs

     Computing kpt #:    63
     total cpu time spent up to now is      908.3 secs

     Computing kpt #:    64
     total cpu time spent up to now is      922.6 secs

     Computing kpt #:    65
     total cpu time spent up to now is      936.9 secs

     Computing kpt #:    66
     total cpu time spent up to now is      951.1 secs

     Computing kpt #:    67
     total cpu time spent up to now is      965.5 secs

     Computing kpt #:    68
     total cpu time spent up to now is      979.7 secs

     Computing kpt #:    69
     total cpu time spent up to now is      994.0 secs

     Computing kpt #:    70
     total cpu time spent up to now is     1008.2 secs

     Computing kpt #:    71
     total cpu time spent up to now is     1022.5 secs

     Computing kpt #:    72
     total cpu time spent up to now is     1036.7 secs

     Computing kpt #:    73
     total cpu time spent up to now is     1051.0 secs

     Computing kpt #:    74
     total cpu time spent up to now is     1065.4 secs

     Computing kpt #:    75
     total cpu time spent up to now is     1079.7 secs

     Computing kpt #:    76
     total cpu time spent up to now is     1093.9 secs

     Computing kpt #:    77
     total cpu time spent up to now is     1108.2 secs

     Computing kpt #:    78
     total cpu time spent up to now is     1122.4 secs

     Computing kpt #:    79
     total cpu time spent up to now is     1136.7 secs

     Computing kpt #:    80
     total cpu time spent up to now is     1151.1 secs

     ethr =  1.20E-12,  avg # of iterations = 12.4

     total cpu time spent up to now is     1151.1 secs

     End of band structure calculation

          k = 0.0000 0.0000 0.0000 ( 44881 PWs)   bands (ev):

  -115.1453-115.1438-115.1427-115.1423-115.1421-115.1416-115.1406-115.1399
  -115.1398-115.1390-115.1381-115.1379-115.1376-115.1373-115.1367-115.1364
  -115.1361-115.1355-115.1344-115.1341-115.1327-115.1319-115.1297-115.1285
  -115.1273-115.1245 -69.5053 -69.5050 -69.5038 -69.5036 -69.5031 -69.5021
   -69.5020 -69.5015 -69.5015 -69.5012 -69.5008 -69.5004 -69.5004 -69.5002
   -69.5001 -69.4998 -69.4996 -69.4995 -69.4994 -69.4990 -69.4983 -69.4976
   -69.4972 -69.4971 -69.4967 -69.4966 -69.4964 -69.4963 -69.4961 -69.4957
   -69.4957 -69.4955 -69.4953 -69.4944 -69.4942 -69.4942 -69.4941 -69.4939
   -69.4938 -69.4935 -69.4933 -69.4932 -69.4931 -69.4930 -69.4928 -69.4924
   -69.4923 -69.4923 -69.4918 -69.4914 -69.4913 -69.4913 -69.4910 -69.4907
   -69.4903 -69.4901 -69.4898 -69.4897 -69.4895 -69.4894 -69.4888 -69.4886
   -69.4881 -69.4879 -69.4877 -69.4872 -69.4870 -69.4869 -69.4868 -69.4862
   -69.4847 -69.4830 -69.4825 -69.4821 -69.4818 -69.4803 -69.4801 -69.4772
   -64.6124 -64.5899 -64.5879 -64.5871 -64.5784 -64.5779 -64.5774 -64.5700
   -64.5675 -64.5614 -31.6039 -31.5993 -31.5966 -31.5826 -31.5808 -31.5806
   -31.5795 -31.5769 -31.5746 -31.5743 -31.5737 -31.5730 -31.5699 -31.5678
   -31.5673 -31.5667 -31.5643 -31.5641 -31.5634 -31.5630 -31.5620 -31.5615
   -31.5613 -31.5595 -31.5541 -31.5533 -31.5498 -31.5466 -31.5456 -31.5421
    -9.8859  -9.5470  -9.5334  -9.4235  -9.4150  -9.3988  -9.3775  -9.3551
    -9.3478  -9.2549  -9.2243  -9.2089  -9.1903  -9.1657  -9.1608  -9.1550
    -9.1326  -9.1241  -9.0983  -9.0942  -9.0693  -9.0346  -9.0065  -9.0030
    -8.9977  -8.9922  -8.9827  -8.9495  -8.9358  -8.8969  -8.8730  -8.8511
    -8.8276  -8.8172  -8.8078  -8.7030   1.9537   1.9574   1.9720   1.9774
     2.0023   2.0138   2.0213   2.0330   2.0469   2.0637   2.0724   2.0989
     2.1213   2.1318   2.1625   2.1676   2.1948   2.2285   2.2379   2.2608
     2.3096   2.3332   2.3431   2.3549   2.3734   2.3876   2.3972   2.4127
     2.4272   2.4427   2.4527   2.4639   2.4725   2.4772   2.4850   2.5022
     2.5165   2.5218   2.5264   2.5380   2.5478   2.5517   2.5663   2.5737
     2.5896   2.5922   2.6065   2.6086   2.6298   2.6460   2.6548   2.6594
     2.6727   2.6769   2.6789   2.6980   2.7003   2.7116   2.7149   2.7288
     2.7410   2.7689   2.8263   2.8291   2.8441   2.8466   2.8648   2.8725
     2.8847   2.9003   2.9221   2.9426   2.9619   2.9979   3.0097   3.0217
     3.0335   3.0544   3.0691   3.0863   3.0988   3.1364   3.1466   3.1841
     3.1921   3.2048   3.2144   3.2317   3.2416   3.2632   3.2745   3.2874
     3.3040   3.3204   3.3317   3.3620   3.3722   3.3914   3.4098   3.4254
     3.4316   3.4371   3.4595   3.4660   3.4834   3.4890   3.4934   3.5034
     3.5137   3.5191   3.5228   3.5313   3.5336   3.5439   3.5473   3.5653
     3.5719   3.5770   3.5883   3.5983   3.6008   3.6164   3.6223   3.6341
     3.6346   3.6511   3.6865   3.7082   3.7261   3.7451   3.7531   3.8937
     3.9141   3.9494   3.9807   4.0097   4.0195   4.0718   4.1038   4.1318
     4.1463   4.1590   4.1815   4.2166   4.2726   4.2933   4.3050   4.3683
     4.4081   4.4188   4.4850   4.5182   4.5553   4.5752   4.6083   4.6678
     4.7053   4.7142   4.7774   4.8337   4.8709   4.8923   4.9149   4.9618
     5.0448   5.0941   5.1203   5.1327   5.1884   5.2959   5.4304   5.4540
     5.4715   5.4846   5.5992   5.6782   5.7350   5.7742   5.8538   5.8671
     5.8927   5.9243   5.9672   5.9763   5.9978   6.0480   6.0650   6.0823
     6.0980   6.1529   6.2046   6.2509   6.2649   6.3296   6.3548   6.3771
     6.4098   6.4276   6.4790   6.4991   6.5296   6.5510   6.5531   6.5661
     6.5816   6.6077   6.6119   6.6189   6.6512   6.6649   6.6893   6.7015
     6.7122   6.7325   6.7520   6.7655   6.7692   6.8752   6.9260   6.9777
     7.0028   7.0253   7.0266   7.0344   7.0515   7.0597   7.0944   7.1585
     7.1771   7.2057   7.2660   7.3414   7.3968   7.4114   7.4356   7.6655
     7.6834   7.6995

     occupation numbers 
     1.0000   1.0000   1.0000   1.0000   1.0000   1.0000   1.0000   1.0000
     1.0000   1.0000   1.0000   1.0000   1.0000   1.0000   1.0000   1.0000
     1.0000   1.0000   1.0000   1.0000   1.0000   1.0000   1.0000   1.0000
     1.0000   1.0000   1.0000   1.0000   1.0000   1.0000   1.0000   1.0000
     1.0000   1.0000   1.0000   1.0000   1.0000   1.0000   1.0000   1.0000
     1.0000   1.0000   1.0000   1.0000   1.0000   1.0000   1.0000   1.0000
     1.0000   1.0000   1.0000   1.0000   1.0000   1.0000   1.0000   1.0000
     1.0000   1.0000   1.0000   1.0000   1.0000   1.0000   1.0000   1.0000
     1.0000   1.0000   1.0000   1.0000   1.0000   1.0000   1.0000   1.0000
     1.0000   1.0000   1.0000   1.0000   1.0000   1.0000   1.0000   1.0000
     1.0000   1.0000   1.0000   1.0000   1.0000   1.0000   1.0000   1.0000
     1.0000   1.0000   1.0000   1.0000   1.0000   1.0000   1.0000   1.0000
     1.0000   1.0000   1.0000   1.0000   1.0000   1.0000   1.0000   1.0000
     1.0000   1.0000   1.0000   1.0000   1.0000   1.0000   1.0000   1.0000
     1.0000   1.0000   1.0000   1.0000   1.0000   1.0000   1.0000   1.0000
     1.0000   1.0000   1.0000   1.0000   1.0000   1.0000   1.0000   1.0000
     1.0000   1.0000   1.0000   1.0000   1.0000   1.0000   1.0000   1.0000
     1.0000   1.0000   1.0000   1.0000   1.0000   1.0000   1.0000   1.0000
     1.0000   1.0000   1.0000   1.0000   1.0000   1.0000   1.0000   1.0000
     1.0000   1.0000   1.0000   1.0000   1.0000   1.0000   1.0000   1.0000
     1.0000   1.0000   1.0000   1.0000   1.0000   1.0000   1.0000   1.0000
     1.0000   1.0000   1.0000   1.0000   1.0000   1.0000   1.0000   1.0000
     1.0000   1.0000   1.0000   1.0000   1.0000   1.0000   1.0000   1.0000
     1.0000   1.0000   1.0000   1.0000   1.0000   1.0000   1.0000   1.0000
     1.0000   1.0000   1.0000   1.0000   1.0000   1.0000   1.0000   1.0000
     1.0000   1.0000   1.0000   1.0000   1.0000   1.0000   1.0000   1.0000
     1.0000   1.0000   1.0000   1.0000   1.0000   1.0000   1.0000   1.0000
     1.0000   1.0000   1.0000   1.0000   1.0000   1.0000   1.0000   1.0000
     1.0000   1.0000   1.0000   1.0000   1.0000   1.0000   1.0000   1.0000
     1.0000   1.0000   1.0000   1.0000   1.0000   1.0000   1.0000   1.0000
     1.0000   1.0000   1.0000   1.0000   1.0000   1.0000   1.0000   1.0000
     1.0000   1.0000   1.0000   1.0000   1.0000   1.0000   1.0000   1.0000
     1.0000   1.0000   1.0000   1.0000   1.0000   1.0000   1.0000   1.0000
     1.0000   1.0000   1.0000   1.0000   1.0000   1.0000   1.0000   1.0000
     1.0000   1.0000   1.0000   1.0000   1.0000   1.0000   1.0000   1.0000
     1.0000   1.0000   1.0000   1.0000   1.0000   1.0000   1.0000   1.0000
     1.0000   1.0000   1.0000   1.0000   1.0000   1.0000   1.0000   1.0000
     1.0000   1.0000   1.0000   1.0000   1.0000   1.0000   1.0000   1.0000
     1.0000   1.0000   1.0000   1.0000   1.0000   1.0000   1.0000   1.0000
     1.0000   1.0000   1.0000   1.0000   1.0000   1.0000   1.0000   1.0000
     1.0000   1.0000   1.0000   1.0000   1.0000   1.0000   1.0000   1.0000
     1.0000   1.0000   1.0000   1.0000   1.0000   1.0000   1.0000   1.0000
     1.0000   1.0000   1.0000   1.0000   1.0000   1.0000   1.0000   1.0000
     1.0000   1.0000   1.0000   1.0000   1.0000   1.0000   1.0000   1.0000
     1.0000   1.0000   1.0000   1.0000   1.0000   1.0000   1.0000   1.0000
     1.0000   1.0000   1.0000   1.0000   1.0000   1.0000   1.0000   1.0000
     1.0000   1.0000   1.0000   1.0000   1.0000   1.0000   1.0000   1.0000
     1.0000   1.0000   1.0000   1.0000   1.0000   1.0000   1.0000   1.0000
     1.0000   1.0000   1.0000   1.0000   1.0000   1.0000   1.0000   1.0000
     1.0000   1.0000   1.0000   1.0000   1.0000   1.0000   1.0000   1.0000
     1.0000   1.0000   1.0000   1.0000   1.0000   1.0000   1.0000   1.0000
     1.0000   1.0000   1.0000   1.0000   1.0000   1.0000   1.0000   1.0000
     1.0000   1.0000

          k = 0.0000-0.0000 0.1346 ( 44928 PWs)   bands (ev):

  -115.1453-115.1438-115.1427-115.1423-115.1421-115.1416-115.1406-115.1399
  -115.1398-115.1390-115.1381-115.1379-115.1376-115.1373-115.1367-115.1364
  -115.1361-115.1355-115.1344-115.1341-115.1327-115.1319-115.1297-115.1285
  -115.1273-115.1245 -69.5053 -69.5050 -69.5038 -69.5036 -69.5031 -69.5021
   -69.5020 -69.5015 -69.5015 -69.5012 -69.5008 -69.5004 -69.5004 -69.5002
   -69.5001 -69.4998 -69.4996 -69.4995 -69.4994 -69.4990 -69.4983 -69.4976
   -69.4972 -69.4971 -69.4967 -69.4966 -69.4964 -69.4963 -69.4961 -69.4957
   -69.4957 -69.4955 -69.4953 -69.4944 -69.4942 -69.4942 -69.4941 -69.4939
   -69.4938 -69.4935 -69.4933 -69.4932 -69.4931 -69.4930 -69.4928 -69.4924
   -69.4923 -69.4923 -69.4918 -69.4914 -69.4913 -69.4913 -69.4910 -69.4907
   -69.4903 -69.4901 -69.4898 -69.4897 -69.4895 -69.4894 -69.4888 -69.4886
   -69.4881 -69.4879 -69.4877 -69.4872 -69.4870 -69.4869 -69.4868 -69.4862
   -69.4847 -69.4830 -69.4825 -69.4821 -69.4818 -69.4803 -69.4801 -69.4772
   -64.6124 -64.5899 -64.5879 -64.5871 -64.5784 -64.5779 -64.5774 -64.5700
   -64.5675 -64.5614 -31.6039 -31.5993 -31.5966 -31.5826 -31.5808 -31.5806
   -31.5795 -31.5769 -31.5746 -31.5743 -31.5737 -31.5730 -31.5699 -31.5678
   -31.5673 -31.5667 -31.5643 -31.5641 -31.5634 -31.5630 -31.5620 -31.5615
   -31.5613 -31.5595 -31.5541 -31.5533 -31.5498 -31.5466 -31.5456 -31.5421
    -9.8772  -9.6113  -9.4812  -9.4187  -9.4115  -9.3906  -9.3695  -9.3533
    -9.3401  -9.2714  -9.2477  -9.2264  -9.2008  -9.1797  -9.1633  -9.1387
    -9.1260  -9.1194  -9.0935  -9.0755  -9.0567  -9.0341  -9.0069  -9.0018
    -8.9954  -8.9912  -8.9832  -8.9513  -8.9370  -8.8989  -8.8737  -8.8524
    -8.8294  -8.8187  -8.8101  -8.7040   1.9556   1.9639   1.9736   1.9836
     2.0026   2.0193   2.0311   2.0476   2.0519   2.0767   2.0830   2.0995
     2.1189   2.1317   2.1643   2.1697   2.1977   2.2290   2.2493   2.2674
     2.3105   2.3343   2.3433   2.3560   2.3747   2.3901   2.3935   2.4062
     2.4231   2.4381   2.4527   2.4583   2.4668   2.4760   2.4804   2.4975
     2.5072   2.5185   2.5270   2.5337   2.5477   2.5530   2.5651   2.5694
     2.5899   2.6006   2.6073   2.6146   2.6278   2.6457   2.6527   2.6598
     2.6682   2.6772   2.6841   2.6951   2.7002   2.7117   2.7169   2.7251
     2.7358   2.7701   2.8196   2.8246   2.8369   2.8418   2.8580   2.8707
     2.8798   2.8905   2.9130   2.9380   2.9489   2.9752   3.0001   3.0134
     3.0223   3.0445   3.0642   3.0733   3.0885   3.1128   3.1467   3.1611
     3.1837   3.1902   3.2092   3.2295   3.2391   3.2596   3.2718   3.2833
     3.2980   3.3189   3.3362   3.3522   3.3696   3.3834   3.4081   3.4194
     3.4294   3.4418   3.4586   3.4639   3.4779   3.4869   3.4994   3.5128
     3.5163   3.5199   3.5285   3.5364   3.5382   3.5473   3.5558   3.5646
     3.5769   3.5857   3.5908   3.5994   3.6081   3.6135   3.6189   3.6310
     3.6452   3.6605   3.6858   3.7104   3.7302   3.7388   3.7564   3.9150
     3.9518   3.9758   4.0023   4.0274   4.0390   4.0855   4.1158   4.1376
     4.1560   4.1712   4.1858   4.2395   4.2700   4.2970   4.3167   4.3732
     4.4103   4.4277   4.4925   4.5221   4.5526   4.5731   4.6291   4.6524
     4.7187   4.7306   4.7825   4.8273   4.8620   4.8983   4.9069   4.9607
     4.9849   5.0369   5.0731   5.1870   5.2620   5.3185   5.4353   5.4578
     5.4920   5.5077   5.5998   5.6993   5.7409   5.7774   5.8596   5.8875
     5.9074   5.9390   5.9708   5.9847   6.0104   6.0357   6.0611   6.0759
     6.0918   6.1036   6.1371   6.1816   6.2043   6.2357   6.2652   6.3174
     6.3821   6.3979   6.4419   6.4620   6.4808   6.4909   6.5475   6.5758
     6.5965   6.6132   6.6359   6.6464   6.6682   6.7022   6.7351   6.7393
     6.7635   6.7806   6.8016   6.8171   6.8244   6.8956   6.9364   6.9876
     7.0144   7.0335   7.0423   7.0467   7.0529   7.0773   7.0962   7.1544
     7.1694   7.1983   7.2567   7.3091   7.3509   7.4472   7.4794   7.5685
     7.6771   7.6930

     occupation numbers 
     1.0000   1.0000   1.0000   1.0000   1.0000   1.0000   1.0000   1.0000
     1.0000   1.0000   1.0000   1.0000   1.0000   1.0000   1.0000   1.0000
     1.0000   1.0000   1.0000   1.0000   1.0000   1.0000   1.0000   1.0000
     1.0000   1.0000   1.0000   1.0000   1.0000   1.0000   1.0000   1.0000
     1.0000   1.0000   1.0000   1.0000   1.0000   1.0000   1.0000   1.0000
     1.0000   1.0000   1.0000   1.0000   1.0000   1.0000   1.0000   1.0000
     1.0000   1.0000   1.0000   1.0000   1.0000   1.0000   1.0000   1.0000
     1.0000   1.0000   1.0000   1.0000   1.0000   1.0000   1.0000   1.0000
     1.0000   1.0000   1.0000   1.0000   1.0000   1.0000   1.0000   1.0000
     1.0000   1.0000   1.0000   1.0000   1.0000   1.0000   1.0000   1.0000
     1.0000   1.0000   1.0000   1.0000   1.0000   1.0000   1.0000   1.0000
     1.0000   1.0000   1.0000   1.0000   1.0000   1.0000   1.0000   1.0000
     1.0000   1.0000   1.0000   1.0000   1.0000   1.0000   1.0000   1.0000
     1.0000   1.0000   1.0000   1.0000   1.0000   1.0000   1.0000   1.0000
     1.0000   1.0000   1.0000   1.0000   1.0000   1.0000   1.0000   1.0000
     1.0000   1.0000   1.0000   1.0000   1.0000   1.0000   1.0000   1.0000
     1.0000   1.0000   1.0000   1.0000   1.0000   1.0000   1.0000   1.0000
     1.0000   1.0000   1.0000   1.0000   1.0000   1.0000   1.0000   1.0000
     1.0000   1.0000   1.0000   1.0000   1.0000   1.0000   1.0000   1.0000
     1.0000   1.0000   1.0000   1.0000   1.0000   1.0000   1.0000   1.0000
     1.0000   1.0000   1.0000   1.0000   1.0000   1.0000   1.0000   1.0000
     1.0000   1.0000   1.0000   1.0000   1.0000   1.0000   1.0000   1.0000
     1.0000   1.0000   1.0000   1.0000   1.0000   1.0000   1.0000   1.0000
     1.0000   1.0000   1.0000   1.0000   1.0000   1.0000   1.0000   1.0000
     1.0000   1.0000   1.0000   1.0000   1.0000   1.0000   1.0000   1.0000
     1.0000   1.0000   1.0000   1.0000   1.0000   1.0000   1.0000   1.0000
     1.0000   1.0000   1.0000   1.0000   1.0000   1.0000   1.0000   1.0000
     1.0000   1.0000   1.0000   1.0000   1.0000   1.0000   1.0000   1.0000
     1.0000   1.0000   1.0000   1.0000   1.0000   1.0000   1.0000   1.0000
     1.0000   1.0000   1.0000   1.0000   1.0000   1.0000   1.0000   1.0000
     1.0000   1.0000   1.0000   1.0000   1.0000   1.0000   1.0000   1.0000
     1.0000   1.0000   1.0000   1.0000   1.0000   1.0000   1.0000   1.0000
     1.0000   1.0000   1.0000   1.0000   1.0000   1.0000   1.0000   1.0000
     1.0000   1.0000   1.0000   1.0000   1.0000   1.0000   1.0000   1.0000
     1.0000   1.0000   1.0000   1.0000   1.0000   1.0000   1.0000   1.0000
     1.0000   1.0000   1.0000   1.0000   1.0000   1.0000   1.0000   1.0000
     1.0000   1.0000   1.0000   1.0000   1.0000   1.0000   1.0000   1.0000
     1.0000   1.0000   1.0000   1.0000   1.0000   1.0000   1.0000   1.0000
     1.0000   1.0000   1.0000   1.0000   1.0000   1.0000   1.0000   1.0000
     1.0000   1.0000   1.0000   1.0000   1.0000   1.0000   1.0000   1.0000
     1.0000   1.0000   1.0000   1.0000   1.0000   1.0000   1.0000   1.0000
     1.0000   1.0000   1.0000   1.0000   1.0000   1.0000   1.0000   1.0000
     1.0000   1.0000   1.0000   1.0000   1.0000   1.0000   1.0000   1.0000
     1.0000   1.0000   1.0000   1.0000   1.0000   1.0000   1.0000   1.0000
     1.0000   1.0000   1.0000   1.0000   1.0000   1.0000   1.0000   1.0000
     1.0000   1.0000   1.0000   1.0000   1.0000   1.0000   1.0000   1.0000
     1.0000   1.0000   1.0000   1.0000   1.0000   1.0000   1.0000   1.0000
     1.0000   1.0000   1.0000   1.0000   1.0000   1.0000   1.0000   1.0000
     1.0000   1.0000   1.0000   1.0000   1.0000   1.0000   1.0000   1.0000
     1.0000   1.0000   1.0000   1.0000   1.0000   1.0000   1.0000   1.0000
     1.0000   1.0000   1.0000   1.0000   1.0000   1.0000   1.0000   1.0000
     1.0000   1.0000   1.0000   1.0000   1.0000   1.0000   1.0000   1.0000
     1.0000   1.0000

          k = 0.0001-0.0000 0.2692 ( 44971 PWs)   bands (ev):

  -115.1453-115.1438-115.1427-115.1423-115.1421-115.1416-115.1406-115.1399
  -115.1398-115.1390-115.1381-115.1379-115.1376-115.1373-115.1367-115.1364
  -115.1361-115.1355-115.1344-115.1341-115.1327-115.1319-115.1297-115.1285
  -115.1273-115.1245 -69.5053 -69.5050 -69.5038 -69.5036 -69.5031 -69.5021
   -69.5020 -69.5015 -69.5015 -69.5012 -69.5008 -69.5004 -69.5004 -69.5002
   -69.5001 -69.4998 -69.4996 -69.4995 -69.4994 -69.4990 -69.4983 -69.4976
   -69.4972 -69.4971 -69.4967 -69.4966 -69.4964 -69.4963 -69.4961 -69.4957
   -69.4957 -69.4955 -69.4953 -69.4944 -69.4942 -69.4941 -69.4940 -69.4939
   -69.4938 -69.4935 -69.4933 -69.4932 -69.4931 -69.4930 -69.4928 -69.4924
   -69.4923 -69.4923 -69.4918 -69.4914 -69.4913 -69.4913 -69.4910 -69.4907
   -69.4903 -69.4901 -69.4898 -69.4897 -69.4895 -69.4894 -69.4888 -69.4886
   -69.4881 -69.4879 -69.4877 -69.4872 -69.4870 -69.4869 -69.4868 -69.4862
   -69.4847 -69.4830 -69.4825 -69.4821 -69.4818 -69.4803 -69.4801 -69.4772
   -64.6124 -64.5899 -64.5879 -64.5871 -64.5784 -64.5779 -64.5774 -64.5700
   -64.5675 -64.5614 -31.6039 -31.5993 -31.5966 -31.5826 -31.5808 -31.5806
   -31.5795 -31.5769 -31.5746 -31.5743 -31.5737 -31.5730 -31.5699 -31.5678
   -31.5673 -31.5667 -31.5643 -31.5641 -31.5634 -31.5630 -31.5620 -31.5615
   -31.5613 -31.5595 -31.5541 -31.5533 -31.5498 -31.5466 -31.5456 -31.5421
    -9.8515  -9.6829  -9.4410  -9.4067  -9.3991  -9.3752  -9.3523  -9.3481
    -9.3248  -9.2965  -9.2846  -9.2554  -9.2333  -9.2053  -9.1626  -9.1468
    -9.1049  -9.0963  -9.0762  -9.0526  -9.0354  -9.0312  -9.0098  -8.9994
    -8.9926  -8.9859  -8.9807  -8.9601  -8.9370  -8.9044  -8.8748  -8.8551
    -8.8355  -8.8215  -8.8151  -8.7061   1.9606   1.9774   1.9811   2.0003
     2.0076   2.0263   2.0505   2.0675   2.0732   2.0924   2.0992   2.1126
     2.1298   2.1428   2.1686   2.1797   2.2071   2.2407   2.2649   2.2890
     2.3093   2.3290   2.3380   2.3478   2.3734   2.3825   2.3905   2.3979
     2.4146   2.4265   2.4384   2.4445   2.4542   2.4638   2.4798   2.4877
     2.5003   2.5130   2.5201   2.5321   2.5444   2.5622   2.5693   2.5737
     2.5871   2.6045   2.6150   2.6245   2.6258   2.6409   2.6487   2.6570
     2.6683   2.6780   2.6862   2.6907   2.7012   2.7109   2.7152   2.7258
     2.7340   2.7698   2.7977   2.8035   2.8141   2.8267   2.8336   2.8553
     2.8672   2.8721   2.8874   2.9139   2.9225   2.9480   2.9728   2.9849
     3.0137   3.0240   3.0399   3.0546   3.0747   3.0858   3.1258   3.1414
     3.1623   3.1712   3.2049   3.2199   3.2344   3.2535   3.2573   3.2716
     3.2811   3.3026   3.3308   3.3539   3.3644   3.3839   3.4125   3.4280
     3.4346   3.4386   3.4600   3.4685   3.4761   3.4849   3.5038   3.5090
     3.5186   3.5254   3.5309   3.5411   3.5474   3.5540   3.5596   3.5739
     3.5788   3.5881   3.6015   3.6040   3.6156   3.6197   3.6244   3.6440
     3.6568   3.6756   3.6800   3.7015   3.7225   3.7307   3.8311   3.9465
     3.9886   4.0138   4.0426   4.0653   4.0874   4.1121   4.1437   4.1572
     4.1760   4.2025   4.2207   4.2624   4.2792   4.3129   4.3451   4.3781
     4.4125   4.4504   4.4933   4.5181   4.5461   4.5735   4.6115   4.6492
     4.6878   4.7455   4.7767   4.8156   4.8747   4.9280   4.9412   4.9692
     4.9959   5.0292   5.0860   5.1244   5.3641   5.3874   5.4479   5.4867
     5.5382   5.5652   5.5831   5.6810   5.7380   5.7791   5.8165   5.8490
     5.8905   5.8997   5.9140   5.9630   5.9762   6.0150   6.0278   6.0537
     6.0786   6.1049   6.1118   6.1176   6.1518   6.1688   6.1953   6.2809
     6.3157   6.3301   6.3499   6.3817   6.4025   6.4446   6.5068   6.5333
     6.5459   6.5998   6.6708   6.7041   6.7399   6.7626   6.7946   6.8097
     6.8427   6.8654   6.8778   6.8904   6.8989   6.9353   6.9644   7.0083
     7.0167   7.0525   7.0655   7.0765   7.0847   7.1107   7.1170   7.1451
     7.1614   7.1833   7.2322   7.2591   7.2920   7.3579   7.5008   7.5342
     7.6594   7.6745

     occupation numbers 
     1.0000   1.0000   1.0000   1.0000   1.0000   1.0000   1.0000   1.0000
     1.0000   1.0000   1.0000   1.0000   1.0000   1.0000   1.0000   1.0000
     1.0000   1.0000   1.0000   1.0000   1.0000   1.0000   1.0000   1.0000
     1.0000   1.0000   1.0000   1.0000   1.0000   1.0000   1.0000   1.0000
     1.0000   1.0000   1.0000   1.0000   1.0000   1.0000   1.0000   1.0000
     1.0000   1.0000   1.0000   1.0000   1.0000   1.0000   1.0000   1.0000
     1.0000   1.0000   1.0000   1.0000   1.0000   1.0000   1.0000   1.0000
     1.0000   1.0000   1.0000   1.0000   1.0000   1.0000   1.0000   1.0000
     1.0000   1.0000   1.0000   1.0000   1.0000   1.0000   1.0000   1.0000
     1.0000   1.0000   1.0000   1.0000   1.0000   1.0000   1.0000   1.0000
     1.0000   1.0000   1.0000   1.0000   1.0000   1.0000   1.0000   1.0000
     1.0000   1.0000   1.0000   1.0000   1.0000   1.0000   1.0000   1.0000
     1.0000   1.0000   1.0000   1.0000   1.0000   1.0000   1.0000   1.0000
     1.0000   1.0000   1.0000   1.0000   1.0000   1.0000   1.0000   1.0000
     1.0000   1.0000   1.0000   1.0000   1.0000   1.0000   1.0000   1.0000
     1.0000   1.0000   1.0000   1.0000   1.0000   1.0000   1.0000   1.0000
     1.0000   1.0000   1.0000   1.0000   1.0000   1.0000   1.0000   1.0000
     1.0000   1.0000   1.0000   1.0000   1.0000   1.0000   1.0000   1.0000
     1.0000   1.0000   1.0000   1.0000   1.0000   1.0000   1.0000   1.0000
     1.0000   1.0000   1.0000   1.0000   1.0000   1.0000   1.0000   1.0000
     1.0000   1.0000   1.0000   1.0000   1.0000   1.0000   1.0000   1.0000
     1.0000   1.0000   1.0000   1.0000   1.0000   1.0000   1.0000   1.0000
     1.0000   1.0000   1.0000   1.0000   1.0000   1.0000   1.0000   1.0000
     1.0000   1.0000   1.0000   1.0000   1.0000   1.0000   1.0000   1.0000
     1.0000   1.0000   1.0000   1.0000   1.0000   1.0000   1.0000   1.0000
     1.0000   1.0000   1.0000   1.0000   1.0000   1.0000   1.0000   1.0000
     1.0000   1.0000   1.0000   1.0000   1.0000   1.0000   1.0000   1.0000
     1.0000   1.0000   1.0000   1.0000   1.0000   1.0000   1.0000   1.0000
     1.0000   1.0000   1.0000   1.0000   1.0000   1.0000   1.0000   1.0000
     1.0000   1.0000   1.0000   1.0000   1.0000   1.0000   1.0000   1.0000
     1.0000   1.0000   1.0000   1.0000   1.0000   1.0000   1.0000   1.0000
     1.0000   1.0000   1.0000   1.0000   1.0000   1.0000   1.0000   1.0000
     1.0000   1.0000   1.0000   1.0000   1.0000   1.0000   1.0000   1.0000
     1.0000   1.0000   1.0000   1.0000   1.0000   1.0000   1.0000   1.0000
     1.0000   1.0000   1.0000   1.0000   1.0000   1.0000   1.0000   1.0000
     1.0000   1.0000   1.0000   1.0000   1.0000   1.0000   1.0000   1.0000
     1.0000   1.0000   1.0000   1.0000   1.0000   1.0000   1.0000   1.0000
     1.0000   1.0000   1.0000   1.0000   1.0000   1.0000   1.0000   1.0000
     1.0000   1.0000   1.0000   1.0000   1.0000   1.0000   1.0000   1.0000
     1.0000   1.0000   1.0000   1.0000   1.0000   1.0000   1.0000   1.0000
     1.0000   1.0000   1.0000   1.0000   1.0000   1.0000   1.0000   1.0000
     1.0000   1.0000   1.0000   1.0000   1.0000   1.0000   1.0000   1.0000
     1.0000   1.0000   1.0000   1.0000   1.0000   1.0000   1.0000   1.0000
     1.0000   1.0000   1.0000   1.0000   1.0000   1.0000   1.0000   1.0000
     1.0000   1.0000   1.0000   1.0000   1.0000   1.0000   1.0000   1.0000
     1.0000   1.0000   1.0000   1.0000   1.0000   1.0000   1.0000   1.0000
     1.0000   1.0000   1.0000   1.0000   1.0000   1.0000   1.0000   1.0000
     1.0000   1.0000   1.0000   1.0000   1.0000   1.0000   1.0000   1.0000
     1.0000   1.0000   1.0000   1.0000   1.0000   1.0000   1.0000   1.0000
     1.0000   1.0000   1.0000   1.0000   1.0000   1.0000   1.0000   1.0000
     1.0000   1.0000   1.0000   1.0000   1.0000   1.0000   1.0000   1.0000
     1.0000   1.0000   1.0000   1.0000   1.0000   1.0000   1.0000   1.0000
     1.0000   1.0000

          k = 0.0001-0.0000 0.4038 ( 44975 PWs)   bands (ev):

  -115.1453-115.1438-115.1427-115.1423-115.1421-115.1416-115.1406-115.1399
  -115.1398-115.1390-115.1381-115.1379-115.1376-115.1373-115.1367-115.1364
  -115.1361-115.1355-115.1344-115.1341-115.1327-115.1319-115.1297-115.1285
  -115.1273-115.1245 -69.5053 -69.5051 -69.5038 -69.5036 -69.5031 -69.5021
   -69.5020 -69.5015 -69.5015 -69.5012 -69.5008 -69.5004 -69.5004 -69.5002
   -69.5001 -69.4998 -69.4996 -69.4995 -69.4994 -69.4990 -69.4983 -69.4976
   -69.4972 -69.4971 -69.4967 -69.4966 -69.4964 -69.4963 -69.4961 -69.4957
   -69.4957 -69.4955 -69.4953 -69.4944 -69.4942 -69.4941 -69.4940 -69.4939
   -69.4938 -69.4935 -69.4933 -69.4932 -69.4931 -69.4930 -69.4928 -69.4924
   -69.4923 -69.4923 -69.4918 -69.4914 -69.4913 -69.4913 -69.4910 -69.4907
   -69.4903 -69.4901 -69.4898 -69.4897 -69.4895 -69.4894 -69.4888 -69.4886
   -69.4881 -69.4879 -69.4877 -69.4872 -69.4870 -69.4869 -69.4868 -69.4862
   -69.4847 -69.4830 -69.4825 -69.4821 -69.4818 -69.4803 -69.4801 -69.4772
   -64.6124 -64.5899 -64.5879 -64.5871 -64.5784 -64.5779 -64.5774 -64.5700
   -64.5675 -64.5614 -31.6039 -31.5993 -31.5966 -31.5826 -31.5808 -31.5806
   -31.5795 -31.5769 -31.5746 -31.5743 -31.5737 -31.5730 -31.5699 -31.5678
   -31.5673 -31.5667 -31.5643 -31.5641 -31.5634 -31.5630 -31.5620 -31.5615
   -31.5613 -31.5595 -31.5541 -31.5533 -31.5498 -31.5466 -31.5456 -31.5421
    -9.8123  -9.7464  -9.4134  -9.3952  -9.3803  -9.3646  -9.3545  -9.3366
    -9.3290  -9.3124  -9.3023  -9.2728  -9.2579  -9.2058  -9.1829  -9.1521
    -9.0927  -9.0799  -9.0666  -9.0403  -9.0256  -9.0163  -9.0105  -8.9967
    -8.9898  -8.9858  -8.9800  -8.9676  -8.9354  -8.9095  -8.8754  -8.8567
    -8.8424  -8.8249  -8.8182  -8.7078   1.9646   1.9880   1.9901   2.0099
     2.0241   2.0356   2.0523   2.0669   2.0833   2.0924   2.1104   2.1421
     2.1578   2.1721   2.1876   2.1930   2.2244   2.2579   2.2749   2.2881
     2.3037   2.3144   2.3263   2.3396   2.3511   2.3654   2.3801   2.3973
     2.4062   2.4196   2.4326   2.4366   2.4436   2.4601   2.4743   2.4868
     2.4947   2.5087   2.5155   2.5365   2.5488   2.5704   2.5762   2.5840
     2.5867   2.5973   2.6128   2.6235   2.6330   2.6394   2.6503   2.6560
     2.6655   2.6730   2.6820   2.6953   2.7080   2.7125   2.7194   2.7296
     2.7454   2.7593   2.7639   2.7779   2.7860   2.7986   2.8093   2.8323
     2.8421   2.8517   2.8738   2.9050   2.9091   2.9276   2.9481   2.9810
     3.0077   3.0150   3.0230   3.0401   3.0666   3.0834   3.1005   3.1319
     3.1516   3.1640   3.1967   3.2128   3.2308   3.2420   3.2523   3.2659
     3.2703   3.2851   3.3193   3.3638   3.3690   3.3944   3.4159   3.4247
     3.4363   3.4470   3.4638   3.4715   3.4808   3.4833   3.5011   3.5072
     3.5198   3.5256   3.5321   3.5372   3.5512   3.5563   3.5638   3.5739
     3.5814   3.5903   3.6015   3.6130   3.6209   3.6271   3.6378   3.6531
     3.6651   3.6771   3.6875   3.6941   3.7073   3.7242   3.9148   3.9784
     4.0062   4.0411   4.0615   4.0944   4.1101   4.1354   4.1566   4.1711
     4.2026   4.2275   4.2429   4.2705   4.3201   4.3554   4.3684   4.3898
     4.4175   4.4396   4.4584   4.4844   4.5117   4.5316   4.5577   4.6426
     4.6590   4.7545   4.7807   4.8360   4.9415   4.9667   5.0085   5.0305
     5.0478   5.0727   5.0905   5.1668   5.3771   5.4195   5.4678   5.5003
     5.5406   5.6061   5.6472   5.6542   5.6754   5.6812   5.7190   5.7349
     5.7951   5.8192   5.8460   5.8690   5.8820   6.0517   6.0635   6.0779
     6.1228   6.1362   6.1476   6.1802   6.1890   6.2138   6.2213   6.2492
     6.2589   6.2707   6.2993   6.3258   6.3455   6.3768   6.3967   6.4304
     6.5895   6.6258   6.7038   6.7462   6.7819   6.8060   6.8211   6.8469
     6.8960   6.9044   6.9123   6.9316   6.9421   6.9630   6.9908   7.0015
     7.0323   7.0561   7.0734   7.0789   7.1043   7.1280   7.1476   7.1557
     7.1691   7.1762   7.1890   7.2086   7.2309   7.2419   7.5434   7.5784
     7.6374   7.6490

     occupation numbers 
     1.0000   1.0000   1.0000   1.0000   1.0000   1.0000   1.0000   1.0000
     1.0000   1.0000   1.0000   1.0000   1.0000   1.0000   1.0000   1.0000
     1.0000   1.0000   1.0000   1.0000   1.0000   1.0000   1.0000   1.0000
     1.0000   1.0000   1.0000   1.0000   1.0000   1.0000   1.0000   1.0000
     1.0000   1.0000   1.0000   1.0000   1.0000   1.0000   1.0000   1.0000
     1.0000   1.0000   1.0000   1.0000   1.0000   1.0000   1.0000   1.0000
     1.0000   1.0000   1.0000   1.0000   1.0000   1.0000   1.0000   1.0000
     1.0000   1.0000   1.0000   1.0000   1.0000   1.0000   1.0000   1.0000
     1.0000   1.0000   1.0000   1.0000   1.0000   1.0000   1.0000   1.0000
     1.0000   1.0000   1.0000   1.0000   1.0000   1.0000   1.0000   1.0000
     1.0000   1.0000   1.0000   1.0000   1.0000   1.0000   1.0000   1.0000
     1.0000   1.0000   1.0000   1.0000   1.0000   1.0000   1.0000   1.0000
     1.0000   1.0000   1.0000   1.0000   1.0000   1.0000   1.0000   1.0000
     1.0000   1.0000   1.0000   1.0000   1.0000   1.0000   1.0000   1.0000
     1.0000   1.0000   1.0000   1.0000   1.0000   1.0000   1.0000   1.0000
     1.0000   1.0000   1.0000   1.0000   1.0000   1.0000   1.0000   1.0000
     1.0000   1.0000   1.0000   1.0000   1.0000   1.0000   1.0000   1.0000
     1.0000   1.0000   1.0000   1.0000   1.0000   1.0000   1.0000   1.0000
     1.0000   1.0000   1.0000   1.0000   1.0000   1.0000   1.0000   1.0000
     1.0000   1.0000   1.0000   1.0000   1.0000   1.0000   1.0000   1.0000
     1.0000   1.0000   1.0000   1.0000   1.0000   1.0000   1.0000   1.0000
     1.0000   1.0000   1.0000   1.0000   1.0000   1.0000   1.0000   1.0000
     1.0000   1.0000   1.0000   1.0000   1.0000   1.0000   1.0000   1.0000
     1.0000   1.0000   1.0000   1.0000   1.0000   1.0000   1.0000   1.0000
     1.0000   1.0000   1.0000   1.0000   1.0000   1.0000   1.0000   1.0000
     1.0000   1.0000   1.0000   1.0000   1.0000   1.0000   1.0000   1.0000
     1.0000   1.0000   1.0000   1.0000   1.0000   1.0000   1.0000   1.0000
     1.0000   1.0000   1.0000   1.0000   1.0000   1.0000   1.0000   1.0000
     1.0000   1.0000   1.0000   1.0000   1.0000   1.0000   1.0000   1.0000
     1.0000   1.0000   1.0000   1.0000   1.0000   1.0000   1.0000   1.0000
     1.0000   1.0000   1.0000   1.0000   1.0000   1.0000   1.0000   1.0000
     1.0000   1.0000   1.0000   1.0000   1.0000   1.0000   1.0000   1.0000
     1.0000   1.0000   1.0000   1.0000   1.0000   1.0000   1.0000   1.0000
     1.0000   1.0000   1.0000   1.0000   1.0000   1.0000   1.0000   1.0000
     1.0000   1.0000   1.0000   1.0000   1.0000   1.0000   1.0000   1.0000
     1.0000   1.0000   1.0000   1.0000   1.0000   1.0000   1.0000   1.0000
     1.0000   1.0000   1.0000   1.0000   1.0000   1.0000   1.0000   1.0000
     1.0000   1.0000   1.0000   1.0000   1.0000   1.0000   1.0000   1.0000
     1.0000   1.0000   1.0000   1.0000   1.0000   1.0000   1.0000   1.0000
     1.0000   1.0000   1.0000   1.0000   1.0000   1.0000   1.0000   1.0000
     1.0000   1.0000   1.0000   1.0000   1.0000   1.0000   1.0000   1.0000
     1.0000   1.0000   1.0000   1.0000   1.0000   1.0000   1.0000   1.0000
     1.0000   1.0000   1.0000   1.0000   1.0000   1.0000   1.0000   1.0000
     1.0000   1.0000   1.0000   1.0000   1.0000   1.0000   1.0000   1.0000
     1.0000   1.0000   1.0000   1.0000   1.0000   1.0000   1.0000   1.0000
     1.0000   1.0000   1.0000   1.0000   1.0000   1.0000   1.0000   1.0000
     1.0000   1.0000   1.0000   1.0000   1.0000   1.0000   1.0000   1.0000
     1.0000   1.0000   1.0000   1.0000   1.0000   1.0000   1.0000   1.0000
     1.0000   1.0000   1.0000   1.0000   1.0000   1.0000   1.0000   1.0000
     1.0000   1.0000   1.0000   1.0000   1.0000   1.0000   1.0000   1.0000
     1.0000   1.0000   1.0000   1.0000   1.0000   1.0000   1.0000   1.0000
     1.0000   1.0000   1.0000   1.0000   1.0000   1.0000   1.0000   1.0000
     1.0000   1.0000

          k = 0.0001-0.0001 0.5384 ( 44975 PWs)   bands (ev):

  -115.1453-115.1438-115.1427-115.1423-115.1421-115.1416-115.1406-115.1399
  -115.1398-115.1390-115.1381-115.1379-115.1376-115.1373-115.1367-115.1364
  -115.1361-115.1355-115.1344-115.1341-115.1327-115.1319-115.1297-115.1285
  -115.1273-115.1245 -69.5053 -69.5051 -69.5038 -69.5036 -69.5031 -69.5021
   -69.5020 -69.5015 -69.5015 -69.5012 -69.5008 -69.5004 -69.5004 -69.5002
   -69.5001 -69.4998 -69.4996 -69.4995 -69.4994 -69.4990 -69.4983 -69.4976
   -69.4972 -69.4971 -69.4967 -69.4966 -69.4964 -69.4963 -69.4961 -69.4957
   -69.4957 -69.4955 -69.4953 -69.4944 -69.4942 -69.4941 -69.4940 -69.4939
   -69.4938 -69.4935 -69.4933 -69.4932 -69.4931 -69.4930 -69.4928 -69.4924
   -69.4923 -69.4923 -69.4918 -69.4914 -69.4913 -69.4913 -69.4910 -69.4907
   -69.4903 -69.4901 -69.4898 -69.4897 -69.4895 -69.4894 -69.4888 -69.4886
   -69.4881 -69.4879 -69.4877 -69.4872 -69.4870 -69.4869 -69.4868 -69.4862
   -69.4847 -69.4830 -69.4825 -69.4821 -69.4818 -69.4803 -69.4801 -69.4772
   -64.6124 -64.5899 -64.5879 -64.5871 -64.5784 -64.5779 -64.5774 -64.5700
   -64.5675 -64.5614 -31.6039 -31.5993 -31.5966 -31.5826 -31.5808 -31.5806
   -31.5795 -31.5769 -31.5746 -31.5743 -31.5737 -31.5730 -31.5699 -31.5678
   -31.5673 -31.5667 -31.5643 -31.5641 -31.5634 -31.5630 -31.5620 -31.5615
   -31.5613 -31.5595 -31.5541 -31.5533 -31.5498 -31.5466 -31.5456 -31.5421
    -9.8123  -9.7464  -9.4134  -9.3952  -9.3803  -9.3646  -9.3545  -9.3366
    -9.3290  -9.3124  -9.3023  -9.2728  -9.2579  -9.2058  -9.1829  -9.1521
    -9.0927  -9.0799  -9.0666  -9.0403  -9.0256  -9.0163  -9.0105  -8.9967
    -8.9898  -8.9858  -8.9800  -8.9676  -8.9354  -8.9095  -8.8754  -8.8567
    -8.8424  -8.8249  -8.8182  -8.7078   1.9646   1.9880   1.9901   2.0099
     2.0241   2.0356   2.0523   2.0669   2.0833   2.0924   2.1104   2.1421
     2.1578   2.1721   2.1876   2.1930   2.2244   2.2579   2.2749   2.2881
     2.3037   2.3144   2.3263   2.3396   2.3511   2.3654   2.3801   2.3973
     2.4062   2.4196   2.4326   2.4366   2.4436   2.4601   2.4743   2.4868
     2.4947   2.5087   2.5155   2.5365   2.5488   2.5704   2.5762   2.5840
     2.5867   2.5973   2.6128   2.6235   2.6330   2.6394   2.6503   2.6560
     2.6655   2.6730   2.6820   2.6953   2.7080   2.7125   2.7194   2.7296
     2.7454   2.7593   2.7639   2.7779   2.7860   2.7986   2.8093   2.8323
     2.8421   2.8517   2.8738   2.9050   2.9091   2.9276   2.9481   2.9810
     3.0077   3.0150   3.0230   3.0401   3.0666   3.0834   3.1005   3.1319
     3.1516   3.1640   3.1967   3.2128   3.2308   3.2420   3.2523   3.2659
     3.2703   3.2851   3.3193   3.3638   3.3690   3.3944   3.4159   3.4247
     3.4363   3.4470   3.4638   3.4715   3.4808   3.4833   3.5011   3.5072
     3.5198   3.5256   3.5321   3.5372   3.5512   3.5563   3.5638   3.5739
     3.5814   3.5903   3.6015   3.6130   3.6209   3.6271   3.6378   3.6531
     3.6651   3.6771   3.6875   3.6941   3.7073   3.7242   3.9148   3.9784
     4.0062   4.0411   4.0615   4.0944   4.1101   4.1354   4.1566   4.1711
     4.2026   4.2275   4.2429   4.2705   4.3201   4.3554   4.3684   4.3898
     4.4175   4.4396   4.4584   4.4844   4.5117   4.5316   4.5577   4.6426
     4.6590   4.7545   4.7807   4.8360   4.9415   4.9667   5.0085   5.0305
     5.0478   5.0727   5.0905   5.1668   5.3771   5.4195   5.4678   5.5003
     5.5406   5.6061   5.6472   5.6542   5.6754   5.6812   5.7190   5.7349
     5.7951   5.8192   5.8460   5.8690   5.8820   6.0517   6.0635   6.0779
     6.1228   6.1362   6.1476   6.1802   6.1890   6.2138   6.2213   6.2492
     6.2589   6.2707   6.2993   6.3258   6.3455   6.3768   6.3967   6.4304
     6.5895   6.6258   6.7038   6.7462   6.7819   6.8060   6.8211   6.8469
     6.8960   6.9044   6.9123   6.9316   6.9421   6.9630   6.9908   7.0015
     7.0323   7.0561   7.0734   7.0789   7.1043   7.1280   7.1476   7.1557
     7.1691   7.1762   7.1890   7.2086   7.2309   7.2419   7.5434   7.5784
     7.6374   7.6490

     occupation numbers 
     1.0000   1.0000   1.0000   1.0000   1.0000   1.0000   1.0000   1.0000
     1.0000   1.0000   1.0000   1.0000   1.0000   1.0000   1.0000   1.0000
     1.0000   1.0000   1.0000   1.0000   1.0000   1.0000   1.0000   1.0000
     1.0000   1.0000   1.0000   1.0000   1.0000   1.0000   1.0000   1.0000
     1.0000   1.0000   1.0000   1.0000   1.0000   1.0000   1.0000   1.0000
     1.0000   1.0000   1.0000   1.0000   1.0000   1.0000   1.0000   1.0000
     1.0000   1.0000   1.0000   1.0000   1.0000   1.0000   1.0000   1.0000
     1.0000   1.0000   1.0000   1.0000   1.0000   1.0000   1.0000   1.0000
     1.0000   1.0000   1.0000   1.0000   1.0000   1.0000   1.0000   1.0000
     1.0000   1.0000   1.0000   1.0000   1.0000   1.0000   1.0000   1.0000
     1.0000   1.0000   1.0000   1.0000   1.0000   1.0000   1.0000   1.0000
     1.0000   1.0000   1.0000   1.0000   1.0000   1.0000   1.0000   1.0000
     1.0000   1.0000   1.0000   1.0000   1.0000   1.0000   1.0000   1.0000
     1.0000   1.0000   1.0000   1.0000   1.0000   1.0000   1.0000   1.0000
     1.0000   1.0000   1.0000   1.0000   1.0000   1.0000   1.0000   1.0000
     1.0000   1.0000   1.0000   1.0000   1.0000   1.0000   1.0000   1.0000
     1.0000   1.0000   1.0000   1.0000   1.0000   1.0000   1.0000   1.0000
     1.0000   1.0000   1.0000   1.0000   1.0000   1.0000   1.0000   1.0000
     1.0000   1.0000   1.0000   1.0000   1.0000   1.0000   1.0000   1.0000
     1.0000   1.0000   1.0000   1.0000   1.0000   1.0000   1.0000   1.0000
     1.0000   1.0000   1.0000   1.0000   1.0000   1.0000   1.0000   1.0000
     1.0000   1.0000   1.0000   1.0000   1.0000   1.0000   1.0000   1.0000
     1.0000   1.0000   1.0000   1.0000   1.0000   1.0000   1.0000   1.0000
     1.0000   1.0000   1.0000   1.0000   1.0000   1.0000   1.0000   1.0000
     1.0000   1.0000   1.0000   1.0000   1.0000   1.0000   1.0000   1.0000
     1.0000   1.0000   1.0000   1.0000   1.0000   1.0000   1.0000   1.0000
     1.0000   1.0000   1.0000   1.0000   1.0000   1.0000   1.0000   1.0000
     1.0000   1.0000   1.0000   1.0000   1.0000   1.0000   1.0000   1.0000
     1.0000   1.0000   1.0000   1.0000   1.0000   1.0000   1.0000   1.0000
     1.0000   1.0000   1.0000   1.0000   1.0000   1.0000   1.0000   1.0000
     1.0000   1.0000   1.0000   1.0000   1.0000   1.0000   1.0000   1.0000
     1.0000   1.0000   1.0000   1.0000   1.0000   1.0000   1.0000   1.0000
     1.0000   1.0000   1.0000   1.0000   1.0000   1.0000   1.0000   1.0000
     1.0000   1.0000   1.0000   1.0000   1.0000   1.0000   1.0000   1.0000
     1.0000   1.0000   1.0000   1.0000   1.0000   1.0000   1.0000   1.0000
     1.0000   1.0000   1.0000   1.0000   1.0000   1.0000   1.0000   1.0000
     1.0000   1.0000   1.0000   1.0000   1.0000   1.0000   1.0000   1.0000
     1.0000   1.0000   1.0000   1.0000   1.0000   1.0000   1.0000   1.0000
     1.0000   1.0000   1.0000   1.0000   1.0000   1.0000   1.0000   1.0000
     1.0000   1.0000   1.0000   1.0000   1.0000   1.0000   1.0000   1.0000
     1.0000   1.0000   1.0000   1.0000   1.0000   1.0000   1.0000   1.0000
     1.0000   1.0000   1.0000   1.0000   1.0000   1.0000   1.0000   1.0000
     1.0000   1.0000   1.0000   1.0000   1.0000   1.0000   1.0000   1.0000
     1.0000   1.0000   1.0000   1.0000   1.0000   1.0000   1.0000   1.0000
     1.0000   1.0000   1.0000   1.0000   1.0000   1.0000   1.0000   1.0000
     1.0000   1.0000   1.0000   1.0000   1.0000   1.0000   1.0000   1.0000
     1.0000   1.0000   1.0000   1.0000   1.0000   1.0000   1.0000   1.0000
     1.0000   1.0000   1.0000   1.0000   1.0000   1.0000   1.0000   1.0000
     1.0000   1.0000   1.0000   1.0000   1.0000   1.0000   1.0000   1.0000
     1.0000   1.0000   1.0000   1.0000   1.0000   1.0000   1.0000   1.0000
     1.0000   1.0000   1.0000   1.0000   1.0000   1.0000   1.0000   1.0000
     1.0000   1.0000   1.0000   1.0000   1.0000   1.0000   1.0000   1.0000
     1.0000   1.0000

          k = 0.0002-0.0001 0.6730 ( 44971 PWs)   bands (ev):

  -115.1453-115.1438-115.1427-115.1423-115.1421-115.1416-115.1406-115.1399
  -115.1398-115.1390-115.1381-115.1379-115.1376-115.1373-115.1367-115.1364
  -115.1361-115.1355-115.1344-115.1341-115.1327-115.1319-115.1297-115.1285
  -115.1273-115.1245 -69.5053 -69.5050 -69.5038 -69.5036 -69.5031 -69.5021
   -69.5020 -69.5015 -69.5015 -69.5012 -69.5008 -69.5004 -69.5004 -69.5002
   -69.5001 -69.4998 -69.4996 -69.4995 -69.4994 -69.4990 -69.4983 -69.4976
   -69.4972 -69.4971 -69.4967 -69.4966 -69.4964 -69.4963 -69.4961 -69.4957
   -69.4957 -69.4955 -69.4953 -69.4944 -69.4942 -69.4941 -69.4940 -69.4939
   -69.4938 -69.4935 -69.4933 -69.4932 -69.4931 -69.4930 -69.4928 -69.4924
   -69.4923 -69.4923 -69.4918 -69.4914 -69.4913 -69.4913 -69.4910 -69.4907
   -69.4903 -69.4901 -69.4898 -69.4897 -69.4895 -69.4894 -69.4888 -69.4886
   -69.4881 -69.4879 -69.4877 -69.4872 -69.4870 -69.4869 -69.4868 -69.4862
   -69.4847 -69.4830 -69.4825 -69.4821 -69.4818 -69.4803 -69.4801 -69.4772
   -64.6124 -64.5899 -64.5879 -64.5871 -64.5784 -64.5779 -64.5774 -64.5700
   -64.5675 -64.5614 -31.6039 -31.5993 -31.5966 -31.5826 -31.5808 -31.5806
   -31.5795 -31.5769 -31.5746 -31.5743 -31.5737 -31.5730 -31.5699 -31.5678
   -31.5673 -31.5667 -31.5643 -31.5641 -31.5634 -31.5630 -31.5620 -31.5615
   -31.5613 -31.5595 -31.5541 -31.5533 -31.5498 -31.5466 -31.5456 -31.5421
    -9.8515  -9.6829  -9.4410  -9.4067  -9.3991  -9.3752  -9.3523  -9.3481
    -9.3248  -9.2965  -9.2846  -9.2554  -9.2333  -9.2053  -9.1626  -9.1468
    -9.1049  -9.0963  -9.0762  -9.0526  -9.0354  -9.0312  -9.0098  -8.9994
    -8.9926  -8.9859  -8.9807  -8.9601  -8.9370  -8.9044  -8.8748  -8.8551
    -8.8355  -8.8215  -8.8151  -8.7061   1.9606   1.9774   1.9811   2.0003
     2.0076   2.0263   2.0505   2.0675   2.0732   2.0924   2.0992   2.1126
     2.1298   2.1428   2.1686   2.1797   2.2071   2.2407   2.2649   2.2890
     2.3093   2.3290   2.3380   2.3478   2.3734   2.3825   2.3905   2.3979
     2.4146   2.4265   2.4384   2.4445   2.4542   2.4638   2.4798   2.4877
     2.5003   2.5130   2.5201   2.5321   2.5444   2.5622   2.5693   2.5737
     2.5871   2.6045   2.6150   2.6245   2.6258   2.6409   2.6487   2.6570
     2.6683   2.6780   2.6862   2.6907   2.7012   2.7109   2.7152   2.7258
     2.7340   2.7698   2.7977   2.8035   2.8141   2.8267   2.8336   2.8553
     2.8672   2.8721   2.8874   2.9139   2.9225   2.9480   2.9728   2.9849
     3.0137   3.0240   3.0399   3.0546   3.0747   3.0858   3.1258   3.1414
     3.1623   3.1712   3.2049   3.2199   3.2344   3.2535   3.2573   3.2716
     3.2811   3.3026   3.3308   3.3539   3.3644   3.3839   3.4125   3.4280
     3.4346   3.4386   3.4600   3.4685   3.4761   3.4849   3.5038   3.5090
     3.5186   3.5254   3.5309   3.5411   3.5474   3.5540   3.5596   3.5739
[...]
    -9.7513  -9.7268  -9.5122  -9.5054  -9.4164  -9.4055  -9.3935  -9.3531
    -9.2672  -9.2571  -9.2249  -9.2033  -9.1899  -9.1785  -9.1587  -9.1436
    -9.1272  -9.1052  -9.0836  -9.0606  -9.0517  -9.0422  -9.0260  -9.0138
    -9.0054  -8.9875  -8.9834  -8.9499  -8.9217  -8.9113  -8.8819  -8.8621
    -8.8260  -8.8133  -8.7937  -8.7044   1.9905   1.9943   2.0155   2.0363
     2.0415   2.0634   2.0801   2.0864   2.1031   2.1168   2.1259   2.1355
     2.1501   2.1611   2.1730   2.1878   2.2058   2.2288   2.2463   2.2564
     2.2739   2.2791   2.2913   2.3103   2.3186   2.3625   2.3773   2.3867
     2.4003   2.4150   2.4287   2.4401   2.4490   2.4528   2.4810   2.4851
     2.4939   2.4992   2.5089   2.5189   2.5358   2.5455   2.5546   2.5669
     2.5731   2.5819   2.6035   2.6077   2.6160   2.6181   2.6354   2.6410
     2.6500   2.6642   2.6735   2.6866   2.7014   2.7093   2.7318   2.7330
     2.7450   2.7629   2.7771   2.7859   2.7999   2.8072   2.8125   2.8437
     2.8588   2.8655   2.8943   2.9056   2.9216   2.9560   2.9658   2.9808
     3.0049   3.0272   3.0492   3.0634   3.0723   3.1091   3.1357   3.1437
     3.1675   3.1783   3.2017   3.2279   3.2360   3.2568   3.2852   3.3078
     3.3229   3.3323   3.3355   3.3587   3.3614   3.3829   3.3866   3.4050
     3.4203   3.4325   3.4509   3.4597   3.4662   3.4876   3.4974   3.5043
     3.5103   3.5274   3.5380   3.5453   3.5700   3.5794   3.5819   3.5907
     3.6048   3.6113   3.6199   3.6248   3.6261   3.6329   3.6458   3.6538
     3.6814   3.6831   3.6898   3.6969   3.7024   3.7143   3.7471   3.7557
     3.8383   3.8892   3.9316   3.9515   3.9722   3.9964   4.0113   4.0724
     4.1128   4.1554   4.1869   4.2331   4.2785   4.3353   4.3472   4.3960
     4.4090   4.4386   4.5080   4.5644   4.6138   4.6777   4.7699   4.8583
     4.8953   4.9435   4.9940   5.0260   5.0900   5.1360   5.1572   5.1769
     5.2024   5.2483   5.2629   5.3173   5.3625   5.3869   5.4172   5.4372
     5.5061   5.5735   5.5957   5.6227   5.6561   5.6658   5.7181   5.7484
     5.7769   5.7890   5.8859   5.9018   5.9719   6.0464   6.1174   6.1553
     6.2031   6.2427   6.2777   6.2947   6.3156   6.3377   6.3600   6.3760
     6.3964   6.4138   6.4491   6.4763   6.5052   6.5269   6.5532   6.5616
     6.5812   6.5995   6.6181   6.6255   6.6395   6.6543   6.6602   6.6708
     6.6786   6.7057   6.7153   6.7363   6.7421   6.7577   6.7758   6.8007
     6.8391   6.8600   6.8696   6.9303   6.9512   6.9780   7.0697   7.0758
     7.1172   7.1314   7.1413   7.1620   7.1968   7.2491   7.4876   7.5158
     7.5250   7.5330

     occupation numbers 
     1.0000   1.0000   1.0000   1.0000   1.0000   1.0000   1.0000   1.0000
     1.0000   1.0000   1.0000   1.0000   1.0000   1.0000   1.0000   1.0000
     1.0000   1.0000   1.0000   1.0000   1.0000   1.0000   1.0000   1.0000
     1.0000   1.0000   1.0000   1.0000   1.0000   1.0000   1.0000   1.0000
     1.0000   1.0000   1.0000   1.0000   1.0000   1.0000   1.0000   1.0000
     1.0000   1.0000   1.0000   1.0000   1.0000   1.0000   1.0000   1.0000
     1.0000   1.0000   1.0000   1.0000   1.0000   1.0000   1.0000   1.0000
     1.0000   1.0000   1.0000   1.0000   1.0000   1.0000   1.0000   1.0000
     1.0000   1.0000   1.0000   1.0000   1.0000   1.0000   1.0000   1.0000
     1.0000   1.0000   1.0000   1.0000   1.0000   1.0000   1.0000   1.0000
     1.0000   1.0000   1.0000   1.0000   1.0000   1.0000   1.0000   1.0000
     1.0000   1.0000   1.0000   1.0000   1.0000   1.0000   1.0000   1.0000
     1.0000   1.0000   1.0000   1.0000   1.0000   1.0000   1.0000   1.0000
     1.0000   1.0000   1.0000   1.0000   1.0000   1.0000   1.0000   1.0000
     1.0000   1.0000   1.0000   1.0000   1.0000   1.0000   1.0000   1.0000
     1.0000   1.0000   1.0000   1.0000   1.0000   1.0000   1.0000   1.0000
     1.0000   1.0000   1.0000   1.0000   1.0000   1.0000   1.0000   1.0000
     1.0000   1.0000   1.0000   1.0000   1.0000   1.0000   1.0000   1.0000
     1.0000   1.0000   1.0000   1.0000   1.0000   1.0000   1.0000   1.0000
     1.0000   1.0000   1.0000   1.0000   1.0000   1.0000   1.0000   1.0000
     1.0000   1.0000   1.0000   1.0000   1.0000   1.0000   1.0000   1.0000
     1.0000   1.0000   1.0000   1.0000   1.0000   1.0000   1.0000   1.0000
     1.0000   1.0000   1.0000   1.0000   1.0000   1.0000   1.0000   1.0000
     1.0000   1.0000   1.0000   1.0000   1.0000   1.0000   1.0000   1.0000
     1.0000   1.0000   1.0000   1.0000   1.0000   1.0000   1.0000   1.0000
     1.0000   1.0000   1.0000   1.0000   1.0000   1.0000   1.0000   1.0000
     1.0000   1.0000   1.0000   1.0000   1.0000   1.0000   1.0000   1.0000
     1.0000   1.0000   1.0000   1.0000   1.0000   1.0000   1.0000   1.0000
     1.0000   1.0000   1.0000   1.0000   1.0000   1.0000   1.0000   1.0000
     1.0000   1.0000   1.0000   1.0000   1.0000   1.0000   1.0000   1.0000
     1.0000   1.0000   1.0000   1.0000   1.0000   1.0000   1.0000   1.0000
     1.0000   1.0000   1.0000   1.0000   1.0000   1.0000   1.0000   1.0000
     1.0000   1.0000   1.0000   1.0000   1.0000   1.0000   1.0000   1.0000
     1.0000   1.0000   1.0000   1.0000   1.0000   1.0000   1.0000   1.0000
     1.0000   1.0000   1.0000   1.0000   1.0000   1.0000   1.0000   1.0000
     1.0000   1.0000   1.0000   1.0000   1.0000   1.0000   1.0000   1.0000
     1.0000   1.0000   1.0000   1.0000   1.0000   1.0000   1.0000   1.0000
     1.0000   1.0000   1.0000   1.0000   1.0000   1.0000   1.0000   1.0000
     1.0000   1.0000   1.0000   1.0000   1.0000   1.0000   1.0000   1.0000
     1.0000   1.0000   1.0000   1.0000   1.0000   1.0000   1.0000   1.0000
     1.0000   1.0000   1.0000   1.0000   1.0000   1.0000   1.0000   1.0000
     1.0000   1.0000   1.0000   1.0000   1.0000   1.0000   1.0000   1.0000
     1.0000   1.0000   1.0000   1.0000   1.0000   1.0000   1.0000   1.0000
     1.0000   1.0000   1.0000   1.0000   1.0000   1.0000   1.0000   1.0000
     1.0000   1.0000   1.0000   1.0000   1.0000   1.0000   1.0000   1.0000
     1.0000   1.0000   1.0000   1.0000   1.0000   1.0000   1.0000   1.0000
     1.0000   1.0000   1.0000   1.0000   1.0000   1.0000   1.0000   1.0000
     1.0000   1.0000   1.0000   1.0000   1.0000   1.0000   1.0000   1.0000
     1.0000   1.0000   1.0000   1.0000   1.0000   1.0000   1.0000   1.0000
     1.0000   1.0000   1.0000   1.0000   1.0000   1.0000   1.0000   1.0000
     1.0000   1.0000   1.0000   1.0000   1.0000   1.0000   1.0000   1.0000
     1.0000   1.0000   1.0000   1.0000   1.0000   1.0000   1.0000   1.0000
     1.0000   1.0000

     highest occupied level (ev):     7.6995



               ==================================================
                            POLARIZATION CALCULATION
                         !!! NOT THOROUGHLY TESTED !!!
               --------------------------------------------------


                     K-POINTS STRINGS USED IN CALCULATIONS
                     ~~~~~~~~~~~~~~~~~~~~~~~~~~~~~~~~~~~~~

       G-vector along string (2 pi/a):  0.00023 -0.00010  0.94216
       Modulus of the vector (1/bohr):  0.32179
       Number of k-points per string:   8
       Number of different strings  :  10


                               IONIC POLARIZATION
                               ~~~~~~~~~~~~~~~~~~

        Note: (mod 1) means that the phases (angles ranging from
        -pi to pi) have been mapped to the interval [-1/2,+1/2) by
        dividing by 2*pi; (mod 2) refers to the interval [-1,+1)

  ============================================================================
    Ion    Species    Charge              Position                Phase
  ----------------------------------------------------------------------------
     1        Zn      20.000       0.1678  0.0964  0.2060    -0.11745 (mod 2)
     2        Zn      20.000       0.1666  0.0968  0.7366    -0.11937 (mod 2)
     3        Zn      20.000      -0.0010  0.3859  0.2058    -0.12263 (mod 2)
     4        Zn      20.000      -0.0004  0.3846  0.7362    -0.12779 (mod 2)
     5        Zn      20.000      -0.1675  0.6737  0.2056    -0.12726 (mod 2)
     6        Zn      20.000      -0.1680  0.6747  0.7362    -0.12889 (mod 2)
     7        Zn      20.000       0.4990  0.0947  0.2053    -0.12942 (mod 2)
     8        Mg      10.000       0.4996  0.0950  0.7389     0.96303 (mod 2)
     9        Zn      20.000       0.3324  0.3852  0.2055    -0.12749 (mod 2)
    10        Mg      10.000       0.3321  0.3857  0.7389     0.96240 (mod 2)
    11        Mg      10.000       0.1650  0.6746  0.2075    -0.04519 (mod 2)
    12        Zn      20.000       0.1636  0.6728  0.7358    -0.13535 (mod 2)
    13        Zn      20.000       0.8314  0.0914  0.2061    -0.11239 (mod 2)
    14        Zn      20.000       0.8341  0.0978  0.7371    -0.10663 (mod 2)
    15        Mg      10.000       0.6648  0.3823  0.2066    -0.05263 (mod 2)
    16        Zn      20.000       0.6660  0.3845  0.7350    -0.14707 (mod 2)
    17        Mg      10.000       0.4969  0.6739  0.2071    -0.04814 (mod 2)
    18        Zn      20.000       0.5016  0.6734  0.7349    -0.15028 (mod 2)
    19        Zn      20.000      -0.0002  0.1933  0.4704     0.86295 (mod 2)
    20        Mg      10.000       0.0007  0.1932  1.0049    -0.53219 (mod 2)
    21        Mg      10.000      -0.1662  0.4824  0.4717     0.44326 (mod 2)
    22        Mg      10.000      -0.1667  0.4821  1.0015    -0.56519 (mod 2)
    23        Zn      20.000      -0.3330  0.7716  0.4704     0.86026 (mod 2)
    24        Mg      10.000      -0.3334  0.7717  1.0033    -0.54917 (mod 2)
    25        Zn      20.000       0.3340  0.1932  0.4715     0.88552 (mod 2)
    26        Zn      20.000       0.3320  0.1921  1.0018     0.87747 (mod 2)
    27        Zn      20.000       0.1666  0.4799  0.4712     0.87800 (mod 2)
    28        Zn      20.000       0.1646  0.4825  1.0028     0.89482 (mod 2)
    29        Zn      20.000      -0.0024  0.7720  0.4715     0.88348 (mod 2)
    30        Zn      20.000      -0.0008  0.7688  1.0027     0.89207 (mod 2)
    31        Zn      20.000       0.6657  0.1911  0.4714     0.88510 (mod 2)
    32        Zn      20.000       0.6671  0.1930  1.0024     0.89020 (mod 2)
    33        Zn      20.000       0.4985  0.4801  0.4701     0.86045 (mod 2)
    34        Zn      20.000       0.5011  0.4823  1.0021     0.88467 (mod 2)
    35        Mg      10.000       0.3321  0.7715  0.4740     0.46601 (mod 2)
    36        Zn      20.000       0.3323  0.7689  0.9998     0.83853 (mod 2)
    37        O        6.000       0.1666  0.0959  0.0030     0.01693 (mod 2)
    38        O        6.000       0.1664  0.0966  0.5330    -0.98665 (mod 2)
    39        O        6.000      -0.0013  0.3854  0.0026     0.01423 (mod 2)
    40        O        6.000      -0.0006  0.3851  0.5332    -0.98590 (mod 2)
    41        O        6.000      -0.1679  0.6735  0.0022     0.01166 (mod 2)
    42        O        6.000      -0.1679  0.6744  0.5334    -0.98547 (mod 2)
    43        O        6.000       0.5000  0.0955  0.0013     0.00817 (mod 2)
    44        O        6.000       0.4995  0.0960  0.5362    -0.96829 (mod 2)
    45        O        6.000       0.3332  0.3855  0.0012     0.00703 (mod 2)
    46        O        6.000       0.3328  0.3850  0.5362    -0.96893 (mod 2)
    47        O        6.000       0.1665  0.6743  0.0049     0.02774 (mod 2)
    48        O        6.000       0.1649  0.6739  0.5319    -0.99355 (mod 2)
    49        O        6.000       0.8337  0.0944  0.0022     0.01368 (mod 2)
    50        O        6.000       0.8333  0.0964  0.5339    -0.98085 (mod 2)
    51        O        6.000       0.6675  0.3851  0.0041     0.02406 (mod 2)
    52        O        6.000       0.6664  0.3847  0.5311    -0.99694 (mod 2)
    53        O        6.000       0.4999  0.6747  0.0042     0.02401 (mod 2)
    54        O        6.000       0.4994  0.6738  0.5313    -0.99613 (mod 2)
    55        O        6.000      -0.0010  0.1920  0.2664    -0.49438 (mod 2)
    56        O        6.000       0.0006  0.1930  0.8019     0.53309 (mod 2)
    57        O        6.000      -0.1687  0.4808  0.2689    -0.48070 (mod 2)
    58        O        6.000      -0.1674  0.4817  0.7983     0.51242 (mod 2)
    59        O        6.000      -0.3349  0.7705  0.2665    -0.49420 (mod 2)
    60        O        6.000      -0.3339  0.7717  0.8005     0.52452 (mod 2)
    61        O        6.000       0.3337  0.1929  0.2684    -0.48227 (mod 2)
    62        O        6.000       0.3337  0.1929  0.7983     0.51322 (mod 2)
    63        O        6.000       0.1660  0.4815  0.2678    -0.48632 (mod 2)
    64        O        6.000       0.1656  0.4815  0.7994     0.51885 (mod 2)
    65        O        6.000      -0.0017  0.7702  0.2683    -0.48404 (mod 2)
    66        O        6.000      -0.0012  0.7702  0.7994     0.51848 (mod 2)
    67        O        6.000       0.6659  0.1903  0.2680    -0.48442 (mod 2)
    68        O        6.000       0.6663  0.1923  0.7988     0.51651 (mod 2)
    69        O        6.000       0.4995  0.4810  0.2669    -0.49108 (mod 2)
    70        O        6.000       0.4998  0.4813  0.7986     0.51458 (mod 2)
    71        O        6.000       0.3314  0.7683  0.2716    -0.46457 (mod 2)
    72        O        6.000       0.3325  0.7698  0.7957     0.49788 (mod 2)
  ----------------------------------------------------------------------------
                                               IONIC PHASE:   0.35608 (mod 2)
  ============================================================================


                            ELECTRONIC POLARIZATION
                            ~~~~~~~~~~~~~~~~~~~~~~~

        Note: (mod 1) means that the phases (angles ranging from
        -pi to pi) have been mapped to the interval [-1/2,+1/2) by
        dividing by 2*pi; (mod 2) refers to the interval [-1,+1)

  ============================================================================
   Spin    String     Weight      First k-point in string         Phase
  ----------------------------------------------------------------------------
    up        1      0.062500      0.0000  0.0000  0.0000    -0.27569 (mod 1)
    up        2      0.125000      0.0003  0.2884 -0.0000    -0.28056 (mod 1)
    up        3      0.062500     -0.0007 -0.5769  0.0001    -0.28370 (mod 1)
    up        4      0.125000      0.2502  0.1445  0.0000    -0.28052 (mod 1)
    up        5      0.125000      0.2505  0.4329  0.0000    -0.28372 (mod 1)
    up        6      0.125000      0.2495 -0.4324  0.0001    -0.28373 (mod 1)
    up        7      0.125000      0.2498 -0.1439  0.0001    -0.28059 (mod 1)
    up        8      0.062500     -0.5003 -0.2890 -0.0001    -0.28369 (mod 1)
    up        9      0.125000     -0.5000 -0.0006 -0.0001    -0.28372 (mod 1)
    up       10      0.062500     -0.5010 -0.8659 -0.0000    -0.28372 (mod 1)
  ----------------------------------------------------------------------------
   down       1      0.062500      0.0000  0.0000  0.0000    -0.27569 (mod 1)
   down       2      0.125000      0.0003  0.2884 -0.0000    -0.28056 (mod 1)
   down       3      0.062500     -0.0007 -0.5769  0.0001    -0.28370 (mod 1)
   down       4      0.125000      0.2502  0.1445  0.0000    -0.28052 (mod 1)
   down       5      0.125000      0.2505  0.4329  0.0000    -0.28372 (mod 1)
   down       6      0.125000      0.2495 -0.4324  0.0001    -0.28373 (mod 1)
   down       7      0.125000      0.2498 -0.1439  0.0001    -0.28059 (mod 1)
   down       8      0.062500     -0.5003 -0.2890 -0.0001    -0.28369 (mod 1)
   down       9      0.125000     -0.5000 -0.0006 -0.0001    -0.28372 (mod 1)
   down      10      0.062500     -0.5010 -0.8659 -0.0000    -0.28372 (mod 1)
  ----------------------------------------------------------------------------
                                        Average phase (up):  -0.28203 (mod 1)
                                      Average phase (down):  -0.28203 (mod 1)
                                          ELECTRONIC PHASE:  -0.56406 (mod 2)
  ============================================================================


                               SUMMARY OF PHASES
                               ~~~~~~~~~~~~~~~~~

                          Ionic Phase:  0.35608 (mod 2)
                     Electronic Phase: -0.56406 (mod 2)
                          TOTAL PHASE: -0.20798 (mod 2)


                             VALUES OF POLARIZATION
                             ~~~~~~~~~~~~~~~~~~~~~~

        The calculation of phases done along the direction of vector 3
        of the reciprocal lattice gives the following contribution to
        the polarization vector (in different units, and being Omega
        the volume of the unit cell):

           P =  -4.0610369  (mod  39.0512870)  (e/Omega).bohr

           P =  -0.0007091  (mod   0.0068184)  e/bohr^2

           P =  -0.0405383  (mod   0.3898196)  C/m^2

        The polarization direction is:  (-0.00025 , 0.00010 , 1.00000 )


               ==================================================



     Writing output data file ZnO.save/
 
     init_run     :      2.02s CPU      5.64s WALL (       1 calls)
     electrons    :   1629.49s CPU   1670.94s WALL (       1 calls)

     Called by init_run:
     wfcinit      :      0.00s CPU      0.01s WALL (       1 calls)
     wfcinit:atom :      0.06s CPU      0.18s WALL (      80 calls)
     wfcinit:wfcr :     71.64s CPU     74.08s WALL (      80 calls)
     potinit      :      0.19s CPU      0.34s WALL (       1 calls)
     hinit0       :      1.03s CPU      4.28s WALL (       1 calls)

     Called by electrons:
     c_bands      :   1106.00s CPU   1144.42s WALL (       1 calls)
     v_of_rho     :      0.14s CPU      0.16s WALL (       1 calls)
     v_h          :      0.01s CPU      0.01s WALL (       1 calls)
     v_xc         :      0.14s CPU      0.15s WALL (       1 calls)
     newd         :      0.08s CPU      0.12s WALL (       1 calls)

     Called by c_bands:
     init_us_2    :      0.67s CPU      0.69s WALL (     220 calls)
     cegterg      :   1031.88s CPU   1066.42s WALL (      80 calls)

     Called by sum_band:

     Called by *egterg:
     h_psi        :    453.02s CPU    467.95s WALL (    1152 calls)
     s_psi        :     43.81s CPU     43.95s WALL (    1152 calls)
     g_psi        :      0.35s CPU      0.35s WALL (     992 calls)
     cdiaghg      :    313.06s CPU    320.21s WALL (    1072 calls)
     cegterg:over :     81.43s CPU     94.89s WALL (     992 calls)
     cegterg:upda :     98.62s CPU     99.03s WALL (     992 calls)
     cegterg:last :     96.15s CPU     96.56s WALL (     320 calls)
     cdiaghg:chol :     18.34s CPU     18.69s WALL (    1072 calls)
     cdiaghg:inve :     14.29s CPU     14.36s WALL (    1072 calls)
     cdiaghg:para :     49.09s CPU     53.40s WALL (    2144 calls)

     Called by h_psi:
     h_psi:pot    :    452.08s CPU    466.95s WALL (    1152 calls)
     h_psi:calbec :     61.20s CPU     71.81s WALL (    1152 calls)
     vloc_psi     :    346.31s CPU    349.93s WALL (    1152 calls)
     add_vuspsi   :     44.55s CPU     45.20s WALL (    1152 calls)

     General routines
     calbec       :     91.39s CPU    103.54s WALL (    1292 calls)
     fft          :      0.94s CPU      4.12s WALL (      13 calls)
     ffts         :      0.01s CPU      0.01s WALL (       1 calls)
     fftw         :    342.56s CPU    346.15s WALL (  759678 calls)
     interpolate  :      0.01s CPU      0.01s WALL (       1 calls)
 
     Parallel routines
     fft_scatt_xy :     10.23s CPU     10.32s WALL (  759692 calls)
     fft_scatt_yz :    291.93s CPU    298.21s WALL (  759692 calls)
 
     PWSCF        :  28m21.88s CPU  29m26.03s WALL

 
   This run was terminated on:   2:40: 9  15Jul2022            

=------------------------------------------------------------------------------=
   JOB DONE.
=------------------------------------------------------------------------------=
