
     Program PWSCF v.6.4.1 starts on 16Jun2022 at 15:13:22 

     This program is part of the open-source Quantum ESPRESSO suite
     for quantum simulation of materials; please cite
         "P. Giannozzi et al., J. Phys.:Condens. Matter 21 395502 (2009);
         "P. Giannozzi et al., J. Phys.:Condens. Matter 29 465901 (2017);
          URL http://www.quantum-espresso.org", 
     in publications or presentations arising from this work. More details at
     http://www.quantum-espresso.org/quote

     Parallel version (MPI), running on    64 processors

     MPI processes distributed on     1 nodes
     K-points division:     npool     =       4
     R & G space division:  proc/nbgrp/npool/nimage =      16
     Waiting for input...
     Reading input from standard input
Warning: card &IONS ignored
Warning: card   UPSCALE           = 100.D0, ignored
Warning: card / ignored
Warning: card &CELL ignored
Warning: card   CELL_DYNAMICS     = 'BFGS' ignored
Warning: card   PRESS_CONV_THR    = 0.5D0 ignored
Warning: card   CELL_DOFREE = 'ALL' ignored
Warning: card / ignored

     Current dimensions of program PWSCF are:
     Max number of different atomic species (ntypx) = 10
     Max number of k-points (npk) =  40000
     Max angular momentum in pseudopotentials (lmaxx) =  3

     Subspace diagonalization in iterative solution of the eigenvalue problem:
     one sub-group per band group will be used
     scalapack distributed-memory algorithm (size of sub-group:  2*  2 procs)

 
     Parallelization info
     --------------------
     sticks:   dense  smooth     PW     G-vecs:    dense   smooth      PW
     Min         107      57     17                 4749     1851     319
     Max         108      58     18                 4754     1856     324
     Sum        1723     925    283                76033    29641    5133
 


     bravais-lattice index     =            0
     lattice parameter (alat)  =       6.4463  a.u.
     unit-cell volume          =     306.2814 (a.u.)^3
     number of atoms/cell      =            4
     number of atomic types    =            2
     number of electrons       =        52.00
     number of Kohn-Sham states=           26
     kinetic-energy cutoff     =      80.0000  Ry
     charge density cutoff     =     600.0000  Ry
     convergence threshold     =      1.0E-06
     mixing beta               =       0.5000
     number of iterations used =            8  plain     mixing
     Exchange-correlation      = SLA  PW   PSX  PSC ( 1  4 10  8 0 0)
     Using LIBXC version       =    4   3   4

     celldm(1)=   6.446346  celldm(2)=   0.000000  celldm(3)=   0.000000
     celldm(4)=   0.000000  celldm(5)=   0.000000  celldm(6)=   0.000000

     crystal axes: (cart. coord. in units of alat)
               a(1) = (   1.000000   0.000000  -0.000000 )  
               a(2) = (  -0.500000   0.866025   0.000000 )  
               a(3) = (  -0.000000  -0.000000   1.320228 )  

     reciprocal axes: (cart. coord. in units 2 pi/alat)
               b(1) = (  1.000000  0.577350  0.000000 )  
               b(2) = ( -0.000000  1.154701  0.000000 )  
               b(3) = (  0.000000  0.000000  0.757445 )  


     PseudoPot. # 1 for Zn read from file:
     ./GBRV_PBEsol/zn_pbesol_v1.uspp.F.UPF
     MD5 check sum: 7d8615e52efe7c1e2b1899de8658bae2
     Pseudo is Ultrasoft, Zval = 20.0
     Generated by new atomic code, or converted to UPF format
     Using radial grid of  943 points,  6 beta functions with: 
                l(1) =   0
                l(2) =   0
                l(3) =   1
                l(4) =   1
                l(5) =   2
                l(6) =   2
     Q(r) pseudized with  8 coefficients,  rinner =    1.100   1.100   1.100
                                                       1.100   1.100

     PseudoPot. # 2 for O  read from file:
     ./GBRV_PBEsol/o_pbesol_v1.2.uspp.F.UPF
     MD5 check sum: 501638753501ef6325af9037351f7734
     Pseudo is Ultrasoft + core correction, Zval =  6.0
     Generated by new atomic code, or converted to UPF format
     Using radial grid of  737 points,  5 beta functions with: 
                l(1) =   0
                l(2) =   0
                l(3) =   1
                l(4) =   1
                l(5) =   2
     Q(r) pseudized with  8 coefficients,  rinner =    0.900   0.900   0.900
                                                       0.900   0.900

     atomic species   valence    mass     pseudopotential
        Zn            20.00    65.38000     Zn( 1.00)
        O              6.00    15.99900     O ( 1.00)

     No symmetry found


                                    s                        frac. trans.

      isym =  1     identity                                     

 cryst.   s( 1) = (     1          0          0      )
                  (     0          1          0      )
                  (     0          0          1      )

 cart.    s( 1) = (  1.0000000 -0.0000000 -0.0000000 )
                  ( -0.0000000  1.0000000  0.0000000 )
                  ( -0.0000000 -0.0000000  1.0000000 )


   Cartesian axes

     site n.     atom                  positions (alat units)
         1           O   tau(   1) = (   0.5000002   0.2886755   0.0096981  )
         2           O   tau(   2) = (   0.0000000   0.5773494   0.6698123  )
         3           Zn  tau(   3) = (   0.4999999   0.2886748   0.6817054  )
         4           Zn  tau(   4) = (  -0.0000004   0.5773511   1.3418197  )

   Crystallographic axes

     site n.     atom                  positions (cryst. coord.)
         1           O   tau(   1) = (  0.6666670  0.3333337  0.0073459  )
         2           O   tau(   2) = (  0.3333329  0.6666657  0.5073458  )
         3           Zn  tau(   3) = (  0.6666664  0.3333329  0.5163542  )
         4           Zn  tau(   4) = (  0.3333337  0.6666677  1.0163542  )

     number of k points=   260
                       cart. coord. in units 2pi/alat
        k(    1) = (   0.0000000   0.0000000   0.0000000), wk =   0.0039062
        k(    2) = (   0.0000000   0.0000000   0.0946806), wk =   0.0078125
        k(    3) = (   0.0000000   0.0000000   0.1893612), wk =   0.0078125
        k(    4) = (   0.0000000   0.0000000   0.2840418), wk =   0.0078125
        k(    5) = (  -0.0000001  -0.0000000  -0.3787223), wk =   0.0039062
        k(    6) = (  -0.0000000   0.1443376   0.0000000), wk =   0.0078125
        k(    7) = (  -0.0000000   0.1443376   0.0946806), wk =   0.0078125
        k(    8) = (   0.0000000   0.1443376   0.1893612), wk =   0.0078125
        k(    9) = (   0.0000000   0.1443376   0.2840418), wk =   0.0078125
        k(   10) = (  -0.0000001   0.1443375  -0.3787223), wk =   0.0078125
        k(   11) = (  -0.0000001   0.1443376  -0.2840417), wk =   0.0078125
        k(   12) = (  -0.0000000   0.1443376  -0.1893612), wk =   0.0078125
        k(   13) = (  -0.0000000   0.1443376  -0.0946806), wk =   0.0078125
        k(   14) = (  -0.0000000   0.2886751   0.0000000), wk =   0.0078125
        k(   15) = (  -0.0000000   0.2886751   0.0946806), wk =   0.0078125
        k(   16) = (  -0.0000000   0.2886751   0.1893612), wk =   0.0078125
        k(   17) = (   0.0000000   0.2886751   0.2840418), wk =   0.0078125
        k(   18) = (  -0.0000001   0.2886751  -0.3787223), wk =   0.0078125
        k(   19) = (  -0.0000001   0.2886751  -0.2840417), wk =   0.0078125
        k(   20) = (  -0.0000001   0.2886751  -0.1893612), wk =   0.0078125
        k(   21) = (  -0.0000000   0.2886751  -0.0946806), wk =   0.0078125
        k(   22) = (  -0.0000000   0.4330127   0.0000000), wk =   0.0078125
        k(   23) = (  -0.0000000   0.4330127   0.0946806), wk =   0.0078125
        k(   24) = (  -0.0000000   0.4330127   0.1893612), wk =   0.0078125
        k(   25) = (  -0.0000000   0.4330127   0.2840418), wk =   0.0078125
        k(   26) = (  -0.0000001   0.4330127  -0.3787223), wk =   0.0078125
        k(   27) = (  -0.0000001   0.4330127  -0.2840417), wk =   0.0078125
        k(   28) = (  -0.0000001   0.4330127  -0.1893612), wk =   0.0078125
        k(   29) = (  -0.0000001   0.4330127  -0.0946806), wk =   0.0078125
        k(   30) = (   0.0000001  -0.5773503  -0.0000000), wk =   0.0039062
        k(   31) = (   0.0000001  -0.5773503   0.0946806), wk =   0.0078125
        k(   32) = (   0.0000001  -0.5773503   0.1893611), wk =   0.0078125
        k(   33) = (   0.0000001  -0.5773503   0.2840417), wk =   0.0078125
        k(   34) = (   0.0000000  -0.5773503  -0.3787224), wk =   0.0039062
        k(   35) = (   0.1250000   0.0721688   0.0000000), wk =   0.0078125
        k(   36) = (   0.1250000   0.0721688   0.0946806), wk =   0.0078125
        k(   37) = (   0.1250000   0.0721688   0.1893612), wk =   0.0078125
        k(   38) = (   0.1250000   0.0721688   0.2840418), wk =   0.0078125
        k(   39) = (   0.1249999   0.0721688  -0.3787223), wk =   0.0078125
        k(   40) = (   0.1250000   0.0721688  -0.2840417), wk =   0.0078125
        k(   41) = (   0.1250000   0.0721688  -0.1893611), wk =   0.0078125
        k(   42) = (   0.1250000   0.0721688  -0.0946806), wk =   0.0078125
        k(   43) = (   0.1250000   0.2165063   0.0000000), wk =   0.0078125
        k(   44) = (   0.1250000   0.2165063   0.0946806), wk =   0.0078125
        k(   45) = (   0.1250000   0.2165063   0.1893612), wk =   0.0078125
        k(   46) = (   0.1250000   0.2165064   0.2840418), wk =   0.0078125
        k(   47) = (   0.1249999   0.2165063  -0.3787223), wk =   0.0078125
        k(   48) = (   0.1249999   0.2165063  -0.2840417), wk =   0.0078125
        k(   49) = (   0.1250000   0.2165063  -0.1893611), wk =   0.0078125
        k(   50) = (   0.1250000   0.2165063  -0.0946806), wk =   0.0078125
        k(   51) = (   0.1250000   0.3608439   0.0000000), wk =   0.0078125
        k(   52) = (   0.1250000   0.3608439   0.0946806), wk =   0.0078125
        k(   53) = (   0.1250000   0.3608439   0.1893612), wk =   0.0078125
        k(   54) = (   0.1250000   0.3608439   0.2840418), wk =   0.0078125
        k(   55) = (   0.1249999   0.3608439  -0.3787223), wk =   0.0078125
        k(   56) = (   0.1249999   0.3608439  -0.2840417), wk =   0.0078125
        k(   57) = (   0.1249999   0.3608439  -0.1893611), wk =   0.0078125
        k(   58) = (   0.1250000   0.3608439  -0.0946806), wk =   0.0078125
        k(   59) = (   0.1249999   0.5051815   0.0000000), wk =   0.0078125
        k(   60) = (   0.1250000   0.5051815   0.0946806), wk =   0.0078125
        k(   61) = (   0.1250000   0.5051815   0.1893612), wk =   0.0078125
        k(   62) = (   0.1250000   0.5051815   0.2840418), wk =   0.0078125
        k(   63) = (   0.1249999   0.5051815  -0.3787223), wk =   0.0078125
        k(   64) = (   0.1249999   0.5051815  -0.2840417), wk =   0.0078125
        k(   65) = (   0.1249999   0.5051815  -0.1893611), wk =   0.0078125
        k(   66) = (   0.1249999   0.5051815  -0.0946805), wk =   0.0078125
        k(   67) = (   0.1250001  -0.5051815   0.0000000), wk =   0.0078125
        k(   68) = (   0.1250001  -0.5051815   0.0946806), wk =   0.0078125
        k(   69) = (   0.1250001  -0.5051815   0.1893612), wk =   0.0078125
        k(   70) = (   0.1250001  -0.5051815   0.2840418), wk =   0.0078125
        k(   71) = (   0.1250000  -0.5051815  -0.3787223), wk =   0.0078125
        k(   72) = (   0.1250000  -0.5051815  -0.2840417), wk =   0.0078125
        k(   73) = (   0.1250000  -0.5051815  -0.1893612), wk =   0.0078125
        k(   74) = (   0.1250000  -0.5051815  -0.0946806), wk =   0.0078125
        k(   75) = (   0.1250000  -0.3608439   0.0000000), wk =   0.0078125
        k(   76) = (   0.1250000  -0.3608439   0.0946806), wk =   0.0078125
        k(   77) = (   0.1250001  -0.3608439   0.1893612), wk =   0.0078125
        k(   78) = (   0.1250001  -0.3608439   0.2840418), wk =   0.0078125
        k(   79) = (   0.1250000  -0.3608440  -0.3787223), wk =   0.0078125
        k(   80) = (   0.1250000  -0.3608439  -0.2840417), wk =   0.0078125
        k(   81) = (   0.1250000  -0.3608439  -0.1893612), wk =   0.0078125
        k(   82) = (   0.1250000  -0.3608439  -0.0946806), wk =   0.0078125
        k(   83) = (   0.1250000  -0.2165064   0.0000000), wk =   0.0078125
        k(   84) = (   0.1250000  -0.2165064   0.0946806), wk =   0.0078125
        k(   85) = (   0.1250000  -0.2165064   0.1893612), wk =   0.0078125
        k(   86) = (   0.1250001  -0.2165064   0.2840418), wk =   0.0078125
        k(   87) = (   0.1250000  -0.2165064  -0.3787223), wk =   0.0078125
        k(   88) = (   0.1250000  -0.2165064  -0.2840417), wk =   0.0078125
        k(   89) = (   0.1250000  -0.2165064  -0.1893612), wk =   0.0078125
        k(   90) = (   0.1250000  -0.2165064  -0.0946806), wk =   0.0078125
        k(   91) = (   0.1250000  -0.0721688   0.0000000), wk =   0.0078125
        k(   92) = (   0.1250000  -0.0721688   0.0946806), wk =   0.0078125
        k(   93) = (   0.1250000  -0.0721688   0.1893612), wk =   0.0078125
        k(   94) = (   0.1250000  -0.0721688   0.2840418), wk =   0.0078125
        k(   95) = (   0.1250000  -0.0721688  -0.3787223), wk =   0.0078125
        k(   96) = (   0.1250000  -0.0721688  -0.2840417), wk =   0.0078125
        k(   97) = (   0.1250000  -0.0721688  -0.1893612), wk =   0.0078125
        k(   98) = (   0.1250000  -0.0721688  -0.0946806), wk =   0.0078125
        k(   99) = (   0.2500000   0.1443375   0.0000000), wk =   0.0078125
        k(  100) = (   0.2500000   0.1443375   0.0946806), wk =   0.0078125
        k(  101) = (   0.2500000   0.1443376   0.1893612), wk =   0.0078125
        k(  102) = (   0.2500000   0.1443376   0.2840418), wk =   0.0078125
        k(  103) = (   0.2499999   0.1443375  -0.3787223), wk =   0.0078125
        k(  104) = (   0.2499999   0.1443375  -0.2840417), wk =   0.0078125
        k(  105) = (   0.2500000   0.1443375  -0.1893611), wk =   0.0078125
        k(  106) = (   0.2500000   0.1443375  -0.0946805), wk =   0.0078125
        k(  107) = (   0.2500000   0.2886751   0.0000001), wk =   0.0078125
        k(  108) = (   0.2500000   0.2886751   0.0946806), wk =   0.0078125
        k(  109) = (   0.2500000   0.2886751   0.1893612), wk =   0.0078125
        k(  110) = (   0.2500000   0.2886751   0.2840418), wk =   0.0078125
        k(  111) = (   0.2499999   0.2886751  -0.3787223), wk =   0.0078125
        k(  112) = (   0.2499999   0.2886751  -0.2840417), wk =   0.0078125
        k(  113) = (   0.2499999   0.2886751  -0.1893611), wk =   0.0078125
        k(  114) = (   0.2500000   0.2886751  -0.0946805), wk =   0.0078125
        k(  115) = (   0.2500000   0.4330127   0.0000001), wk =   0.0078125
        k(  116) = (   0.2500000   0.4330127   0.0946806), wk =   0.0078125
        k(  117) = (   0.2500000   0.4330127   0.1893612), wk =   0.0078125
        k(  118) = (   0.2500000   0.4330127   0.2840418), wk =   0.0078125
        k(  119) = (   0.2499999   0.4330127  -0.3787223), wk =   0.0078125
        k(  120) = (   0.2499999   0.4330127  -0.2840417), wk =   0.0078125
        k(  121) = (   0.2499999   0.4330127  -0.1893611), wk =   0.0078125
        k(  122) = (   0.2499999   0.4330127  -0.0946805), wk =   0.0078125
        k(  123) = (   0.2499999   0.5773502   0.0000001), wk =   0.0078125
        k(  124) = (   0.2500000   0.5773503   0.0946806), wk =   0.0078125
        k(  125) = (   0.2500000   0.5773503   0.1893612), wk =   0.0078125
        k(  126) = (   0.2500000   0.5773503   0.2840418), wk =   0.0078125
        k(  127) = (   0.2499999   0.5773502  -0.3787223), wk =   0.0078125
        k(  128) = (   0.2499999   0.5773502  -0.2840417), wk =   0.0078125
        k(  129) = (   0.2499999   0.5773502  -0.1893611), wk =   0.0078125
        k(  130) = (   0.2499999   0.5773502  -0.0946805), wk =   0.0078125
        k(  131) = (   0.2500000  -0.4330127   0.0000000), wk =   0.0078125
        k(  132) = (   0.2500001  -0.4330127   0.0946806), wk =   0.0078125
        k(  133) = (   0.2500001  -0.4330127   0.1893612), wk =   0.0078125
        k(  134) = (   0.2500001  -0.4330127   0.2840418), wk =   0.0078125
        k(  135) = (   0.2500000  -0.4330127  -0.3787223), wk =   0.0078125
        k(  136) = (   0.2500000  -0.4330127  -0.2840417), wk =   0.0078125
        k(  137) = (   0.2500000  -0.4330127  -0.1893611), wk =   0.0078125
        k(  138) = (   0.2500000  -0.4330127  -0.0946806), wk =   0.0078125
        k(  139) = (   0.2500000  -0.2886752   0.0000000), wk =   0.0078125
        k(  140) = (   0.2500000  -0.2886752   0.0946806), wk =   0.0078125
        k(  141) = (   0.2500001  -0.2886752   0.1893612), wk =   0.0078125
        k(  142) = (   0.2500001  -0.2886751   0.2840418), wk =   0.0078125
        k(  143) = (   0.2500000  -0.2886752  -0.3787223), wk =   0.0078125
        k(  144) = (   0.2500000  -0.2886752  -0.2840417), wk =   0.0078125
        k(  145) = (   0.2500000  -0.2886752  -0.1893611), wk =   0.0078125
        k(  146) = (   0.2500000  -0.2886752  -0.0946806), wk =   0.0078125
        k(  147) = (   0.2500000  -0.1443376   0.0000000), wk =   0.0078125
        k(  148) = (   0.2500000  -0.1443376   0.0946806), wk =   0.0078125
        k(  149) = (   0.2500000  -0.1443376   0.1893612), wk =   0.0078125
        k(  150) = (   0.2500001  -0.1443376   0.2840418), wk =   0.0078125
        k(  151) = (   0.2500000  -0.1443376  -0.3787223), wk =   0.0078125
        k(  152) = (   0.2500000  -0.1443376  -0.2840417), wk =   0.0078125
        k(  153) = (   0.2500000  -0.1443376  -0.1893611), wk =   0.0078125
        k(  154) = (   0.2500000  -0.1443376  -0.0946805), wk =   0.0078125
        k(  155) = (   0.2500000  -0.0000000   0.0000000), wk =   0.0078125
        k(  156) = (   0.2500000  -0.0000000   0.0946806), wk =   0.0078125
        k(  157) = (   0.2500000  -0.0000000   0.1893612), wk =   0.0078125
        k(  158) = (   0.2500000  -0.0000000   0.2840418), wk =   0.0078125
        k(  159) = (   0.2499999  -0.0000000  -0.3787223), wk =   0.0078125
        k(  160) = (   0.2500000  -0.0000000  -0.2840417), wk =   0.0078125
        k(  161) = (   0.2500000  -0.0000000  -0.1893611), wk =   0.0078125
        k(  162) = (   0.2500000  -0.0000000  -0.0946805), wk =   0.0078125
        k(  163) = (   0.3750000   0.2165063   0.0000001), wk =   0.0078125
        k(  164) = (   0.3750000   0.2165063   0.0946807), wk =   0.0078125
        k(  165) = (   0.3750000   0.2165063   0.1893612), wk =   0.0078125
        k(  166) = (   0.3750000   0.2165063   0.2840418), wk =   0.0078125
        k(  167) = (   0.3749999   0.2165063  -0.3787223), wk =   0.0078125
        k(  168) = (   0.3749999   0.2165063  -0.2840417), wk =   0.0078125
        k(  169) = (   0.3750000   0.2165063  -0.1893611), wk =   0.0078125
        k(  170) = (   0.3750000   0.2165063  -0.0946805), wk =   0.0078125
        k(  171) = (   0.3750000   0.3608439   0.0000001), wk =   0.0078125
        k(  172) = (   0.3750000   0.3608439   0.0946807), wk =   0.0078125
        k(  173) = (   0.3750000   0.3608439   0.1893612), wk =   0.0078125
        k(  174) = (   0.3750000   0.3608439   0.2840418), wk =   0.0078125
        k(  175) = (   0.3749999   0.3608439  -0.3787223), wk =   0.0078125
        k(  176) = (   0.3749999   0.3608439  -0.2840417), wk =   0.0078125
        k(  177) = (   0.3749999   0.3608439  -0.1893611), wk =   0.0078125
        k(  178) = (   0.3750000   0.3608439  -0.0946805), wk =   0.0078125
        k(  179) = (   0.3749999   0.5051815   0.0000001), wk =   0.0078125
        k(  180) = (   0.3750000   0.5051815   0.0946807), wk =   0.0078125
        k(  181) = (   0.3750000   0.5051815   0.1893613), wk =   0.0078125
        k(  182) = (   0.3750000   0.5051815   0.2840418), wk =   0.0078125
        k(  183) = (   0.3749999   0.5051814  -0.3787223), wk =   0.0078125
        k(  184) = (   0.3749999   0.5051814  -0.2840417), wk =   0.0078125
        k(  185) = (   0.3749999   0.5051814  -0.1893611), wk =   0.0078125
        k(  186) = (   0.3749999   0.5051814  -0.0946805), wk =   0.0078125
        k(  187) = (   0.3749999   0.6495190   0.0000001), wk =   0.0078125
        k(  188) = (   0.3749999   0.6495190   0.0946807), wk =   0.0078125
        k(  189) = (   0.3750000   0.6495190   0.1893613), wk =   0.0078125
        k(  190) = (   0.3750000   0.6495190   0.2840418), wk =   0.0078125
        k(  191) = (   0.3749999   0.6495190  -0.3787223), wk =   0.0078125
        k(  192) = (   0.3749999   0.6495190  -0.2840417), wk =   0.0078125
        k(  193) = (   0.3749999   0.6495190  -0.1893611), wk =   0.0078125
        k(  194) = (   0.3749999   0.6495190  -0.0946805), wk =   0.0078125
        k(  195) = (   0.3750000  -0.3608440   0.0000001), wk =   0.0078125
        k(  196) = (   0.3750000  -0.3608440   0.0946806), wk =   0.0078125
        k(  197) = (   0.3750001  -0.3608439   0.1893612), wk =   0.0078125
        k(  198) = (   0.3750001  -0.3608439   0.2840418), wk =   0.0078125
        k(  199) = (   0.3750000  -0.3608440  -0.3787223), wk =   0.0078125
        k(  200) = (   0.3750000  -0.3608440  -0.2840417), wk =   0.0078125
        k(  201) = (   0.3750000  -0.3608440  -0.1893611), wk =   0.0078125
        k(  202) = (   0.3750000  -0.3608440  -0.0946805), wk =   0.0078125
        k(  203) = (   0.3750000  -0.2165064   0.0000001), wk =   0.0078125
        k(  204) = (   0.3750000  -0.2165064   0.0946806), wk =   0.0078125
        k(  205) = (   0.3750000  -0.2165064   0.1893612), wk =   0.0078125
        k(  206) = (   0.3750001  -0.2165064   0.2840418), wk =   0.0078125
        k(  207) = (   0.3750000  -0.2165064  -0.3787223), wk =   0.0078125
        k(  208) = (   0.3750000  -0.2165064  -0.2840417), wk =   0.0078125
        k(  209) = (   0.3750000  -0.2165064  -0.1893611), wk =   0.0078125
        k(  210) = (   0.3750000  -0.2165064  -0.0946805), wk =   0.0078125
        k(  211) = (   0.3750000  -0.0721688   0.0000001), wk =   0.0078125
        k(  212) = (   0.3750000  -0.0721688   0.0946806), wk =   0.0078125
        k(  213) = (   0.3750000  -0.0721688   0.1893612), wk =   0.0078125
        k(  214) = (   0.3750000  -0.0721688   0.2840418), wk =   0.0078125
        k(  215) = (   0.3750000  -0.0721688  -0.3787223), wk =   0.0078125
        k(  216) = (   0.3750000  -0.0721688  -0.2840417), wk =   0.0078125
        k(  217) = (   0.3750000  -0.0721688  -0.1893611), wk =   0.0078125
        k(  218) = (   0.3750000  -0.0721688  -0.0946805), wk =   0.0078125
        k(  219) = (   0.3750000   0.0721687   0.0000001), wk =   0.0078125
        k(  220) = (   0.3750000   0.0721688   0.0946807), wk =   0.0078125
        k(  221) = (   0.3750000   0.0721688   0.1893612), wk =   0.0078125
        k(  222) = (   0.3750000   0.0721688   0.2840418), wk =   0.0078125
        k(  223) = (   0.3749999   0.0721687  -0.3787223), wk =   0.0078125
        k(  224) = (   0.3750000   0.0721687  -0.2840417), wk =   0.0078125
        k(  225) = (   0.3750000   0.0721687  -0.1893611), wk =   0.0078125
        k(  226) = (   0.3750000   0.0721687  -0.0946805), wk =   0.0078125
        k(  227) = (  -0.5000000  -0.2886751  -0.0000001), wk =   0.0039062
        k(  228) = (  -0.5000000  -0.2886751   0.0946805), wk =   0.0078125
        k(  229) = (  -0.4999999  -0.2886751   0.1893611), wk =   0.0078125
        k(  230) = (  -0.4999999  -0.2886751   0.2840417), wk =   0.0078125
        k(  231) = (  -0.5000000  -0.2886751  -0.3787224), wk =   0.0039062
        k(  232) = (  -0.5000000  -0.1443375  -0.0000001), wk =   0.0078125
        k(  233) = (  -0.5000000  -0.1443375   0.0946805), wk =   0.0078125
        k(  234) = (  -0.5000000  -0.1443375   0.1893611), wk =   0.0078125
        k(  235) = (  -0.4999999  -0.1443375   0.2840417), wk =   0.0078125
        k(  236) = (  -0.5000000  -0.1443375  -0.3787224), wk =   0.0078125
        k(  237) = (  -0.5000000  -0.1443375  -0.2840418), wk =   0.0078125
        k(  238) = (  -0.5000000  -0.1443375  -0.1893613), wk =   0.0078125
        k(  239) = (  -0.5000000  -0.1443375  -0.0946807), wk =   0.0078125
        k(  240) = (  -0.5000000   0.0000001  -0.0000001), wk =   0.0078125
        k(  241) = (  -0.5000000   0.0000001   0.0946805), wk =   0.0078125
        k(  242) = (  -0.5000000   0.0000001   0.1893611), wk =   0.0078125
        k(  243) = (  -0.5000000   0.0000001   0.2840417), wk =   0.0078125
        k(  244) = (  -0.5000001   0.0000000  -0.3787224), wk =   0.0078125
        k(  245) = (  -0.5000000   0.0000000  -0.2840418), wk =   0.0078125
        k(  246) = (  -0.5000000   0.0000000  -0.1893613), wk =   0.0078125
        k(  247) = (  -0.5000000   0.0000000  -0.0946807), wk =   0.0078125
        k(  248) = (  -0.5000000   0.1443376  -0.0000001), wk =   0.0078125
        k(  249) = (  -0.5000000   0.1443376   0.0946805), wk =   0.0078125
        k(  250) = (  -0.5000000   0.1443376   0.1893611), wk =   0.0078125
        k(  251) = (  -0.5000000   0.1443376   0.2840417), wk =   0.0078125
        k(  252) = (  -0.5000001   0.1443376  -0.3787224), wk =   0.0078125
        k(  253) = (  -0.5000001   0.1443376  -0.2840418), wk =   0.0078125
        k(  254) = (  -0.5000000   0.1443376  -0.1893612), wk =   0.0078125
        k(  255) = (  -0.5000000   0.1443376  -0.0946807), wk =   0.0078125
        k(  256) = (  -0.4999999  -0.8660254  -0.0000001), wk =   0.0039062
        k(  257) = (  -0.4999999  -0.8660254   0.0946805), wk =   0.0078125
        k(  258) = (  -0.4999999  -0.8660253   0.1893611), wk =   0.0078125
        k(  259) = (  -0.4999999  -0.8660253   0.2840416), wk =   0.0078125
        k(  260) = (  -0.5000000  -0.8660254  -0.3787225), wk =   0.0039062

                       cryst. coord.
        k(    1) = (   0.0000000   0.0000000   0.0000000), wk =   0.0039062
        k(    2) = (   0.0000000  -0.0000000   0.1250000), wk =   0.0078125
        k(    3) = (   0.0000000  -0.0000000   0.2500000), wk =   0.0078125
        k(    4) = (   0.0000000  -0.0000000   0.3750000), wk =   0.0078125
        k(    5) = (  -0.0000000   0.0000000  -0.5000000), wk =   0.0039062
        k(    6) = (  -0.0000000   0.1250000   0.0000000), wk =   0.0078125
        k(    7) = (  -0.0000000   0.1250000   0.1250000), wk =   0.0078125
        k(    8) = (   0.0000000   0.1250000   0.2500000), wk =   0.0078125
        k(    9) = (   0.0000000   0.1250000   0.3750000), wk =   0.0078125
        k(   10) = (  -0.0000000   0.1250000  -0.5000000), wk =   0.0078125
        k(   11) = (  -0.0000000   0.1250000  -0.3750000), wk =   0.0078125
        k(   12) = (  -0.0000000   0.1250000  -0.2500000), wk =   0.0078125
        k(   13) = (  -0.0000000   0.1250000  -0.1250000), wk =   0.0078125
        k(   14) = (  -0.0000000   0.2500000   0.0000000), wk =   0.0078125
        k(   15) = (  -0.0000000   0.2500000   0.1250000), wk =   0.0078125
        k(   16) = (  -0.0000000   0.2500000   0.2500000), wk =   0.0078125
        k(   17) = (  -0.0000000   0.2500000   0.3750000), wk =   0.0078125
        k(   18) = (  -0.0000000   0.2500000  -0.5000000), wk =   0.0078125
        k(   19) = (  -0.0000000   0.2500000  -0.3750000), wk =   0.0078125
        k(   20) = (  -0.0000000   0.2500000  -0.2500000), wk =   0.0078125
        k(   21) = (  -0.0000000   0.2500000  -0.1250000), wk =   0.0078125
        k(   22) = (  -0.0000000   0.3750000   0.0000000), wk =   0.0078125
        k(   23) = (  -0.0000000   0.3750000   0.1250000), wk =   0.0078125
        k(   24) = (   0.0000000   0.3750000   0.2500000), wk =   0.0078125
        k(   25) = (   0.0000000   0.3750000   0.3750000), wk =   0.0078125
        k(   26) = (  -0.0000000   0.3750000  -0.5000000), wk =   0.0078125
        k(   27) = (  -0.0000000   0.3750000  -0.3750000), wk =   0.0078125
        k(   28) = (  -0.0000000   0.3750000  -0.2500000), wk =   0.0078125
        k(   29) = (  -0.0000000   0.3750000  -0.1250000), wk =   0.0078125
        k(   30) = (   0.0000000  -0.5000000  -0.0000000), wk =   0.0039062
        k(   31) = (   0.0000000  -0.5000000   0.1250000), wk =   0.0078125
        k(   32) = (   0.0000000  -0.5000000   0.2500000), wk =   0.0078125
        k(   33) = (   0.0000000  -0.5000000   0.3750000), wk =   0.0078125
        k(   34) = (   0.0000000  -0.5000000  -0.5000000), wk =   0.0039062
        k(   35) = (   0.1250000  -0.0000000  -0.0000000), wk =   0.0078125
        k(   36) = (   0.1250000  -0.0000000   0.1250000), wk =   0.0078125
        k(   37) = (   0.1250000  -0.0000000   0.2500000), wk =   0.0078125
        k(   38) = (   0.1250000  -0.0000000   0.3750000), wk =   0.0078125
        k(   39) = (   0.1250000  -0.0000000  -0.5000000), wk =   0.0078125
        k(   40) = (   0.1250000   0.0000000  -0.3750000), wk =   0.0078125
        k(   41) = (   0.1250000  -0.0000000  -0.2500000), wk =   0.0078125
        k(   42) = (   0.1250000   0.0000000  -0.1250000), wk =   0.0078125
        k(   43) = (   0.1250000   0.1250000  -0.0000000), wk =   0.0078125
        k(   44) = (   0.1250000   0.1250000   0.1250000), wk =   0.0078125
        k(   45) = (   0.1250000   0.1250000   0.2500000), wk =   0.0078125
        k(   46) = (   0.1250000   0.1250000   0.3750000), wk =   0.0078125
        k(   47) = (   0.1250000   0.1250000  -0.5000000), wk =   0.0078125
        k(   48) = (   0.1250000   0.1250000  -0.3750000), wk =   0.0078125
        k(   49) = (   0.1250000   0.1250000  -0.2500000), wk =   0.0078125
        k(   50) = (   0.1250000   0.1250000  -0.1250000), wk =   0.0078125
        k(   51) = (   0.1250000   0.2500000   0.0000000), wk =   0.0078125
        k(   52) = (   0.1250000   0.2500000   0.1250000), wk =   0.0078125
        k(   53) = (   0.1250000   0.2500000   0.2500000), wk =   0.0078125
        k(   54) = (   0.1250000   0.2500000   0.3750000), wk =   0.0078125
        k(   55) = (   0.1250000   0.2500000  -0.5000000), wk =   0.0078125
        k(   56) = (   0.1250000   0.2500000  -0.3750000), wk =   0.0078125
        k(   57) = (   0.1250000   0.2500000  -0.2500000), wk =   0.0078125
        k(   58) = (   0.1250000   0.2500000  -0.1250000), wk =   0.0078125
        k(   59) = (   0.1250000   0.3750000   0.0000000), wk =   0.0078125
        k(   60) = (   0.1250000   0.3750000   0.1250000), wk =   0.0078125
        k(   61) = (   0.1250000   0.3750000   0.2500000), wk =   0.0078125
        k(   62) = (   0.1250000   0.3750000   0.3750000), wk =   0.0078125
        k(   63) = (   0.1250000   0.3750000  -0.5000000), wk =   0.0078125
        k(   64) = (   0.1250000   0.3750000  -0.3750000), wk =   0.0078125
        k(   65) = (   0.1250000   0.3750000  -0.2500000), wk =   0.0078125
        k(   66) = (   0.1250000   0.3750000  -0.1250000), wk =   0.0078125
        k(   67) = (   0.1250000  -0.5000000  -0.0000000), wk =   0.0078125
        k(   68) = (   0.1250000  -0.5000000   0.1250000), wk =   0.0078125
        k(   69) = (   0.1250000  -0.5000000   0.2500000), wk =   0.0078125
        k(   70) = (   0.1250000  -0.5000000   0.3750000), wk =   0.0078125
        k(   71) = (   0.1250000  -0.5000000  -0.5000000), wk =   0.0078125
        k(   72) = (   0.1250000  -0.5000000  -0.3750000), wk =   0.0078125
        k(   73) = (   0.1250000  -0.5000000  -0.2500000), wk =   0.0078125
        k(   74) = (   0.1250000  -0.5000000  -0.1250000), wk =   0.0078125
        k(   75) = (   0.1250000  -0.3750000  -0.0000000), wk =   0.0078125
        k(   76) = (   0.1250000  -0.3750000   0.1250000), wk =   0.0078125
        k(   77) = (   0.1250000  -0.3750000   0.2500000), wk =   0.0078125
        k(   78) = (   0.1250000  -0.3750000   0.3750000), wk =   0.0078125
        k(   79) = (   0.1250000  -0.3750000  -0.5000000), wk =   0.0078125
        k(   80) = (   0.1250000  -0.3750000  -0.3750000), wk =   0.0078125
        k(   81) = (   0.1250000  -0.3750000  -0.2500000), wk =   0.0078125
        k(   82) = (   0.1250000  -0.3750000  -0.1250000), wk =   0.0078125
        k(   83) = (   0.1250000  -0.2500000  -0.0000000), wk =   0.0078125
        k(   84) = (   0.1250000  -0.2500000   0.1250000), wk =   0.0078125
        k(   85) = (   0.1250000  -0.2500000   0.2500000), wk =   0.0078125
        k(   86) = (   0.1250000  -0.2500000   0.3750000), wk =   0.0078125
        k(   87) = (   0.1250000  -0.2500000  -0.5000000), wk =   0.0078125
        k(   88) = (   0.1250000  -0.2500000  -0.3750000), wk =   0.0078125
        k(   89) = (   0.1250000  -0.2500000  -0.2500000), wk =   0.0078125
        k(   90) = (   0.1250000  -0.2500000  -0.1250000), wk =   0.0078125
        k(   91) = (   0.1250000  -0.1250000  -0.0000000), wk =   0.0078125
        k(   92) = (   0.1250000  -0.1250000   0.1250000), wk =   0.0078125
        k(   93) = (   0.1250000  -0.1250000   0.2500000), wk =   0.0078125
        k(   94) = (   0.1250000  -0.1250000   0.3750000), wk =   0.0078125
        k(   95) = (   0.1250000  -0.1250000  -0.5000000), wk =   0.0078125
        k(   96) = (   0.1250000  -0.1250000  -0.3750000), wk =   0.0078125
        k(   97) = (   0.1250000  -0.1250000  -0.2500000), wk =   0.0078125
        k(   98) = (   0.1250000  -0.1250000  -0.1250000), wk =   0.0078125
        k(   99) = (   0.2500000  -0.0000000  -0.0000000), wk =   0.0078125
        k(  100) = (   0.2500000   0.0000000   0.1250000), wk =   0.0078125
        k(  101) = (   0.2500000  -0.0000000   0.2500000), wk =   0.0078125
        k(  102) = (   0.2500000  -0.0000000   0.3750000), wk =   0.0078125
        k(  103) = (   0.2500000  -0.0000000  -0.5000000), wk =   0.0078125
        k(  104) = (   0.2500000   0.0000000  -0.3750000), wk =   0.0078125
        k(  105) = (   0.2500000   0.0000000  -0.2500000), wk =   0.0078125
        k(  106) = (   0.2500000  -0.0000000  -0.1250000), wk =   0.0078125
        k(  107) = (   0.2500000   0.1250000  -0.0000000), wk =   0.0078125
        k(  108) = (   0.2500000   0.1250000   0.1250000), wk =   0.0078125
        k(  109) = (   0.2500000   0.1250000   0.2500000), wk =   0.0078125
        k(  110) = (   0.2500000   0.1250000   0.3750000), wk =   0.0078125
        k(  111) = (   0.2500000   0.1250000  -0.5000000), wk =   0.0078125
        k(  112) = (   0.2500000   0.1250000  -0.3750000), wk =   0.0078125
        k(  113) = (   0.2500000   0.1250000  -0.2500000), wk =   0.0078125
        k(  114) = (   0.2500000   0.1250000  -0.1250000), wk =   0.0078125
        k(  115) = (   0.2500000   0.2500000  -0.0000000), wk =   0.0078125
        k(  116) = (   0.2500000   0.2500000   0.1250000), wk =   0.0078125
        k(  117) = (   0.2500000   0.2500000   0.2500000), wk =   0.0078125
        k(  118) = (   0.2500000   0.2500000   0.3750000), wk =   0.0078125
        k(  119) = (   0.2500000   0.2500000  -0.5000000), wk =   0.0078125
        k(  120) = (   0.2500000   0.2500000  -0.3750000), wk =   0.0078125
        k(  121) = (   0.2500000   0.2500000  -0.2500000), wk =   0.0078125
        k(  122) = (   0.2500000   0.2500000  -0.1250000), wk =   0.0078125
        k(  123) = (   0.2500000   0.3750000  -0.0000000), wk =   0.0078125
        k(  124) = (   0.2500000   0.3750000   0.1250000), wk =   0.0078125
        k(  125) = (   0.2500000   0.3750000   0.2500000), wk =   0.0078125
        k(  126) = (   0.2500000   0.3750000   0.3750000), wk =   0.0078125
        k(  127) = (   0.2500000   0.3750000  -0.5000000), wk =   0.0078125
        k(  128) = (   0.2500000   0.3750000  -0.3750000), wk =   0.0078125
        k(  129) = (   0.2500000   0.3750000  -0.2500000), wk =   0.0078125
        k(  130) = (   0.2500000   0.3750000  -0.1250000), wk =   0.0078125
        k(  131) = (   0.2500000  -0.5000000  -0.0000000), wk =   0.0078125
        k(  132) = (   0.2500000  -0.5000000   0.1250000), wk =   0.0078125
        k(  133) = (   0.2500000  -0.5000000   0.2500000), wk =   0.0078125
        k(  134) = (   0.2500000  -0.5000000   0.3750000), wk =   0.0078125
        k(  135) = (   0.2500000  -0.5000000  -0.5000000), wk =   0.0078125
        k(  136) = (   0.2500000  -0.5000000  -0.3750000), wk =   0.0078125
        k(  137) = (   0.2500000  -0.5000000  -0.2500000), wk =   0.0078125
        k(  138) = (   0.2500000  -0.5000000  -0.1250000), wk =   0.0078125
        k(  139) = (   0.2500000  -0.3750000  -0.0000000), wk =   0.0078125
        k(  140) = (   0.2500000  -0.3750000   0.1250000), wk =   0.0078125
        k(  141) = (   0.2500000  -0.3750000   0.2500000), wk =   0.0078125
        k(  142) = (   0.2500000  -0.3750000   0.3750000), wk =   0.0078125
        k(  143) = (   0.2500000  -0.3750000  -0.5000000), wk =   0.0078125
        k(  144) = (   0.2500000  -0.3750000  -0.3750000), wk =   0.0078125
        k(  145) = (   0.2500000  -0.3750000  -0.2500000), wk =   0.0078125
        k(  146) = (   0.2500000  -0.3750000  -0.1250000), wk =   0.0078125
        k(  147) = (   0.2500000  -0.2500000  -0.0000000), wk =   0.0078125
        k(  148) = (   0.2500000  -0.2500000   0.1250000), wk =   0.0078125
        k(  149) = (   0.2500000  -0.2500000   0.2500000), wk =   0.0078125
        k(  150) = (   0.2500000  -0.2500000   0.3750000), wk =   0.0078125
        k(  151) = (   0.2500000  -0.2500000  -0.5000000), wk =   0.0078125
        k(  152) = (   0.2500000  -0.2500000  -0.3750000), wk =   0.0078125
        k(  153) = (   0.2500000  -0.2500000  -0.2500000), wk =   0.0078125
        k(  154) = (   0.2500000  -0.2500000  -0.1250000), wk =   0.0078125
        k(  155) = (   0.2500000  -0.1250000  -0.0000000), wk =   0.0078125
        k(  156) = (   0.2500000  -0.1250000   0.1250000), wk =   0.0078125
        k(  157) = (   0.2500000  -0.1250000   0.2500000), wk =   0.0078125
        k(  158) = (   0.2500000  -0.1250000   0.3750000), wk =   0.0078125
        k(  159) = (   0.2500000  -0.1250000  -0.5000000), wk =   0.0078125
        k(  160) = (   0.2500000  -0.1250000  -0.3750000), wk =   0.0078125
        k(  161) = (   0.2500000  -0.1250000  -0.2500000), wk =   0.0078125
        k(  162) = (   0.2500000  -0.1250000  -0.1250000), wk =   0.0078125
        k(  163) = (   0.3750000   0.0000000  -0.0000000), wk =   0.0078125
        k(  164) = (   0.3750000   0.0000000   0.1250000), wk =   0.0078125
        k(  165) = (   0.3750000   0.0000000   0.2500000), wk =   0.0078125
        k(  166) = (   0.3750000   0.0000000   0.3750000), wk =   0.0078125
        k(  167) = (   0.3750000   0.0000000  -0.5000000), wk =   0.0078125
        k(  168) = (   0.3750000   0.0000000  -0.3750000), wk =   0.0078125
        k(  169) = (   0.3750000   0.0000000  -0.2500000), wk =   0.0078125
        k(  170) = (   0.3750000   0.0000000  -0.1250000), wk =   0.0078125
        k(  171) = (   0.3750000   0.1250000  -0.0000000), wk =   0.0078125
        k(  172) = (   0.3750000   0.1250000   0.1250000), wk =   0.0078125
        k(  173) = (   0.3750000   0.1250000   0.2500000), wk =   0.0078125
        k(  174) = (   0.3750000   0.1250000   0.3750000), wk =   0.0078125
        k(  175) = (   0.3750000   0.1250000  -0.5000000), wk =   0.0078125
        k(  176) = (   0.3750000   0.1250000  -0.3750000), wk =   0.0078125
        k(  177) = (   0.3750000   0.1250000  -0.2500000), wk =   0.0078125
        k(  178) = (   0.3750000   0.1250000  -0.1250000), wk =   0.0078125
        k(  179) = (   0.3750000   0.2500000  -0.0000000), wk =   0.0078125
        k(  180) = (   0.3750000   0.2500000   0.1250000), wk =   0.0078125
        k(  181) = (   0.3750000   0.2500000   0.2500000), wk =   0.0078125
        k(  182) = (   0.3750000   0.2500000   0.3750000), wk =   0.0078125
        k(  183) = (   0.3750000   0.2500000  -0.5000000), wk =   0.0078125
        k(  184) = (   0.3750000   0.2500000  -0.3750000), wk =   0.0078125
        k(  185) = (   0.3750000   0.2500000  -0.2500000), wk =   0.0078125
        k(  186) = (   0.3750000   0.2500000  -0.1250000), wk =   0.0078125
        k(  187) = (   0.3750000   0.3750000  -0.0000000), wk =   0.0078125
        k(  188) = (   0.3750000   0.3750000   0.1250000), wk =   0.0078125
        k(  189) = (   0.3750000   0.3750000   0.2500000), wk =   0.0078125
        k(  190) = (   0.3750000   0.3750000   0.3750000), wk =   0.0078125
        k(  191) = (   0.3750000   0.3750000  -0.5000000), wk =   0.0078125
        k(  192) = (   0.3750000   0.3750000  -0.3750000), wk =   0.0078125
        k(  193) = (   0.3750000   0.3750000  -0.2500000), wk =   0.0078125
        k(  194) = (   0.3750000   0.3750000  -0.1250000), wk =   0.0078125
        k(  195) = (   0.3750000  -0.5000000  -0.0000000), wk =   0.0078125
        k(  196) = (   0.3750000  -0.5000000   0.1250000), wk =   0.0078125
        k(  197) = (   0.3750000  -0.5000000   0.2500000), wk =   0.0078125
        k(  198) = (   0.3750000  -0.5000000   0.3750000), wk =   0.0078125
        k(  199) = (   0.3750000  -0.5000000  -0.5000000), wk =   0.0078125
        k(  200) = (   0.3750000  -0.5000000  -0.3750000), wk =   0.0078125
        k(  201) = (   0.3750000  -0.5000000  -0.2500000), wk =   0.0078125
        k(  202) = (   0.3750000  -0.5000000  -0.1250000), wk =   0.0078125
        k(  203) = (   0.3750000  -0.3750000  -0.0000000), wk =   0.0078125
        k(  204) = (   0.3750000  -0.3750000   0.1250000), wk =   0.0078125
        k(  205) = (   0.3750000  -0.3750000   0.2500000), wk =   0.0078125
        k(  206) = (   0.3750000  -0.3750000   0.3750000), wk =   0.0078125
        k(  207) = (   0.3750000  -0.3750000  -0.5000000), wk =   0.0078125
        k(  208) = (   0.3750000  -0.3750000  -0.3750000), wk =   0.0078125
        k(  209) = (   0.3750000  -0.3750000  -0.2500000), wk =   0.0078125
        k(  210) = (   0.3750000  -0.3750000  -0.1250000), wk =   0.0078125
        k(  211) = (   0.3750000  -0.2500000  -0.0000000), wk =   0.0078125
        k(  212) = (   0.3750000  -0.2500000   0.1250000), wk =   0.0078125
        k(  213) = (   0.3750000  -0.2500000   0.2500000), wk =   0.0078125
        k(  214) = (   0.3750000  -0.2500000   0.3750000), wk =   0.0078125
        k(  215) = (   0.3750000  -0.2500000  -0.5000000), wk =   0.0078125
        k(  216) = (   0.3750000  -0.2500000  -0.3750000), wk =   0.0078125
        k(  217) = (   0.3750000  -0.2500000  -0.2500000), wk =   0.0078125
        k(  218) = (   0.3750000  -0.2500000  -0.1250000), wk =   0.0078125
        k(  219) = (   0.3750000  -0.1250000  -0.0000000), wk =   0.0078125
        k(  220) = (   0.3750000  -0.1250000   0.1250000), wk =   0.0078125
        k(  221) = (   0.3750000  -0.1250000   0.2500000), wk =   0.0078125
        k(  222) = (   0.3750000  -0.1250000   0.3750000), wk =   0.0078125
        k(  223) = (   0.3750000  -0.1250000  -0.5000000), wk =   0.0078125
        k(  224) = (   0.3750000  -0.1250000  -0.3750000), wk =   0.0078125
        k(  225) = (   0.3750000  -0.1250000  -0.2500000), wk =   0.0078125
        k(  226) = (   0.3750000  -0.1250000  -0.1250000), wk =   0.0078125
        k(  227) = (  -0.5000000   0.0000000   0.0000000), wk =   0.0039062
        k(  228) = (  -0.5000000   0.0000000   0.1250000), wk =   0.0078125
        k(  229) = (  -0.5000000   0.0000000   0.2500000), wk =   0.0078125
        k(  230) = (  -0.5000000   0.0000000   0.3750000), wk =   0.0078125
        k(  231) = (  -0.5000000   0.0000000  -0.5000000), wk =   0.0039062
        k(  232) = (  -0.5000000   0.1250000   0.0000000), wk =   0.0078125
        k(  233) = (  -0.5000000   0.1250000   0.1250000), wk =   0.0078125
        k(  234) = (  -0.5000000   0.1250000   0.2500000), wk =   0.0078125
        k(  235) = (  -0.5000000   0.1250000   0.3750000), wk =   0.0078125
        k(  236) = (  -0.5000000   0.1250000  -0.5000000), wk =   0.0078125
        k(  237) = (  -0.5000000   0.1250000  -0.3750000), wk =   0.0078125
        k(  238) = (  -0.5000000   0.1250000  -0.2500000), wk =   0.0078125
        k(  239) = (  -0.5000000   0.1250000  -0.1250000), wk =   0.0078125
        k(  240) = (  -0.5000000   0.2500000   0.0000000), wk =   0.0078125
        k(  241) = (  -0.5000000   0.2500000   0.1250000), wk =   0.0078125
        k(  242) = (  -0.5000000   0.2500000   0.2500000), wk =   0.0078125
        k(  243) = (  -0.5000000   0.2500000   0.3750000), wk =   0.0078125
        k(  244) = (  -0.5000000   0.2500000  -0.5000000), wk =   0.0078125
        k(  245) = (  -0.5000000   0.2500000  -0.3750000), wk =   0.0078125
        k(  246) = (  -0.5000000   0.2500000  -0.2500000), wk =   0.0078125
        k(  247) = (  -0.5000000   0.2500000  -0.1250000), wk =   0.0078125
        k(  248) = (  -0.5000000   0.3750000   0.0000000), wk =   0.0078125
        k(  249) = (  -0.5000000   0.3750000   0.1250000), wk =   0.0078125
        k(  250) = (  -0.5000000   0.3750000   0.2500000), wk =   0.0078125
        k(  251) = (  -0.5000000   0.3750000   0.3750000), wk =   0.0078125
        k(  252) = (  -0.5000000   0.3750000  -0.5000000), wk =   0.0078125
        k(  253) = (  -0.5000000   0.3750000  -0.3750000), wk =   0.0078125
        k(  254) = (  -0.5000000   0.3750000  -0.2500000), wk =   0.0078125
        k(  255) = (  -0.5000000   0.3750000  -0.1250000), wk =   0.0078125
        k(  256) = (  -0.5000000  -0.5000000   0.0000000), wk =   0.0039062
        k(  257) = (  -0.5000000  -0.5000000   0.1250000), wk =   0.0078125
        k(  258) = (  -0.5000000  -0.5000000   0.2500000), wk =   0.0078125
        k(  259) = (  -0.5000000  -0.5000000   0.3750000), wk =   0.0078125
        k(  260) = (  -0.5000000  -0.5000000  -0.5000000), wk =   0.0039062

     Dense  grid:    76033 G-vectors     FFT dimensions: (  54,  54,  72)

     Smooth grid:    29641 G-vectors     FFT dimensions: (  40,  40,  50)

     Dynamical RAM for                 wfc:       0.09 MB

     Dynamical RAM for     wfc (w. buffer):       6.05 MB

     Dynamical RAM for           str. fact:       0.15 MB

     Dynamical RAM for           local pot:       0.00 MB

     Dynamical RAM for          nlocal pot:       0.22 MB

     Dynamical RAM for                qrad:       4.03 MB

     Dynamical RAM for          rho,v,vnew:       0.55 MB

     Dynamical RAM for               rhoin:       0.18 MB

     Dynamical RAM for            rho*nmix:       1.16 MB

     Dynamical RAM for           G-vectors:       0.29 MB

     Dynamical RAM for          h,s,v(r/c):       0.12 MB

     Dynamical RAM for          <psi|beta>:       0.02 MB

     Dynamical RAM for                 psi:       0.37 MB

     Dynamical RAM for                hpsi:       0.37 MB

     Dynamical RAM for                spsi:       0.37 MB

     Dynamical RAM for      wfcinit/wfcrot:       0.27 MB

     Dynamical RAM for           addusdens:       3.46 MB

     Dynamical RAM for          addusforce:       3.60 MB

     Dynamical RAM for         addusstress:       3.67 MB

     Estimated static dynamical RAM per process >      13.40 MB

     Estimated max dynamical RAM per process >      17.07 MB

     Estimated total dynamical RAM >       1.07 GB

     Check: negative core charge=   -0.000003

     Initial potential from superposition of free atoms

     starting charge   51.99974, renormalised to   52.00000
     Starting wfcs are   34 randomized atomic wfcs

     total cpu time spent up to now is        2.6 secs

     Self-consistent Calculation

     iteration #  1     ecut=    80.00 Ry     beta= 0.50
     Davidson diagonalization with overlap
     ethr =  1.00E-02,  avg # of iterations =  1.0

     total cpu time spent up to now is        4.6 secs

     total energy              =    -986.75703928 Ry
     Harris-Foulkes estimate   =    -987.27026515 Ry
     estimated scf accuracy    <       0.80681813 Ry

     iteration #  2     ecut=    80.00 Ry     beta= 0.50
     Davidson diagonalization with overlap
     ethr =  1.55E-03,  avg # of iterations =  3.0

     total cpu time spent up to now is        5.9 secs

     total energy              =    -986.99549936 Ry
     Harris-Foulkes estimate   =    -987.15644319 Ry
     estimated scf accuracy    <       0.36957776 Ry

     iteration #  3     ecut=    80.00 Ry     beta= 0.50
     Davidson diagonalization with overlap
     ethr =  7.11E-04,  avg # of iterations =  2.1

     total cpu time spent up to now is        7.0 secs

     total energy              =    -987.06203377 Ry
     Harris-Foulkes estimate   =    -987.06430291 Ry
     estimated scf accuracy    <       0.00673996 Ry

     iteration #  4     ecut=    80.00 Ry     beta= 0.50
     Davidson diagonalization with overlap
     ethr =  1.30E-05,  avg # of iterations =  2.0

     total cpu time spent up to now is        8.1 secs

     total energy              =    -987.06261081 Ry
     Harris-Foulkes estimate   =    -987.06304564 Ry
     estimated scf accuracy    <       0.00148255 Ry

     iteration #  5     ecut=    80.00 Ry     beta= 0.50
     Davidson diagonalization with overlap
     ethr =  2.85E-06,  avg # of iterations =  2.0

     total cpu time spent up to now is        9.2 secs

     total energy              =    -987.06275922 Ry
     Harris-Foulkes estimate   =    -987.06276666 Ry
     estimated scf accuracy    <       0.00001563 Ry

     iteration #  6     ecut=    80.00 Ry     beta= 0.50
     Davidson diagonalization with overlap
     ethr =  3.00E-08,  avg # of iterations =  2.5

     total cpu time spent up to now is       10.4 secs

     total energy              =    -987.06276214 Ry
     Harris-Foulkes estimate   =    -987.06276197 Ry
     estimated scf accuracy    <       0.00000405 Ry

     iteration #  7     ecut=    80.00 Ry     beta= 0.50
     Davidson diagonalization with overlap
     ethr =  7.79E-09,  avg # of iterations =  2.1

     total cpu time spent up to now is       11.4 secs

     End of self-consistent calculation

          k = 0.0000 0.0000 0.0000 (  3667 PWs)   bands (ev):

  -113.7665-113.7659 -68.1479 -68.1407 -68.1181 -68.1181 -68.1159 -68.1159
    -8.7466  -7.5264   3.4538   3.4538   3.5692   3.5692   4.2375   4.6734
     4.6734   4.7900   5.0733   5.0733   5.4764   8.3812   8.5065   8.5066
     9.2461   9.2461

     occupation numbers 
     1.0000   1.0000   1.0000   1.0000   1.0000   1.0000   1.0000   1.0000
     1.0000   1.0000   1.0000   1.0000   1.0000   1.0000   1.0000   1.0000
     1.0000   1.0000   1.0000   1.0000   1.0000   1.0000   1.0000   1.0000
     1.0000   1.0000

          k = 0.0000 0.0000 0.0947 (  3666 PWs)   bands (ev):

  -113.7665-113.7659 -68.1476 -68.1410 -68.1180 -68.1180 -68.1160 -68.1160
    -8.7004  -7.5716   3.4465   3.4465   3.5495   3.5495   4.0547   4.6834
     4.7035   4.7035   5.0694   5.0694   5.7398   8.1141   8.5428   8.5428
     9.2276   9.2276

     occupation numbers 
     1.0000   1.0000   1.0000   1.0000   1.0000   1.0000   1.0000   1.0000
     1.0000   1.0000   1.0000   1.0000   1.0000   1.0000   1.0000   1.0000
     1.0000   1.0000   1.0000   1.0000   1.0000   1.0000   1.0000   1.0000
     1.0000   1.0000

          k = 0.0000 0.0000 0.1894 (  3684 PWs)   bands (ev):

  -113.7664-113.7660 -68.1468 -68.1419 -68.1178 -68.1178 -68.1163 -68.1163
    -8.5683  -7.7015   3.4305   3.4305   3.5035   3.5035   3.7973   4.4048
     4.7793   4.7793   5.0534   5.0535   6.2260   7.7003   8.6434   8.6434
     9.1704   9.1704

     occupation numbers 
     1.0000   1.0000   1.0000   1.0000   1.0000   1.0000   1.0000   1.0000
     1.0000   1.0000   1.0000   1.0000   1.0000   1.0000   1.0000   1.0000
     1.0000   1.0000   1.0000   1.0000   1.0000   1.0000   1.0000   1.0000
     1.0000   1.0000

          k = 0.0000 0.0000 0.2840 (  3720 PWs)   bands (ev):

  -113.7663-113.7661 -68.1457 -68.1431 -68.1175 -68.1175 -68.1166 -68.1166
    -8.3694  -7.8988   3.4195   3.4195   3.4562   3.4562   3.6969   4.0663
     4.8715   4.8715   5.0172   5.0172   6.6795   7.3587   8.7853   8.7853
     9.0721   9.0721

     occupation numbers 
     1.0000   1.0000   1.0000   1.0000   1.0000   1.0000   1.0000   1.0000
     1.0000   1.0000   1.0000   1.0000   1.0000   1.0000   1.0000   1.0000
     1.0000   1.0000   1.0000   1.0000   1.0000   1.0000   1.0000   1.0000
     1.0000   1.0000

          k =-0.0000-0.0000-0.3787 (  3696 PWs)   bands (ev):

  -113.7662-113.7662 -68.1443 -68.1443 -68.1171 -68.1171 -68.1170 -68.1170
    -8.1338  -8.1338   3.4262   3.4262   3.4262   3.4263   3.7989   3.7989
     4.9554   4.9554   4.9555   4.9555   7.0446   7.0446   8.9378   8.9378
     8.9378   8.9378

     occupation numbers 
     1.0000   1.0000   1.0000   1.0000   1.0000   1.0000   1.0000   1.0000
     1.0000   1.0000   1.0000   1.0000   1.0000   1.0000   1.0000   1.0000
     1.0000   1.0000   1.0000   1.0000   1.0000   1.0000   1.0000   1.0000
     1.0000   1.0000

          k =-0.0000 0.1443 0.0000 (  3696 PWs)   bands (ev):

  -113.7665-113.7659 -68.1476 -68.1410 -68.1183 -68.1182 -68.1162 -68.1159
    -8.6591  -7.5146   3.4335   3.5222   3.5359   3.6758   4.1392   4.6141
     4.6490   4.8146   5.0878   5.3320   5.4666   7.9977   8.2391   8.3503
     8.4549   9.0778

     occupation numbers 
     1.0000   1.0000   1.0000   1.0000   1.0000   1.0000   1.0000   1.0000
     1.0000   1.0000   1.0000   1.0000   1.0000   1.0000   1.0000   1.0000
     1.0000   1.0000   1.0000   1.0000   1.0000   1.0000   1.0000   1.0000
     1.0000   1.0000

          k =-0.0000 0.1443 0.0947 (  3686 PWs)   bands (ev):

  -113.7664-113.7659 -68.1474 -68.1412 -68.1182 -68.1181 -68.1162 -68.1160
    -8.6148  -7.5557   3.4118   3.5095   3.5159   3.6531   4.0048   4.5575
     4.6814   4.7933   5.0819   5.1936   5.8167   7.8624   8.0987   8.2791
     8.8521   9.0554

     occupation numbers 
     1.0000   1.0000   1.0000   1.0000   1.0000   1.0000   1.0000   1.0000
     1.0000   1.0000   1.0000   1.0000   1.0000   1.0000   1.0000   1.0000
     1.0000   1.0000   1.0000   1.0000   1.0000   1.0000   1.0000   1.0000
     1.0000   1.0000

          k = 0.0000 0.1443 0.1894 (  3697 PWs)   bands (ev):

  -113.7664-113.7660 -68.1467 -68.1420 -68.1179 -68.1179 -68.1165 -68.1163
    -8.4885  -7.6747   3.3490   3.4439   3.5028   3.6002   3.8131   4.3243
     4.7622   4.8315   5.0608   5.1223   6.2858   7.4745   8.2813   8.3902
     8.9870   9.0607

     occupation numbers 
     1.0000   1.0000   1.0000   1.0000   1.0000   1.0000   1.0000   1.0000
     1.0000   1.0000   1.0000   1.0000   1.0000   1.0000   1.0000   1.0000
     1.0000   1.0000   1.0000   1.0000   1.0000   1.0000   1.0000   1.0000
     1.0000   1.0000

          k = 0.0000 0.1443 0.2840 (  3700 PWs)   bands (ev):

  -113.7663-113.7661 -68.1456 -68.1431 -68.1176 -68.1175 -68.1168 -68.1166
    -8.2993  -7.8572   3.2910   3.3696   3.4963   3.5456   3.7461   4.0273
     4.8600   4.9149   5.0180   5.0676   6.6700   7.1921   8.5478   8.5593
     8.8722   9.0297

     occupation numbers 
     1.0000   1.0000   1.0000   1.0000   1.0000   1.0000   1.0000   1.0000
     1.0000   1.0000   1.0000   1.0000   1.0000   1.0000   1.0000   1.0000
     1.0000   1.0000   1.0000   1.0000   1.0000   1.0000   1.0000   1.0000
     1.0000   1.0000

          k =-0.0000 0.1443-0.3787 (  3698 PWs)   bands (ev):

  -113.7662-113.7661 -68.1444 -68.1443 -68.1172 -68.1172 -68.1171 -68.1171
    -8.0770  -8.0769   3.3053   3.3053   3.5088   3.5088   3.8161   3.8161
     4.9497   4.9497   4.9991   4.9991   6.9517   6.9517   8.7189   8.7189
     8.8380   8.8380

     occupation numbers 
     1.0000   1.0000   1.0000   1.0000   1.0000   1.0000   1.0000   1.0000
     1.0000   1.0000   1.0000   1.0000   1.0000   1.0000   1.0000   1.0000
     1.0000   1.0000   1.0000   1.0000   1.0000   1.0000   1.0000   1.0000
     1.0000   1.0000

          k =-0.0000 0.1443-0.2840 (  3700 PWs)   bands (ev):

  -113.7663-113.7661 -68.1456 -68.1431 -68.1176 -68.1175 -68.1168 -68.1166
    -8.2993  -7.8572   3.2910   3.3696   3.4963   3.5456   3.7461   4.0273
     4.8600   4.9149   5.0180   5.0676   6.6700   7.1921   8.5478   8.5593
     8.8722   9.0297

     occupation numbers 
     1.0000   1.0000   1.0000   1.0000   1.0000   1.0000   1.0000   1.0000
     1.0000   1.0000   1.0000   1.0000   1.0000   1.0000   1.0000   1.0000
     1.0000   1.0000   1.0000   1.0000   1.0000   1.0000   1.0000   1.0000
     1.0000   1.0000

          k =-0.0000 0.1443-0.1894 (  3697 PWs)   bands (ev):

  -113.7664-113.7660 -68.1467 -68.1420 -68.1179 -68.1179 -68.1165 -68.1163
    -8.4885  -7.6747   3.3490   3.4439   3.5028   3.6002   3.8131   4.3243
     4.7622   4.8315   5.0608   5.1223   6.2858   7.4745   8.2813   8.3902
     8.9870   9.0607

     occupation numbers 
     1.0000   1.0000   1.0000   1.0000   1.0000   1.0000   1.0000   1.0000
     1.0000   1.0000   1.0000   1.0000   1.0000   1.0000   1.0000   1.0000
     1.0000   1.0000   1.0000   1.0000   1.0000   1.0000   1.0000   1.0000
     1.0000   1.0000

          k =-0.0000 0.1443-0.0947 (  3686 PWs)   bands (ev):

  -113.7664-113.7659 -68.1474 -68.1412 -68.1182 -68.1181 -68.1162 -68.1160
    -8.6148  -7.5557   3.4118   3.5095   3.5159   3.6531   4.0048   4.5575
     4.6814   4.7933   5.0819   5.1936   5.8167   7.8624   8.0987   8.2791
     8.8521   9.0554

     occupation numbers 
     1.0000   1.0000   1.0000   1.0000   1.0000   1.0000   1.0000   1.0000
     1.0000   1.0000   1.0000   1.0000   1.0000   1.0000   1.0000   1.0000
     1.0000   1.0000   1.0000   1.0000   1.0000   1.0000   1.0000   1.0000
     1.0000   1.0000

          k =-0.0000 0.2887 0.0000 (  3698 PWs)   bands (ev):

  -113.7664-113.7659 -68.1469 -68.1416 -68.1185 -68.1185 -68.1168 -68.1160
    -8.4272  -7.5021   3.3294   3.6093   3.7275   3.9473   4.0310   4.4729
     4.5963   4.8616   5.1171   5.4177   5.8745   6.9625   7.4422   7.6081
     8.2382   8.6445

     occupation numbers 
     1.0000   1.0000   1.0000   1.0000   1.0000   1.0000   1.0000   1.0000
     1.0000   1.0000   1.0000   1.0000   1.0000   1.0000   1.0000   1.0000
     1.0000   1.0000   1.0000   1.0000   1.0000   1.0000   1.0000   1.0000
     1.0000   1.0000

          k =-0.0000 0.2887 0.0947 (  3704 PWs)   bands (ev):

  -113.7664-113.7659 -68.1467 -68.1419 -68.1184 -68.1184 -68.1168 -68.1161
    -8.3888  -7.5321   3.2981   3.5370   3.7223   3.9159   3.9593   4.3866
     4.6356   4.8706   5.1062   5.3193   6.0610   7.0758   7.2740   7.6570
     8.5388   8.6149

     occupation numbers 
     1.0000   1.0000   1.0000   1.0000   1.0000   1.0000   1.0000   1.0000
     1.0000   1.0000   1.0000   1.0000   1.0000   1.0000   1.0000   1.0000
     1.0000   1.0000   1.0000   1.0000   1.0000   1.0000   1.0000   1.0000
     1.0000   1.0000

          k =-0.0000 0.2887 0.1894 (  3708 PWs)   bands (ev):

  -113.7663-113.7660 -68.1462 -68.1425 -68.1182 -68.1181 -68.1170 -68.1163
    -8.2801  -7.6207   3.2009   3.3728   3.7125   3.8470   3.8542   4.1737
     4.7283   4.9156   5.0728   5.2232   6.2771   6.8667   7.6946   7.7921
     8.5260   8.9136

     occupation numbers 
     1.0000   1.0000   1.0000   1.0000   1.0000   1.0000   1.0000   1.0000
     1.0000   1.0000   1.0000   1.0000   1.0000   1.0000   1.0000   1.0000
     1.0000   1.0000   1.0000   1.0000   1.0000   1.0000   1.0000   1.0000
     1.0000   1.0000

          k = 0.0000 0.2887 0.2840 (  3685 PWs)   bands (ev):

  -113.7662-113.7661 -68.1454 -68.1434 -68.1179 -68.1177 -68.1172 -68.1167
    -8.1199  -7.7610   3.0991   3.2167   3.7114   3.7785   3.8055   3.9575
     4.8359   4.9931   5.0157   5.1520   6.4219   6.6767   7.9832   8.2945
     8.3808   9.0100

     occupation numbers 
     1.0000   1.0000   1.0000   1.0000   1.0000   1.0000   1.0000   1.0000
     1.0000   1.0000   1.0000   1.0000   1.0000   1.0000   1.0000   1.0000
     1.0000   1.0000   1.0000   1.0000   1.0000   1.0000   1.0000   1.0000
     1.0000   1.0000

          k =-0.0000 0.2887-0.3787 (  3690 PWs)   bands (ev):

  -113.7662-113.7661 -68.1444 -68.1444 -68.1175 -68.1175 -68.1172 -68.1172
    -7.9364  -7.9364   3.1047   3.1047   3.7315   3.7315   3.8332   3.8332
     4.9353   4.9353   5.0766   5.0766   6.5431   6.5431   8.1914   8.1915
     8.7782   8.7782

     occupation numbers 
     1.0000   1.0000   1.0000   1.0000   1.0000   1.0000   1.0000   1.0000
     1.0000   1.0000   1.0000   1.0000   1.0000   1.0000   1.0000   1.0000
     1.0000   1.0000   1.0000   1.0000   1.0000   1.0000   1.0000   1.0000
     1.0000   1.0000

          k =-0.0000 0.2887-0.2840 (  3685 PWs)   bands (ev):

  -113.7662-113.7661 -68.1454 -68.1434 -68.1179 -68.1177 -68.1172 -68.1167
    -8.1199  -7.7610   3.0991   3.2167   3.7114   3.7785   3.8055   3.9575
     4.8359   4.9931   5.0157   5.1520   6.4219   6.6766   7.9832   8.2945
     8.3808   9.0100

     occupation numbers 
     1.0000   1.0000   1.0000   1.0000   1.0000   1.0000   1.0000   1.0000
     1.0000   1.0000   1.0000   1.0000   1.0000   1.0000   1.0000   1.0000
     1.0000   1.0000   1.0000   1.0000   1.0000   1.0000   1.0000   1.0000
     1.0000   1.0000

          k =-0.0000 0.2887-0.1894 (  3708 PWs)   bands (ev):

  -113.7663-113.7660 -68.1462 -68.1425 -68.1182 -68.1181 -68.1170 -68.1163
    -8.2801  -7.6207   3.2009   3.3728   3.7125   3.8470   3.8542   4.1737
     4.7283   4.9156   5.0728   5.2233   6.2771   6.8667   7.6946   7.7921
     8.5260   8.9136

     occupation numbers 
     1.0000   1.0000   1.0000   1.0000   1.0000   1.0000   1.0000   1.0000
     1.0000   1.0000   1.0000   1.0000   1.0000   1.0000   1.0000   1.0000
     1.0000   1.0000   1.0000   1.0000   1.0000   1.0000   1.0000   1.0000
     1.0000   1.0000

          k =-0.0000 0.2887-0.0947 (  3704 PWs)   bands (ev):

  -113.7664-113.7659 -68.1467 -68.1419 -68.1184 -68.1184 -68.1168 -68.1161
    -8.3888  -7.5321   3.2981   3.5370   3.7223   3.9159   3.9593   4.3866
     4.6356   4.8706   5.1062   5.3193   6.0610   7.0758   7.2740   7.6570
     8.5388   8.6149

     occupation numbers 
     1.0000   1.0000   1.0000   1.0000   1.0000   1.0000   1.0000   1.0000
     1.0000   1.0000   1.0000   1.0000   1.0000   1.0000   1.0000   1.0000
     1.0000   1.0000   1.0000   1.0000   1.0000   1.0000   1.0000   1.0000
     1.0000   1.0000

          k =-0.0000 0.4330 0.0000 (  3706 PWs)   bands (ev):

  -113.7663-113.7660 -68.1460 -68.1425 -68.1188 -68.1187 -68.1173 -68.1160
    -8.1426  -7.5360   3.2753   3.8321   3.9957   4.0369   4.2718   4.3016
     4.5535   4.8768   5.1407   5.2700   6.1668   6.4526   6.5251   6.9452
     8.0113   8.1726

     occupation numbers 
     1.0000   1.0000   1.0000   1.0000   1.0000   1.0000   1.0000   1.0000
     1.0000   1.0000   1.0000   1.0000   1.0000   1.0000   1.0000   1.0000
     1.0000   1.0000   1.0000   1.0000   1.0000   1.0000   1.0000   1.0000
     1.0000   1.0000

          k =-0.0000 0.4330 0.0947 (  3714 PWs)   bands (ev):

  -113.7663-113.7660 -68.1459 -68.1427 -68.1187 -68.1186 -68.1174 -68.1161
    -8.1134  -7.5512   3.2308   3.6955   3.9906   4.0149   4.2163   4.2214
     4.6084   4.8993   5.1224   5.2474   5.9814   6.3580   6.9428   7.0069
     8.1377   8.2911

     occupation numbers 
     1.0000   1.0000   1.0000   1.0000   1.0000   1.0000   1.0000   1.0000
     1.0000   1.0000   1.0000   1.0000   1.0000   1.0000   1.0000   1.0000
     1.0000   1.0000   1.0000   1.0000   1.0000   1.0000   1.0000   1.0000
     1.0000   1.0000

          k =-0.0000 0.4330 0.1894 (  3698 PWs)   bands (ev):

  -113.7663-113.7660 -68.1456 -68.1431 -68.1185 -68.1183 -68.1174 -68.1164
    -8.0320  -7.5986   3.1048   3.4205   3.9325   3.9810   4.0652   4.1316
     4.7134   4.9507   5.0735   5.2010   5.9095   6.1597   7.1734   7.6748
     8.0337   8.7657

     occupation numbers 
     1.0000   1.0000   1.0000   1.0000   1.0000   1.0000   1.0000   1.0000
     1.0000   1.0000   1.0000   1.0000   1.0000   1.0000   1.0000   1.0000
     1.0000   1.0000   1.0000   1.0000   1.0000   1.0000   1.0000   1.0000
     1.0000   1.0000

          k =-0.0000 0.4330 0.2840 (  3709 PWs)   bands (ev):

  -113.7662-113.7661 -68.1451 -68.1438 -68.1182 -68.1178 -68.1176 -68.1168
    -7.9164  -7.6800   2.9825   3.1538   3.8695   3.9464   3.9804   4.0532
     4.8212   5.0038   5.0171   5.1472   5.9283   6.0431   7.4019   7.8651
     8.3736   9.0142

     occupation numbers 
     1.0000   1.0000   1.0000   1.0000   1.0000   1.0000   1.0000   1.0000
     1.0000   1.0000   1.0000   1.0000   1.0000   1.0000   1.0000   1.0000
     1.0000   1.0000   1.0000   1.0000   1.0000   1.0000   1.0000   1.0000
     1.0000   1.0000

          k =-0.0000 0.4330-0.3787 (  3710 PWs)   bands (ev):

  -113.7662-113.7661 -68.1445 -68.1444 -68.1179 -68.1179 -68.1174 -68.1173
    -7.7912  -7.7911   2.9883   2.9883   3.8770   3.8771   4.0021   4.0021
     4.9191   4.9191   5.0853   5.0854   5.9759   5.9759   7.6455   7.6456
     8.8675   8.8675

     occupation numbers 
     1.0000   1.0000   1.0000   1.0000   1.0000   1.0000   1.0000   1.0000
     1.0000   1.0000   1.0000   1.0000   1.0000   1.0000   1.0000   1.0000
     1.0000   1.0000   1.0000   1.0000   1.0000   1.0000   1.0000   1.0000
     1.0000   1.0000

          k =-0.0000 0.4330-0.2840 (  3709 PWs)   bands (ev):

  -113.7662-113.7661 -68.1451 -68.1438 -68.1182 -68.1178 -68.1176 -68.1168
    -7.9164  -7.6800   2.9825   3.1538   3.8695   3.9464   3.9804   4.0532
     4.8212   5.0038   5.0171   5.1472   5.9283   6.0431   7.4019   7.8651
     8.3736   9.0142

     occupation numbers 
     1.0000   1.0000   1.0000   1.0000   1.0000   1.0000   1.0000   1.0000
     1.0000   1.0000   1.0000   1.0000   1.0000   1.0000   1.0000   1.0000
     1.0000   1.0000   1.0000   1.0000   1.0000   1.0000   1.0000   1.0000
     1.0000   1.0000

          k =-0.0000 0.4330-0.1894 (  3698 PWs)   bands (ev):

  -113.7663-113.7660 -68.1456 -68.1431 -68.1185 -68.1183 -68.1174 -68.1164
    -8.0320  -7.5986   3.1048   3.4205   3.9325   3.9810   4.0652   4.1316
     4.7134   4.9507   5.0735   5.2010   5.9095   6.1597   7.1734   7.6748
     8.0337   8.7657

     occupation numbers 
     1.0000   1.0000   1.0000   1.0000   1.0000   1.0000   1.0000   1.0000
     1.0000   1.0000   1.0000   1.0000   1.0000   1.0000   1.0000   1.0000
     1.0000   1.0000   1.0000   1.0000   1.0000   1.0000   1.0000   1.0000
     1.0000   1.0000

          k =-0.0000 0.4330-0.0947 (  3714 PWs)   bands (ev):

  -113.7663-113.7660 -68.1459 -68.1427 -68.1187 -68.1186 -68.1174 -68.1161
    -8.1134  -7.5512   3.2308   3.6955   3.9906   4.0149   4.2163   4.2214
     4.6084   4.8993   5.1224   5.2474   5.9814   6.3580   6.9428   7.0069
     8.1377   8.2911

     occupation numbers 
     1.0000   1.0000   1.0000   1.0000   1.0000   1.0000   1.0000   1.0000
     1.0000   1.0000   1.0000   1.0000   1.0000   1.0000   1.0000   1.0000
     1.0000   1.0000   1.0000   1.0000   1.0000   1.0000   1.0000   1.0000
     1.0000   1.0000

          k = 0.0000-0.5774-0.0000 (  3706 PWs)   bands (ev):

  -113.7662-113.7660 -68.1454 -68.1431 -68.1189 -68.1188 -68.1176 -68.1160
    -7.9835  -7.5893   3.2844   3.9735   4.1321   4.1456   4.1836   4.4280
     4.5521   4.8390   5.1276   5.1493   6.0051   6.0108   6.6362   6.7878
     7.8316   7.9615

     occupation numbers 
     1.0000   1.0000   1.0000   1.0000   1.0000   1.0000   1.0000   1.0000
     1.0000   1.0000   1.0000   1.0000   1.0000   1.0000   1.0000   1.0000
     1.0000   1.0000   1.0000   1.0000   1.0000   1.0000   1.0000   1.0000
     1.0000   1.0000

          k = 0.0000-0.5774 0.0947 (  3716 PWs)   bands (ev):

  -113.7662-113.7660 -68.1454 -68.1432 -68.1188 -68.1187 -68.1176 -68.1161
    -7.9609  -7.5955   3.2300   3.8134   4.0882   4.1272   4.1498   4.3588
     4.6231   4.8694   5.1199   5.1249   5.8884   5.8998   6.7073   7.1468
     7.9248   8.1255

     occupation numbers 
     1.0000   1.0000   1.0000   1.0000   1.0000   1.0000   1.0000   1.0000
     1.0000   1.0000   1.0000   1.0000   1.0000   1.0000   1.0000   1.0000
     1.0000   1.0000   1.0000   1.0000   1.0000   1.0000   1.0000   1.0000
     1.0000   1.0000

          k = 0.0000-0.5774 0.1894 (  3704 PWs)   bands (ev):

  -113.7662-113.7661 -68.1452 -68.1435 -68.1186 -68.1184 -68.1177 -68.1164
    -7.8992  -7.6171   3.0845   3.4844   3.9505   4.0899   4.1177   4.2628
     4.7266   4.9227   5.0653   5.0980   5.7749   5.7873   6.8948   7.8154
     7.8216   8.6625

     occupation numbers 
     1.0000   1.0000   1.0000   1.0000   1.0000   1.0000   1.0000   1.0000
     1.0000   1.0000   1.0000   1.0000   1.0000   1.0000   1.0000   1.0000
     1.0000   1.0000   1.0000   1.0000   1.0000   1.0000   1.0000   1.0000
     1.0000   1.0000

          k = 0.0000-0.5774 0.2840 (  3716 PWs)   bands (ev):

  -113.7662-113.7661 -68.1449 -68.1440 -68.1183 -68.1179 -68.1178 -68.1169
    -7.8149  -7.6610   2.9527   3.1572   3.8991   3.9981   4.1163   4.1854
     4.8235   4.9743   4.9912   5.0643   5.7395   5.7540   7.1447   7.6378
     8.4789   8.9989

     occupation numbers 
     1.0000   1.0000   1.0000   1.0000   1.0000   1.0000   1.0000   1.0000
     1.0000   1.0000   1.0000   1.0000   1.0000   1.0000   1.0000   1.0000
     1.0000   1.0000   1.0000   1.0000   1.0000   1.0000   1.0000   1.0000
     1.0000   1.0000

          k = 0.0000-0.5774-0.3787 (  3720 PWs)   bands (ev):

  -113.7662-113.7661 -68.1445 -68.1445 -68.1180 -68.1180 -68.1174 -68.1174
    -7.7296  -7.7295   2.9627   2.9627   3.9243   3.9244   4.1363   4.1363
     4.9109   4.9109   5.0220   5.0221   5.7427   5.7427   7.4055   7.4055
     8.9248   8.9248

     occupation numbers 
     1.0000   1.0000   1.0000   1.0000   1.0000   1.0000   1.0000   1.0000
     1.0000   1.0000   1.0000   1.0000   1.0000   1.0000   1.0000   1.0000
     1.0000   1.0000   1.0000   1.0000   1.0000   1.0000   1.0000   1.0000
     1.0000   1.0000

          k = 0.1250 0.0722 0.0000 (  3696 PWs)   bands (ev):

  -113.7665-113.7659 -68.1476 -68.1410 -68.1183 -68.1182 -68.1162 -68.1159
    -8.6591  -7.5146   3.4335   3.5222   3.5359   3.6758   4.1392   4.6141
     4.6489   4.8146   5.0879   5.3320   5.4666   7.9977   8.2391   8.3503
     8.4549   9.0778

     occupation numbers 
     1.0000   1.0000   1.0000   1.0000   1.0000   1.0000   1.0000   1.0000
     1.0000   1.0000   1.0000   1.0000   1.0000   1.0000   1.0000   1.0000
     1.0000   1.0000   1.0000   1.0000   1.0000   1.0000   1.0000   1.0000
     1.0000   1.0000

          k = 0.1250 0.0722 0.0947 (  3686 PWs)   bands (ev):

  -113.7664-113.7659 -68.1474 -68.1412 -68.1182 -68.1181 -68.1162 -68.1160
    -8.6148  -7.5557   3.4118   3.5095   3.5159   3.6531   4.0048   4.5575
     4.6814   4.7933   5.0819   5.1936   5.8167   7.8624   8.0987   8.2791
     8.8521   9.0554

     occupation numbers 
     1.0000   1.0000   1.0000   1.0000   1.0000   1.0000   1.0000   1.0000
     1.0000   1.0000   1.0000   1.0000   1.0000   1.0000   1.0000   1.0000
     1.0000   1.0000   1.0000   1.0000   1.0000   1.0000   1.0000   1.0000
     1.0000   1.0000

          k = 0.1250 0.0722 0.1894 (  3697 PWs)   bands (ev):

  -113.7664-113.7660 -68.1467 -68.1420 -68.1179 -68.1179 -68.1165 -68.1163
    -8.4885  -7.6747   3.3490   3.4439   3.5028   3.6002   3.8131   4.3243
     4.7622   4.8315   5.0608   5.1223   6.2858   7.4745   8.2813   8.3902
     8.9870   9.0607

     occupation numbers 
     1.0000   1.0000   1.0000   1.0000   1.0000   1.0000   1.0000   1.0000
     1.0000   1.0000   1.0000   1.0000   1.0000   1.0000   1.0000   1.0000
     1.0000   1.0000   1.0000   1.0000   1.0000   1.0000   1.0000   1.0000
     1.0000   1.0000

          k = 0.1250 0.0722 0.2840 (  3700 PWs)   bands (ev):

  -113.7663-113.7661 -68.1456 -68.1431 -68.1176 -68.1175 -68.1168 -68.1166
    -8.2993  -7.8572   3.2910   3.3696   3.4963   3.5456   3.7461   4.0273
     4.8600   4.9149   5.0180   5.0676   6.6700   7.1921   8.5478   8.5593
     8.8722   9.0297

     occupation numbers 
     1.0000   1.0000   1.0000   1.0000   1.0000   1.0000   1.0000   1.0000
     1.0000   1.0000   1.0000   1.0000   1.0000   1.0000   1.0000   1.0000
     1.0000   1.0000   1.0000   1.0000   1.0000   1.0000   1.0000   1.0000
     1.0000   1.0000

          k = 0.1250 0.0722-0.3787 (  3698 PWs)   bands (ev):

  -113.7662-113.7661 -68.1444 -68.1443 -68.1172 -68.1172 -68.1171 -68.1171
    -8.0770  -8.0769   3.3053   3.3053   3.5088   3.5088   3.8161   3.8161
     4.9497   4.9497   4.9991   4.9991   6.9517   6.9517   8.7189   8.7189
     8.8380   8.8380

     occupation numbers 
     1.0000   1.0000   1.0000   1.0000   1.0000   1.0000   1.0000   1.0000
     1.0000   1.0000   1.0000   1.0000   1.0000   1.0000   1.0000   1.0000
     1.0000   1.0000   1.0000   1.0000   1.0000   1.0000   1.0000   1.0000
     1.0000   1.0000

          k = 0.1250 0.0722-0.2840 (  3700 PWs)   bands (ev):

  -113.7663-113.7661 -68.1456 -68.1431 -68.1176 -68.1175 -68.1168 -68.1166
    -8.2993  -7.8572   3.2910   3.3696   3.4963   3.5456   3.7461   4.0273
     4.8600   4.9149   5.0180   5.0676   6.6700   7.1921   8.5478   8.5593
     8.8722   9.0297

     occupation numbers 
     1.0000   1.0000   1.0000   1.0000   1.0000   1.0000   1.0000   1.0000
     1.0000   1.0000   1.0000   1.0000   1.0000   1.0000   1.0000   1.0000
     1.0000   1.0000   1.0000   1.0000   1.0000   1.0000   1.0000   1.0000
     1.0000   1.0000

          k = 0.1250 0.0722-0.1894 (  3697 PWs)   bands (ev):

  -113.7664-113.7660 -68.1467 -68.1420 -68.1179 -68.1179 -68.1165 -68.1163
    -8.4885  -7.6747   3.3490   3.4439   3.5028   3.6002   3.8131   4.3243
     4.7622   4.8315   5.0608   5.1223   6.2858   7.4745   8.2813   8.3902
     8.9870   9.0607

     occupation numbers 
     1.0000   1.0000   1.0000   1.0000   1.0000   1.0000   1.0000   1.0000
     1.0000   1.0000   1.0000   1.0000   1.0000   1.0000   1.0000   1.0000
     1.0000   1.0000   1.0000   1.0000   1.0000   1.0000   1.0000   1.0000
     1.0000   1.0000

          k = 0.1250 0.0722-0.0947 (  3686 PWs)   bands (ev):

  -113.7664-113.7659 -68.1474 -68.1412 -68.1182 -68.1181 -68.1162 -68.1160
    -8.6148  -7.5557   3.4118   3.5095   3.5159   3.6531   4.0048   4.5575
     4.6814   4.7933   5.0819   5.1936   5.8167   7.8624   8.0987   8.2791
     8.8521   9.0554

     occupation numbers 
     1.0000   1.0000   1.0000   1.0000   1.0000   1.0000   1.0000   1.0000
     1.0000   1.0000   1.0000   1.0000   1.0000   1.0000   1.0000   1.0000
     1.0000   1.0000   1.0000   1.0000   1.0000   1.0000   1.0000   1.0000
     1.0000   1.0000

          k = 0.1250 0.2165 0.0000 (  3687 PWs)   bands (ev):

  -113.7664-113.7659 -68.1471 -68.1414 -68.1184 -68.1184 -68.1166 -68.1160
    -8.4990  -7.5026   3.4169   3.4844   3.6926   3.8677   4.0533   4.5091
     4.6159   4.8491   5.1088   5.4384   5.7182   7.3602   7.4893   7.9205
     8.2806   8.7016

     occupation numbers 
     1.0000   1.0000   1.0000   1.0000   1.0000   1.0000   1.0000   1.0000
     1.0000   1.0000   1.0000   1.0000   1.0000   1.0000   1.0000   1.0000
     1.0000   1.0000   1.0000   1.0000   1.0000   1.0000   1.0000   1.0000
     1.0000   1.0000

          k = 0.1250 0.2165 0.0947 (  3698 PWs)   bands (ev):

  -113.7664-113.7659 -68.1469 -68.1417 -68.1183 -68.1183 -68.1166 -68.1161
    -8.4587  -7.5362   3.3967   3.4290   3.6815   3.8334   3.9665   4.4336
     4.6487   4.8498   5.1010   5.3035   5.9939   7.3416   7.4952   7.7989
     8.6347   8.6720

     occupation numbers 
     1.0000   1.0000   1.0000   1.0000   1.0000   1.0000   1.0000   1.0000
     1.0000   1.0000   1.0000   1.0000   1.0000   1.0000   1.0000   1.0000
     1.0000   1.0000   1.0000   1.0000   1.0000   1.0000   1.0000   1.0000
     1.0000   1.0000

          k = 0.1250 0.2165 0.1894 (  3695 PWs)   bands (ev):

  -113.7663-113.7660 -68.1463 -68.1424 -68.1181 -68.1181 -68.1168 -68.1163
    -8.3441  -7.6345   3.2828   3.3373   3.6590   3.7624   3.8432   4.2148
     4.7353   4.8918   5.0739   5.2025   6.3257   7.0607   7.8782   7.8866
     8.5834   8.9903

     occupation numbers 
     1.0000   1.0000   1.0000   1.0000   1.0000   1.0000   1.0000   1.0000
     1.0000   1.0000   1.0000   1.0000   1.0000   1.0000   1.0000   1.0000
     1.0000   1.0000   1.0000   1.0000   1.0000   1.0000   1.0000   1.0000
     1.0000   1.0000

          k = 0.1250 0.2165 0.2840 (  3694 PWs)   bands (ev):

  -113.7663-113.7661 -68.1454 -68.1433 -68.1177 -68.1177 -68.1170 -68.1167
    -8.1743  -7.7884   3.1625   3.2448   3.6466   3.7019   3.7897   3.9739
     4.8405   4.9645   5.0274   5.1328   6.5457   6.8558   8.0525   8.3962
     8.4429   9.0604

     occupation numbers 
     1.0000   1.0000   1.0000   1.0000   1.0000   1.0000   1.0000   1.0000
     1.0000   1.0000   1.0000   1.0000   1.0000   1.0000   1.0000   1.0000
     1.0000   1.0000   1.0000   1.0000   1.0000   1.0000   1.0000   1.0000
     1.0000   1.0000

          k = 0.1250 0.2165-0.3787 (  3698 PWs)   bands (ev):

  -113.7662-113.7661 -68.1444 -68.1444 -68.1174 -68.1174 -68.1172 -68.1172
    -7.9782  -7.9781   3.1597   3.1597   3.6601   3.6601   3.8273   3.8273
     4.9366   4.9366   5.0609   5.0609   6.7030   6.7030   8.2529   8.2529
     8.8368   8.8368

     occupation numbers 
     1.0000   1.0000   1.0000   1.0000   1.0000   1.0000   1.0000   1.0000
     1.0000   1.0000   1.0000   1.0000   1.0000   1.0000   1.0000   1.0000
     1.0000   1.0000   1.0000   1.0000   1.0000   1.0000   1.0000   1.0000
     1.0000   1.0000

          k = 0.1250 0.2165-0.2840 (  3694 PWs)   bands (ev):

  -113.7663-113.7661 -68.1454 -68.1433 -68.1177 -68.1177 -68.1170 -68.1167
    -8.1743  -7.7884   3.1625   3.2448   3.6466   3.7019   3.7897   3.9739
     4.8405   4.9645   5.0274   5.1328   6.5457   6.8558   8.0525   8.3962
     8.4429   9.0604

     occupation numbers 
     1.0000   1.0000   1.0000   1.0000   1.0000   1.0000   1.0000   1.0000
     1.0000   1.0000   1.0000   1.0000   1.0000   1.0000   1.0000   1.0000
     1.0000   1.0000   1.0000   1.0000   1.0000   1.0000   1.0000   1.0000
     1.0000   1.0000

          k = 0.1250 0.2165-0.1894 (  3695 PWs)   bands (ev):

  -113.7663-113.7660 -68.1463 -68.1424 -68.1181 -68.1181 -68.1168 -68.1163
    -8.3441  -7.6345   3.2828   3.3373   3.6590   3.7624   3.8432   4.2148
     4.7353   4.8918   5.0739   5.2025   6.3257   7.0607   7.8782   7.8866
     8.5834   8.9903

     occupation numbers 
     1.0000   1.0000   1.0000   1.0000   1.0000   1.0000   1.0000   1.0000
     1.0000   1.0000   1.0000   1.0000   1.0000   1.0000   1.0000   1.0000
     1.0000   1.0000   1.0000   1.0000   1.0000   1.0000   1.0000   1.0000
     1.0000   1.0000

          k = 0.1250 0.2165-0.0947 (  3698 PWs)   bands (ev):

  -113.7664-113.7659 -68.1469 -68.1417 -68.1183 -68.1183 -68.1166 -68.1161
    -8.4587  -7.5362   3.3967   3.4290   3.6815   3.8334   3.9665   4.4336
     4.6487   4.8498   5.1010   5.3035   5.9939   7.3416   7.4952   7.7989
     8.6347   8.6720

     occupation numbers 
     1.0000   1.0000   1.0000   1.0000   1.0000   1.0000   1.0000   1.0000
     1.0000   1.0000   1.0000   1.0000   1.0000   1.0000   1.0000   1.0000
     1.0000   1.0000   1.0000   1.0000   1.0000   1.0000   1.0000   1.0000
     1.0000   1.0000

          k = 0.1250 0.3608 0.0000 (  3711 PWs)   bands (ev):

  -113.7663-113.7660 -68.1463 -68.1422 -68.1188 -68.1185 -68.1171 -68.1161
    -8.2368  -7.5167   3.3716   3.6558   3.9267   4.0153   4.2007   4.3632
     4.5523   4.8778   5.1351   5.3494   6.2670   6.4741   6.7497   7.0914
     8.0979   8.1363

     occupation numbers 
     1.0000   1.0000   1.0000   1.0000   1.0000   1.0000   1.0000   1.0000
     1.0000   1.0000   1.0000   1.0000   1.0000   1.0000   1.0000   1.0000
     1.0000   1.0000   1.0000   1.0000   1.0000   1.0000   1.0000   1.0000
     1.0000   1.0000

          k = 0.1250 0.3608 0.0947 (  3702 PWs)   bands (ev):

  -113.7663-113.7660 -68.1462 -68.1424 -68.1187 -68.1184 -68.1171 -68.1161
    -8.2042  -7.5370   3.3342   3.5620   3.9146   3.9668   4.1497   4.2784
     4.6015   4.8922   5.1229   5.3057   6.1265   6.6197   6.9219   7.0996
     8.0892   8.4093

     occupation numbers 
     1.0000   1.0000   1.0000   1.0000   1.0000   1.0000   1.0000   1.0000
     1.0000   1.0000   1.0000   1.0000   1.0000   1.0000   1.0000   1.0000
     1.0000   1.0000   1.0000   1.0000   1.0000   1.0000   1.0000   1.0000
     1.0000   1.0000

[...]

  -113.7662-113.7661 -68.1452 -68.1435 -68.1187 -68.1182 -68.1175 -68.1166
    -7.9088  -7.6112   3.3839   3.4166   3.9746   4.0144   4.1284   4.2473
     4.7171   4.8646   5.1243   5.1955   5.9010   6.0239   6.2189   7.1970
     8.0348   8.7506

     occupation numbers 
     1.0000   1.0000   1.0000   1.0000   1.0000   1.0000   1.0000   1.0000
     1.0000   1.0000   1.0000   1.0000   1.0000   1.0000   1.0000   1.0000
     1.0000   1.0000   1.0000   1.0000   1.0000   1.0000   1.0000   1.0000
     1.0000   1.0000

          k =-0.5000 0.0000 0.2840 (  3707 PWs)   bands (ev):

  -113.7662-113.7661 -68.1449 -68.1440 -68.1183 -68.1180 -68.1175 -68.1171
    -7.8214  -7.6590   3.1465   3.2025   3.9333   3.9340   4.1076   4.1642
     4.7899   4.8641   5.1206   5.1622   5.8994   5.9716   6.4306   6.9799
     8.7387   9.1568

     occupation numbers 
     1.0000   1.0000   1.0000   1.0000   1.0000   1.0000   1.0000   1.0000
     1.0000   1.0000   1.0000   1.0000   1.0000   1.0000   1.0000   1.0000
     1.0000   1.0000   1.0000   1.0000   1.0000   1.0000   1.0000   1.0000
     1.0000   1.0000

          k =-0.5000 0.0000-0.3787 (  3706 PWs)   bands (ev):

  -113.7662-113.7661 -68.1445 -68.1445 -68.1179 -68.1178 -68.1175 -68.1175
    -7.7320  -7.7319   3.0822   3.0822   3.9148   3.9148   4.1168   4.1168
     4.8397   4.8397   5.1352   5.1352   5.9281   5.9281   6.7106   6.7106
     9.1607   9.1607

     occupation numbers 
     1.0000   1.0000   1.0000   1.0000   1.0000   1.0000   1.0000   1.0000
     1.0000   1.0000   1.0000   1.0000   1.0000   1.0000   1.0000   1.0000
     1.0000   1.0000   1.0000   1.0000   1.0000   1.0000   1.0000   1.0000
     1.0000   1.0000

          k =-0.5000 0.0000-0.2840 (  3707 PWs)   bands (ev):

  -113.7662-113.7661 -68.1449 -68.1440 -68.1183 -68.1180 -68.1175 -68.1171
    -7.8214  -7.6590   3.1465   3.2025   3.9333   3.9340   4.1076   4.1642
     4.7899   4.8641   5.1206   5.1622   5.8994   5.9716   6.4306   6.9799
     8.7387   9.1568

     occupation numbers 
     1.0000   1.0000   1.0000   1.0000   1.0000   1.0000   1.0000   1.0000
     1.0000   1.0000   1.0000   1.0000   1.0000   1.0000   1.0000   1.0000
     1.0000   1.0000   1.0000   1.0000   1.0000   1.0000   1.0000   1.0000
     1.0000   1.0000

          k =-0.5000 0.0000-0.1894 (  3699 PWs)   bands (ev):

  -113.7662-113.7661 -68.1452 -68.1435 -68.1187 -68.1182 -68.1175 -68.1166
    -7.9088  -7.6112   3.3839   3.4166   3.9746   4.0144   4.1284   4.2473
     4.7171   4.8646   5.1243   5.1955   5.9010   6.0239   6.2188   7.1970
     8.0348   8.7506

     occupation numbers 
     1.0000   1.0000   1.0000   1.0000   1.0000   1.0000   1.0000   1.0000
     1.0000   1.0000   1.0000   1.0000   1.0000   1.0000   1.0000   1.0000
     1.0000   1.0000   1.0000   1.0000   1.0000   1.0000   1.0000   1.0000
     1.0000   1.0000

          k =-0.5000 0.0000-0.0947 (  3700 PWs)   bands (ev):

  -113.7662-113.7660 -68.1454 -68.1432 -68.1190 -68.1183 -68.1175 -68.1163
    -7.9726  -7.5869   3.5741   3.6657   4.0291   4.1260   4.1889   4.3547
     4.6285   4.8509   5.1423   5.2266   5.9283   5.9978   6.3201   7.2092
     7.3945   8.1655

     occupation numbers 
     1.0000   1.0000   1.0000   1.0000   1.0000   1.0000   1.0000   1.0000
     1.0000   1.0000   1.0000   1.0000   1.0000   1.0000   1.0000   1.0000
     1.0000   1.0000   1.0000   1.0000   1.0000   1.0000   1.0000   1.0000
     1.0000   1.0000

          k =-0.5000 0.1443-0.0000 (  3698 PWs)   bands (ev):

  -113.7662-113.7660 -68.1454 -68.1431 -68.1191 -68.1185 -68.1175 -68.1161
    -7.9898  -7.5845   3.4124   3.9253   4.0890   4.1386   4.2212   4.4526
     4.5469   4.8384   5.1515   5.1740   5.9449   6.1522   6.4545   6.7915
     7.7157   7.8332

     occupation numbers 
     1.0000   1.0000   1.0000   1.0000   1.0000   1.0000   1.0000   1.0000
     1.0000   1.0000   1.0000   1.0000   1.0000   1.0000   1.0000   1.0000
     1.0000   1.0000   1.0000   1.0000   1.0000   1.0000   1.0000   1.0000
     1.0000   1.0000

          k =-0.5000 0.1443 0.0947 (  3701 PWs)   bands (ev):

  -113.7662-113.7660 -68.1454 -68.1432 -68.1190 -68.1184 -68.1175 -68.1162
    -7.9668  -7.5911   3.3559   3.7854   4.0630   4.1208   4.1589   4.3697
     4.6234   4.8587   5.1331   5.1652   5.8663   6.0494   6.4154   7.2190
     7.6543   8.1563

     occupation numbers 
     1.0000   1.0000   1.0000   1.0000   1.0000   1.0000   1.0000   1.0000
     1.0000   1.0000   1.0000   1.0000   1.0000   1.0000   1.0000   1.0000
     1.0000   1.0000   1.0000   1.0000   1.0000   1.0000   1.0000   1.0000
     1.0000   1.0000

          k =-0.5000 0.1443 0.1894 (  3698 PWs)   bands (ev):

  -113.7662-113.7661 -68.1452 -68.1435 -68.1187 -68.1182 -68.1176 -68.1165
    -7.9041  -7.6141   3.1946   3.4865   3.9581   4.0552   4.1216   4.2612
     4.7216   4.8907   5.0957   5.1418   5.7942   5.9104   6.5546   7.5169
     7.9515   8.7173

     occupation numbers 
     1.0000   1.0000   1.0000   1.0000   1.0000   1.0000   1.0000   1.0000
     1.0000   1.0000   1.0000   1.0000   1.0000   1.0000   1.0000   1.0000
     1.0000   1.0000   1.0000   1.0000   1.0000   1.0000   1.0000   1.0000
     1.0000   1.0000

          k =-0.5000 0.1443 0.2840 (  3705 PWs)   bands (ev):

  -113.7662-113.7661 -68.1449 -68.1440 -68.1183 -68.1179 -68.1177 -68.1169
    -7.8182  -7.6600   3.0361   3.1895   3.9049   3.9785   4.1117   4.1773
     4.8060   4.9007   5.0722   5.1112   5.7904   5.8421   6.7961   7.3172
     8.6304   9.0921

     occupation numbers 
     1.0000   1.0000   1.0000   1.0000   1.0000   1.0000   1.0000   1.0000
     1.0000   1.0000   1.0000   1.0000   1.0000   1.0000   1.0000   1.0000
     1.0000   1.0000   1.0000   1.0000   1.0000   1.0000   1.0000   1.0000
     1.0000   1.0000

          k =-0.5000 0.1443-0.3787 (  3706 PWs)   bands (ev):

  -113.7662-113.7661 -68.1445 -68.1445 -68.1180 -68.1179 -68.1175 -68.1174
    -7.7308  -7.7307   3.0205   3.0206   3.9200   3.9200   4.1278   4.1278
     4.8695   4.8695   5.0823   5.0824   5.8110   5.8110   7.0655   7.0655
     9.0612   9.0613

     occupation numbers 
     1.0000   1.0000   1.0000   1.0000   1.0000   1.0000   1.0000   1.0000
     1.0000   1.0000   1.0000   1.0000   1.0000   1.0000   1.0000   1.0000
     1.0000   1.0000   1.0000   1.0000   1.0000   1.0000   1.0000   1.0000
     1.0000   1.0000

          k =-0.5000 0.1443-0.2840 (  3705 PWs)   bands (ev):

  -113.7662-113.7661 -68.1449 -68.1440 -68.1183 -68.1179 -68.1177 -68.1169
    -7.8182  -7.6600   3.0361   3.1895   3.9049   3.9785   4.1117   4.1773
     4.8060   4.9007   5.0722   5.1112   5.7904   5.8421   6.7961   7.3172
     8.6304   9.0921

     occupation numbers 
     1.0000   1.0000   1.0000   1.0000   1.0000   1.0000   1.0000   1.0000
     1.0000   1.0000   1.0000   1.0000   1.0000   1.0000   1.0000   1.0000
     1.0000   1.0000   1.0000   1.0000   1.0000   1.0000   1.0000   1.0000
     1.0000   1.0000

          k =-0.5000 0.1443-0.1894 (  3698 PWs)   bands (ev):

  -113.7662-113.7661 -68.1452 -68.1435 -68.1187 -68.1182 -68.1176 -68.1165
    -7.9041  -7.6141   3.1946   3.4865   3.9581   4.0552   4.1216   4.2612
     4.7216   4.8907   5.0957   5.1418   5.7942   5.9104   6.5546   7.5169
     7.9515   8.7173

     occupation numbers 
     1.0000   1.0000   1.0000   1.0000   1.0000   1.0000   1.0000   1.0000
     1.0000   1.0000   1.0000   1.0000   1.0000   1.0000   1.0000   1.0000
     1.0000   1.0000   1.0000   1.0000   1.0000   1.0000   1.0000   1.0000
     1.0000   1.0000

          k =-0.5000 0.1443-0.0947 (  3701 PWs)   bands (ev):

  -113.7662-113.7660 -68.1454 -68.1432 -68.1190 -68.1184 -68.1175 -68.1162
    -7.9668  -7.5911   3.3559   3.7854   4.0629   4.1208   4.1589   4.3697
     4.6234   4.8587   5.1331   5.1652   5.8663   6.0494   6.4154   7.2190
     7.6543   8.1563

     occupation numbers 
     1.0000   1.0000   1.0000   1.0000   1.0000   1.0000   1.0000   1.0000
     1.0000   1.0000   1.0000   1.0000   1.0000   1.0000   1.0000   1.0000
     1.0000   1.0000   1.0000   1.0000   1.0000   1.0000   1.0000   1.0000
     1.0000   1.0000

          k =-0.5000-0.8660-0.0000 (  3706 PWs)   bands (ev):

  -113.7662-113.7660 -68.1454 -68.1431 -68.1189 -68.1188 -68.1176 -68.1160
    -7.9835  -7.5893   3.2844   3.9735   4.1321   4.1456   4.1836   4.4280
     4.5521   4.8390   5.1276   5.1493   6.0051   6.0108   6.6362   6.7878
     7.8316   7.9615

     occupation numbers 
     1.0000   1.0000   1.0000   1.0000   1.0000   1.0000   1.0000   1.0000
     1.0000   1.0000   1.0000   1.0000   1.0000   1.0000   1.0000   1.0000
     1.0000   1.0000   1.0000   1.0000   1.0000   1.0000   1.0000   1.0000
     1.0000   1.0000

          k =-0.5000-0.8660 0.0947 (  3716 PWs)   bands (ev):

  -113.7662-113.7660 -68.1454 -68.1432 -68.1188 -68.1187 -68.1176 -68.1161
    -7.9609  -7.5955   3.2300   3.8134   4.0882   4.1272   4.1498   4.3588
     4.6231   4.8694   5.1199   5.1249   5.8884   5.8998   6.7073   7.1468
     7.9248   8.1255

     occupation numbers 
     1.0000   1.0000   1.0000   1.0000   1.0000   1.0000   1.0000   1.0000
     1.0000   1.0000   1.0000   1.0000   1.0000   1.0000   1.0000   1.0000
     1.0000   1.0000   1.0000   1.0000   1.0000   1.0000   1.0000   1.0000
     1.0000   1.0000

          k =-0.5000-0.8660 0.1894 (  3704 PWs)   bands (ev):

  -113.7662-113.7661 -68.1452 -68.1435 -68.1186 -68.1184 -68.1177 -68.1164
    -7.8992  -7.6171   3.0845   3.4844   3.9505   4.0899   4.1177   4.2628
     4.7266   4.9227   5.0653   5.0980   5.7749   5.7873   6.8948   7.8154
     7.8216   8.6625

     occupation numbers 
     1.0000   1.0000   1.0000   1.0000   1.0000   1.0000   1.0000   1.0000
     1.0000   1.0000   1.0000   1.0000   1.0000   1.0000   1.0000   1.0000
     1.0000   1.0000   1.0000   1.0000   1.0000   1.0000   1.0000   1.0000
     1.0000   1.0000

          k =-0.5000-0.8660 0.2840 (  3716 PWs)   bands (ev):

  -113.7662-113.7661 -68.1449 -68.1440 -68.1183 -68.1179 -68.1178 -68.1169
    -7.8149  -7.6610   2.9527   3.1571   3.8991   3.9981   4.1163   4.1854
     4.8235   4.9743   4.9912   5.0643   5.7395   5.7540   7.1447   7.6378
     8.4789   8.9989

     occupation numbers 
     1.0000   1.0000   1.0000   1.0000   1.0000   1.0000   1.0000   1.0000
     1.0000   1.0000   1.0000   1.0000   1.0000   1.0000   1.0000   1.0000
     1.0000   1.0000   1.0000   1.0000   1.0000   1.0000   1.0000   1.0000
     1.0000   1.0000

          k =-0.5000-0.8660-0.3787 (  3720 PWs)   bands (ev):

  -113.7662-113.7661 -68.1445 -68.1445 -68.1180 -68.1180 -68.1174 -68.1174
    -7.7296  -7.7295   2.9627   2.9627   3.9243   3.9244   4.1363   4.1363
     4.9109   4.9109   5.0220   5.0221   5.7427   5.7427   7.4055   7.4055
     8.9248   8.9248

     occupation numbers 
     1.0000   1.0000   1.0000   1.0000   1.0000   1.0000   1.0000   1.0000
     1.0000   1.0000   1.0000   1.0000   1.0000   1.0000   1.0000   1.0000
     1.0000   1.0000   1.0000   1.0000   1.0000   1.0000   1.0000   1.0000
     1.0000   1.0000

     highest occupied level (ev):     9.2461

!    total energy              =    -987.06276242 Ry
     Harris-Foulkes estimate   =    -987.06276245 Ry
     estimated scf accuracy    <       0.00000007 Ry

     The total energy is the sum of the following terms:

     one-electron contribution =    -790.59659044 Ry
     hartree contribution      =     417.86277623 Ry
     xc contribution           =     -98.10480384 Ry
     ewald contribution        =    -516.22414438 Ry

     convergence has been achieved in   7 iterations

     Forces acting on atoms (cartesian axes, Ry/au):

     atom    1 type  2   force =    -0.00000103    0.00000042   -0.00093473
     atom    2 type  2   force =    -0.00000037    0.00000068   -0.00093627
     atom    3 type  1   force =     0.00000067   -0.00000086    0.00092401
     atom    4 type  1   force =     0.00000072   -0.00000025    0.00094699
     The non-local contrib.  to forces
     atom    1 type  2   force =     0.00000088   -0.00000377   -0.02205968
     atom    2 type  2   force =     0.00000019    0.00000088   -0.02205928
     atom    3 type  1   force =     0.00000094   -0.00000564   -0.05112710
     atom    4 type  1   force =     0.00000213   -0.00000336   -0.05111918
     The ionic contribution  to forces
     atom    1 type  2   force =    -0.00001379    0.00004632    0.30601602
     atom    2 type  2   force =    -0.00000868    0.00000742    0.30601737
     atom    3 type  1   force =     0.00000948   -0.00001572   -0.30601190
     atom    4 type  1   force =     0.00001298   -0.00003803   -0.30602149
     The local contribution  to forces
     atom    1 type  2   force =     0.00001246   -0.00004258   -0.28505035
     atom    2 type  2   force =     0.00000964   -0.00000871   -0.28503864
     atom    3 type  1   force =    -0.00001087    0.00002128    0.35812543
     atom    4 type  1   force =    -0.00001413    0.00004039    0.35811531
     The core correction contribution to forces
     atom    1 type  2   force =    -0.00000001    0.00000002    0.00011459
     atom    2 type  2   force =     0.00000001   -0.00000002    0.00011462
     atom    3 type  1   force =     0.00000000    0.00000000    0.00000000
     atom    4 type  1   force =     0.00000000    0.00000000    0.00000000
     The Hubbard contrib.    to forces
     atom    1 type  2   force =     0.00000000    0.00000000    0.00000000
     atom    2 type  2   force =     0.00000000    0.00000000    0.00000000
     atom    3 type  1   force =     0.00000000    0.00000000    0.00000000
     atom    4 type  1   force =     0.00000000    0.00000000    0.00000000
     The SCF correction term to forces
     atom    1 type  2   force =     0.00000000    0.00000000    0.00000000
     atom    2 type  2   force =     0.00000000    0.00000000    0.00000000
     atom    3 type  1   force =     0.00000000    0.00000000    0.00000000
     atom    4 type  1   force =     0.00000000    0.00000000    0.00000000

     Total force =     0.000000     Total SCF correction =     0.000000


     Computing stress (Cartesian axis) and pressure

          total   stress  (Ry/bohr**3)                   (kbar)     P=   -1.82
  -0.00000970   0.00000000   0.00000002         -1.43      0.00      0.00
   0.00000000  -0.00000971   0.00000001          0.00     -1.43      0.00
   0.00000002   0.00000001  -0.00001762          0.00      0.00     -2.59

     kinetic stress (kbar)  35169.25     -0.00      0.00
                               -0.00  35169.25      0.00
                                0.00      0.00  35538.77

     local   stress (kbar)   3206.80     -0.05      0.01
                               -0.05   3206.56      0.01
                                0.01      0.01 -14698.33

     nonloc. stress (kbar)  -1744.88      0.00     -0.00
                                0.00  -1744.88     -0.00
                               -0.00     -0.00  -1877.58

     hartree stress (kbar)  63884.27      0.02     -0.01
                                0.02  63884.37     -0.01
                               -0.01     -0.01  72928.28

     exc-cor stress (kbar) -14735.48      0.00     -0.00
                                0.00 -14735.48     -0.00
                               -0.00     -0.00 -14739.16

     corecor stress (kbar)   -259.09      0.00     -0.00
                                0.00   -259.09     -0.00
                               -0.00     -0.00   -259.75

     ewald   stress (kbar) -85522.30      0.03     -0.00
                                0.03 -85522.16     -0.01
                               -0.00     -0.01 -76894.81

     hubbard stress (kbar)      0.00      0.00      0.00
                                0.00      0.00      0.00
                                0.00      0.00      0.00

     london  stress (kbar)      0.00      0.00      0.00
                                0.00      0.00      0.00
                                0.00      0.00      0.00

     DFT-D3  stress (kbar)      0.00      0.00      0.00
                                0.00      0.00      0.00
                                0.00      0.00      0.00

     XDM     stress (kbar)      0.00      0.00      0.00
                                0.00      0.00      0.00
                                0.00      0.00      0.00

     dft-nl  stress (kbar)      0.00      0.00      0.00
                                0.00      0.00      0.00
                                0.00      0.00      0.00

     TS-vdW  stress (kbar)      0.00      0.00      0.00
                                0.00      0.00      0.00
                                0.00      0.00      0.00



     Writing output data file ZnO.save/
 
     init_run     :      0.56s CPU      1.86s WALL (       1 calls)
     electrons    :      8.38s CPU      8.89s WALL (       1 calls)
     forces       :      0.15s CPU      0.16s WALL (       1 calls)
     stress       :      0.27s CPU      0.29s WALL (       1 calls)

     Called by init_run:
     wfcinit      :      0.41s CPU      1.11s WALL (       1 calls)
     wfcinit:atom :      0.00s CPU      0.01s WALL (      65 calls)
     wfcinit:wfcr :      0.39s CPU      1.08s WALL (      65 calls)
     potinit      :      0.06s CPU      0.24s WALL (       1 calls)
     hinit0       :      0.07s CPU      0.34s WALL (       1 calls)

     Called by electrons:
     c_bands      :      7.22s CPU      7.66s WALL (       7 calls)
     sum_band     :      0.87s CPU      0.91s WALL (       7 calls)
     v_of_rho     :      0.25s CPU      0.41s WALL (       8 calls)
     v_h          :      0.00s CPU      0.00s WALL (       8 calls)
     v_xc         :      0.31s CPU      0.44s WALL (      10 calls)
     newd         :      0.03s CPU      0.05s WALL (       8 calls)
     mix_rho      :      0.01s CPU      0.02s WALL (       7 calls)

     Called by c_bands:
     init_us_2    :      0.08s CPU      0.08s WALL (    1105 calls)
     cegterg      :      6.74s CPU      7.03s WALL (     455 calls)

     Called by sum_band:
     sum_band:bec :      0.01s CPU      0.01s WALL (     455 calls)
     addusdens    :      0.03s CPU      0.04s WALL (       7 calls)

     Called by *egterg:
     h_psi        :      4.39s CPU      4.54s WALL (    1491 calls)
     s_psi        :      0.13s CPU      0.14s WALL (    1491 calls)
     g_psi        :      0.01s CPU      0.01s WALL (     971 calls)
     cdiaghg      :      1.62s CPU      2.37s WALL (    1426 calls)
     cegterg:over :      0.41s CPU      0.46s WALL (     971 calls)
     cegterg:upda :      0.21s CPU      0.21s WALL (     971 calls)
     cegterg:last :      0.15s CPU      0.15s WALL (     455 calls)
     cdiaghg:chol :      0.11s CPU      0.44s WALL (    1426 calls)
     cdiaghg:inve :      0.03s CPU      0.05s WALL (    1426 calls)
     cdiaghg:para :      0.17s CPU      0.19s WALL (    2852 calls)

     Called by h_psi:
     h_psi:pot    :      4.38s CPU      4.53s WALL (    1491 calls)
     h_psi:calbec :      0.23s CPU      0.25s WALL (    1491 calls)
     vloc_psi     :      4.02s CPU      4.14s WALL (    1491 calls)
     add_vuspsi   :      0.13s CPU      0.14s WALL (    1491 calls)

     General routines
     calbec       :      0.34s CPU      0.37s WALL (    2271 calls)
     fft          :      0.04s CPU      0.10s WALL (     127 calls)
     ffts         :      0.00s CPU      0.00s WALL (      15 calls)
     fftw         :      4.44s CPU      4.57s WALL (   74434 calls)
     interpolate  :      0.00s CPU      0.00s WALL (       8 calls)
 
     Parallel routines
     fft_scatt_xy :      0.70s CPU      0.72s WALL (   74576 calls)
     fft_scatt_yz :      2.20s CPU      2.27s WALL (   74576 calls)
 
     PWSCF        :      9.88s CPU     12.85s WALL

 
   This run was terminated on:  15:13:34  16Jun2022            

=------------------------------------------------------------------------------=
   JOB DONE.
=------------------------------------------------------------------------------=
