
     Program PWSCF v.6.4.1 starts on 15Jun2022 at 23:23:56 

     This program is part of the open-source Quantum ESPRESSO suite
     for quantum simulation of materials; please cite
         "P. Giannozzi et al., J. Phys.:Condens. Matter 21 395502 (2009);
         "P. Giannozzi et al., J. Phys.:Condens. Matter 29 465901 (2017);
          URL http://www.quantum-espresso.org", 
     in publications or presentations arising from this work. More details at
     http://www.quantum-espresso.org/quote

     Parallel version (MPI), running on    64 processors

     MPI processes distributed on     1 nodes
     K-points division:     npool     =       4
     R & G space division:  proc/nbgrp/npool/nimage =      16
     Waiting for input...
     Reading input from standard input
Warning: card &IONS ignored
Warning: card   UPSCALE           = 100.D0, ignored
Warning: card / ignored
Warning: card &CELL ignored
Warning: card   CELL_DYNAMICS     = 'BFGS' ignored
Warning: card   PRESS_CONV_THR    = 0.5D0 ignored
Warning: card   CELL_DOFREE = 'ALL' ignored
Warning: card / ignored

     Current dimensions of program PWSCF are:
     Max number of different atomic species (ntypx) = 10
     Max number of k-points (npk) =  40000
     Max angular momentum in pseudopotentials (lmaxx) =  3

     Subspace diagonalization in iterative solution of the eigenvalue problem:
     one sub-group per band group will be used
     scalapack distributed-memory algorithm (size of sub-group:  2*  2 procs)

 
     Parallelization info
     --------------------
     sticks:   dense  smooth     PW     G-vecs:    dense   smooth      PW
     Min          95      51     15                 4973     1935     333
     Max          96      52     16                 4978     1940     340
     Sum        1531     823    253                79607    30975    5419
 


     bravais-lattice index     =            0
     lattice parameter (alat)  =       6.0921  a.u.
     unit-cell volume          =     320.5335 (a.u.)^3
     number of atoms/cell      =            4
     number of atomic types    =            3
     number of electrons       =        42.00
     number of Kohn-Sham states=           21
     kinetic-energy cutoff     =      80.0000  Ry
     charge density cutoff     =     600.0000  Ry
     convergence threshold     =      1.0E-06
     mixing beta               =       0.5000
     number of iterations used =            8  plain     mixing
     Exchange-correlation      = SLA  PW   PSX  PSC ( 1  4 10  8 0 0)
     Using LIBXC version       =    4   3   4

     celldm(1)=   6.092103  celldm(2)=   0.000000  celldm(3)=   0.000000
     celldm(4)=   0.000000  celldm(5)=   0.000000  celldm(6)=   0.000000

     crystal axes: (cart. coord. in units of alat)
               a(1) = (   1.000000   0.000000   0.000000 )  
               a(2) = (  -0.500000   0.866025   0.000000 )  
               a(3) = (   0.000000   0.000000   1.636972 )  

     reciprocal axes: (cart. coord. in units 2 pi/alat)
               b(1) = (  1.000000  0.577350 -0.000000 )  
               b(2) = ( -0.000000  1.154701 -0.000000 )  
               b(3) = ( -0.000000 -0.000000  0.610884 )  


     PseudoPot. # 1 for Mg read from file:
     ./GBRV_PBEsol/mg_pbesol_v1.4.uspp.F.UPF
     MD5 check sum: 4059f37963cf5867752dbf5ab2400678
     Pseudo is Ultrasoft, Zval = 10.0
     Generated by new atomic code, or converted to UPF format
     Using radial grid of  821 points,  7 beta functions with: 
                l(1) =   0
                l(2) =   0
                l(3) =   0
                l(4) =   1
                l(5) =   1
                l(6) =   2
                l(7) =   2
     Q(r) pseudized with  8 coefficients,  rinner =    1.200   1.200   1.200
                                                       1.200   1.200

     PseudoPot. # 2 for Zn read from file:
     ./GBRV_PBEsol/zn_pbesol_v1.uspp.F.UPF
     MD5 check sum: 7d8615e52efe7c1e2b1899de8658bae2
     Pseudo is Ultrasoft, Zval = 20.0
     Generated by new atomic code, or converted to UPF format
     Using radial grid of  943 points,  6 beta functions with: 
                l(1) =   0
                l(2) =   0
                l(3) =   1
                l(4) =   1
                l(5) =   2
                l(6) =   2
     Q(r) pseudized with  8 coefficients,  rinner =    1.100   1.100   1.100
                                                       1.100   1.100

     PseudoPot. # 3 for O  read from file:
     ./GBRV_PBEsol/o_pbesol_v1.2.uspp.F.UPF
     MD5 check sum: 501638753501ef6325af9037351f7734
     Pseudo is Ultrasoft + core correction, Zval =  6.0
     Generated by new atomic code, or converted to UPF format
     Using radial grid of  737 points,  5 beta functions with: 
                l(1) =   0
                l(2) =   0
                l(3) =   1
                l(4) =   1
                l(5) =   2
     Q(r) pseudized with  8 coefficients,  rinner =    0.900   0.900   0.900
                                                       0.900   0.900

     atomic species   valence    mass     pseudopotential
        Mg            10.00    24.30500     Mg( 1.00)
        Zn            20.00    65.38000     Zn( 1.00)
        O              6.00    15.99900     O ( 1.00)

     No symmetry found


                                    s                        frac. trans.

      isym =  1     identity                                     

 cryst.   s( 1) = (     1          0          0      )
                  (     0          1          0      )
                  (     0          0          1      )

 cart.    s( 1) = (  1.0000000 -0.0000000  0.0000000 )
                  (  0.0000000  1.0000000  0.0000000 )
                  ( -0.0000000 -0.0000000  1.0000000 )


   Cartesian axes

     site n.     atom                  positions (alat units)
         1           O   tau(   1) = (   0.5000002   0.2886755   0.0120250  )
         2           O   tau(   2) = (   0.0000003   0.5773493   0.8305107  )
         3           Zn  tau(   3) = (   0.5000001   0.2886749   0.6122175  )
         4           Mg  tau(   4) = (   0.0000001   0.5773511   1.4360802  )

   Crystallographic axes

     site n.     atom                  positions (cryst. coord.)
         1           O   tau(   1) = (  0.6666670  0.3333337  0.0073459  )
         2           O   tau(   2) = (  0.3333329  0.6666657  0.5073458  )
         3           Zn  tau(   3) = (  0.6666664  0.3333329  0.3739939  )
         4           Mg  tau(   4) = (  0.3333336  0.6666677  0.8772785  )

     number of k points=   260
                       cart. coord. in units 2pi/alat
        k(    1) = (   0.0000000   0.0000000   0.0000000), wk =   0.0039062
        k(    2) = (  -0.0000000  -0.0000000   0.0763605), wk =   0.0078125
        k(    3) = (  -0.0000000  -0.0000000   0.1527210), wk =   0.0078125
        k(    4) = (  -0.0000000  -0.0000000   0.2290815), wk =   0.0078125
        k(    5) = (   0.0000000   0.0000000  -0.3054421), wk =   0.0039062
        k(    6) = (  -0.0000000   0.1443376  -0.0000000), wk =   0.0078125
        k(    7) = (  -0.0000000   0.1443376   0.0763605), wk =   0.0078125
        k(    8) = (  -0.0000000   0.1443376   0.1527210), wk =   0.0078125
        k(    9) = (  -0.0000001   0.1443376   0.2290815), wk =   0.0078125
        k(   10) = (   0.0000000   0.1443376  -0.3054421), wk =   0.0078125
        k(   11) = (  -0.0000000   0.1443376  -0.2290816), wk =   0.0078125
        k(   12) = (  -0.0000000   0.1443376  -0.1527210), wk =   0.0078125
        k(   13) = (  -0.0000000   0.1443376  -0.0763605), wk =   0.0078125
        k(   14) = (  -0.0000001   0.2886752  -0.0000000), wk =   0.0078125
        k(   15) = (  -0.0000001   0.2886752   0.0763605), wk =   0.0078125
        k(   16) = (  -0.0000001   0.2886752   0.1527210), wk =   0.0078125
        k(   17) = (  -0.0000001   0.2886752   0.2290815), wk =   0.0078125
        k(   18) = (  -0.0000000   0.2886752  -0.3054421), wk =   0.0078125
        k(   19) = (  -0.0000000   0.2886752  -0.2290816), wk =   0.0078125
        k(   20) = (  -0.0000000   0.2886752  -0.1527211), wk =   0.0078125
        k(   21) = (  -0.0000000   0.2886752  -0.0763605), wk =   0.0078125
        k(   22) = (  -0.0000001   0.4330128  -0.0000000), wk =   0.0078125
        k(   23) = (  -0.0000001   0.4330128   0.0763605), wk =   0.0078125
        k(   24) = (  -0.0000001   0.4330128   0.1527210), wk =   0.0078125
        k(   25) = (  -0.0000001   0.4330128   0.2290815), wk =   0.0078125
        k(   26) = (  -0.0000001   0.4330128  -0.3054421), wk =   0.0078125
        k(   27) = (  -0.0000001   0.4330128  -0.2290816), wk =   0.0078125
        k(   28) = (  -0.0000001   0.4330128  -0.1527211), wk =   0.0078125
        k(   29) = (  -0.0000001   0.4330128  -0.0763606), wk =   0.0078125
        k(   30) = (   0.0000001  -0.5773504   0.0000000), wk =   0.0039062
        k(   31) = (   0.0000001  -0.5773504   0.0763606), wk =   0.0078125
        k(   32) = (   0.0000001  -0.5773504   0.1527211), wk =   0.0078125
        k(   33) = (   0.0000001  -0.5773504   0.2290816), wk =   0.0078125
        k(   34) = (   0.0000001  -0.5773504  -0.3054420), wk =   0.0039062
        k(   35) = (   0.1250000   0.0721688  -0.0000000), wk =   0.0078125
        k(   36) = (   0.1250000   0.0721688   0.0763605), wk =   0.0078125
        k(   37) = (   0.1250000   0.0721688   0.1527210), wk =   0.0078125
        k(   38) = (   0.1250000   0.0721688   0.2290815), wk =   0.0078125
        k(   39) = (   0.1250000   0.0721688  -0.3054421), wk =   0.0078125
        k(   40) = (   0.1250000   0.0721688  -0.2290816), wk =   0.0078125
        k(   41) = (   0.1250000   0.0721688  -0.1527210), wk =   0.0078125
        k(   42) = (   0.1250000   0.0721688  -0.0763605), wk =   0.0078125
        k(   43) = (   0.1250000   0.2165064  -0.0000000), wk =   0.0078125
        k(   44) = (   0.1249999   0.2165064   0.0763605), wk =   0.0078125
        k(   45) = (   0.1249999   0.2165064   0.1527210), wk =   0.0078125
        k(   46) = (   0.1249999   0.2165064   0.2290815), wk =   0.0078125
        k(   47) = (   0.1250000   0.2165064  -0.3054421), wk =   0.0078125
        k(   48) = (   0.1250000   0.2165064  -0.2290816), wk =   0.0078125
        k(   49) = (   0.1250000   0.2165064  -0.1527211), wk =   0.0078125
        k(   50) = (   0.1250000   0.2165064  -0.0763605), wk =   0.0078125
        k(   51) = (   0.1249999   0.3608440  -0.0000000), wk =   0.0078125
        k(   52) = (   0.1249999   0.3608440   0.0763605), wk =   0.0078125
        k(   53) = (   0.1249999   0.3608440   0.1527210), wk =   0.0078125
        k(   54) = (   0.1249999   0.3608440   0.2290815), wk =   0.0078125
        k(   55) = (   0.1250000   0.3608440  -0.3054421), wk =   0.0078125
        k(   56) = (   0.1250000   0.3608440  -0.2290816), wk =   0.0078125
        k(   57) = (   0.1249999   0.3608440  -0.1527211), wk =   0.0078125
        k(   58) = (   0.1249999   0.3608440  -0.0763606), wk =   0.0078125
        k(   59) = (   0.1249999   0.5051816  -0.0000001), wk =   0.0078125
        k(   60) = (   0.1249999   0.5051816   0.0763605), wk =   0.0078125
        k(   61) = (   0.1249999   0.5051816   0.1527210), wk =   0.0078125
        k(   62) = (   0.1249999   0.5051816   0.2290815), wk =   0.0078125
        k(   63) = (   0.1249999   0.5051816  -0.3054421), wk =   0.0078125
        k(   64) = (   0.1249999   0.5051816  -0.2290816), wk =   0.0078125
        k(   65) = (   0.1249999   0.5051816  -0.1527211), wk =   0.0078125
        k(   66) = (   0.1249999   0.5051816  -0.0763606), wk =   0.0078125
        k(   67) = (   0.1250001  -0.5051817   0.0000000), wk =   0.0078125
        k(   68) = (   0.1250001  -0.5051817   0.0763605), wk =   0.0078125
        k(   69) = (   0.1250001  -0.5051817   0.1527211), wk =   0.0078125
        k(   70) = (   0.1250001  -0.5051817   0.2290816), wk =   0.0078125
        k(   71) = (   0.1250001  -0.5051816  -0.3054420), wk =   0.0078125
        k(   72) = (   0.1250001  -0.5051816  -0.2290815), wk =   0.0078125
        k(   73) = (   0.1250001  -0.5051816  -0.1527210), wk =   0.0078125
        k(   74) = (   0.1250001  -0.5051816  -0.0763605), wk =   0.0078125
        k(   75) = (   0.1250001  -0.3608440   0.0000000), wk =   0.0078125
        k(   76) = (   0.1250001  -0.3608440   0.0763605), wk =   0.0078125
        k(   77) = (   0.1250001  -0.3608441   0.1527210), wk =   0.0078125
        k(   78) = (   0.1250000  -0.3608441   0.2290816), wk =   0.0078125
        k(   79) = (   0.1250001  -0.3608440  -0.3054420), wk =   0.0078125
        k(   80) = (   0.1250001  -0.3608440  -0.2290815), wk =   0.0078125
        k(   81) = (   0.1250001  -0.3608440  -0.1527210), wk =   0.0078125
        k(   82) = (   0.1250001  -0.3608440  -0.0763605), wk =   0.0078125
        k(   83) = (   0.1250000  -0.2165064   0.0000000), wk =   0.0078125
        k(   84) = (   0.1250000  -0.2165064   0.0763605), wk =   0.0078125
        k(   85) = (   0.1250000  -0.2165064   0.1527210), wk =   0.0078125
        k(   86) = (   0.1250000  -0.2165065   0.2290815), wk =   0.0078125
        k(   87) = (   0.1250001  -0.2165064  -0.3054421), wk =   0.0078125
        k(   88) = (   0.1250001  -0.2165064  -0.2290815), wk =   0.0078125
        k(   89) = (   0.1250001  -0.2165064  -0.1527210), wk =   0.0078125
        k(   90) = (   0.1250001  -0.2165064  -0.0763605), wk =   0.0078125
        k(   91) = (   0.1250000  -0.0721688  -0.0000000), wk =   0.0078125
        k(   92) = (   0.1250000  -0.0721688   0.0763605), wk =   0.0078125
        k(   93) = (   0.1250000  -0.0721688   0.1527210), wk =   0.0078125
        k(   94) = (   0.1250000  -0.0721688   0.2290815), wk =   0.0078125
        k(   95) = (   0.1250000  -0.0721688  -0.3054421), wk =   0.0078125
        k(   96) = (   0.1250000  -0.0721688  -0.2290815), wk =   0.0078125
        k(   97) = (   0.1250000  -0.0721688  -0.1527210), wk =   0.0078125
        k(   98) = (   0.1250000  -0.0721688  -0.0763605), wk =   0.0078125
        k(   99) = (   0.2500000   0.1443376  -0.0000000), wk =   0.0078125
        k(  100) = (   0.2500000   0.1443376   0.0763605), wk =   0.0078125
        k(  101) = (   0.2500000   0.1443375   0.1527210), wk =   0.0078125
        k(  102) = (   0.2499999   0.1443375   0.2290815), wk =   0.0078125
        k(  103) = (   0.2500000   0.1443376  -0.3054421), wk =   0.0078125
        k(  104) = (   0.2500000   0.1443376  -0.2290816), wk =   0.0078125
        k(  105) = (   0.2500000   0.1443376  -0.1527211), wk =   0.0078125
        k(  106) = (   0.2500000   0.1443376  -0.0763606), wk =   0.0078125
        k(  107) = (   0.2499999   0.2886752  -0.0000001), wk =   0.0078125
        k(  108) = (   0.2499999   0.2886752   0.0763605), wk =   0.0078125
        k(  109) = (   0.2499999   0.2886752   0.1527210), wk =   0.0078125
        k(  110) = (   0.2499999   0.2886751   0.2290815), wk =   0.0078125
        k(  111) = (   0.2500000   0.2886752  -0.3054421), wk =   0.0078125
        k(  112) = (   0.2500000   0.2886752  -0.2290816), wk =   0.0078125
        k(  113) = (   0.2500000   0.2886752  -0.1527211), wk =   0.0078125
        k(  114) = (   0.2500000   0.2886752  -0.0763606), wk =   0.0078125
        k(  115) = (   0.2499999   0.4330128  -0.0000001), wk =   0.0078125
        k(  116) = (   0.2499999   0.4330128   0.0763604), wk =   0.0078125
        k(  117) = (   0.2499999   0.4330128   0.1527210), wk =   0.0078125
        k(  118) = (   0.2499999   0.4330128   0.2290815), wk =   0.0078125
        k(  119) = (   0.2499999   0.4330128  -0.3054421), wk =   0.0078125
        k(  120) = (   0.2499999   0.4330128  -0.2290816), wk =   0.0078125
        k(  121) = (   0.2499999   0.4330128  -0.1527211), wk =   0.0078125
        k(  122) = (   0.2499999   0.4330128  -0.0763606), wk =   0.0078125
        k(  123) = (   0.2499999   0.5773504  -0.0000001), wk =   0.0078125
        k(  124) = (   0.2499999   0.5773504   0.0763604), wk =   0.0078125
        k(  125) = (   0.2499999   0.5773504   0.1527210), wk =   0.0078125
        k(  126) = (   0.2499999   0.5773504   0.2290815), wk =   0.0078125
        k(  127) = (   0.2499999   0.5773504  -0.3054421), wk =   0.0078125
        k(  128) = (   0.2499999   0.5773504  -0.2290816), wk =   0.0078125
        k(  129) = (   0.2499999   0.5773504  -0.1527211), wk =   0.0078125
        k(  130) = (   0.2499999   0.5773504  -0.0763606), wk =   0.0078125
        k(  131) = (   0.2500001  -0.4330129   0.0000000), wk =   0.0078125
        k(  132) = (   0.2500001  -0.4330129   0.0763605), wk =   0.0078125
        k(  133) = (   0.2500001  -0.4330129   0.1527210), wk =   0.0078125
        k(  134) = (   0.2500001  -0.4330129   0.2290815), wk =   0.0078125
        k(  135) = (   0.2500001  -0.4330129  -0.3054420), wk =   0.0078125
        k(  136) = (   0.2500001  -0.4330129  -0.2290815), wk =   0.0078125
        k(  137) = (   0.2500001  -0.4330129  -0.1527210), wk =   0.0078125
        k(  138) = (   0.2500001  -0.4330129  -0.0763605), wk =   0.0078125
        k(  139) = (   0.2500001  -0.2886753  -0.0000000), wk =   0.0078125
        k(  140) = (   0.2500000  -0.2886753   0.0763605), wk =   0.0078125
        k(  141) = (   0.2500000  -0.2886753   0.1527210), wk =   0.0078125
        k(  142) = (   0.2500000  -0.2886753   0.2290815), wk =   0.0078125
        k(  143) = (   0.2500001  -0.2886752  -0.3054421), wk =   0.0078125
        k(  144) = (   0.2500001  -0.2886752  -0.2290815), wk =   0.0078125
        k(  145) = (   0.2500001  -0.2886753  -0.1527210), wk =   0.0078125
        k(  146) = (   0.2500001  -0.2886753  -0.0763605), wk =   0.0078125
        k(  147) = (   0.2500000  -0.1443377  -0.0000000), wk =   0.0078125
        k(  148) = (   0.2500000  -0.1443377   0.0763605), wk =   0.0078125
        k(  149) = (   0.2500000  -0.1443377   0.1527210), wk =   0.0078125
        k(  150) = (   0.2500000  -0.1443377   0.2290815), wk =   0.0078125
        k(  151) = (   0.2500001  -0.1443376  -0.3054421), wk =   0.0078125
        k(  152) = (   0.2500001  -0.1443376  -0.2290816), wk =   0.0078125
        k(  153) = (   0.2500000  -0.1443376  -0.1527210), wk =   0.0078125
        k(  154) = (   0.2500000  -0.1443377  -0.0763605), wk =   0.0078125
        k(  155) = (   0.2500000  -0.0000000  -0.0000000), wk =   0.0078125
        k(  156) = (   0.2500000  -0.0000001   0.0763605), wk =   0.0078125
        k(  157) = (   0.2500000  -0.0000001   0.1527210), wk =   0.0078125
        k(  158) = (   0.2500000  -0.0000001   0.2290815), wk =   0.0078125
        k(  159) = (   0.2500000  -0.0000000  -0.3054421), wk =   0.0078125
        k(  160) = (   0.2500000  -0.0000000  -0.2290816), wk =   0.0078125
        k(  161) = (   0.2500000  -0.0000000  -0.1527211), wk =   0.0078125
        k(  162) = (   0.2500000  -0.0000000  -0.0763605), wk =   0.0078125
        k(  163) = (   0.3750000   0.2165063  -0.0000001), wk =   0.0078125
        k(  164) = (   0.3749999   0.2165063   0.0763605), wk =   0.0078125
        k(  165) = (   0.3749999   0.2165063   0.1527210), wk =   0.0078125
        k(  166) = (   0.3749999   0.2165063   0.2290815), wk =   0.0078125
        k(  167) = (   0.3750000   0.2165064  -0.3054421), wk =   0.0078125
        k(  168) = (   0.3750000   0.2165064  -0.2290816), wk =   0.0078125
        k(  169) = (   0.3750000   0.2165063  -0.1527211), wk =   0.0078125
        k(  170) = (   0.3750000   0.2165063  -0.0763606), wk =   0.0078125
        k(  171) = (   0.3749999   0.3608439  -0.0000001), wk =   0.0078125
        k(  172) = (   0.3749999   0.3608439   0.0763604), wk =   0.0078125
        k(  173) = (   0.3749999   0.3608439   0.1527210), wk =   0.0078125
        k(  174) = (   0.3749999   0.3608439   0.2290815), wk =   0.0078125
        k(  175) = (   0.3750000   0.3608440  -0.3054421), wk =   0.0078125
        k(  176) = (   0.3750000   0.3608440  -0.2290816), wk =   0.0078125
        k(  177) = (   0.3749999   0.3608440  -0.1527211), wk =   0.0078125
        k(  178) = (   0.3749999   0.3608439  -0.0763606), wk =   0.0078125
        k(  179) = (   0.3749999   0.5051816  -0.0000001), wk =   0.0078125
        k(  180) = (   0.3749999   0.5051815   0.0763604), wk =   0.0078125
        k(  181) = (   0.3749999   0.5051815   0.1527209), wk =   0.0078125
        k(  182) = (   0.3749999   0.5051815   0.2290815), wk =   0.0078125
        k(  183) = (   0.3749999   0.5051816  -0.3054421), wk =   0.0078125
        k(  184) = (   0.3749999   0.5051816  -0.2290816), wk =   0.0078125
        k(  185) = (   0.3749999   0.5051816  -0.1527211), wk =   0.0078125
        k(  186) = (   0.3749999   0.5051816  -0.0763606), wk =   0.0078125
        k(  187) = (   0.3749999   0.6495192  -0.0000001), wk =   0.0078125
        k(  188) = (   0.3749999   0.6495192   0.0763604), wk =   0.0078125
        k(  189) = (   0.3749999   0.6495191   0.1527209), wk =   0.0078125
        k(  190) = (   0.3749998   0.6495191   0.2290814), wk =   0.0078125
        k(  191) = (   0.3749999   0.6495192  -0.3054422), wk =   0.0078125
        k(  192) = (   0.3749999   0.6495192  -0.2290816), wk =   0.0078125
        k(  193) = (   0.3749999   0.6495192  -0.1527211), wk =   0.0078125
        k(  194) = (   0.3749999   0.6495192  -0.0763606), wk =   0.0078125
        k(  195) = (   0.3750001  -0.3608441  -0.0000000), wk =   0.0078125
        k(  196) = (   0.3750001  -0.3608441   0.0763605), wk =   0.0078125
        k(  197) = (   0.3750001  -0.3608441   0.1527210), wk =   0.0078125
        k(  198) = (   0.3750000  -0.3608441   0.2290815), wk =   0.0078125
        k(  199) = (   0.3750001  -0.3608441  -0.3054421), wk =   0.0078125
        k(  200) = (   0.3750001  -0.3608441  -0.2290816), wk =   0.0078125
        k(  201) = (   0.3750001  -0.3608441  -0.1527210), wk =   0.0078125
        k(  202) = (   0.3750001  -0.3608441  -0.0763605), wk =   0.0078125
        k(  203) = (   0.3750000  -0.2165065  -0.0000000), wk =   0.0078125
        k(  204) = (   0.3750000  -0.2165065   0.0763605), wk =   0.0078125
        k(  205) = (   0.3750000  -0.2165065   0.1527210), wk =   0.0078125
        k(  206) = (   0.3750000  -0.2165065   0.2290815), wk =   0.0078125
        k(  207) = (   0.3750001  -0.2165065  -0.3054421), wk =   0.0078125
        k(  208) = (   0.3750001  -0.2165065  -0.2290816), wk =   0.0078125
        k(  209) = (   0.3750001  -0.2165065  -0.1527211), wk =   0.0078125
        k(  210) = (   0.3750001  -0.2165065  -0.0763605), wk =   0.0078125
        k(  211) = (   0.3750000  -0.0721689  -0.0000000), wk =   0.0078125
        k(  212) = (   0.3750000  -0.0721689   0.0763605), wk =   0.0078125
        k(  213) = (   0.3750000  -0.0721689   0.1527210), wk =   0.0078125
        k(  214) = (   0.3750000  -0.0721689   0.2290815), wk =   0.0078125
        k(  215) = (   0.3750000  -0.0721689  -0.3054421), wk =   0.0078125
        k(  216) = (   0.3750000  -0.0721689  -0.2290816), wk =   0.0078125
        k(  217) = (   0.3750000  -0.0721689  -0.1527211), wk =   0.0078125
        k(  218) = (   0.3750000  -0.0721689  -0.0763606), wk =   0.0078125
        k(  219) = (   0.3750000   0.0721687  -0.0000000), wk =   0.0078125
        k(  220) = (   0.3750000   0.0721687   0.0763605), wk =   0.0078125
        k(  221) = (   0.3750000   0.0721687   0.1527210), wk =   0.0078125
        k(  222) = (   0.3750000   0.0721687   0.2290815), wk =   0.0078125
        k(  223) = (   0.3750000   0.0721688  -0.3054421), wk =   0.0078125
        k(  224) = (   0.3750000   0.0721687  -0.2290816), wk =   0.0078125
        k(  225) = (   0.3750000   0.0721687  -0.1527211), wk =   0.0078125
        k(  226) = (   0.3750000   0.0721687  -0.0763606), wk =   0.0078125
        k(  227) = (  -0.4999999  -0.2886751   0.0000001), wk =   0.0039062
        k(  228) = (  -0.5000000  -0.2886751   0.0763606), wk =   0.0078125
        k(  229) = (  -0.5000000  -0.2886751   0.1527211), wk =   0.0078125
        k(  230) = (  -0.5000000  -0.2886751   0.2290816), wk =   0.0078125
        k(  231) = (  -0.4999999  -0.2886751  -0.3054420), wk =   0.0039062
        k(  232) = (  -0.5000000  -0.1443375   0.0000001), wk =   0.0078125
        k(  233) = (  -0.5000000  -0.1443375   0.0763606), wk =   0.0078125
        k(  234) = (  -0.5000000  -0.1443375   0.1527211), wk =   0.0078125
        k(  235) = (  -0.5000000  -0.1443375   0.2290816), wk =   0.0078125
        k(  236) = (  -0.4999999  -0.1443375  -0.3054420), wk =   0.0078125
        k(  237) = (  -0.4999999  -0.1443375  -0.2290815), wk =   0.0078125
        k(  238) = (  -0.5000000  -0.1443375  -0.1527210), wk =   0.0078125
        k(  239) = (  -0.5000000  -0.1443375  -0.0763604), wk =   0.0078125
        k(  240) = (  -0.5000000   0.0000001   0.0000001), wk =   0.0078125
        k(  241) = (  -0.5000000   0.0000001   0.0763606), wk =   0.0078125
        k(  242) = (  -0.5000000   0.0000001   0.1527211), wk =   0.0078125
        k(  243) = (  -0.5000000   0.0000001   0.2290816), wk =   0.0078125
        k(  244) = (  -0.5000000   0.0000001  -0.3054420), wk =   0.0078125
        k(  245) = (  -0.5000000   0.0000001  -0.2290815), wk =   0.0078125
        k(  246) = (  -0.5000000   0.0000001  -0.1527210), wk =   0.0078125
        k(  247) = (  -0.5000000   0.0000001  -0.0763605), wk =   0.0078125
        k(  248) = (  -0.5000000   0.1443377   0.0000000), wk =   0.0078125
        k(  249) = (  -0.5000000   0.1443377   0.0763606), wk =   0.0078125
        k(  250) = (  -0.5000000   0.1443377   0.1527211), wk =   0.0078125
        k(  251) = (  -0.5000001   0.1443377   0.2290816), wk =   0.0078125
        k(  252) = (  -0.5000000   0.1443377  -0.3054420), wk =   0.0078125
        k(  253) = (  -0.5000000   0.1443377  -0.2290815), wk =   0.0078125
        k(  254) = (  -0.5000000   0.1443377  -0.1527210), wk =   0.0078125
        k(  255) = (  -0.5000000   0.1443377  -0.0763605), wk =   0.0078125
        k(  256) = (  -0.4999998  -0.8660255   0.0000001), wk =   0.0039062
        k(  257) = (  -0.4999998  -0.8660256   0.0763606), wk =   0.0078125
        k(  258) = (  -0.4999998  -0.8660256   0.1527212), wk =   0.0078125
        k(  259) = (  -0.4999999  -0.8660256   0.2290817), wk =   0.0078125
        k(  260) = (  -0.4999998  -0.8660255  -0.3054419), wk =   0.0039062

                       cryst. coord.
        k(    1) = (   0.0000000   0.0000000   0.0000000), wk =   0.0039062
        k(    2) = (  -0.0000000   0.0000000   0.1250000), wk =   0.0078125
        k(    3) = (  -0.0000000   0.0000000   0.2500000), wk =   0.0078125
        k(    4) = (  -0.0000000   0.0000000   0.3750000), wk =   0.0078125
        k(    5) = (   0.0000000  -0.0000000  -0.5000000), wk =   0.0039062
        k(    6) = (   0.0000000   0.1250000  -0.0000000), wk =   0.0078125
        k(    7) = (  -0.0000000   0.1250000   0.1250000), wk =   0.0078125
        k(    8) = (  -0.0000000   0.1250000   0.2500000), wk =   0.0078125
        k(    9) = (  -0.0000000   0.1250000   0.3750000), wk =   0.0078125
        k(   10) = (   0.0000000   0.1250000  -0.5000000), wk =   0.0078125
        k(   11) = (   0.0000000   0.1250000  -0.3750000), wk =   0.0078125
        k(   12) = (  -0.0000000   0.1250000  -0.2500000), wk =   0.0078125
        k(   13) = (   0.0000000   0.1250000  -0.1250000), wk =   0.0078125
        k(   14) = (   0.0000000   0.2500000  -0.0000000), wk =   0.0078125
        k(   15) = (   0.0000000   0.2500000   0.1250000), wk =   0.0078125
        k(   16) = (  -0.0000000   0.2500000   0.2500000), wk =   0.0078125
        k(   17) = (  -0.0000000   0.2500000   0.3750000), wk =   0.0078125
        k(   18) = (  -0.0000000   0.2500000  -0.5000000), wk =   0.0078125
        k(   19) = (   0.0000000   0.2500000  -0.3750000), wk =   0.0078125
        k(   20) = (   0.0000000   0.2500000  -0.2500000), wk =   0.0078125
        k(   21) = (  -0.0000000   0.2500000  -0.1250000), wk =   0.0078125
        k(   22) = (  -0.0000000   0.3750000   0.0000000), wk =   0.0078125
        k(   23) = (  -0.0000000   0.3750000   0.1250000), wk =   0.0078125
        k(   24) = (  -0.0000000   0.3750000   0.2500000), wk =   0.0078125
        k(   25) = (   0.0000000   0.3750000   0.3750000), wk =   0.0078125
        k(   26) = (  -0.0000000   0.3750000  -0.5000000), wk =   0.0078125
        k(   27) = (  -0.0000000   0.3750000  -0.3750000), wk =   0.0078125
        k(   28) = (   0.0000000   0.3750000  -0.2500000), wk =   0.0078125
        k(   29) = (   0.0000000   0.3750000  -0.1250000), wk =   0.0078125
        k(   30) = (  -0.0000000  -0.5000000   0.0000000), wk =   0.0039062
        k(   31) = (   0.0000000  -0.5000000   0.1250000), wk =   0.0078125
        k(   32) = (   0.0000000  -0.5000000   0.2500000), wk =   0.0078125
        k(   33) = (  -0.0000000  -0.5000000   0.3750000), wk =   0.0078125
        k(   34) = (   0.0000000  -0.5000000  -0.5000000), wk =   0.0039062
        k(   35) = (   0.1250000  -0.0000000  -0.0000000), wk =   0.0078125
        k(   36) = (   0.1250000  -0.0000000   0.1250000), wk =   0.0078125
        k(   37) = (   0.1250000   0.0000000   0.2500000), wk =   0.0078125
        k(   38) = (   0.1250000  -0.0000000   0.3750000), wk =   0.0078125
        k(   39) = (   0.1250000   0.0000000  -0.5000000), wk =   0.0078125
        k(   40) = (   0.1250000   0.0000000  -0.3750000), wk =   0.0078125
        k(   41) = (   0.1250000  -0.0000000  -0.2500000), wk =   0.0078125
        k(   42) = (   0.1250000  -0.0000000  -0.1250000), wk =   0.0078125
        k(   43) = (   0.1250000   0.1250000   0.0000000), wk =   0.0078125
        k(   44) = (   0.1250000   0.1250000   0.1250000), wk =   0.0078125
        k(   45) = (   0.1250000   0.1250000   0.2500000), wk =   0.0078125
        k(   46) = (   0.1250000   0.1250000   0.3750000), wk =   0.0078125
        k(   47) = (   0.1250000   0.1250000  -0.5000000), wk =   0.0078125
        k(   48) = (   0.1250000   0.1250000  -0.3750000), wk =   0.0078125
        k(   49) = (   0.1250000   0.1250000  -0.2500000), wk =   0.0078125
        k(   50) = (   0.1250000   0.1250000  -0.1250000), wk =   0.0078125
        k(   51) = (   0.1250000   0.2500000  -0.0000000), wk =   0.0078125
        k(   52) = (   0.1250000   0.2500000   0.1250000), wk =   0.0078125
        k(   53) = (   0.1250000   0.2500000   0.2500000), wk =   0.0078125
        k(   54) = (   0.1250000   0.2500000   0.3750000), wk =   0.0078125
        k(   55) = (   0.1250000   0.2500000  -0.5000000), wk =   0.0078125
        k(   56) = (   0.1250000   0.2500000  -0.3750000), wk =   0.0078125
        k(   57) = (   0.1250000   0.2500000  -0.2500000), wk =   0.0078125
        k(   58) = (   0.1250000   0.2500000  -0.1250000), wk =   0.0078125
        k(   59) = (   0.1250000   0.3750000  -0.0000000), wk =   0.0078125
        k(   60) = (   0.1250000   0.3750000   0.1250000), wk =   0.0078125
        k(   61) = (   0.1250000   0.3750000   0.2500000), wk =   0.0078125
        k(   62) = (   0.1250000   0.3750000   0.3750000), wk =   0.0078125
        k(   63) = (   0.1250000   0.3750000  -0.5000000), wk =   0.0078125
        k(   64) = (   0.1250000   0.3750000  -0.3750000), wk =   0.0078125
        k(   65) = (   0.1250000   0.3750000  -0.2500000), wk =   0.0078125
        k(   66) = (   0.1250000   0.3750000  -0.1250000), wk =   0.0078125
        k(   67) = (   0.1250000  -0.5000000  -0.0000000), wk =   0.0078125
        k(   68) = (   0.1250000  -0.5000000   0.1250000), wk =   0.0078125
        k(   69) = (   0.1250000  -0.5000000   0.2500000), wk =   0.0078125
        k(   70) = (   0.1250000  -0.5000000   0.3750000), wk =   0.0078125
        k(   71) = (   0.1250000  -0.5000000  -0.5000000), wk =   0.0078125
        k(   72) = (   0.1250000  -0.5000000  -0.3750000), wk =   0.0078125
        k(   73) = (   0.1250000  -0.5000000  -0.2500000), wk =   0.0078125
        k(   74) = (   0.1250000  -0.5000000  -0.1250000), wk =   0.0078125
        k(   75) = (   0.1250000  -0.3750000  -0.0000000), wk =   0.0078125
        k(   76) = (   0.1250000  -0.3750000   0.1250000), wk =   0.0078125
        k(   77) = (   0.1250000  -0.3750000   0.2500000), wk =   0.0078125
        k(   78) = (   0.1250000  -0.3750000   0.3750000), wk =   0.0078125
        k(   79) = (   0.1250000  -0.3750000  -0.5000000), wk =   0.0078125
        k(   80) = (   0.1250000  -0.3750000  -0.3750000), wk =   0.0078125
        k(   81) = (   0.1250000  -0.3750000  -0.2500000), wk =   0.0078125
        k(   82) = (   0.1250000  -0.3750000  -0.1250000), wk =   0.0078125
        k(   83) = (   0.1250000  -0.2500000  -0.0000000), wk =   0.0078125
        k(   84) = (   0.1250000  -0.2500000   0.1250000), wk =   0.0078125
        k(   85) = (   0.1250000  -0.2500000   0.2500000), wk =   0.0078125
        k(   86) = (   0.1250000  -0.2500000   0.3750000), wk =   0.0078125
        k(   87) = (   0.1250000  -0.2500000  -0.5000000), wk =   0.0078125
        k(   88) = (   0.1250000  -0.2500000  -0.3750000), wk =   0.0078125
        k(   89) = (   0.1250000  -0.2500000  -0.2500000), wk =   0.0078125
        k(   90) = (   0.1250000  -0.2500000  -0.1250000), wk =   0.0078125
        k(   91) = (   0.1250000  -0.1250000  -0.0000000), wk =   0.0078125
        k(   92) = (   0.1250000  -0.1250000   0.1250000), wk =   0.0078125
        k(   93) = (   0.1250000  -0.1250000   0.2500000), wk =   0.0078125
        k(   94) = (   0.1250000  -0.1250000   0.3750000), wk =   0.0078125
        k(   95) = (   0.1250000  -0.1250000  -0.5000000), wk =   0.0078125
        k(   96) = (   0.1250000  -0.1250000  -0.3750000), wk =   0.0078125
        k(   97) = (   0.1250000  -0.1250000  -0.2500000), wk =   0.0078125
        k(   98) = (   0.1250000  -0.1250000  -0.1250000), wk =   0.0078125
        k(   99) = (   0.2500000  -0.0000000  -0.0000000), wk =   0.0078125
        k(  100) = (   0.2500000  -0.0000000   0.1250000), wk =   0.0078125
        k(  101) = (   0.2500000  -0.0000000   0.2500000), wk =   0.0078125
        k(  102) = (   0.2500000  -0.0000000   0.3750000), wk =   0.0078125
        k(  103) = (   0.2500000  -0.0000000  -0.5000000), wk =   0.0078125
        k(  104) = (   0.2500000   0.0000000  -0.3750000), wk =   0.0078125
        k(  105) = (   0.2500000  -0.0000000  -0.2500000), wk =   0.0078125
        k(  106) = (   0.2500000   0.0000000  -0.1250000), wk =   0.0078125
        k(  107) = (   0.2500000   0.1250000  -0.0000000), wk =   0.0078125
        k(  108) = (   0.2500000   0.1250000   0.1250000), wk =   0.0078125
        k(  109) = (   0.2500000   0.1250000   0.2500000), wk =   0.0078125
        k(  110) = (   0.2500000   0.1250000   0.3750000), wk =   0.0078125
        k(  111) = (   0.2500000   0.1250000  -0.5000000), wk =   0.0078125
        k(  112) = (   0.2500000   0.1250000  -0.3750000), wk =   0.0078125
        k(  113) = (   0.2500000   0.1250000  -0.2500000), wk =   0.0078125
        k(  114) = (   0.2500000   0.1250000  -0.1250000), wk =   0.0078125
        k(  115) = (   0.2500000   0.2500000   0.0000000), wk =   0.0078125
        k(  116) = (   0.2500000   0.2500000   0.1250000), wk =   0.0078125
        k(  117) = (   0.2500000   0.2500000   0.2500000), wk =   0.0078125
        k(  118) = (   0.2500000   0.2500000   0.3750000), wk =   0.0078125
        k(  119) = (   0.2500000   0.2500000  -0.5000000), wk =   0.0078125
        k(  120) = (   0.2500000   0.2500000  -0.3750000), wk =   0.0078125
        k(  121) = (   0.2500000   0.2500000  -0.2500000), wk =   0.0078125
        k(  122) = (   0.2500000   0.2500000  -0.1250000), wk =   0.0078125
        k(  123) = (   0.2500000   0.3750000  -0.0000000), wk =   0.0078125
        k(  124) = (   0.2500000   0.3750000   0.1250000), wk =   0.0078125
        k(  125) = (   0.2500000   0.3750000   0.2500000), wk =   0.0078125
        k(  126) = (   0.2500000   0.3750000   0.3750000), wk =   0.0078125
        k(  127) = (   0.2500000   0.3750000  -0.5000000), wk =   0.0078125
        k(  128) = (   0.2500000   0.3750000  -0.3750000), wk =   0.0078125
        k(  129) = (   0.2500000   0.3750000  -0.2500000), wk =   0.0078125
        k(  130) = (   0.2500000   0.3750000  -0.1250000), wk =   0.0078125
        k(  131) = (   0.2500000  -0.5000000  -0.0000000), wk =   0.0078125
        k(  132) = (   0.2500000  -0.5000000   0.1250000), wk =   0.0078125
        k(  133) = (   0.2500000  -0.5000000   0.2500000), wk =   0.0078125
        k(  134) = (   0.2500000  -0.5000000   0.3750000), wk =   0.0078125
        k(  135) = (   0.2500000  -0.5000000  -0.5000000), wk =   0.0078125
        k(  136) = (   0.2500000  -0.5000000  -0.3750000), wk =   0.0078125
        k(  137) = (   0.2500000  -0.5000000  -0.2500000), wk =   0.0078125
        k(  138) = (   0.2500000  -0.5000000  -0.1250000), wk =   0.0078125
        k(  139) = (   0.2500000  -0.3750000  -0.0000000), wk =   0.0078125
        k(  140) = (   0.2500000  -0.3750000   0.1250000), wk =   0.0078125
        k(  141) = (   0.2500000  -0.3750000   0.2500000), wk =   0.0078125
        k(  142) = (   0.2500000  -0.3750000   0.3750000), wk =   0.0078125
        k(  143) = (   0.2500000  -0.3750000  -0.5000000), wk =   0.0078125
        k(  144) = (   0.2500000  -0.3750000  -0.3750000), wk =   0.0078125
        k(  145) = (   0.2500000  -0.3750000  -0.2500000), wk =   0.0078125
        k(  146) = (   0.2500000  -0.3750000  -0.1250000), wk =   0.0078125
        k(  147) = (   0.2500000  -0.2500000  -0.0000000), wk =   0.0078125
        k(  148) = (   0.2500000  -0.2500000   0.1250000), wk =   0.0078125
        k(  149) = (   0.2500000  -0.2500000   0.2500000), wk =   0.0078125
        k(  150) = (   0.2500000  -0.2500000   0.3750000), wk =   0.0078125
        k(  151) = (   0.2500000  -0.2500000  -0.5000000), wk =   0.0078125
        k(  152) = (   0.2500000  -0.2500000  -0.3750000), wk =   0.0078125
        k(  153) = (   0.2500000  -0.2500000  -0.2500000), wk =   0.0078125
        k(  154) = (   0.2500000  -0.2500000  -0.1250000), wk =   0.0078125
        k(  155) = (   0.2500000  -0.1250000  -0.0000000), wk =   0.0078125
        k(  156) = (   0.2500000  -0.1250000   0.1250000), wk =   0.0078125
        k(  157) = (   0.2500000  -0.1250000   0.2500000), wk =   0.0078125
        k(  158) = (   0.2500000  -0.1250000   0.3750000), wk =   0.0078125
        k(  159) = (   0.2500000  -0.1250000  -0.5000000), wk =   0.0078125
        k(  160) = (   0.2500000  -0.1250000  -0.3750000), wk =   0.0078125
        k(  161) = (   0.2500000  -0.1250000  -0.2500000), wk =   0.0078125
        k(  162) = (   0.2500000  -0.1250000  -0.1250000), wk =   0.0078125
        k(  163) = (   0.3750000   0.0000000  -0.0000000), wk =   0.0078125
        k(  164) = (   0.3750000   0.0000000   0.1250000), wk =   0.0078125
        k(  165) = (   0.3750000   0.0000000   0.2500000), wk =   0.0078125
        k(  166) = (   0.3750000   0.0000000   0.3750000), wk =   0.0078125
        k(  167) = (   0.3750000   0.0000000  -0.5000000), wk =   0.0078125
        k(  168) = (   0.3750000   0.0000000  -0.3750000), wk =   0.0078125
        k(  169) = (   0.3750000  -0.0000000  -0.2500000), wk =   0.0078125
        k(  170) = (   0.3750000   0.0000000  -0.1250000), wk =   0.0078125
        k(  171) = (   0.3750000   0.1250000  -0.0000000), wk =   0.0078125
        k(  172) = (   0.3750000   0.1250000   0.1250000), wk =   0.0078125
        k(  173) = (   0.3750000   0.1250000   0.2500000), wk =   0.0078125
        k(  174) = (   0.3750000   0.1250000   0.3750000), wk =   0.0078125
        k(  175) = (   0.3750000   0.1250000  -0.5000000), wk =   0.0078125
        k(  176) = (   0.3750000   0.1250000  -0.3750000), wk =   0.0078125
        k(  177) = (   0.3750000   0.1250000  -0.2500000), wk =   0.0078125
        k(  178) = (   0.3750000   0.1250000  -0.1250000), wk =   0.0078125
        k(  179) = (   0.3750000   0.2500000  -0.0000000), wk =   0.0078125
        k(  180) = (   0.3750000   0.2500000   0.1250000), wk =   0.0078125
        k(  181) = (   0.3750000   0.2500000   0.2500000), wk =   0.0078125
        k(  182) = (   0.3750000   0.2500000   0.3750000), wk =   0.0078125
        k(  183) = (   0.3750000   0.2500000  -0.5000000), wk =   0.0078125
        k(  184) = (   0.3750000   0.2500000  -0.3750000), wk =   0.0078125
        k(  185) = (   0.3750000   0.2500000  -0.2500000), wk =   0.0078125
        k(  186) = (   0.3750000   0.2500000  -0.1250000), wk =   0.0078125
        k(  187) = (   0.3750000   0.3750000  -0.0000000), wk =   0.0078125
        k(  188) = (   0.3750000   0.3750000   0.1250000), wk =   0.0078125
        k(  189) = (   0.3750000   0.3750000   0.2500000), wk =   0.0078125
        k(  190) = (   0.3750000   0.3750000   0.3750000), wk =   0.0078125
        k(  191) = (   0.3750000   0.3750000  -0.5000000), wk =   0.0078125
        k(  192) = (   0.3750000   0.3750000  -0.3750000), wk =   0.0078125
        k(  193) = (   0.3750000   0.3750000  -0.2500000), wk =   0.0078125
        k(  194) = (   0.3750000   0.3750000  -0.1250000), wk =   0.0078125
        k(  195) = (   0.3750000  -0.5000000  -0.0000000), wk =   0.0078125
        k(  196) = (   0.3750000  -0.5000000   0.1250000), wk =   0.0078125
        k(  197) = (   0.3750000  -0.5000000   0.2500000), wk =   0.0078125
        k(  198) = (   0.3750000  -0.5000000   0.3750000), wk =   0.0078125
        k(  199) = (   0.3750000  -0.5000000  -0.5000000), wk =   0.0078125
        k(  200) = (   0.3750000  -0.5000000  -0.3750000), wk =   0.0078125
        k(  201) = (   0.3750000  -0.5000000  -0.2500000), wk =   0.0078125
        k(  202) = (   0.3750000  -0.5000000  -0.1250000), wk =   0.0078125
        k(  203) = (   0.3750000  -0.3750000  -0.0000000), wk =   0.0078125
        k(  204) = (   0.3750000  -0.3750000   0.1250000), wk =   0.0078125
        k(  205) = (   0.3750000  -0.3750000   0.2500000), wk =   0.0078125
        k(  206) = (   0.3750000  -0.3750000   0.3750000), wk =   0.0078125
        k(  207) = (   0.3750000  -0.3750000  -0.5000000), wk =   0.0078125
        k(  208) = (   0.3750000  -0.3750000  -0.3750000), wk =   0.0078125
        k(  209) = (   0.3750000  -0.3750000  -0.2500000), wk =   0.0078125
        k(  210) = (   0.3750000  -0.3750000  -0.1250000), wk =   0.0078125
        k(  211) = (   0.3750000  -0.2500000  -0.0000000), wk =   0.0078125
        k(  212) = (   0.3750000  -0.2500000   0.1250000), wk =   0.0078125
        k(  213) = (   0.3750000  -0.2500000   0.2500000), wk =   0.0078125
        k(  214) = (   0.3750000  -0.2500000   0.3750000), wk =   0.0078125
        k(  215) = (   0.3750000  -0.2500000  -0.5000000), wk =   0.0078125
        k(  216) = (   0.3750000  -0.2500000  -0.3750000), wk =   0.0078125
        k(  217) = (   0.3750000  -0.2500000  -0.2500000), wk =   0.0078125
        k(  218) = (   0.3750000  -0.2500000  -0.1250000), wk =   0.0078125
        k(  219) = (   0.3750000  -0.1250000  -0.0000000), wk =   0.0078125
        k(  220) = (   0.3750000  -0.1250000   0.1250000), wk =   0.0078125
        k(  221) = (   0.3750000  -0.1250000   0.2500000), wk =   0.0078125
        k(  222) = (   0.3750000  -0.1250000   0.3750000), wk =   0.0078125
        k(  223) = (   0.3750000  -0.1250000  -0.5000000), wk =   0.0078125
        k(  224) = (   0.3750000  -0.1250000  -0.3750000), wk =   0.0078125
        k(  225) = (   0.3750000  -0.1250000  -0.2500000), wk =   0.0078125
        k(  226) = (   0.3750000  -0.1250000  -0.1250000), wk =   0.0078125
        k(  227) = (  -0.5000000   0.0000000   0.0000000), wk =   0.0039062
        k(  228) = (  -0.5000000   0.0000000   0.1250000), wk =   0.0078125
        k(  229) = (  -0.5000000  -0.0000000   0.2500000), wk =   0.0078125
        k(  230) = (  -0.5000000   0.0000000   0.3750000), wk =   0.0078125
        k(  231) = (  -0.5000000   0.0000000  -0.5000000), wk =   0.0039062
        k(  232) = (  -0.5000000   0.1250000   0.0000000), wk =   0.0078125
        k(  233) = (  -0.5000000   0.1250000   0.1250000), wk =   0.0078125
        k(  234) = (  -0.5000000   0.1250000   0.2500000), wk =   0.0078125
        k(  235) = (  -0.5000000   0.1250000   0.3750000), wk =   0.0078125
        k(  236) = (  -0.5000000   0.1250000  -0.5000000), wk =   0.0078125
        k(  237) = (  -0.5000000   0.1250000  -0.3750000), wk =   0.0078125
        k(  238) = (  -0.5000000   0.1250000  -0.2500000), wk =   0.0078125
        k(  239) = (  -0.5000000   0.1250000  -0.1250000), wk =   0.0078125
        k(  240) = (  -0.5000000   0.2500000   0.0000000), wk =   0.0078125
        k(  241) = (  -0.5000000   0.2500000   0.1250000), wk =   0.0078125
        k(  242) = (  -0.5000000   0.2500000   0.2500000), wk =   0.0078125
        k(  243) = (  -0.5000000   0.2500000   0.3750000), wk =   0.0078125
        k(  244) = (  -0.5000000   0.2500000  -0.5000000), wk =   0.0078125
        k(  245) = (  -0.5000000   0.2500000  -0.3750000), wk =   0.0078125
        k(  246) = (  -0.5000000   0.2500000  -0.2500000), wk =   0.0078125
        k(  247) = (  -0.5000000   0.2500000  -0.1250000), wk =   0.0078125
        k(  248) = (  -0.5000000   0.3750000   0.0000000), wk =   0.0078125
        k(  249) = (  -0.5000000   0.3750000   0.1250000), wk =   0.0078125
        k(  250) = (  -0.5000000   0.3750000   0.2500000), wk =   0.0078125
        k(  251) = (  -0.5000000   0.3750000   0.3750000), wk =   0.0078125
        k(  252) = (  -0.5000000   0.3750000  -0.5000000), wk =   0.0078125
        k(  253) = (  -0.5000000   0.3750000  -0.3750000), wk =   0.0078125
        k(  254) = (  -0.5000000   0.3750000  -0.2500000), wk =   0.0078125
        k(  255) = (  -0.5000000   0.3750000  -0.1250000), wk =   0.0078125
        k(  256) = (  -0.5000000  -0.5000000  -0.0000000), wk =   0.0039062
        k(  257) = (  -0.5000000  -0.5000000   0.1250000), wk =   0.0078125
        k(  258) = (  -0.5000000  -0.5000000   0.2500000), wk =   0.0078125
        k(  259) = (  -0.5000000  -0.5000000   0.3750000), wk =   0.0078125
        k(  260) = (  -0.5000000  -0.5000000  -0.5000000), wk =   0.0039062

     Dense  grid:    79607 G-vectors     FFT dimensions: (  48,  48,  80)

     Smooth grid:    30975 G-vectors     FFT dimensions: (  36,  36,  60)

     Dynamical RAM for                 wfc:       0.08 MB

     Dynamical RAM for     wfc (w. buffer):       5.12 MB

     Dynamical RAM for           str. fact:       0.23 MB

     Dynamical RAM for           local pot:       0.00 MB

     Dynamical RAM for          nlocal pot:       0.23 MB

     Dynamical RAM for                qrad:       7.62 MB

     Dynamical RAM for          rho,v,vnew:       0.49 MB

     Dynamical RAM for               rhoin:       0.16 MB

     Dynamical RAM for            rho*nmix:       1.22 MB

     Dynamical RAM for           G-vectors:       0.30 MB

     Dynamical RAM for          h,s,v(r/c):       0.08 MB

     Dynamical RAM for          <psi|beta>:       0.02 MB

     Dynamical RAM for                 psi:       0.31 MB

     Dynamical RAM for                hpsi:       0.31 MB

     Dynamical RAM for                spsi:       0.31 MB

     Dynamical RAM for      wfcinit/wfcrot:       0.21 MB

     Dynamical RAM for           addusdens:       3.99 MB

     Dynamical RAM for          addusforce:       4.14 MB

     Dynamical RAM for         addusstress:       4.20 MB

     Estimated static dynamical RAM per process >      16.11 MB

     Estimated max dynamical RAM per process >      20.32 MB

     Estimated total dynamical RAM >       1.27 GB

     Check: negative core charge=   -0.000003

     Initial potential from superposition of free atoms

     starting charge   41.69964, renormalised to   42.00000
     Starting wfcs are   26 randomized atomic wfcs

     total cpu time spent up to now is        1.5 secs

     Self-consistent Calculation

     iteration #  1     ecut=    80.00 Ry     beta= 0.50
     Davidson diagonalization with overlap
     ethr =  1.00E-02,  avg # of iterations =  2.0

     total cpu time spent up to now is        2.3 secs

     total energy              =    -650.61895849 Ry
     Harris-Foulkes estimate   =    -651.46428051 Ry
     estimated scf accuracy    <       1.26735148 Ry

     iteration #  2     ecut=    80.00 Ry     beta= 0.50
     Davidson diagonalization with overlap
     ethr =  3.02E-03,  avg # of iterations =  3.0

     total cpu time spent up to now is        3.3 secs

     total energy              =    -651.01290752 Ry
     Harris-Foulkes estimate   =    -651.30388571 Ry
     estimated scf accuracy    <       0.66645145 Ry

     iteration #  3     ecut=    80.00 Ry     beta= 0.50
     Davidson diagonalization with overlap
     ethr =  1.59E-03,  avg # of iterations =  2.0

     total cpu time spent up to now is        4.2 secs

     total energy              =    -651.12732645 Ry
     Harris-Foulkes estimate   =    -651.13057858 Ry
     estimated scf accuracy    <       0.01005313 Ry

     iteration #  4     ecut=    80.00 Ry     beta= 0.50
     Davidson diagonalization with overlap
     ethr =  2.39E-05,  avg # of iterations =  2.0

     total cpu time spent up to now is        5.1 secs

     total energy              =    -651.12828833 Ry
     Harris-Foulkes estimate   =    -651.12880197 Ry
     estimated scf accuracy    <       0.00133946 Ry

     iteration #  5     ecut=    80.00 Ry     beta= 0.50
     Davidson diagonalization with overlap
     ethr =  3.19E-06,  avg # of iterations =  2.5

     total cpu time spent up to now is        6.0 secs

     total energy              =    -651.12849663 Ry
     Harris-Foulkes estimate   =    -651.12854743 Ry
     estimated scf accuracy    <       0.00014471 Ry

     iteration #  6     ecut=    80.00 Ry     beta= 0.50
     Davidson diagonalization with overlap
     ethr =  3.45E-07,  avg # of iterations =  2.8

     total cpu time spent up to now is        7.0 secs

     total energy              =    -651.12853052 Ry
     Harris-Foulkes estimate   =    -651.12854014 Ry
     estimated scf accuracy    <       0.00003881 Ry

     iteration #  7     ecut=    80.00 Ry     beta= 0.50
     Davidson diagonalization with overlap
     ethr =  9.24E-08,  avg # of iterations =  2.6

     total cpu time spent up to now is        8.0 secs

     total energy              =    -651.12853744 Ry
     Harris-Foulkes estimate   =    -651.12853644 Ry
     estimated scf accuracy    <       0.00000160 Ry

     iteration #  8     ecut=    80.00 Ry     beta= 0.50
     Davidson diagonalization with overlap
     ethr =  3.80E-09,  avg # of iterations =  2.0

     total cpu time spent up to now is        8.9 secs

     End of self-consistent calculation

          k = 0.0000 0.0000 0.0000 (  3887 PWs)   bands (ev):

  -115.8827 -70.2431 -70.2430 -70.2334 -65.3774 -32.3592 -32.3506 -32.3506
   -10.4399  -9.6264   1.7134   1.7134   1.8291   2.2954   2.7002   2.7002
     5.6711   5.6711   6.5716   6.8621   6.8621

     occupation numbers 
     1.0000   1.0000   1.0000   1.0000   1.0000   1.0000   1.0000   1.0000
     1.0000   1.0000   1.0000   1.0000   1.0000   1.0000   1.0000   1.0000
     1.0000   1.0000   1.0000   1.0000   1.0000

          k =-0.0000-0.0000 0.0764 (  3893 PWs)   bands (ev):

  -115.8827 -70.2431 -70.2431 -70.2334 -65.3774 -32.3592 -32.3507 -32.3507
   -10.4169  -9.6530   1.7131   1.7131   1.7312   2.4430   2.6983   2.6983
     5.6809   5.6809   6.3556   6.8557   6.8557

     occupation numbers 
     1.0000   1.0000   1.0000   1.0000   1.0000   1.0000   1.0000   1.0000
     1.0000   1.0000   1.0000   1.0000   1.0000   1.0000   1.0000   1.0000
     1.0000   1.0000   1.0000   1.0000   1.0000

          k =-0.0000-0.0000 0.1527 (  3868 PWs)   bands (ev):

  -115.8827 -70.2431 -70.2431 -70.2333 -65.3774 -32.3593 -32.3506 -32.3506
   -10.3536  -9.7251   1.5899   1.7122   1.7122   2.6937   2.6937   2.7147
     5.7050   5.7050   5.9381   6.8399   6.8399

     occupation numbers 
     1.0000   1.0000   1.0000   1.0000   1.0000   1.0000   1.0000   1.0000
     1.0000   1.0000   1.0000   1.0000   1.0000   1.0000   1.0000   1.0000
     1.0000   1.0000   1.0000   1.0000   1.0000

          k =-0.0000-0.0000 0.2291 (  3844 PWs)   bands (ev):

  -115.8827 -70.2430 -70.2430 -70.2333 -65.3774 -32.3593 -32.3506 -32.3506
   -10.2712  -9.8162   1.4961   1.7114   1.7114   2.6892   2.6892   2.9598
     5.5793   5.7298   5.7298   6.8234   6.8234

     occupation numbers 
     1.0000   1.0000   1.0000   1.0000   1.0000   1.0000   1.0000   1.0000
     1.0000   1.0000   1.0000   1.0000   1.0000   1.0000   1.0000   1.0000
     1.0000   1.0000   1.0000   1.0000   1.0000

          k = 0.0000 0.0000-0.3054 (  3868 PWs)   bands (ev):

  -115.8827 -70.2430 -70.2430 -70.2333 -65.3774 -32.3593 -32.3506 -32.3506
   -10.2253  -9.8657   1.4643   1.7110   1.7110   2.6873   2.6873   3.0631
     5.4353   5.7402   5.7402   6.8164   6.8164

     occupation numbers 
     1.0000   1.0000   1.0000   1.0000   1.0000   1.0000   1.0000   1.0000
     1.0000   1.0000   1.0000   1.0000   1.0000   1.0000   1.0000   1.0000
     1.0000   1.0000   1.0000   1.0000   1.0000

          k =-0.0000 0.1443-0.0000 (  3899 PWs)   bands (ev):

  -115.8827 -70.2434 -70.2432 -70.2333 -65.3771 -32.3591 -32.3550 -32.3517
   -10.3529  -9.5852   1.6570   1.7698   1.9402   2.3301   2.6973   2.7344
     5.2465   5.5844   6.1210   6.5243   6.7482

     occupation numbers 
     1.0000   1.0000   1.0000   1.0000   1.0000   1.0000   1.0000   1.0000
     1.0000   1.0000   1.0000   1.0000   1.0000   1.0000   1.0000   1.0000
     1.0000   1.0000   1.0000   1.0000   1.0000

          k =-0.0000 0.1443 0.0764 (  3883 PWs)   bands (ev):

  -115.8827 -70.2434 -70.2432 -70.2333 -65.3771 -32.3591 -32.3550 -32.3517
   -10.3315  -9.6095   1.6552   1.7699   1.8274   2.4330   2.6951   2.7815
     5.2690   5.5905   6.0337   6.4876   6.7459

     occupation numbers 
     1.0000   1.0000   1.0000   1.0000   1.0000   1.0000   1.0000   1.0000
     1.0000   1.0000   1.0000   1.0000   1.0000   1.0000   1.0000   1.0000
     1.0000   1.0000   1.0000   1.0000   1.0000

          k =-0.0000 0.1443 0.1527 (  3875 PWs)   bands (ev):

  -115.8827 -70.2434 -70.2431 -70.2333 -65.3771 -32.3591 -32.3550 -32.3517
   -10.2726  -9.6752   1.6293   1.6857   1.7689   2.5244   2.6904   2.9580
     5.2819   5.6186   5.8289   6.4456   6.7247

     occupation numbers 
     1.0000   1.0000   1.0000   1.0000   1.0000   1.0000   1.0000   1.0000
     1.0000   1.0000   1.0000   1.0000   1.0000   1.0000   1.0000   1.0000
     1.0000   1.0000   1.0000   1.0000   1.0000

          k =-0.0000 0.1443 0.2291 (  3873 PWs)   bands (ev):

  -115.8827 -70.2434 -70.2432 -70.2333 -65.3771 -32.3592 -32.3550 -32.3517
   -10.1969  -9.7577   1.5371   1.6645   1.7674   2.5445   2.6860   3.1711
     5.2124   5.6537   5.7158   6.3973   6.6955

     occupation numbers 
     1.0000   1.0000   1.0000   1.0000   1.0000   1.0000   1.0000   1.0000
     1.0000   1.0000   1.0000   1.0000   1.0000   1.0000   1.0000   1.0000
     1.0000   1.0000   1.0000   1.0000   1.0000

          k = 0.0000 0.1443-0.3054 (  3868 PWs)   bands (ev):

  -115.8827 -70.2434 -70.2431 -70.2333 -65.3771 -32.3592 -32.3550 -32.3517
   -10.1555  -9.8019   1.4969   1.6655   1.7663   2.5465   2.6845   3.2706
     5.1301   5.6751   5.7087   6.3854   6.6758

     occupation numbers 
     1.0000   1.0000   1.0000   1.0000   1.0000   1.0000   1.0000   1.0000
     1.0000   1.0000   1.0000   1.0000   1.0000   1.0000   1.0000   1.0000
     1.0000   1.0000   1.0000   1.0000   1.0000

          k =-0.0000 0.1443-0.2291 (  3873 PWs)   bands (ev):

  -115.8827 -70.2434 -70.2432 -70.2333 -65.3771 -32.3592 -32.3550 -32.3517
   -10.1969  -9.7577   1.5266   1.6739   1.7661   2.5441   2.6867   3.1844
     5.1586   5.6684   5.7269   6.4337   6.6787

     occupation numbers 
     1.0000   1.0000   1.0000   1.0000   1.0000   1.0000   1.0000   1.0000
     1.0000   1.0000   1.0000   1.0000   1.0000   1.0000   1.0000   1.0000
     1.0000   1.0000   1.0000   1.0000   1.0000

          k =-0.0000 0.1443-0.1527 (  3875 PWs)   bands (ev):

  -115.8827 -70.2434 -70.2431 -70.2333 -65.3771 -32.3591 -32.3550 -32.3517
   -10.2727  -9.6752   1.6071   1.7048   1.7671   2.5258   2.6913   2.9725
     5.2237   5.6382   5.8226   6.5052   6.7020

     occupation numbers 
     1.0000   1.0000   1.0000   1.0000   1.0000   1.0000   1.0000   1.0000
     1.0000   1.0000   1.0000   1.0000   1.0000   1.0000   1.0000   1.0000
     1.0000   1.0000   1.0000   1.0000   1.0000

          k =-0.0000 0.1443-0.0764 (  3883 PWs)   bands (ev):

  -115.8827 -70.2434 -70.2432 -70.2333 -65.3771 -32.3591 -32.3550 -32.3517
   -10.3315  -9.6095   1.6497   1.7686   1.8279   2.4399   2.6957   2.7872
     5.2408   5.6036   6.0041   6.5442   6.7306

     occupation numbers 
     1.0000   1.0000   1.0000   1.0000   1.0000   1.0000   1.0000   1.0000
     1.0000   1.0000   1.0000   1.0000   1.0000   1.0000   1.0000   1.0000
     1.0000   1.0000   1.0000   1.0000   1.0000

          k =-0.0000 0.2887-0.0000 (  3885 PWs)   bands (ev):

  -115.8827 -70.2442 -70.2434 -70.2332 -65.3764 -32.3678 -32.3566 -32.3544
   -10.1303  -9.4899   1.5562   1.9041   2.1390   2.3806   2.7108   2.9577
     4.3743   5.1472   5.3549   6.2608   6.4884

     occupation numbers 
     1.0000   1.0000   1.0000   1.0000   1.0000   1.0000   1.0000   1.0000
     1.0000   1.0000   1.0000   1.0000   1.0000   1.0000   1.0000   1.0000
     1.0000   1.0000   1.0000   1.0000   1.0000

          k =-0.0000 0.2887 0.0764 (  3883 PWs)   bands (ev):

  -115.8827 -70.2442 -70.2434 -70.2332 -65.3764 -32.3678 -32.3566 -32.3544
   -10.1133  -9.5078   1.5452   1.9041   2.0551   2.3829   2.7085   3.0178
     4.4828   5.1309   5.3649   6.2005   6.4809

     occupation numbers 
     1.0000   1.0000   1.0000   1.0000   1.0000   1.0000   1.0000   1.0000
     1.0000   1.0000   1.0000   1.0000   1.0000   1.0000   1.0000   1.0000
     1.0000   1.0000   1.0000   1.0000   1.0000

          k =-0.0000 0.2887 0.1527 (  3882 PWs)   bands (ev):

  -115.8827 -70.2442 -70.2434 -70.2332 -65.3764 -32.3678 -32.3566 -32.3544
   -10.0676  -9.5556   1.5163   1.8812   1.9017   2.3856   2.7044   3.2030
     4.5978   5.1349   5.4093   6.1096   6.4395

     occupation numbers 
     1.0000   1.0000   1.0000   1.0000   1.0000   1.0000   1.0000   1.0000
     1.0000   1.0000   1.0000   1.0000   1.0000   1.0000   1.0000   1.0000
     1.0000   1.0000   1.0000   1.0000   1.0000

          k =-0.0000 0.2887 0.2291 (  3867 PWs)   bands (ev):

  -115.8827 -70.2442 -70.2434 -70.2332 -65.3764 -32.3678 -32.3566 -32.3544
   -10.0112  -9.6141   1.4747   1.7697   1.8983   2.3737   2.7010   3.3880
     4.5442   5.3359   5.4668   5.9587   6.3838

     occupation numbers 
     1.0000   1.0000   1.0000   1.0000   1.0000   1.0000   1.0000   1.0000
     1.0000   1.0000   1.0000   1.0000   1.0000   1.0000   1.0000   1.0000
     1.0000   1.0000   1.0000   1.0000   1.0000

          k =-0.0000 0.2887-0.3054 (  3872 PWs)   bands (ev):

  -115.8827 -70.2442 -70.2434 -70.2332 -65.3764 -32.3678 -32.3566 -32.3544
    -9.9823  -9.6438   1.4470   1.7398   1.8959   2.3661   2.7002   3.5126
     4.4095   5.5029   5.5147   5.8684   6.3472

     occupation numbers 
     1.0000   1.0000   1.0000   1.0000   1.0000   1.0000   1.0000   1.0000
     1.0000   1.0000   1.0000   1.0000   1.0000   1.0000   1.0000   1.0000
     1.0000   1.0000   1.0000   1.0000   1.0000

          k =-0.0000 0.2887-0.2291 (  3867 PWs)   bands (ev):

  -115.8827 -70.2442 -70.2434 -70.2332 -65.3764 -32.3678 -32.3566 -32.3544
   -10.0114  -9.6138   1.4622   1.7711   1.8959   2.3727   2.7025   3.5118
     4.3299   5.3445   5.4904   6.0717   6.3573

     occupation numbers 
     1.0000   1.0000   1.0000   1.0000   1.0000   1.0000   1.0000   1.0000
     1.0000   1.0000   1.0000   1.0000   1.0000   1.0000   1.0000   1.0000
     1.0000   1.0000   1.0000   1.0000   1.0000

          k =-0.0000 0.2887-0.1527 (  3882 PWs)   bands (ev):

  -115.8827 -70.2442 -70.2434 -70.2332 -65.3764 -32.3678 -32.3566 -32.3544
   -10.0679  -9.5552   1.5078   1.8617   1.8983   2.3909   2.7065   3.3529
     4.3282   5.1711   5.4390   6.2422   6.4057

     occupation numbers 
     1.0000   1.0000   1.0000   1.0000   1.0000   1.0000   1.0000   1.0000
     1.0000   1.0000   1.0000   1.0000   1.0000   1.0000   1.0000   1.0000
     1.0000   1.0000   1.0000   1.0000   1.0000

          k =-0.0000 0.2887-0.0764 (  3883 PWs)   bands (ev):

  -115.8827 -70.2442 -70.2434 -70.2332 -65.3764 -32.3678 -32.3566 -32.3544
   -10.1135  -9.5075   1.5450   1.9017   2.0119   2.4027   2.7100   3.1157
     4.3383   5.1268   5.3840   6.2932   6.4589

     occupation numbers 
     1.0000   1.0000   1.0000   1.0000   1.0000   1.0000   1.0000   1.0000
     1.0000   1.0000   1.0000   1.0000   1.0000   1.0000   1.0000   1.0000
     1.0000   1.0000   1.0000   1.0000   1.0000

          k =-0.0000 0.4330-0.0000 (  3885 PWs)   bands (ev):

  -115.8826 -70.2451 -70.2436 -70.2331 -65.3756 -32.3793 -32.3570 -32.3552
    -9.8814  -9.4075   1.5216   2.0239   2.2623   2.3799   2.7772   3.1461
     3.8761   4.4950   5.0813   5.8092   6.2519

     occupation numbers 
     1.0000   1.0000   1.0000   1.0000   1.0000   1.0000   1.0000   1.0000
     1.0000   1.0000   1.0000   1.0000   1.0000   1.0000   1.0000   1.0000
     1.0000   1.0000   1.0000   1.0000   1.0000

          k =-0.0000 0.4330 0.0764 (  3879 PWs)   bands (ev):

  -115.8826 -70.2451 -70.2436 -70.2331 -65.3756 -32.3793 -32.3570 -32.3552
    -9.8713  -9.4166   1.4947   2.0225   2.2758   2.3387   2.7756   3.0132
     4.1000   4.5110   5.1002   5.7931   6.2336

     occupation numbers 
     1.0000   1.0000   1.0000   1.0000   1.0000   1.0000   1.0000   1.0000
     1.0000   1.0000   1.0000   1.0000   1.0000   1.0000   1.0000   1.0000
     1.0000   1.0000   1.0000   1.0000   1.0000

          k =-0.0000 0.4330 0.1527 (  3875 PWs)   bands (ev):

  -115.8826 -70.2451 -70.2436 -70.2331 -65.3756 -32.3793 -32.3570 -32.3553
    -9.8451  -9.4400   1.4504   2.0170   2.1084   2.3237   2.7733   3.0364
     4.2000   4.6814   5.1626   5.8316   6.1706

     occupation numbers 
     1.0000   1.0000   1.0000   1.0000   1.0000   1.0000   1.0000   1.0000
     1.0000   1.0000   1.0000   1.0000   1.0000   1.0000   1.0000   1.0000
     1.0000   1.0000   1.0000   1.0000   1.0000

          k =-0.0000 0.4330 0.2291 (  3869 PWs)   bands (ev):

  -115.8826 -70.2451 -70.2436 -70.2331 -65.3756 -32.3793 -32.3570 -32.3553
    -9.8155  -9.4668   1.4087   1.9550   2.0106   2.3069   2.7717   3.1277
     4.0945   5.0036   5.2407   5.8464   6.0913

     occupation numbers 
     1.0000   1.0000   1.0000   1.0000   1.0000   1.0000   1.0000   1.0000
     1.0000   1.0000   1.0000   1.0000   1.0000   1.0000   1.0000   1.0000
     1.0000   1.0000   1.0000   1.0000   1.0000

          k =-0.0000 0.4330-0.3054 (  3878 PWs)   bands (ev):

  -115.8826 -70.2451 -70.2436 -70.2332 -65.3756 -32.3793 -32.3570 -32.3553
    -9.8019  -9.4791   1.3927   1.8910   2.0071   2.2930   2.7716   3.2339
     3.9713   5.1376   5.2856   5.8790   6.0451

     occupation numbers 
     1.0000   1.0000   1.0000   1.0000   1.0000   1.0000   1.0000   1.0000
     1.0000   1.0000   1.0000   1.0000   1.0000   1.0000   1.0000   1.0000
     1.0000   1.0000   1.0000   1.0000   1.0000

          k =-0.0000 0.4330-0.2291 (  3869 PWs)   bands (ev):

  -115.8826 -70.2451 -70.2436 -70.2331 -65.3756 -32.3793 -32.3570 -32.3553
    -9.8159  -9.4663   1.4181   1.9160   2.0085   2.2925   2.7731   3.3242
     3.8888   4.9565   5.2587   5.9720   6.0716

     occupation numbers 
     1.0000   1.0000   1.0000   1.0000   1.0000   1.0000   1.0000   1.0000
     1.0000   1.0000   1.0000   1.0000   1.0000   1.0000   1.0000   1.0000
     1.0000   1.0000   1.0000   1.0000   1.0000

          k =-0.0000 0.4330-0.1527 (  3875 PWs)   bands (ev):

  -115.8826 -70.2451 -70.2436 -70.2331 -65.3756 -32.3793 -32.3570 -32.3553
    -9.8456  -9.4394   1.4717   2.0117   2.0139   2.3128   2.7753   3.3652
     3.8538   4.6625   5.1840   5.9874   6.1468

     occupation numbers 
     1.0000   1.0000   1.0000   1.0000   1.0000   1.0000   1.0000   1.0000
     1.0000   1.0000   1.0000   1.0000   1.0000   1.0000   1.0000   1.0000
     1.0000   1.0000   1.0000   1.0000   1.0000

          k =-0.0000 0.4330-0.0764 (  3879 PWs)   bands (ev):

  -115.8826 -70.2451 -70.2436 -70.2331 -65.3756 -32.3793 -32.3570 -32.3552
    -9.8716  -9.4162   1.5149   2.0203   2.1482   2.3512   2.7770   3.3216
     3.8124   4.4966   5.1134   5.9033   6.2186

     occupation numbers 
     1.0000   1.0000   1.0000   1.0000   1.0000   1.0000   1.0000   1.0000
     1.0000   1.0000   1.0000   1.0000   1.0000   1.0000   1.0000   1.0000
     1.0000   1.0000   1.0000   1.0000   1.0000

          k = 0.0000-0.5774 0.0000 (  3860 PWs)   bands (ev):

  -115.8826 -70.2454 -70.2437 -70.2331 -65.3753 -32.3841 -32.3581 -32.3546
    -9.7647  -9.3828   1.5420   2.0642   2.2907   2.4369   2.8311   2.8314
     4.1398   4.2999   4.9481   5.4628   6.1613

     occupation numbers 
     1.0000   1.0000   1.0000   1.0000   1.0000   1.0000   1.0000   1.0000
     1.0000   1.0000   1.0000   1.0000   1.0000   1.0000   1.0000   1.0000
     1.0000   1.0000   1.0000   1.0000   1.0000

          k = 0.0000-0.5774 0.0764 (  3874 PWs)   bands (ev):

  -115.8826 -70.2454 -70.2437 -70.2331 -65.3753 -32.3841 -32.3581 -32.3547
    -9.7593  -9.3862   1.5185   2.0611   2.2754   2.3741   2.8306   2.8364
     4.0973   4.4125   4.9755   5.5491   6.1331

     occupation numbers 
     1.0000   1.0000   1.0000   1.0000   1.0000   1.0000   1.0000   1.0000
     1.0000   1.0000   1.0000   1.0000   1.0000   1.0000   1.0000   1.0000
     1.0000   1.0000   1.0000   1.0000   1.0000

          k = 0.0000-0.5774 0.1527 (  3880 PWs)   bands (ev):

  -115.8826 -70.2454 -70.2437 -70.2331 -65.3753 -32.3841 -32.3581 -32.3547
    -9.7456  -9.3950   1.4627   2.0535   2.1447   2.3555   2.8294   2.8374
     3.9938   4.6924   5.0475   5.7214   6.0592

     occupation numbers 
     1.0000   1.0000   1.0000   1.0000   1.0000   1.0000   1.0000   1.0000
     1.0000   1.0000   1.0000   1.0000   1.0000   1.0000   1.0000   1.0000
     1.0000   1.0000   1.0000   1.0000   1.0000

          k = 0.0000-0.5774 0.2291 (  3888 PWs)   bands (ev):

  -115.8826 -70.2454 -70.2437 -70.2331 -65.3753 -32.3841 -32.3581 -32.3547
    -9.7312  -9.4046   1.4074   2.0112   2.0460   2.3723   2.8282   2.8322
     3.9092   4.9708   5.1312   5.8487   5.9736

     occupation numbers 
     1.0000   1.0000   1.0000   1.0000   1.0000   1.0000   1.0000   1.0000
     1.0000   1.0000   1.0000   1.0000   1.0000   1.0000   1.0000   1.0000
     1.0000   1.0000   1.0000   1.0000   1.0000

          k = 0.0000-0.5774-0.3054 (  3880 PWs)   bands (ev):

  -115.8826 -70.2454 -70.2437 -70.2331 -65.3753 -32.3841 -32.3581 -32.3547
    -9.7249  -9.4088   1.3846   1.9614   2.0429   2.3801   2.8278   2.8292
     3.8786   5.0903   5.1710   5.8867   5.9330

     occupation numbers 
     1.0000   1.0000   1.0000   1.0000   1.0000   1.0000   1.0000   1.0000
     1.0000   1.0000   1.0000   1.0000   1.0000   1.0000   1.0000   1.0000
     1.0000   1.0000   1.0000   1.0000   1.0000

          k = 0.1250 0.0722-0.0000 (  3899 PWs)   bands (ev):

  -115.8827 -70.2434 -70.2432 -70.2333 -65.3771 -32.3591 -32.3550 -32.3517
   -10.3529  -9.5852   1.6570   1.7698   1.9402   2.3301   2.6973   2.7344
     5.2465   5.5844   6.1210   6.5243   6.7482

     occupation numbers 
     1.0000   1.0000   1.0000   1.0000   1.0000   1.0000   1.0000   1.0000
     1.0000   1.0000   1.0000   1.0000   1.0000   1.0000   1.0000   1.0000
     1.0000   1.0000   1.0000   1.0000   1.0000

          k = 0.1250 0.0722 0.0764 (  3883 PWs)   bands (ev):

  -115.8827 -70.2434 -70.2432 -70.2333 -65.3771 -32.3591 -32.3550 -32.3517
   -10.3315  -9.6095   1.6497   1.7686   1.8279   2.4399   2.6957   2.7872
     5.2408   5.6036   6.0041   6.5442   6.7306

     occupation numbers 
     1.0000   1.0000   1.0000   1.0000   1.0000   1.0000   1.0000   1.0000
     1.0000   1.0000   1.0000   1.0000   1.0000   1.0000   1.0000   1.0000
     1.0000   1.0000   1.0000   1.0000   1.0000

          k = 0.1250 0.0722 0.1527 (  3875 PWs)   bands (ev):

  -115.8827 -70.2434 -70.2431 -70.2333 -65.3771 -32.3591 -32.3550 -32.3517
   -10.2727  -9.6752   1.6071   1.7048   1.7671   2.5258   2.6913   2.9725
     5.2237   5.6382   5.8226   6.5052   6.7020

     occupation numbers 
     1.0000   1.0000   1.0000   1.0000   1.0000   1.0000   1.0000   1.0000
     1.0000   1.0000   1.0000   1.0000   1.0000   1.0000   1.0000   1.0000
     1.0000   1.0000   1.0000   1.0000   1.0000

          k = 0.1250 0.0722 0.2291 (  3873 PWs)   bands (ev):

  -115.8827 -70.2434 -70.2431 -70.2333 -65.3771 -32.3592 -32.3550 -32.3517
   -10.1969  -9.7577   1.5266   1.6739   1.7661   2.5441   2.6867   3.1844
     5.1586   5.6684   5.7269   6.4337   6.6787

     occupation numbers 
     1.0000   1.0000   1.0000   1.0000   1.0000   1.0000   1.0000   1.0000
     1.0000   1.0000   1.0000   1.0000   1.0000   1.0000   1.0000   1.0000
     1.0000   1.0000   1.0000   1.0000   1.0000

          k = 0.1250 0.0722-0.3054 (  3868 PWs)   bands (ev):

  -115.8827 -70.2434 -70.2431 -70.2333 -65.3771 -32.3592 -32.3550 -32.3517
   -10.1555  -9.8019   1.4969   1.6655   1.7663   2.5465   2.6845   3.2706
     5.1301   5.6751   5.7087   6.3854   6.6758

     occupation numbers 
     1.0000   1.0000   1.0000   1.0000   1.0000   1.0000   1.0000   1.0000
     1.0000   1.0000   1.0000   1.0000   1.0000   1.0000   1.0000   1.0000
     1.0000   1.0000   1.0000   1.0000   1.0000

          k = 0.1250 0.0722-0.2291 (  3873 PWs)   bands (ev):

  -115.8827 -70.2434 -70.2431 -70.2333 -65.3771 -32.3592 -32.3550 -32.3517
   -10.1969  -9.7577   1.5371   1.6645   1.7674   2.5445   2.6860   3.1711
     5.2124   5.6537   5.7158   6.3973   6.6955

     occupation numbers 
     1.0000   1.0000   1.0000   1.0000   1.0000   1.0000   1.0000   1.0000
     1.0000   1.0000   1.0000   1.0000   1.0000   1.0000   1.0000   1.0000
     1.0000   1.0000   1.0000   1.0000   1.0000

          k = 0.1250 0.0722-0.1527 (  3875 PWs)   bands (ev):

  -115.8827 -70.2434 -70.2431 -70.2333 -65.3771 -32.3591 -32.3550 -32.3517
   -10.2726  -9.6752   1.6293   1.6857   1.7689   2.5244   2.6904   2.9580
     5.2819   5.6186   5.8289   6.4456   6.7247

     occupation numbers 
     1.0000   1.0000   1.0000   1.0000   1.0000   1.0000   1.0000   1.0000
     1.0000   1.0000   1.0000   1.0000   1.0000   1.0000   1.0000   1.0000
     1.0000   1.0000   1.0000   1.0000   1.0000

          k = 0.1250 0.0722-0.0764 (  3883 PWs)   bands (ev):

  -115.8827 -70.2434 -70.2432 -70.2333 -65.3771 -32.3591 -32.3550 -32.3517
   -10.3315  -9.6095   1.6552   1.7699   1.8274   2.4330   2.6951   2.7815
     5.2690   5.5905   6.0337   6.4876   6.7459

     occupation numbers 
     1.0000   1.0000   1.0000   1.0000   1.0000   1.0000   1.0000   1.0000
     1.0000   1.0000   1.0000   1.0000   1.0000   1.0000   1.0000   1.0000
     1.0000   1.0000   1.0000   1.0000   1.0000

          k = 0.1250 0.2165-0.0000 (  3881 PWs)   bands (ev):

  -115.8827 -70.2440 -70.2433 -70.2333 -65.3766 -32.3640 -32.3568 -32.3541
   -10.1979  -9.5170   1.6188   1.8108   2.1041   2.3767   2.6857   2.8912
     4.7034   5.1550   5.6026   6.3195   6.5190

     occupation numbers 
     1.0000   1.0000   1.0000   1.0000   1.0000   1.0000   1.0000   1.0000
     1.0000   1.0000   1.0000   1.0000   1.0000   1.0000   1.0000   1.0000
     1.0000   1.0000   1.0000   1.0000   1.0000

          k = 0.1250 0.2165 0.0764 (  3880 PWs)   bands (ev):

  -115.8827 -70.2440 -70.2433 -70.2332 -65.3766 -32.3640 -32.3569 -32.3541
   -10.1795  -9.5368   1.6107   1.7973   2.0014   2.4142   2.6858   2.9934
     4.7152   5.1852   5.5713   6.3039   6.5004

     occupation numbers 
     1.0000   1.0000   1.0000   1.0000   1.0000   1.0000   1.0000   1.0000
     1.0000   1.0000   1.0000   1.0000   1.0000   1.0000   1.0000   1.0000
     1.0000   1.0000   1.0000   1.0000   1.0000

          k = 0.1250 0.2165 0.1527 (  3877 PWs)   bands (ev):

  -115.8827 -70.2440 -70.2433 -70.2332 -65.3766 -32.3640 -32.3569 -32.3541
   -10.1295  -9.5903   1.5799   1.7436   1.8941   2.4298   2.6832   3.2133
     4.7140   5.2893   5.5290   6.2359   6.4468

     occupation numbers 
     1.0000   1.0000   1.0000   1.0000   1.0000   1.0000   1.0000   1.0000
     1.0000   1.0000   1.0000   1.0000   1.0000   1.0000   1.0000   1.0000
     1.0000   1.0000   1.0000   1.0000   1.0000

          k = 0.1250 0.2165 0.2291 (  3883 PWs)   bands (ev):

  -115.8827 -70.2440 -70.2433 -70.2333 -65.3766 -32.3640 -32.3569 -32.3541
   -10.0668  -9.6565   1.5254   1.6920   1.8618   2.4236   2.6795   3.4098
     4.6672   5.4335   5.5696   6.0910   6.3839

     occupation numbers 
     1.0000   1.0000   1.0000   1.0000   1.0000   1.0000   1.0000   1.0000
     1.0000   1.0000   1.0000   1.0000   1.0000   1.0000   1.0000   1.0000
     1.0000   1.0000   1.0000   1.0000   1.0000

          k = 0.1250 0.2165-0.3054 (  3876 PWs)   bands (ev):

  -115.8827 -70.2440 -70.2434 -70.2332 -65.3766 -32.3640 -32.3569 -32.3541
   -10.0339  -9.6909   1.4971   1.6780   1.8550   2.4193   2.6779   3.4886
     4.6349   5.4699   5.6991   5.9522   6.3565

     occupation numbers 
     1.0000   1.0000   1.0000   1.0000   1.0000   1.0000   1.0000   1.0000
     1.0000   1.0000   1.0000   1.0000   1.0000   1.0000   1.0000   1.0000
     1.0000   1.0000   1.0000   1.0000   1.0000

          k = 0.1250 0.2165-0.2291 (  3883 PWs)   bands (ev):

  -115.8827 -70.2440 -70.2433 -70.2333 -65.3766 -32.3640 -32.3569 -32.3541
   -10.0668  -9.6565   1.5254   1.6920   1.8618   2.4236   2.6795   3.4098
     4.6672   5.4335   5.5696   6.0910   6.3839

     occupation numbers 
     1.0000   1.0000   1.0000   1.0000   1.0000   1.0000   1.0000   1.0000
     1.0000   1.0000   1.0000   1.0000   1.0000   1.0000   1.0000   1.0000
     1.0000   1.0000   1.0000   1.0000   1.0000

          k = 0.1250 0.2165-0.1527 (  3877 PWs)   bands (ev):

  -115.8827 -70.2440 -70.2433 -70.2332 -65.3766 -32.3640 -32.3569 -32.3541
   -10.1295  -9.5903   1.5799   1.7436   1.8941   2.4298   2.6832   3.2133
     4.7140   5.2893   5.5290   6.2359   6.4468

     occupation numbers 
     1.0000   1.0000   1.0000   1.0000   1.0000   1.0000   1.0000   1.0000
     1.0000   1.0000   1.0000   1.0000   1.0000   1.0000   1.0000   1.0000
     1.0000   1.0000   1.0000   1.0000   1.0000

          k = 0.1250 0.2165-0.0764 (  3880 PWs)   bands (ev):

  -115.8827 -70.2440 -70.2433 -70.2332 -65.3766 -32.3640 -32.3569 -32.3541
   -10.1795  -9.5368   1.6107   1.7973   2.0014   2.4142   2.6858   2.9934
     4.7152   5.1852   5.5713   6.3039   6.5004

     occupation numbers 
     1.0000   1.0000   1.0000   1.0000   1.0000   1.0000   1.0000   1.0000
     1.0000   1.0000   1.0000   1.0000   1.0000   1.0000   1.0000   1.0000
     1.0000   1.0000   1.0000   1.0000   1.0000

          k = 0.1250 0.3608-0.0000 (  3867 PWs)   bands (ev):

  -115.8827 -70.2447 -70.2436 -70.2332 -65.3758 -32.3743 -32.3579 -32.3556
    -9.9597  -9.4289   1.6021   1.9113   2.2349   2.3949   2.7024   3.2906
     4.0139   4.5325   5.1461   5.9405   6.1944

     occupation numbers 
     1.0000   1.0000   1.0000   1.0000   1.0000   1.0000   1.0000   1.0000
     1.0000   1.0000   1.0000   1.0000   1.0000   1.0000   1.0000   1.0000
     1.0000   1.0000   1.0000   1.0000   1.0000

          k = 0.1250 0.3608 0.0764 (  3862 PWs)   bands (ev):

  -115.8827 -70.2447 -70.2436 -70.2332 -65.3758 -32.3743 -32.3579 -32.3556
    -9.9471  -9.4410   1.5825   1.9081   2.1919   2.3679   2.7047   3.2562
     4.1814   4.5579   5.1387   5.9078   6.1917

     occupation numbers 
     1.0000   1.0000   1.0000   1.0000   1.0000   1.0000   1.0000   1.0000
     1.0000   1.0000   1.0000   1.0000   1.0000   1.0000   1.0000   1.0000
     1.0000   1.0000   1.0000   1.0000   1.0000

          k = 0.1250 0.3608 0.1527 (  3870 PWs)   bands (ev):

  -115.8827 -70.2447 -70.2437 -70.2332 -65.3758 -32.3743 -32.3579 -32.3556
    -9.9139  -9.4729   1.5450   1.8795   2.0557   2.3448   2.7106   3.3250
     4.2559   4.7649   5.1532   5.8669   6.1561

     occupation numbers 
     1.0000   1.0000   1.0000   1.0000   1.0000   1.0000   1.0000   1.0000
     1.0000   1.0000   1.0000   1.0000   1.0000   1.0000   1.0000   1.0000
     1.0000   1.0000   1.0000   1.0000   1.0000

          k = 0.1250 0.3608 0.2291 (  3884 PWs)   bands (ev):

  -115.8827 -70.2447 -70.2437 -70.2332 -65.3758 -32.3743 -32.3579 -32.3557
    -9.8750  -9.5106   1.5024   1.8254   1.9766   2.3241   2.7134   3.4324
     4.1750   5.0365   5.2683   5.7985   6.0754

     occupation numbers 
     1.0000   1.0000   1.0000   1.0000   1.0000   1.0000   1.0000   1.0000
     1.0000   1.0000   1.0000   1.0000   1.0000   1.0000   1.0000   1.0000
     1.0000   1.0000   1.0000   1.0000   1.0000

          k = 0.1250 0.3608-0.3054 (  3878 PWs)   bands (ev):

  -115.8827 -70.2447 -70.2436 -70.2332 -65.3758 -32.3743 -32.3579 -32.3557
    -9.8563  -9.5287   1.4819   1.7949   1.9577   2.3146   2.7145   3.5383
     4.0536   5.1404   5.3604   5.8240   5.9808

     occupation numbers 
     1.0000   1.0000   1.0000   1.0000   1.0000   1.0000   1.0000   1.0000
     1.0000   1.0000   1.0000   1.0000   1.0000   1.0000   1.0000   1.0000
     1.0000   1.0000   1.0000   1.0000   1.0000

          k = 0.1250 0.3608-0.2291 (  3884 PWs)   bands (ev):

  -115.8827 -70.2447 -70.2437 -70.2332 -65.3758 -32.3743 -32.3579 -32.3557
    -9.8752  -9.5103   1.5059   1.8097   1.9737   2.3232   2.7148   3.5957
     3.9648   5.0812   5.2210   5.9188   6.0312

     occupation numbers 
     1.0000   1.0000   1.0000   1.0000   1.0000   1.0000   1.0000   1.0000
     1.0000   1.0000   1.0000   1.0000   1.0000   1.0000   1.0000   1.0000
     1.0000   1.0000   1.0000   1.0000   1.0000

          k = 0.1250 0.3608-0.1527 (  3870 PWs)   bands (ev):

  -115.8827 -70.2447 -70.2437 -70.2332 -65.3758 -32.3743 -32.3579 -32.3556
    -9.9142  -9.4726   1.5578   1.8525   2.0334   2.3503   2.7137   3.5517
     3.9445   4.8219   5.1464   5.9811   6.1203

     occupation numbers 
     1.0000   1.0000   1.0000   1.0000   1.0000   1.0000   1.0000   1.0000
     1.0000   1.0000   1.0000   1.0000   1.0000   1.0000   1.0000   1.0000
     1.0000   1.0000   1.0000   1.0000   1.0000

          k = 0.1250 0.3608-0.0764 (  3862 PWs)   bands (ev):

  -115.8827 -70.2447 -70.2436 -70.2332 -65.3758 -32.3743 -32.3579 -32.3556
    -9.9473  -9.4408   1.5957   1.8925   2.1436   2.3851   2.7090   3.4275
     3.9476   4.6098   5.1348   5.9895   6.1641

     occupation numbers 
     1.0000   1.0000   1.0000   1.0000   1.0000   1.0000   1.0000   1.0000
     1.0000   1.0000   1.0000   1.0000   1.0000   1.0000   1.0000   1.0000
     1.0000   1.0000   1.0000   1.0000   1.0000

          k = 0.1250 0.5052-0.0000 (  3866 PWs)   bands (ev):

  -115.8826 -70.2452 -70.2439 -70.2331 -65.3753 -32.3816 -32.3606 -32.3546
    -9.7690  -9.3810   1.6314   2.0387   2.3107   2.4202   2.7354   3.0750
     4.0536   4.3329   4.7631   5.5168   5.9511

     occupation numbers 
     1.0000   1.0000   1.0000   1.0000   1.0000   1.0000   1.0000   1.0000
     1.0000   1.0000   1.0000   1.0000   1.0000   1.0000   1.0000   1.0000
     1.0000   1.0000   1.0000   1.0000   1.0000

          k = 0.1250 0.5052 0.0764 (  3872 PWs)   bands (ev):

  -115.8826 -70.2452 -70.2439 -70.2331 -65.3753 -32.3816 -32.3606 -32.3546
    -9.7631  -9.3849   1.6014   2.0354   2.3066   2.4049   2.7162   3.0050
     4.0747   4.4711   4.7822   5.5423   5.9342

     occupation numbers 
     1.0000   1.0000   1.0000   1.0000   1.0000   1.0000   1.0000   1.0000
     1.0000   1.0000   1.0000   1.0000   1.0000   1.0000   1.0000   1.0000
     1.0000   1.0000   1.0000   1.0000   1.0000

          k = 0.1250 0.5052 0.1527 (  3872 PWs)   bands (ev):

[...]
    -9.7489  -9.3945   1.5720   2.0165   2.1104   2.3446   2.7766   3.1169
     3.9106   4.6225   4.9336   5.7406   5.8603

     occupation numbers 
     1.0000   1.0000   1.0000   1.0000   1.0000   1.0000   1.0000   1.0000
     1.0000   1.0000   1.0000   1.0000   1.0000   1.0000   1.0000   1.0000
     1.0000   1.0000   1.0000   1.0000   1.0000

          k =-0.5000-0.1443-0.0764 (  3872 PWs)   bands (ev):

  -115.8826 -70.2452 -70.2439 -70.2331 -65.3753 -32.3816 -32.3606 -32.3546
    -9.7633  -9.3847   1.6206   2.0332   2.2331   2.3753   2.7617   3.1222
     3.9855   4.4127   4.8064   5.6185   5.9130

     occupation numbers 
     1.0000   1.0000   1.0000   1.0000   1.0000   1.0000   1.0000   1.0000
     1.0000   1.0000   1.0000   1.0000   1.0000   1.0000   1.0000   1.0000
     1.0000   1.0000   1.0000   1.0000   1.0000

          k =-0.5000 0.0000 0.0000 (  3849 PWs)   bands (ev):

  -115.8826 -70.2450 -70.2441 -70.2331 -65.3753 -32.3784 -32.3639 -32.3546
    -9.7732  -9.3793   1.7547   1.9948   2.2631   2.4209   2.7489   3.4547
     3.7101   4.3097   4.7344   5.5035   5.7654

     occupation numbers 
     1.0000   1.0000   1.0000   1.0000   1.0000   1.0000   1.0000   1.0000
     1.0000   1.0000   1.0000   1.0000   1.0000   1.0000   1.0000   1.0000
     1.0000   1.0000   1.0000   1.0000   1.0000

          k =-0.5000 0.0000 0.0764 (  3856 PWs)   bands (ev):

  -115.8826 -70.2450 -70.2441 -70.2331 -65.3753 -32.3784 -32.3639 -32.3546
    -9.7671  -9.3835   1.7388   1.9848   2.2313   2.3792   2.7600   3.4021
     3.7225   4.4770   4.7185   5.5120   5.7772

     occupation numbers 
     1.0000   1.0000   1.0000   1.0000   1.0000   1.0000   1.0000   1.0000
     1.0000   1.0000   1.0000   1.0000   1.0000   1.0000   1.0000   1.0000
     1.0000   1.0000   1.0000   1.0000   1.0000

          k =-0.5000 0.0000 0.1527 (  3864 PWs)   bands (ev):

  -115.8826 -70.2450 -70.2441 -70.2331 -65.3753 -32.3784 -32.3639 -32.3546
    -9.7518  -9.3942   1.6981   1.9575   2.1365   2.3157   2.7819   3.3506
     3.7548   4.5951   4.9165   5.4560   5.8483

     occupation numbers 
     1.0000   1.0000   1.0000   1.0000   1.0000   1.0000   1.0000   1.0000
     1.0000   1.0000   1.0000   1.0000   1.0000   1.0000   1.0000   1.0000
     1.0000   1.0000   1.0000   1.0000   1.0000

          k =-0.5000 0.0000 0.2291 (  3858 PWs)   bands (ev):

  -115.8826 -70.2450 -70.2441 -70.2331 -65.3753 -32.3784 -32.3639 -32.3547
    -9.7354  -9.4061   1.6530   1.9219   2.0424   2.2836   2.7982   3.3450
     3.7769   4.6163   5.1330   5.4480   5.9049

     occupation numbers 
     1.0000   1.0000   1.0000   1.0000   1.0000   1.0000   1.0000   1.0000
     1.0000   1.0000   1.0000   1.0000   1.0000   1.0000   1.0000   1.0000
     1.0000   1.0000   1.0000   1.0000   1.0000

          k =-0.5000 0.0000-0.3054 (  3870 PWs)   bands (ev):

  -115.8826 -70.2450 -70.2441 -70.2331 -65.3753 -32.3784 -32.3639 -32.3547
    -9.7283  -9.4114   1.6327   1.9026   2.0105   2.2744   2.8036   3.3496
     3.7814   4.6448   5.1196   5.5470   5.9045

     occupation numbers 
     1.0000   1.0000   1.0000   1.0000   1.0000   1.0000   1.0000   1.0000
     1.0000   1.0000   1.0000   1.0000   1.0000   1.0000   1.0000   1.0000
     1.0000   1.0000   1.0000   1.0000   1.0000

          k =-0.5000 0.0000-0.2291 (  3858 PWs)   bands (ev):

  -115.8826 -70.2450 -70.2441 -70.2331 -65.3753 -32.3784 -32.3639 -32.3547
    -9.7354  -9.4061   1.6530   1.9219   2.0424   2.2836   2.7982   3.3450
     3.7769   4.6163   5.1330   5.4480   5.9049

     occupation numbers 
     1.0000   1.0000   1.0000   1.0000   1.0000   1.0000   1.0000   1.0000
     1.0000   1.0000   1.0000   1.0000   1.0000   1.0000   1.0000   1.0000
     1.0000   1.0000   1.0000   1.0000   1.0000

          k =-0.5000 0.0000-0.1527 (  3864 PWs)   bands (ev):

  -115.8826 -70.2450 -70.2441 -70.2331 -65.3753 -32.3784 -32.3639 -32.3546
    -9.7518  -9.3942   1.6981   1.9575   2.1365   2.3157   2.7819   3.3506
     3.7548   4.5951   4.9165   5.4560   5.8483

     occupation numbers 
     1.0000   1.0000   1.0000   1.0000   1.0000   1.0000   1.0000   1.0000
     1.0000   1.0000   1.0000   1.0000   1.0000   1.0000   1.0000   1.0000
     1.0000   1.0000   1.0000   1.0000   1.0000

          k =-0.5000 0.0000-0.0764 (  3856 PWs)   bands (ev):

  -115.8826 -70.2450 -70.2441 -70.2331 -65.3753 -32.3784 -32.3639 -32.3546
    -9.7671  -9.3835   1.7388   1.9848   2.2313   2.3792   2.7600   3.4021
     3.7225   4.4770   4.7185   5.5120   5.7772

     occupation numbers 
     1.0000   1.0000   1.0000   1.0000   1.0000   1.0000   1.0000   1.0000
     1.0000   1.0000   1.0000   1.0000   1.0000   1.0000   1.0000   1.0000
     1.0000   1.0000   1.0000   1.0000   1.0000

          k =-0.5000 0.1443 0.0000 (  3866 PWs)   bands (ev):

  -115.8826 -70.2452 -70.2439 -70.2331 -65.3753 -32.3816 -32.3606 -32.3546
    -9.7690  -9.3810   1.6314   2.0387   2.3107   2.4202   2.7354   3.0750
     4.0536   4.3329   4.7631   5.5168   5.9511

     occupation numbers 
     1.0000   1.0000   1.0000   1.0000   1.0000   1.0000   1.0000   1.0000
     1.0000   1.0000   1.0000   1.0000   1.0000   1.0000   1.0000   1.0000
     1.0000   1.0000   1.0000   1.0000   1.0000

          k =-0.5000 0.1443 0.0764 (  3872 PWs)   bands (ev):

  -115.8826 -70.2452 -70.2439 -70.2331 -65.3753 -32.3816 -32.3606 -32.3546
    -9.7633  -9.3847   1.6206   2.0332   2.2331   2.3753   2.7617   3.1222
     3.9855   4.4127   4.8064   5.6185   5.9130

     occupation numbers 
     1.0000   1.0000   1.0000   1.0000   1.0000   1.0000   1.0000   1.0000
     1.0000   1.0000   1.0000   1.0000   1.0000   1.0000   1.0000   1.0000
     1.0000   1.0000   1.0000   1.0000   1.0000

          k =-0.5000 0.1443 0.1527 (  3872 PWs)   bands (ev):

  -115.8826 -70.2452 -70.2439 -70.2331 -65.3753 -32.3816 -32.3606 -32.3547
    -9.7489  -9.3945   1.5720   2.0165   2.1104   2.3446   2.7766   3.1169
     3.9106   4.6225   4.9336   5.7406   5.8603

     occupation numbers 
     1.0000   1.0000   1.0000   1.0000   1.0000   1.0000   1.0000   1.0000
     1.0000   1.0000   1.0000   1.0000   1.0000   1.0000   1.0000   1.0000
     1.0000   1.0000   1.0000   1.0000   1.0000

          k =-0.5000 0.1443 0.2291 (  3877 PWs)   bands (ev):

  -115.8826 -70.2452 -70.2439 -70.2331 -65.3753 -32.3816 -32.3606 -32.3547
    -9.7334  -9.4052   1.5156   1.9730   2.0363   2.3373   2.7855   3.0893
     3.8674   4.8127   5.0736   5.7369   5.8980

     occupation numbers 
     1.0000   1.0000   1.0000   1.0000   1.0000   1.0000   1.0000   1.0000
     1.0000   1.0000   1.0000   1.0000   1.0000   1.0000   1.0000   1.0000
     1.0000   1.0000   1.0000   1.0000   1.0000

          k =-0.5000 0.1443-0.3054 (  3872 PWs)   bands (ev):

  -115.8826 -70.2452 -70.2439 -70.2331 -65.3753 -32.3816 -32.3606 -32.3547
    -9.7266  -9.4101   1.4879   1.9498   2.0230   2.3438   2.7862   3.0482
     3.8797   4.9111   5.1039   5.7397   5.8987

     occupation numbers 
     1.0000   1.0000   1.0000   1.0000   1.0000   1.0000   1.0000   1.0000
     1.0000   1.0000   1.0000   1.0000   1.0000   1.0000   1.0000   1.0000
     1.0000   1.0000   1.0000   1.0000   1.0000

          k =-0.5000 0.1443-0.2291 (  3877 PWs)   bands (ev):

  -115.8826 -70.2452 -70.2439 -70.2331 -65.3753 -32.3816 -32.3606 -32.3547
    -9.7332  -9.4054   1.5035   1.9997   2.0408   2.3574   2.7731   3.0054
     3.9418   4.8207   5.0959   5.6756   5.9021

     occupation numbers 
     1.0000   1.0000   1.0000   1.0000   1.0000   1.0000   1.0000   1.0000
     1.0000   1.0000   1.0000   1.0000   1.0000   1.0000   1.0000   1.0000
     1.0000   1.0000   1.0000   1.0000   1.0000

          k =-0.5000 0.1443-0.1527 (  3872 PWs)   bands (ev):

  -115.8826 -70.2452 -70.2439 -70.2331 -65.3753 -32.3816 -32.3606 -32.3547
    -9.7486  -9.3948   1.5499   2.0252   2.1716   2.3746   2.7424   2.9836
     4.0240   4.6660   4.9309   5.6232   5.9009

     occupation numbers 
     1.0000   1.0000   1.0000   1.0000   1.0000   1.0000   1.0000   1.0000
     1.0000   1.0000   1.0000   1.0000   1.0000   1.0000   1.0000   1.0000
     1.0000   1.0000   1.0000   1.0000   1.0000

          k =-0.5000 0.1443-0.0764 (  3872 PWs)   bands (ev):

  -115.8826 -70.2452 -70.2439 -70.2331 -65.3753 -32.3816 -32.3606 -32.3546
    -9.7631  -9.3849   1.6014   2.0354   2.3066   2.4049   2.7162   3.0050
     4.0747   4.4711   4.7822   5.5423   5.9342

     occupation numbers 
     1.0000   1.0000   1.0000   1.0000   1.0000   1.0000   1.0000   1.0000
     1.0000   1.0000   1.0000   1.0000   1.0000   1.0000   1.0000   1.0000
     1.0000   1.0000   1.0000   1.0000   1.0000

          k =-0.5000-0.8660 0.0000 (  3860 PWs)   bands (ev):

  -115.8826 -70.2454 -70.2437 -70.2331 -65.3753 -32.3841 -32.3581 -32.3546
    -9.7647  -9.3828   1.5420   2.0642   2.2907   2.4369   2.8311   2.8314
     4.1398   4.2999   4.9481   5.4628   6.1613

     occupation numbers 
     1.0000   1.0000   1.0000   1.0000   1.0000   1.0000   1.0000   1.0000
     1.0000   1.0000   1.0000   1.0000   1.0000   1.0000   1.0000   1.0000
     1.0000   1.0000   1.0000   1.0000   1.0000

          k =-0.5000-0.8660 0.0764 (  3874 PWs)   bands (ev):

  -115.8826 -70.2454 -70.2437 -70.2331 -65.3753 -32.3841 -32.3581 -32.3547
    -9.7593  -9.3862   1.5185   2.0611   2.2754   2.3741   2.8306   2.8364
     4.0973   4.4125   4.9755   5.5491   6.1331

     occupation numbers 
     1.0000   1.0000   1.0000   1.0000   1.0000   1.0000   1.0000   1.0000
     1.0000   1.0000   1.0000   1.0000   1.0000   1.0000   1.0000   1.0000
     1.0000   1.0000   1.0000   1.0000   1.0000

          k =-0.5000-0.8660 0.1527 (  3880 PWs)   bands (ev):

  -115.8826 -70.2454 -70.2437 -70.2331 -65.3753 -32.3841 -32.3581 -32.3547
    -9.7456  -9.3950   1.4627   2.0535   2.1447   2.3555   2.8294   2.8374
     3.9938   4.6924   5.0475   5.7214   6.0592

     occupation numbers 
     1.0000   1.0000   1.0000   1.0000   1.0000   1.0000   1.0000   1.0000
     1.0000   1.0000   1.0000   1.0000   1.0000   1.0000   1.0000   1.0000
     1.0000   1.0000   1.0000   1.0000   1.0000

          k =-0.5000-0.8660 0.2291 (  3888 PWs)   bands (ev):

  -115.8826 -70.2454 -70.2437 -70.2331 -65.3753 -32.3841 -32.3581 -32.3547
    -9.7312  -9.4046   1.4074   2.0112   2.0460   2.3723   2.8282   2.8322
     3.9092   4.9708   5.1312   5.8487   5.9736

     occupation numbers 
     1.0000   1.0000   1.0000   1.0000   1.0000   1.0000   1.0000   1.0000
     1.0000   1.0000   1.0000   1.0000   1.0000   1.0000   1.0000   1.0000
     1.0000   1.0000   1.0000   1.0000   1.0000

          k =-0.5000-0.8660-0.3054 (  3880 PWs)   bands (ev):

  -115.8826 -70.2454 -70.2437 -70.2331 -65.3753 -32.3841 -32.3581 -32.3547
    -9.7249  -9.4088   1.3846   1.9614   2.0429   2.3801   2.8278   2.8292
     3.8786   5.0903   5.1710   5.8867   5.9330

     occupation numbers 
     1.0000   1.0000   1.0000   1.0000   1.0000   1.0000   1.0000   1.0000
     1.0000   1.0000   1.0000   1.0000   1.0000   1.0000   1.0000   1.0000
     1.0000   1.0000   1.0000   1.0000   1.0000

     highest occupied level (ev):     6.8621

!    total energy              =    -651.12853764 Ry
     Harris-Foulkes estimate   =    -651.12853765 Ry
     estimated scf accuracy    <       0.00000012 Ry

     The total energy is the sum of the following terms:

     one-electron contribution =    -540.91555039 Ry
     hartree contribution      =     283.65317777 Ry
     xc contribution           =     -73.06446870 Ry
     ewald contribution        =    -320.80169632 Ry

     convergence has been achieved in   8 iterations

     Forces acting on atoms (cartesian axes, Ry/au):

     atom    1 type  3   force =    -0.00000027    0.00000060   -0.02307666
     atom    2 type  3   force =    -0.00000060    0.00000026   -0.00614438
     atom    3 type  2   force =     0.00000103    0.00000027    0.00834384
     atom    4 type  1   force =    -0.00000016   -0.00000113    0.02087721
     The non-local contrib.  to forces
     atom    1 type  3   force =    -0.00000024   -0.00000106    0.13626657
     atom    2 type  3   force =     0.00000090    0.00000082   -0.15424546
     atom    3 type  2   force =     0.00000238   -0.00000311    0.09980007
     atom    4 type  1   force =     0.00000027   -0.00000095   -0.00670759
     The ionic contribution  to forces
     atom    1 type  3   force =    -0.00000269    0.00002554   -8.32576392
     atom    2 type  3   force =    -0.00001661    0.00000267    8.06930332
     atom    3 type  2   force =     0.00001652   -0.00001828    0.72071137
     atom    4 type  1   force =     0.00000278   -0.00000993   -0.46425077
     The local contribution  to forces
     atom    1 type  3   force =     0.00000285   -0.00002413    8.16802577
     atom    2 type  3   force =     0.00001503   -0.00000332   -7.92296512
     atom    3 type  2   force =    -0.00001877    0.00002123   -0.81313505
     atom    4 type  1   force =    -0.00000297    0.00001044    0.49222642
     The core correction contribution to forces
     atom    1 type  3   force =     0.00000001   -0.00000000   -0.00143117
     atom    2 type  3   force =    -0.00000001   -0.00000001    0.00174686
     atom    3 type  2   force =     0.00000000    0.00000000    0.00000000
     atom    4 type  1   force =     0.00000000    0.00000000    0.00000000
     The Hubbard contrib.    to forces
     atom    1 type  3   force =     0.00000000    0.00000000    0.00000000
     atom    2 type  3   force =     0.00000000    0.00000000    0.00000000
     atom    3 type  2   force =     0.00000000    0.00000000    0.00000000
     atom    4 type  1   force =     0.00000000    0.00000000    0.00000000
     The SCF correction term to forces
     atom    1 type  3   force =     0.00000000    0.00000000    0.00000000
     atom    2 type  3   force =     0.00000000    0.00000000    0.00000000
     atom    3 type  2   force =     0.00000000    0.00000000    0.00000000
     atom    4 type  1   force =     0.00000000    0.00000000    0.00000000

     Total force =     0.000000     Total SCF correction =     0.000000


     Computing stress (Cartesian axis) and pressure

          total   stress  (Ry/bohr**3)                   (kbar)     P=   -3.48
  -0.00002420   0.00000000  -0.00000001         -3.56      0.00     -0.00
   0.00000000  -0.00002420  -0.00000000          0.00     -3.56     -0.00
  -0.00000001  -0.00000000  -0.00002257         -0.00     -0.00     -3.32

     kinetic stress (kbar)  26360.44     -0.00      0.00
                               -0.00  26360.44      0.00
                                0.00      0.00  26293.21

     local   stress (kbar) -18458.46      0.01      0.02
                                0.01 -18458.47     -0.05
                                0.02     -0.05   1629.29

     nonloc. stress (kbar)   1749.93     -0.00      0.00
                               -0.00   1749.93      0.00
                                0.00      0.00   1778.37

     hartree stress (kbar)  46803.34     -0.00     -0.01
                               -0.00  46803.34      0.02
                               -0.01      0.02  36572.59

     exc-cor stress (kbar) -10408.13     -0.00      0.00
                               -0.00 -10408.13      0.00
                                0.00      0.00 -10405.78

     corecor stress (kbar)   -248.10      0.00      0.00
                                0.00   -248.10     -0.00
                                0.00     -0.00   -248.00

     ewald   stress (kbar) -45802.57     -0.00     -0.02
                               -0.00 -45802.56      0.03
                               -0.02      0.03 -55623.01

     hubbard stress (kbar)      0.00      0.00      0.00
                                0.00      0.00      0.00
                                0.00      0.00      0.00

     london  stress (kbar)      0.00      0.00      0.00
                                0.00      0.00      0.00
                                0.00      0.00      0.00

     DFT-D3  stress (kbar)      0.00      0.00      0.00
                                0.00      0.00      0.00
                                0.00      0.00      0.00

     XDM     stress (kbar)      0.00      0.00      0.00
                                0.00      0.00      0.00
                                0.00      0.00      0.00

     dft-nl  stress (kbar)      0.00      0.00      0.00
                                0.00      0.00      0.00
                                0.00      0.00      0.00

     TS-vdW  stress (kbar)      0.00      0.00      0.00
                                0.00      0.00      0.00
                                0.00      0.00      0.00



     Writing output data file ZnO.save/
 
     init_run     :      0.52s CPU      1.08s WALL (       1 calls)
     electrons    :      6.92s CPU      7.37s WALL (       1 calls)
     forces       :      0.16s CPU      0.17s WALL (       1 calls)
     stress       :      0.29s CPU      0.30s WALL (       1 calls)

     Called by init_run:
     wfcinit      :      0.33s CPU      0.64s WALL (       1 calls)
     wfcinit:atom :      0.00s CPU      0.00s WALL (      65 calls)
     wfcinit:wfcr :      0.31s CPU      0.62s WALL (      65 calls)
     potinit      :      0.07s CPU      0.09s WALL (       1 calls)
     hinit0       :      0.10s CPU      0.30s WALL (       1 calls)

     Called by electrons:
     c_bands      :      5.80s CPU      6.19s WALL (       8 calls)
     sum_band     :      0.83s CPU      0.86s WALL (       8 calls)
     v_of_rho     :      0.23s CPU      0.25s WALL (       9 calls)
     v_h          :      0.00s CPU      0.00s WALL (       9 calls)
     v_xc         :      0.27s CPU      0.29s WALL (      11 calls)
     newd         :      0.06s CPU      0.08s WALL (       9 calls)
     mix_rho      :      0.01s CPU      0.02s WALL (       8 calls)

     Called by c_bands:
     init_us_2    :      0.10s CPU      0.11s WALL (    1235 calls)
     cegterg      :      5.42s CPU      5.66s WALL (     520 calls)

     Called by sum_band:
     sum_band:bec :      0.01s CPU      0.01s WALL (     520 calls)
     addusdens    :      0.06s CPU      0.06s WALL (       8 calls)

     Called by *egterg:
     h_psi        :      3.22s CPU      3.33s WALL (    1852 calls)
     s_psi        :      0.11s CPU      0.12s WALL (    1852 calls)
     g_psi        :      0.01s CPU      0.01s WALL (    1267 calls)
     cdiaghg      :      1.52s CPU      1.86s WALL (    1787 calls)
     cegterg:over :      0.40s CPU      0.46s WALL (    1267 calls)
     cegterg:upda :      0.20s CPU      0.20s WALL (    1267 calls)
     cegterg:last :      0.11s CPU      0.11s WALL (     520 calls)
     cdiaghg:chol :      0.10s CPU      0.17s WALL (    1787 calls)
     cdiaghg:inve :      0.03s CPU      0.03s WALL (    1787 calls)
     cdiaghg:para :      0.14s CPU      0.16s WALL (    3574 calls)

     Called by h_psi:
     h_psi:pot    :      3.21s CPU      3.32s WALL (    1852 calls)
     h_psi:calbec :      0.21s CPU      0.23s WALL (    1852 calls)
     vloc_psi     :      2.88s CPU      2.97s WALL (    1852 calls)
     add_vuspsi   :      0.12s CPU      0.13s WALL (    1852 calls)

     General routines
     calbec       :      0.33s CPU      0.34s WALL (    2697 calls)
     fft          :      0.04s CPU      0.10s WALL (     140 calls)
     ffts         :      0.00s CPU      0.00s WALL (      17 calls)
     fftw         :      3.29s CPU      3.39s WALL (   69554 calls)
     interpolate  :      0.00s CPU      0.01s WALL (       9 calls)
 
     Parallel routines
     fft_scatt_xy :      0.46s CPU      0.48s WALL (   69711 calls)
     fft_scatt_yz :      1.72s CPU      1.79s WALL (   69711 calls)
 
     PWSCF        :      8.73s CPU     10.42s WALL

 
   This run was terminated on:  23:24: 7  15Jun2022            

=------------------------------------------------------------------------------=
   JOB DONE.
=------------------------------------------------------------------------------=
