
     Program PWSCF v.6.4.1 starts on 16Jun2022 at 14:34:30 

     This program is part of the open-source Quantum ESPRESSO suite
     for quantum simulation of materials; please cite
         "P. Giannozzi et al., J. Phys.:Condens. Matter 21 395502 (2009);
         "P. Giannozzi et al., J. Phys.:Condens. Matter 29 465901 (2017);
          URL http://www.quantum-espresso.org", 
     in publications or presentations arising from this work. More details at
     http://www.quantum-espresso.org/quote

     Parallel version (MPI), running on    64 processors

     MPI processes distributed on     1 nodes
     K-points division:     npool     =       4
     R & G space division:  proc/nbgrp/npool/nimage =      16
     Waiting for input...
     Reading input from standard input

     Current dimensions of program PWSCF are:
     Max number of different atomic species (ntypx) = 10
     Max number of k-points (npk) =  40000
     Max angular momentum in pseudopotentials (lmaxx) =  3

     Subspace diagonalization in iterative solution of the eigenvalue problem:
     one sub-group per band group will be used
     scalapack distributed-memory algorithm (size of sub-group:  2*  2 procs)

 
     Parallelization info
     --------------------
     sticks:   dense  smooth     PW     G-vecs:    dense   smooth      PW
     Min          94      50     15                 4952     1924     335
     Max          95      51     16                 4957     1929     342
     Sum        1507     805    253                79273    30801    5421
 


     bravais-lattice index     =            0
     lattice parameter (alat)  =       6.0226  a.u.
     unit-cell volume          =     318.7625 (a.u.)^3
     number of atoms/cell      =            4
     number of atomic types    =            2
     number of electrons       =        52.00
     number of Kohn-Sham states=           26
     kinetic-energy cutoff     =      80.0000  Ry
     charge density cutoff     =     600.0000  Ry
     convergence threshold     =      1.0E-06
     mixing beta               =       0.5000
     number of iterations used =            8  plain     mixing
     Exchange-correlation      = SLA  PW   PSX  PSC ( 1  4 10  8 0 0)
     Using LIBXC version       =    4   3   4
     nstep                     =          200


     celldm(1)=   6.022570  celldm(2)=   0.000000  celldm(3)=   0.000000
     celldm(4)=   0.000000  celldm(5)=   0.000000  celldm(6)=   0.000000

     crystal axes: (cart. coord. in units of alat)
               a(1) = (   1.000000  -0.000000  -0.000000 )  
               a(2) = (  -0.500000   0.866025  -0.000000 )  
               a(3) = (  -0.000000  -0.000000   1.684967 )  

     reciprocal axes: (cart. coord. in units 2 pi/alat)
               b(1) = (  1.000000  0.577351  0.000000 )  
               b(2) = (  0.000000  1.154701  0.000000 )  
               b(3) = (  0.000000  0.000000  0.593484 )  


     PseudoPot. # 1 for Zn read from file:
     ./GBRV_PBEsol/zn_pbesol_v1.uspp.F.UPF
     MD5 check sum: 7d8615e52efe7c1e2b1899de8658bae2
     Pseudo is Ultrasoft, Zval = 20.0
     Generated by new atomic code, or converted to UPF format
     Using radial grid of  943 points,  6 beta functions with: 
                l(1) =   0
                l(2) =   0
                l(3) =   1
                l(4) =   1
                l(5) =   2
                l(6) =   2
     Q(r) pseudized with  8 coefficients,  rinner =    1.100   1.100   1.100
                                                       1.100   1.100

     PseudoPot. # 2 for O  read from file:
     ./GBRV_PBEsol/o_pbesol_v1.2.uspp.F.UPF
     MD5 check sum: 501638753501ef6325af9037351f7734
     Pseudo is Ultrasoft + core correction, Zval =  6.0
     Generated by new atomic code, or converted to UPF format
     Using radial grid of  737 points,  5 beta functions with: 
                l(1) =   0
                l(2) =   0
                l(3) =   1
                l(4) =   1
                l(5) =   2
     Q(r) pseudized with  8 coefficients,  rinner =    0.900   0.900   0.900
                                                       0.900   0.900

     atomic species   valence    mass     pseudopotential
        Zn            20.00    65.38000     Zn( 1.00)
        O              6.00    15.99900     O ( 1.00)

     No symmetry found


                                    s                        frac. trans.

      isym =  1     identity                                     

 cryst.   s( 1) = (     1          0          0      )
                  (     0          1          0      )
                  (     0          0          1      )

 cart.    s( 1) = (  1.0000000 -0.0000000  0.0000000 )
                  ( -0.0000000  1.0000000 -0.0000000 )
                  ( -0.0000000 -0.0000000  1.0000000 )


   Cartesian axes

     site n.     atom                  positions (alat units)
         1           O   tau(   1) = (   0.5000001   0.2886753   0.0123775  )
         2           O   tau(   2) = (   0.0000000   0.5773491   0.8548607  )
         3           Zn  tau(   3) = (   0.4999999   0.2886746   0.6172946  )
         4           Zn  tau(   4) = (  -0.0000003   0.5773509   1.4597779  )

   Crystallographic axes

     site n.     atom                  positions (cryst. coord.)
         1           O   tau(   1) = (  0.6666670  0.3333337  0.0073459  )
         2           O   tau(   2) = (  0.3333329  0.6666657  0.5073458  )
         3           Zn  tau(   3) = (  0.6666664  0.3333329  0.3663542  )
         4           Zn  tau(   4) = (  0.3333336  0.6666677  0.8663542  )

     number of k points=   260
                       cart. coord. in units 2pi/alat
        k(    1) = (   0.0000000   0.0000000   0.0000000), wk =   0.0039062
        k(    2) = (   0.0000000   0.0000000   0.0741854), wk =   0.0078125
        k(    3) = (   0.0000000   0.0000000   0.1483709), wk =   0.0078125
        k(    4) = (   0.0000000   0.0000000   0.2225563), wk =   0.0078125
        k(    5) = (  -0.0000000  -0.0000000  -0.2967418), wk =   0.0039062
        k(    6) = (   0.0000000   0.1443376   0.0000000), wk =   0.0078125
        k(    7) = (   0.0000000   0.1443376   0.0741854), wk =   0.0078125
        k(    8) = (   0.0000000   0.1443376   0.1483709), wk =   0.0078125
        k(    9) = (   0.0000000   0.1443376   0.2225563), wk =   0.0078125
        k(   10) = (  -0.0000000   0.1443376  -0.2967418), wk =   0.0078125
        k(   11) = (  -0.0000000   0.1443376  -0.2225563), wk =   0.0078125
        k(   12) = (  -0.0000000   0.1443376  -0.1483709), wk =   0.0078125
        k(   13) = (  -0.0000000   0.1443376  -0.0741854), wk =   0.0078125
        k(   14) = (   0.0000000   0.2886753   0.0000000), wk =   0.0078125
        k(   15) = (   0.0000000   0.2886753   0.0741855), wk =   0.0078125
        k(   16) = (   0.0000000   0.2886753   0.1483709), wk =   0.0078125
        k(   17) = (   0.0000000   0.2886753   0.2225563), wk =   0.0078125
        k(   18) = (  -0.0000000   0.2886752  -0.2967418), wk =   0.0078125
        k(   19) = (  -0.0000000   0.2886752  -0.2225563), wk =   0.0078125
        k(   20) = (  -0.0000000   0.2886752  -0.1483709), wk =   0.0078125
        k(   21) = (  -0.0000000   0.2886753  -0.0741854), wk =   0.0078125
        k(   22) = (   0.0000000   0.4330129   0.0000000), wk =   0.0078125
        k(   23) = (   0.0000000   0.4330129   0.0741855), wk =   0.0078125
        k(   24) = (   0.0000000   0.4330129   0.1483709), wk =   0.0078125
        k(   25) = (   0.0000000   0.4330129   0.2225563), wk =   0.0078125
        k(   26) = (  -0.0000000   0.4330129  -0.2967417), wk =   0.0078125
        k(   27) = (  -0.0000000   0.4330129  -0.2225563), wk =   0.0078125
        k(   28) = (  -0.0000000   0.4330129  -0.1483709), wk =   0.0078125
        k(   29) = (   0.0000000   0.4330129  -0.0741854), wk =   0.0078125
        k(   30) = (  -0.0000000  -0.5773505  -0.0000000), wk =   0.0039062
        k(   31) = (  -0.0000000  -0.5773505   0.0741854), wk =   0.0078125
        k(   32) = (   0.0000000  -0.5773505   0.1483709), wk =   0.0078125
        k(   33) = (   0.0000000  -0.5773505   0.2225563), wk =   0.0078125
        k(   34) = (  -0.0000000  -0.5773505  -0.2967418), wk =   0.0039062
        k(   35) = (   0.1250000   0.0721688   0.0000000), wk =   0.0078125
        k(   36) = (   0.1250000   0.0721688   0.0741854), wk =   0.0078125
        k(   37) = (   0.1250000   0.0721688   0.1483709), wk =   0.0078125
        k(   38) = (   0.1250000   0.0721688   0.2225563), wk =   0.0078125
        k(   39) = (   0.1250000   0.0721688  -0.2967418), wk =   0.0078125
        k(   40) = (   0.1250000   0.0721688  -0.2225563), wk =   0.0078125
        k(   41) = (   0.1250000   0.0721688  -0.1483709), wk =   0.0078125
        k(   42) = (   0.1250000   0.0721688  -0.0741854), wk =   0.0078125
        k(   43) = (   0.1250000   0.2165064   0.0000000), wk =   0.0078125
        k(   44) = (   0.1250000   0.2165065   0.0741855), wk =   0.0078125
        k(   45) = (   0.1250000   0.2165065   0.1483709), wk =   0.0078125
        k(   46) = (   0.1250000   0.2165065   0.2225563), wk =   0.0078125
        k(   47) = (   0.1250000   0.2165064  -0.2967417), wk =   0.0078125
        k(   48) = (   0.1250000   0.2165064  -0.2225563), wk =   0.0078125
        k(   49) = (   0.1250000   0.2165064  -0.1483709), wk =   0.0078125
        k(   50) = (   0.1250000   0.2165064  -0.0741854), wk =   0.0078125
        k(   51) = (   0.1250000   0.3608441   0.0000000), wk =   0.0078125
        k(   52) = (   0.1250000   0.3608441   0.0741855), wk =   0.0078125
        k(   53) = (   0.1250000   0.3608441   0.1483709), wk =   0.0078125
        k(   54) = (   0.1250000   0.3608441   0.2225563), wk =   0.0078125
        k(   55) = (   0.1250000   0.3608440  -0.2967417), wk =   0.0078125
        k(   56) = (   0.1250000   0.3608441  -0.2225563), wk =   0.0078125
        k(   57) = (   0.1250000   0.3608441  -0.1483709), wk =   0.0078125
        k(   58) = (   0.1250000   0.3608441  -0.0741854), wk =   0.0078125
        k(   59) = (   0.1250000   0.5051817   0.0000000), wk =   0.0078125
        k(   60) = (   0.1250000   0.5051817   0.0741855), wk =   0.0078125
        k(   61) = (   0.1250000   0.5051817   0.1483709), wk =   0.0078125
        k(   62) = (   0.1250000   0.5051817   0.2225563), wk =   0.0078125
        k(   63) = (   0.1250000   0.5051817  -0.2967417), wk =   0.0078125
        k(   64) = (   0.1250000   0.5051817  -0.2225563), wk =   0.0078125
        k(   65) = (   0.1250000   0.5051817  -0.1483709), wk =   0.0078125
        k(   66) = (   0.1250000   0.5051817  -0.0741854), wk =   0.0078125
        k(   67) = (   0.1250000  -0.5051817  -0.0000000), wk =   0.0078125
        k(   68) = (   0.1250000  -0.5051817   0.0741854), wk =   0.0078125
        k(   69) = (   0.1250000  -0.5051817   0.1483709), wk =   0.0078125
        k(   70) = (   0.1250000  -0.5051817   0.2225563), wk =   0.0078125
        k(   71) = (   0.1250000  -0.5051817  -0.2967418), wk =   0.0078125
        k(   72) = (   0.1250000  -0.5051817  -0.2225563), wk =   0.0078125
        k(   73) = (   0.1250000  -0.5051817  -0.1483709), wk =   0.0078125
        k(   74) = (   0.1250000  -0.5051817  -0.0741855), wk =   0.0078125
        k(   75) = (   0.1250000  -0.3608441  -0.0000000), wk =   0.0078125
        k(   76) = (   0.1250000  -0.3608441   0.0741854), wk =   0.0078125
        k(   77) = (   0.1250000  -0.3608441   0.1483709), wk =   0.0078125
        k(   78) = (   0.1250000  -0.3608441   0.2225563), wk =   0.0078125
        k(   79) = (   0.1250000  -0.3608441  -0.2967418), wk =   0.0078125
        k(   80) = (   0.1250000  -0.3608441  -0.2225563), wk =   0.0078125
        k(   81) = (   0.1250000  -0.3608441  -0.1483709), wk =   0.0078125
        k(   82) = (   0.1250000  -0.3608441  -0.0741854), wk =   0.0078125
        k(   83) = (   0.1250000  -0.2165064  -0.0000000), wk =   0.0078125
        k(   84) = (   0.1250000  -0.2165064   0.0741854), wk =   0.0078125
        k(   85) = (   0.1250000  -0.2165064   0.1483709), wk =   0.0078125
        k(   86) = (   0.1250000  -0.2165064   0.2225563), wk =   0.0078125
        k(   87) = (   0.1250000  -0.2165065  -0.2967418), wk =   0.0078125
        k(   88) = (   0.1250000  -0.2165065  -0.2225563), wk =   0.0078125
        k(   89) = (   0.1250000  -0.2165065  -0.1483709), wk =   0.0078125
        k(   90) = (   0.1250000  -0.2165064  -0.0741854), wk =   0.0078125
        k(   91) = (   0.1250000  -0.0721688   0.0000000), wk =   0.0078125
        k(   92) = (   0.1250000  -0.0721688   0.0741854), wk =   0.0078125
        k(   93) = (   0.1250000  -0.0721688   0.1483709), wk =   0.0078125
        k(   94) = (   0.1250000  -0.0721688   0.2225563), wk =   0.0078125
        k(   95) = (   0.1250000  -0.0721688  -0.2967418), wk =   0.0078125
        k(   96) = (   0.1250000  -0.0721688  -0.2225563), wk =   0.0078125
        k(   97) = (   0.1250000  -0.0721688  -0.1483709), wk =   0.0078125
        k(   98) = (   0.1250000  -0.0721688  -0.0741854), wk =   0.0078125
        k(   99) = (   0.2500000   0.1443376   0.0000000), wk =   0.0078125
        k(  100) = (   0.2500000   0.1443376   0.0741855), wk =   0.0078125
        k(  101) = (   0.2500000   0.1443376   0.1483709), wk =   0.0078125
        k(  102) = (   0.2500000   0.1443377   0.2225563), wk =   0.0078125
        k(  103) = (   0.2500000   0.1443376  -0.2967417), wk =   0.0078125
        k(  104) = (   0.2500000   0.1443376  -0.2225563), wk =   0.0078125
        k(  105) = (   0.2500000   0.1443376  -0.1483709), wk =   0.0078125
        k(  106) = (   0.2500000   0.1443376  -0.0741854), wk =   0.0078125
        k(  107) = (   0.2500000   0.2886753   0.0000000), wk =   0.0078125
        k(  108) = (   0.2500000   0.2886753   0.0741855), wk =   0.0078125
        k(  109) = (   0.2500000   0.2886753   0.1483709), wk =   0.0078125
        k(  110) = (   0.2500000   0.2886753   0.2225563), wk =   0.0078125
        k(  111) = (   0.2500000   0.2886752  -0.2967417), wk =   0.0078125
        k(  112) = (   0.2500000   0.2886752  -0.2225563), wk =   0.0078125
        k(  113) = (   0.2500000   0.2886752  -0.1483709), wk =   0.0078125
        k(  114) = (   0.2500000   0.2886753  -0.0741854), wk =   0.0078125
        k(  115) = (   0.2500000   0.4330129   0.0000000), wk =   0.0078125
        k(  116) = (   0.2500000   0.4330129   0.0741855), wk =   0.0078125
        k(  117) = (   0.2500000   0.4330129   0.1483709), wk =   0.0078125
        k(  118) = (   0.2500000   0.4330129   0.2225564), wk =   0.0078125
        k(  119) = (   0.2500000   0.4330129  -0.2967417), wk =   0.0078125
        k(  120) = (   0.2500000   0.4330129  -0.2225563), wk =   0.0078125
        k(  121) = (   0.2500000   0.4330129  -0.1483709), wk =   0.0078125
        k(  122) = (   0.2500000   0.4330129  -0.0741854), wk =   0.0078125
        k(  123) = (   0.2500000   0.5773505   0.0000000), wk =   0.0078125
        k(  124) = (   0.2500000   0.5773505   0.0741855), wk =   0.0078125
        k(  125) = (   0.2500000   0.5773505   0.1483709), wk =   0.0078125
        k(  126) = (   0.2500000   0.5773505   0.2225564), wk =   0.0078125
        k(  127) = (   0.2500000   0.5773505  -0.2967417), wk =   0.0078125
        k(  128) = (   0.2500000   0.5773505  -0.2225563), wk =   0.0078125
        k(  129) = (   0.2500000   0.5773505  -0.1483708), wk =   0.0078125
        k(  130) = (   0.2500000   0.5773505  -0.0741854), wk =   0.0078125
        k(  131) = (   0.2500000  -0.4330129  -0.0000000), wk =   0.0078125
        k(  132) = (   0.2500000  -0.4330129   0.0741854), wk =   0.0078125
        k(  133) = (   0.2500000  -0.4330129   0.1483709), wk =   0.0078125
        k(  134) = (   0.2500000  -0.4330129   0.2225563), wk =   0.0078125
        k(  135) = (   0.2500000  -0.4330129  -0.2967418), wk =   0.0078125
        k(  136) = (   0.2500000  -0.4330129  -0.2225563), wk =   0.0078125
        k(  137) = (   0.2500000  -0.4330129  -0.1483709), wk =   0.0078125
        k(  138) = (   0.2500000  -0.4330129  -0.0741854), wk =   0.0078125
        k(  139) = (   0.2500000  -0.2886753   0.0000000), wk =   0.0078125
        k(  140) = (   0.2500000  -0.2886752   0.0741854), wk =   0.0078125
        k(  141) = (   0.2500000  -0.2886752   0.1483709), wk =   0.0078125
        k(  142) = (   0.2500000  -0.2886752   0.2225563), wk =   0.0078125
        k(  143) = (   0.2500000  -0.2886753  -0.2967418), wk =   0.0078125
        k(  144) = (   0.2500000  -0.2886753  -0.2225563), wk =   0.0078125
        k(  145) = (   0.2500000  -0.2886753  -0.1483709), wk =   0.0078125
        k(  146) = (   0.2500000  -0.2886753  -0.0741854), wk =   0.0078125
        k(  147) = (   0.2500000  -0.1443376   0.0000000), wk =   0.0078125
        k(  148) = (   0.2500000  -0.1443376   0.0741854), wk =   0.0078125
        k(  149) = (   0.2500000  -0.1443376   0.1483709), wk =   0.0078125
        k(  150) = (   0.2500000  -0.1443376   0.2225563), wk =   0.0078125
        k(  151) = (   0.2500000  -0.1443377  -0.2967418), wk =   0.0078125
        k(  152) = (   0.2500000  -0.1443376  -0.2225563), wk =   0.0078125
        k(  153) = (   0.2500000  -0.1443376  -0.1483709), wk =   0.0078125
        k(  154) = (   0.2500000  -0.1443376  -0.0741854), wk =   0.0078125
        k(  155) = (   0.2500000   0.0000000   0.0000000), wk =   0.0078125
        k(  156) = (   0.2500000   0.0000000   0.0741855), wk =   0.0078125
        k(  157) = (   0.2500000   0.0000000   0.1483709), wk =   0.0078125
        k(  158) = (   0.2500000   0.0000000   0.2225563), wk =   0.0078125
        k(  159) = (   0.2500000  -0.0000000  -0.2967417), wk =   0.0078125
        k(  160) = (   0.2500000  -0.0000000  -0.2225563), wk =   0.0078125
        k(  161) = (   0.2500000  -0.0000000  -0.1483709), wk =   0.0078125
        k(  162) = (   0.2500000  -0.0000000  -0.0741854), wk =   0.0078125
        k(  163) = (   0.3750000   0.2165064   0.0000000), wk =   0.0078125
        k(  164) = (   0.3750000   0.2165065   0.0741855), wk =   0.0078125
        k(  165) = (   0.3750000   0.2165065   0.1483709), wk =   0.0078125
        k(  166) = (   0.3750000   0.2165065   0.2225563), wk =   0.0078125
        k(  167) = (   0.3750000   0.2165064  -0.2967417), wk =   0.0078125
        k(  168) = (   0.3750000   0.2165064  -0.2225563), wk =   0.0078125
        k(  169) = (   0.3750000   0.2165064  -0.1483709), wk =   0.0078125
        k(  170) = (   0.3750000   0.2165064  -0.0741854), wk =   0.0078125
        k(  171) = (   0.3750000   0.3608441   0.0000000), wk =   0.0078125
        k(  172) = (   0.3750000   0.3608441   0.0741855), wk =   0.0078125
        k(  173) = (   0.3750000   0.3608441   0.1483709), wk =   0.0078125
        k(  174) = (   0.3750000   0.3608441   0.2225564), wk =   0.0078125
        k(  175) = (   0.3750000   0.3608441  -0.2967417), wk =   0.0078125
        k(  176) = (   0.3750000   0.3608441  -0.2225563), wk =   0.0078125
        k(  177) = (   0.3750000   0.3608441  -0.1483708), wk =   0.0078125
        k(  178) = (   0.3750000   0.3608441  -0.0741854), wk =   0.0078125
        k(  179) = (   0.3750000   0.5051817   0.0000000), wk =   0.0078125
        k(  180) = (   0.3750000   0.5051817   0.0741855), wk =   0.0078125
        k(  181) = (   0.3750000   0.5051817   0.1483709), wk =   0.0078125
        k(  182) = (   0.3750000   0.5051817   0.2225564), wk =   0.0078125
        k(  183) = (   0.3750000   0.5051817  -0.2967417), wk =   0.0078125
        k(  184) = (   0.3750000   0.5051817  -0.2225563), wk =   0.0078125
        k(  185) = (   0.3750000   0.5051817  -0.1483708), wk =   0.0078125
        k(  186) = (   0.3750000   0.5051817  -0.0741854), wk =   0.0078125
        k(  187) = (   0.3750000   0.6495193   0.0000000), wk =   0.0078125
        k(  188) = (   0.3750000   0.6495193   0.0741855), wk =   0.0078125
        k(  189) = (   0.3750000   0.6495193   0.1483709), wk =   0.0078125
        k(  190) = (   0.3750000   0.6495194   0.2225564), wk =   0.0078125
        k(  191) = (   0.3750000   0.6495193  -0.2967417), wk =   0.0078125
        k(  192) = (   0.3750000   0.6495193  -0.2225563), wk =   0.0078125
        k(  193) = (   0.3750000   0.6495193  -0.1483708), wk =   0.0078125
        k(  194) = (   0.3750000   0.6495193  -0.0741854), wk =   0.0078125
        k(  195) = (   0.3750000  -0.3608441   0.0000000), wk =   0.0078125
        k(  196) = (   0.3750000  -0.3608441   0.0741854), wk =   0.0078125
        k(  197) = (   0.3750000  -0.3608441   0.1483709), wk =   0.0078125
        k(  198) = (   0.3750000  -0.3608440   0.2225563), wk =   0.0078125
        k(  199) = (   0.3750000  -0.3608441  -0.2967418), wk =   0.0078125
        k(  200) = (   0.3750000  -0.3608441  -0.2225563), wk =   0.0078125
        k(  201) = (   0.3750000  -0.3608441  -0.1483709), wk =   0.0078125
        k(  202) = (   0.3750000  -0.3608441  -0.0741854), wk =   0.0078125
        k(  203) = (   0.3750000  -0.2165064   0.0000000), wk =   0.0078125
        k(  204) = (   0.3750000  -0.2165064   0.0741855), wk =   0.0078125
        k(  205) = (   0.3750000  -0.2165064   0.1483709), wk =   0.0078125
        k(  206) = (   0.3750000  -0.2165064   0.2225563), wk =   0.0078125
        k(  207) = (   0.3750000  -0.2165065  -0.2967418), wk =   0.0078125
        k(  208) = (   0.3750000  -0.2165065  -0.2225563), wk =   0.0078125
        k(  209) = (   0.3750000  -0.2165064  -0.1483709), wk =   0.0078125
        k(  210) = (   0.3750000  -0.2165064  -0.0741854), wk =   0.0078125
        k(  211) = (   0.3750000  -0.0721688   0.0000000), wk =   0.0078125
        k(  212) = (   0.3750000  -0.0721688   0.0741855), wk =   0.0078125
        k(  213) = (   0.3750000  -0.0721688   0.1483709), wk =   0.0078125
        k(  214) = (   0.3750000  -0.0721688   0.2225563), wk =   0.0078125
        k(  215) = (   0.3750000  -0.0721688  -0.2967417), wk =   0.0078125
        k(  216) = (   0.3750000  -0.0721688  -0.2225563), wk =   0.0078125
        k(  217) = (   0.3750000  -0.0721688  -0.1483709), wk =   0.0078125
        k(  218) = (   0.3750000  -0.0721688  -0.0741854), wk =   0.0078125
        k(  219) = (   0.3750000   0.0721688   0.0000000), wk =   0.0078125
        k(  220) = (   0.3750000   0.0721688   0.0741855), wk =   0.0078125
        k(  221) = (   0.3750000   0.0721688   0.1483709), wk =   0.0078125
        k(  222) = (   0.3750000   0.0721688   0.2225563), wk =   0.0078125
        k(  223) = (   0.3750000   0.0721688  -0.2967417), wk =   0.0078125
        k(  224) = (   0.3750000   0.0721688  -0.2225563), wk =   0.0078125
        k(  225) = (   0.3750000   0.0721688  -0.1483709), wk =   0.0078125
        k(  226) = (   0.3750000   0.0721688  -0.0741854), wk =   0.0078125
        k(  227) = (  -0.5000000  -0.2886753  -0.0000000), wk =   0.0039062
        k(  228) = (  -0.5000000  -0.2886753   0.0741854), wk =   0.0078125
        k(  229) = (  -0.5000000  -0.2886753   0.1483708), wk =   0.0078125
        k(  230) = (  -0.5000000  -0.2886752   0.2225563), wk =   0.0078125
        k(  231) = (  -0.5000000  -0.2886753  -0.2967418), wk =   0.0039062
        k(  232) = (  -0.5000000  -0.1443376  -0.0000000), wk =   0.0078125
        k(  233) = (  -0.5000000  -0.1443376   0.0741854), wk =   0.0078125
        k(  234) = (  -0.5000000  -0.1443376   0.1483709), wk =   0.0078125
        k(  235) = (  -0.5000000  -0.1443376   0.2225563), wk =   0.0078125
        k(  236) = (  -0.5000000  -0.1443377  -0.2967418), wk =   0.0078125
        k(  237) = (  -0.5000000  -0.1443377  -0.2225564), wk =   0.0078125
        k(  238) = (  -0.5000000  -0.1443376  -0.1483709), wk =   0.0078125
        k(  239) = (  -0.5000000  -0.1443376  -0.0741855), wk =   0.0078125
        k(  240) = (  -0.5000000  -0.0000000  -0.0000000), wk =   0.0078125
        k(  241) = (  -0.5000000  -0.0000000   0.0741854), wk =   0.0078125
        k(  242) = (  -0.5000000   0.0000000   0.1483709), wk =   0.0078125
        k(  243) = (  -0.5000000   0.0000000   0.2225563), wk =   0.0078125
        k(  244) = (  -0.5000000  -0.0000000  -0.2967418), wk =   0.0078125
        k(  245) = (  -0.5000000  -0.0000000  -0.2225563), wk =   0.0078125
        k(  246) = (  -0.5000000  -0.0000000  -0.1483709), wk =   0.0078125
        k(  247) = (  -0.5000000  -0.0000000  -0.0741855), wk =   0.0078125
        k(  248) = (  -0.5000000   0.1443376  -0.0000000), wk =   0.0078125
        k(  249) = (  -0.5000000   0.1443376   0.0741854), wk =   0.0078125
        k(  250) = (  -0.5000000   0.1443376   0.1483709), wk =   0.0078125
        k(  251) = (  -0.5000000   0.1443376   0.2225563), wk =   0.0078125
        k(  252) = (  -0.5000000   0.1443376  -0.2967418), wk =   0.0078125
        k(  253) = (  -0.5000000   0.1443376  -0.2225563), wk =   0.0078125
        k(  254) = (  -0.5000000   0.1443376  -0.1483709), wk =   0.0078125
        k(  255) = (  -0.5000000   0.1443376  -0.0741855), wk =   0.0078125
        k(  256) = (  -0.5000000  -0.8660258  -0.0000001), wk =   0.0039062
        k(  257) = (  -0.5000000  -0.8660258   0.0741854), wk =   0.0078125
        k(  258) = (  -0.5000000  -0.8660258   0.1483708), wk =   0.0078125
        k(  259) = (  -0.5000000  -0.8660258   0.2225563), wk =   0.0078125
        k(  260) = (  -0.5000000  -0.8660258  -0.2967418), wk =   0.0039062

                       cryst. coord.
        k(    1) = (   0.0000000   0.0000000   0.0000000), wk =   0.0039062
        k(    2) = (  -0.0000000   0.0000000   0.1250000), wk =   0.0078125
        k(    3) = (  -0.0000000   0.0000000   0.2500000), wk =   0.0078125
        k(    4) = (  -0.0000000   0.0000000   0.3750000), wk =   0.0078125
        k(    5) = (   0.0000000  -0.0000000  -0.5000000), wk =   0.0039062
        k(    6) = (  -0.0000000   0.1250000  -0.0000000), wk =   0.0078125
        k(    7) = (  -0.0000000   0.1250000   0.1250000), wk =   0.0078125
        k(    8) = (  -0.0000000   0.1250000   0.2500000), wk =   0.0078125
        k(    9) = (  -0.0000000   0.1250000   0.3750000), wk =   0.0078125
        k(   10) = (   0.0000000   0.1250000  -0.5000000), wk =   0.0078125
        k(   11) = (   0.0000000   0.1250000  -0.3750000), wk =   0.0078125
        k(   12) = (   0.0000000   0.1250000  -0.2500000), wk =   0.0078125
        k(   13) = (   0.0000000   0.1250000  -0.1250000), wk =   0.0078125
        k(   14) = (  -0.0000000   0.2500000  -0.0000000), wk =   0.0078125
        k(   15) = (  -0.0000000   0.2500000   0.1250000), wk =   0.0078125
        k(   16) = (  -0.0000000   0.2500000   0.2500000), wk =   0.0078125
        k(   17) = (  -0.0000000   0.2500000   0.3750000), wk =   0.0078125
        k(   18) = (   0.0000000   0.2500000  -0.5000000), wk =   0.0078125
        k(   19) = (   0.0000000   0.2500000  -0.3750000), wk =   0.0078125
        k(   20) = (   0.0000000   0.2500000  -0.2500000), wk =   0.0078125
        k(   21) = (  -0.0000000   0.2500000  -0.1250000), wk =   0.0078125
        k(   22) = (  -0.0000000   0.3750000  -0.0000000), wk =   0.0078125
        k(   23) = (  -0.0000000   0.3750000   0.1250000), wk =   0.0078125
        k(   24) = (  -0.0000000   0.3750000   0.2500000), wk =   0.0078125
        k(   25) = (  -0.0000000   0.3750000   0.3750000), wk =   0.0078125
        k(   26) = (  -0.0000000   0.3750000  -0.5000000), wk =   0.0078125
        k(   27) = (  -0.0000000   0.3750000  -0.3750000), wk =   0.0078125
        k(   28) = (  -0.0000000   0.3750000  -0.2500000), wk =   0.0078125
        k(   29) = (  -0.0000000   0.3750000  -0.1250000), wk =   0.0078125
        k(   30) = (   0.0000000  -0.5000000   0.0000000), wk =   0.0039062
        k(   31) = (   0.0000000  -0.5000000   0.1250000), wk =   0.0078125
        k(   32) = (   0.0000000  -0.5000000   0.2500000), wk =   0.0078125
        k(   33) = (   0.0000000  -0.5000000   0.3750000), wk =   0.0078125
        k(   34) = (   0.0000000  -0.5000000  -0.5000000), wk =   0.0039062
        k(   35) = (   0.1250000  -0.0000000   0.0000000), wk =   0.0078125
        k(   36) = (   0.1250000   0.0000000   0.1250000), wk =   0.0078125
        k(   37) = (   0.1250000  -0.0000000   0.2500000), wk =   0.0078125
        k(   38) = (   0.1250000  -0.0000000   0.3750000), wk =   0.0078125
        k(   39) = (   0.1250000  -0.0000000  -0.5000000), wk =   0.0078125
        k(   40) = (   0.1250000  -0.0000000  -0.3750000), wk =   0.0078125
        k(   41) = (   0.1250000  -0.0000000  -0.2500000), wk =   0.0078125
        k(   42) = (   0.1250000  -0.0000000  -0.1250000), wk =   0.0078125
        k(   43) = (   0.1250000   0.1250000   0.0000000), wk =   0.0078125
        k(   44) = (   0.1250000   0.1250000   0.1250000), wk =   0.0078125
        k(   45) = (   0.1250000   0.1250000   0.2500000), wk =   0.0078125
        k(   46) = (   0.1250000   0.1250000   0.3750000), wk =   0.0078125
        k(   47) = (   0.1250000   0.1250000  -0.5000000), wk =   0.0078125
        k(   48) = (   0.1250000   0.1250000  -0.3750000), wk =   0.0078125
        k(   49) = (   0.1250000   0.1250000  -0.2500000), wk =   0.0078125
        k(   50) = (   0.1250000   0.1250000  -0.1250000), wk =   0.0078125
        k(   51) = (   0.1250000   0.2500000  -0.0000000), wk =   0.0078125
        k(   52) = (   0.1250000   0.2500000   0.1250000), wk =   0.0078125
        k(   53) = (   0.1250000   0.2500000   0.2500000), wk =   0.0078125
        k(   54) = (   0.1250000   0.2500000   0.3750000), wk =   0.0078125
        k(   55) = (   0.1250000   0.2500000  -0.5000000), wk =   0.0078125
        k(   56) = (   0.1250000   0.2500000  -0.3750000), wk =   0.0078125
        k(   57) = (   0.1250000   0.2500000  -0.2500000), wk =   0.0078125
        k(   58) = (   0.1250000   0.2500000  -0.1250000), wk =   0.0078125
        k(   59) = (   0.1250000   0.3750000  -0.0000000), wk =   0.0078125
        k(   60) = (   0.1250000   0.3750000   0.1250000), wk =   0.0078125
        k(   61) = (   0.1250000   0.3750000   0.2500000), wk =   0.0078125
        k(   62) = (   0.1250000   0.3750000   0.3750000), wk =   0.0078125
        k(   63) = (   0.1250000   0.3750000  -0.5000000), wk =   0.0078125
        k(   64) = (   0.1250000   0.3750000  -0.3750000), wk =   0.0078125
        k(   65) = (   0.1250000   0.3750000  -0.2500000), wk =   0.0078125
        k(   66) = (   0.1250000   0.3750000  -0.1250000), wk =   0.0078125
        k(   67) = (   0.1250000  -0.5000000   0.0000000), wk =   0.0078125
        k(   68) = (   0.1250000  -0.5000000   0.1250000), wk =   0.0078125
        k(   69) = (   0.1250000  -0.5000000   0.2500000), wk =   0.0078125
        k(   70) = (   0.1250000  -0.5000000   0.3750000), wk =   0.0078125
        k(   71) = (   0.1250000  -0.5000000  -0.5000000), wk =   0.0078125
        k(   72) = (   0.1250000  -0.5000000  -0.3750000), wk =   0.0078125
        k(   73) = (   0.1250000  -0.5000000  -0.2500000), wk =   0.0078125
        k(   74) = (   0.1250000  -0.5000000  -0.1250000), wk =   0.0078125
        k(   75) = (   0.1250000  -0.3750000   0.0000000), wk =   0.0078125
        k(   76) = (   0.1250000  -0.3750000   0.1250000), wk =   0.0078125
        k(   77) = (   0.1250000  -0.3750000   0.2500000), wk =   0.0078125
        k(   78) = (   0.1250000  -0.3750000   0.3750000), wk =   0.0078125
        k(   79) = (   0.1250000  -0.3750000  -0.5000000), wk =   0.0078125
        k(   80) = (   0.1250000  -0.3750000  -0.3750000), wk =   0.0078125
        k(   81) = (   0.1250000  -0.3750000  -0.2500000), wk =   0.0078125
        k(   82) = (   0.1250000  -0.3750000  -0.1250000), wk =   0.0078125
        k(   83) = (   0.1250000  -0.2500000   0.0000000), wk =   0.0078125
        k(   84) = (   0.1250000  -0.2500000   0.1250000), wk =   0.0078125
        k(   85) = (   0.1250000  -0.2500000   0.2500000), wk =   0.0078125
        k(   86) = (   0.1250000  -0.2500000   0.3750000), wk =   0.0078125
        k(   87) = (   0.1250000  -0.2500000  -0.5000000), wk =   0.0078125
        k(   88) = (   0.1250000  -0.2500000  -0.3750000), wk =   0.0078125
        k(   89) = (   0.1250000  -0.2500000  -0.2500000), wk =   0.0078125
        k(   90) = (   0.1250000  -0.2500000  -0.1250000), wk =   0.0078125
        k(   91) = (   0.1250000  -0.1250000   0.0000000), wk =   0.0078125
        k(   92) = (   0.1250000  -0.1250000   0.1250000), wk =   0.0078125
        k(   93) = (   0.1250000  -0.1250000   0.2500000), wk =   0.0078125
        k(   94) = (   0.1250000  -0.1250000   0.3750000), wk =   0.0078125
        k(   95) = (   0.1250000  -0.1250000  -0.5000000), wk =   0.0078125
        k(   96) = (   0.1250000  -0.1250000  -0.3750000), wk =   0.0078125
        k(   97) = (   0.1250000  -0.1250000  -0.2500000), wk =   0.0078125
        k(   98) = (   0.1250000  -0.1250000  -0.1250000), wk =   0.0078125
        k(   99) = (   0.2500000  -0.0000000   0.0000000), wk =   0.0078125
        k(  100) = (   0.2500000  -0.0000000   0.1250000), wk =   0.0078125
        k(  101) = (   0.2500000   0.0000000   0.2500000), wk =   0.0078125
        k(  102) = (   0.2500000  -0.0000000   0.3750000), wk =   0.0078125
        k(  103) = (   0.2500000  -0.0000000  -0.5000000), wk =   0.0078125
        k(  104) = (   0.2500000  -0.0000000  -0.3750000), wk =   0.0078125
        k(  105) = (   0.2500000  -0.0000000  -0.2500000), wk =   0.0078125
        k(  106) = (   0.2500000  -0.0000000  -0.1250000), wk =   0.0078125
        k(  107) = (   0.2500000   0.1250000   0.0000000), wk =   0.0078125
        k(  108) = (   0.2500000   0.1250000   0.1250000), wk =   0.0078125
        k(  109) = (   0.2500000   0.1250000   0.2500000), wk =   0.0078125
        k(  110) = (   0.2500000   0.1250000   0.3750000), wk =   0.0078125
        k(  111) = (   0.2500000   0.1250000  -0.5000000), wk =   0.0078125
        k(  112) = (   0.2500000   0.1250000  -0.3750000), wk =   0.0078125
        k(  113) = (   0.2500000   0.1250000  -0.2500000), wk =   0.0078125
        k(  114) = (   0.2500000   0.1250000  -0.1250000), wk =   0.0078125
        k(  115) = (   0.2500000   0.2500000   0.0000000), wk =   0.0078125
        k(  116) = (   0.2500000   0.2500000   0.1250000), wk =   0.0078125
        k(  117) = (   0.2500000   0.2500000   0.2500000), wk =   0.0078125
        k(  118) = (   0.2500000   0.2500000   0.3750000), wk =   0.0078125
        k(  119) = (   0.2500000   0.2500000  -0.5000000), wk =   0.0078125
        k(  120) = (   0.2500000   0.2500000  -0.3750000), wk =   0.0078125
        k(  121) = (   0.2500000   0.2500000  -0.2500000), wk =   0.0078125
        k(  122) = (   0.2500000   0.2500000  -0.1250000), wk =   0.0078125
        k(  123) = (   0.2500000   0.3750000  -0.0000000), wk =   0.0078125
        k(  124) = (   0.2500000   0.3750000   0.1250000), wk =   0.0078125
        k(  125) = (   0.2500000   0.3750000   0.2500000), wk =   0.0078125
        k(  126) = (   0.2500000   0.3750000   0.3750000), wk =   0.0078125
        k(  127) = (   0.2500000   0.3750000  -0.5000000), wk =   0.0078125
        k(  128) = (   0.2500000   0.3750000  -0.3750000), wk =   0.0078125
        k(  129) = (   0.2500000   0.3750000  -0.2500000), wk =   0.0078125
        k(  130) = (   0.2500000   0.3750000  -0.1250000), wk =   0.0078125
        k(  131) = (   0.2500000  -0.5000000   0.0000000), wk =   0.0078125
        k(  132) = (   0.2500000  -0.5000000   0.1250000), wk =   0.0078125
        k(  133) = (   0.2500000  -0.5000000   0.2500000), wk =   0.0078125
        k(  134) = (   0.2500000  -0.5000000   0.3750000), wk =   0.0078125
        k(  135) = (   0.2500000  -0.5000000  -0.5000000), wk =   0.0078125
        k(  136) = (   0.2500000  -0.5000000  -0.3750000), wk =   0.0078125
        k(  137) = (   0.2500000  -0.5000000  -0.2500000), wk =   0.0078125
        k(  138) = (   0.2500000  -0.5000000  -0.1250000), wk =   0.0078125
        k(  139) = (   0.2500000  -0.3750000   0.0000000), wk =   0.0078125
        k(  140) = (   0.2500000  -0.3750000   0.1250000), wk =   0.0078125
        k(  141) = (   0.2500000  -0.3750000   0.2500000), wk =   0.0078125
        k(  142) = (   0.2500000  -0.3750000   0.3750000), wk =   0.0078125
        k(  143) = (   0.2500000  -0.3750000  -0.5000000), wk =   0.0078125
        k(  144) = (   0.2500000  -0.3750000  -0.3750000), wk =   0.0078125
        k(  145) = (   0.2500000  -0.3750000  -0.2500000), wk =   0.0078125
        k(  146) = (   0.2500000  -0.3750000  -0.1250000), wk =   0.0078125
        k(  147) = (   0.2500000  -0.2500000   0.0000000), wk =   0.0078125
        k(  148) = (   0.2500000  -0.2500000   0.1250000), wk =   0.0078125
        k(  149) = (   0.2500000  -0.2500000   0.2500000), wk =   0.0078125
        k(  150) = (   0.2500000  -0.2500000   0.3750000), wk =   0.0078125
        k(  151) = (   0.2500000  -0.2500000  -0.5000000), wk =   0.0078125
        k(  152) = (   0.2500000  -0.2500000  -0.3750000), wk =   0.0078125
        k(  153) = (   0.2500000  -0.2500000  -0.2500000), wk =   0.0078125
        k(  154) = (   0.2500000  -0.2500000  -0.1250000), wk =   0.0078125
        k(  155) = (   0.2500000  -0.1250000   0.0000000), wk =   0.0078125
        k(  156) = (   0.2500000  -0.1250000   0.1250000), wk =   0.0078125
        k(  157) = (   0.2500000  -0.1250000   0.2500000), wk =   0.0078125
        k(  158) = (   0.2500000  -0.1250000   0.3750000), wk =   0.0078125
        k(  159) = (   0.2500000  -0.1250000  -0.5000000), wk =   0.0078125
        k(  160) = (   0.2500000  -0.1250000  -0.3750000), wk =   0.0078125
        k(  161) = (   0.2500000  -0.1250000  -0.2500000), wk =   0.0078125
        k(  162) = (   0.2500000  -0.1250000  -0.1250000), wk =   0.0078125
        k(  163) = (   0.3750000  -0.0000000   0.0000000), wk =   0.0078125
        k(  164) = (   0.3750000  -0.0000000   0.1250000), wk =   0.0078125
        k(  165) = (   0.3750000  -0.0000000   0.2500000), wk =   0.0078125
        k(  166) = (   0.3750000  -0.0000000   0.3750000), wk =   0.0078125
        k(  167) = (   0.3750000  -0.0000000  -0.5000000), wk =   0.0078125
        k(  168) = (   0.3750000  -0.0000000  -0.3750000), wk =   0.0078125
        k(  169) = (   0.3750000  -0.0000000  -0.2500000), wk =   0.0078125
        k(  170) = (   0.3750000  -0.0000000  -0.1250000), wk =   0.0078125
        k(  171) = (   0.3750000   0.1250000  -0.0000000), wk =   0.0078125
        k(  172) = (   0.3750000   0.1250000   0.1250000), wk =   0.0078125
        k(  173) = (   0.3750000   0.1250000   0.2500000), wk =   0.0078125
        k(  174) = (   0.3750000   0.1250000   0.3750000), wk =   0.0078125
        k(  175) = (   0.3750000   0.1250000  -0.5000000), wk =   0.0078125
        k(  176) = (   0.3750000   0.1250000  -0.3750000), wk =   0.0078125
        k(  177) = (   0.3750000   0.1250000  -0.2500000), wk =   0.0078125
        k(  178) = (   0.3750000   0.1250000  -0.1250000), wk =   0.0078125
        k(  179) = (   0.3750000   0.2500000  -0.0000000), wk =   0.0078125
        k(  180) = (   0.3750000   0.2500000   0.1250000), wk =   0.0078125
        k(  181) = (   0.3750000   0.2500000   0.2500000), wk =   0.0078125
        k(  182) = (   0.3750000   0.2500000   0.3750000), wk =   0.0078125
        k(  183) = (   0.3750000   0.2500000  -0.5000000), wk =   0.0078125
        k(  184) = (   0.3750000   0.2500000  -0.3750000), wk =   0.0078125
        k(  185) = (   0.3750000   0.2500000  -0.2500000), wk =   0.0078125
        k(  186) = (   0.3750000   0.2500000  -0.1250000), wk =   0.0078125
        k(  187) = (   0.3750000   0.3750000  -0.0000000), wk =   0.0078125
        k(  188) = (   0.3750000   0.3750000   0.1250000), wk =   0.0078125
        k(  189) = (   0.3750000   0.3750000   0.2500000), wk =   0.0078125
        k(  190) = (   0.3750000   0.3750000   0.3750000), wk =   0.0078125
        k(  191) = (   0.3750000   0.3750000  -0.5000000), wk =   0.0078125
        k(  192) = (   0.3750000   0.3750000  -0.3750000), wk =   0.0078125
        k(  193) = (   0.3750000   0.3750000  -0.2500000), wk =   0.0078125
        k(  194) = (   0.3750000   0.3750000  -0.1250000), wk =   0.0078125
        k(  195) = (   0.3750000  -0.5000000   0.0000000), wk =   0.0078125
        k(  196) = (   0.3750000  -0.5000000   0.1250000), wk =   0.0078125
        k(  197) = (   0.3750000  -0.5000000   0.2500000), wk =   0.0078125
        k(  198) = (   0.3750000  -0.5000000   0.3750000), wk =   0.0078125
        k(  199) = (   0.3750000  -0.5000000  -0.5000000), wk =   0.0078125
        k(  200) = (   0.3750000  -0.5000000  -0.3750000), wk =   0.0078125
        k(  201) = (   0.3750000  -0.5000000  -0.2500000), wk =   0.0078125
        k(  202) = (   0.3750000  -0.5000000  -0.1250000), wk =   0.0078125
        k(  203) = (   0.3750000  -0.3750000   0.0000000), wk =   0.0078125
        k(  204) = (   0.3750000  -0.3750000   0.1250000), wk =   0.0078125
        k(  205) = (   0.3750000  -0.3750000   0.2500000), wk =   0.0078125
        k(  206) = (   0.3750000  -0.3750000   0.3750000), wk =   0.0078125
        k(  207) = (   0.3750000  -0.3750000  -0.5000000), wk =   0.0078125
        k(  208) = (   0.3750000  -0.3750000  -0.3750000), wk =   0.0078125
        k(  209) = (   0.3750000  -0.3750000  -0.2500000), wk =   0.0078125
        k(  210) = (   0.3750000  -0.3750000  -0.1250000), wk =   0.0078125
        k(  211) = (   0.3750000  -0.2500000   0.0000000), wk =   0.0078125
        k(  212) = (   0.3750000  -0.2500000   0.1250000), wk =   0.0078125
        k(  213) = (   0.3750000  -0.2500000   0.2500000), wk =   0.0078125
        k(  214) = (   0.3750000  -0.2500000   0.3750000), wk =   0.0078125
        k(  215) = (   0.3750000  -0.2500000  -0.5000000), wk =   0.0078125
        k(  216) = (   0.3750000  -0.2500000  -0.3750000), wk =   0.0078125
        k(  217) = (   0.3750000  -0.2500000  -0.2500000), wk =   0.0078125
        k(  218) = (   0.3750000  -0.2500000  -0.1250000), wk =   0.0078125
        k(  219) = (   0.3750000  -0.1250000   0.0000000), wk =   0.0078125
        k(  220) = (   0.3750000  -0.1250000   0.1250000), wk =   0.0078125
        k(  221) = (   0.3750000  -0.1250000   0.2500000), wk =   0.0078125
        k(  222) = (   0.3750000  -0.1250000   0.3750000), wk =   0.0078125
        k(  223) = (   0.3750000  -0.1250000  -0.5000000), wk =   0.0078125
        k(  224) = (   0.3750000  -0.1250000  -0.3750000), wk =   0.0078125
        k(  225) = (   0.3750000  -0.1250000  -0.2500000), wk =   0.0078125
        k(  226) = (   0.3750000  -0.1250000  -0.1250000), wk =   0.0078125
        k(  227) = (  -0.5000000   0.0000000  -0.0000000), wk =   0.0039062
        k(  228) = (  -0.5000000  -0.0000000   0.1250000), wk =   0.0078125
        k(  229) = (  -0.5000000   0.0000000   0.2500000), wk =   0.0078125
        k(  230) = (  -0.5000000   0.0000000   0.3750000), wk =   0.0078125
        k(  231) = (  -0.5000000  -0.0000000  -0.5000000), wk =   0.0039062
        k(  232) = (  -0.5000000   0.1250000  -0.0000000), wk =   0.0078125
        k(  233) = (  -0.5000000   0.1250000   0.1250000), wk =   0.0078125
        k(  234) = (  -0.5000000   0.1250000   0.2500000), wk =   0.0078125
        k(  235) = (  -0.5000000   0.1250000   0.3750000), wk =   0.0078125
        k(  236) = (  -0.5000000   0.1250000  -0.5000000), wk =   0.0078125
        k(  237) = (  -0.5000000   0.1250000  -0.3750000), wk =   0.0078125
        k(  238) = (  -0.5000000   0.1250000  -0.2500000), wk =   0.0078125
        k(  239) = (  -0.5000000   0.1250000  -0.1250000), wk =   0.0078125
        k(  240) = (  -0.5000000   0.2500000  -0.0000000), wk =   0.0078125
        k(  241) = (  -0.5000000   0.2500000   0.1250000), wk =   0.0078125
        k(  242) = (  -0.5000000   0.2500000   0.2500000), wk =   0.0078125
        k(  243) = (  -0.5000000   0.2500000   0.3750000), wk =   0.0078125
        k(  244) = (  -0.5000000   0.2500000  -0.5000000), wk =   0.0078125
        k(  245) = (  -0.5000000   0.2500000  -0.3750000), wk =   0.0078125
        k(  246) = (  -0.5000000   0.2500000  -0.2500000), wk =   0.0078125
        k(  247) = (  -0.5000000   0.2500000  -0.1250000), wk =   0.0078125
        k(  248) = (  -0.5000000   0.3750000  -0.0000000), wk =   0.0078125
        k(  249) = (  -0.5000000   0.3750000   0.1250000), wk =   0.0078125
        k(  250) = (  -0.5000000   0.3750000   0.2500000), wk =   0.0078125
        k(  251) = (  -0.5000000   0.3750000   0.3750000), wk =   0.0078125
        k(  252) = (  -0.5000000   0.3750000  -0.5000000), wk =   0.0078125
        k(  253) = (  -0.5000000   0.3750000  -0.3750000), wk =   0.0078125
        k(  254) = (  -0.5000000   0.3750000  -0.2500000), wk =   0.0078125
        k(  255) = (  -0.5000000   0.3750000  -0.1250000), wk =   0.0078125
        k(  256) = (  -0.5000000  -0.5000000  -0.0000000), wk =   0.0039062
        k(  257) = (  -0.5000000  -0.5000000   0.1250000), wk =   0.0078125
        k(  258) = (  -0.5000000  -0.5000000   0.2500000), wk =   0.0078125
        k(  259) = (  -0.5000000  -0.5000000   0.3750000), wk =   0.0078125
        k(  260) = (  -0.5000000  -0.5000000  -0.5000000), wk =   0.0039062

     Dense  grid:    79273 G-vectors     FFT dimensions: (  48,  48,  80)

     Smooth grid:    30801 G-vectors     FFT dimensions: (  36,  36,  60)

     Dynamical RAM for                 wfc:       0.10 MB

     Dynamical RAM for     wfc (w. buffer):       6.28 MB

     Dynamical RAM for           str. fact:       0.15 MB

     Dynamical RAM for           local pot:       0.00 MB

     Dynamical RAM for          nlocal pot:       0.23 MB

     Dynamical RAM for                qrad:       7.54 MB

     Dynamical RAM for          rho,v,vnew:       0.49 MB

     Dynamical RAM for               rhoin:       0.16 MB

     Dynamical RAM for            rho*nmix:       1.21 MB

     Dynamical RAM for           G-vectors:       0.30 MB

     Dynamical RAM for          h,s,v(r/c):       0.12 MB

     Dynamical RAM for          <psi|beta>:       0.02 MB

     Dynamical RAM for                 psi:       0.38 MB

     Dynamical RAM for                hpsi:       0.38 MB

     Dynamical RAM for                spsi:       0.38 MB

     Dynamical RAM for      wfcinit/wfcrot:       0.28 MB

     Dynamical RAM for           addusdens:       3.61 MB

     Dynamical RAM for          addusforce:       3.76 MB

     Dynamical RAM for         addusstress:       3.83 MB

     Estimated static dynamical RAM per process >      17.03 MB

     Estimated max dynamical RAM per process >      20.85 MB

     Estimated total dynamical RAM >       1.30 GB

     Check: negative core charge=   -0.000003

     Initial potential from superposition of free atoms

     starting charge   51.99974, renormalised to   52.00000
     Starting wfcs are   34 randomized atomic wfcs

     total cpu time spent up to now is        2.7 secs

     Self-consistent Calculation

     iteration #  1     ecut=    80.00 Ry     beta= 0.50
     Davidson diagonalization with overlap
     ethr =  1.00E-02,  avg # of iterations =  1.0

     total cpu time spent up to now is        3.6 secs

     total energy              =    -986.76295416 Ry
     Harris-Foulkes estimate   =    -987.28780088 Ry
     estimated scf accuracy    <       0.82505209 Ry

     iteration #  2     ecut=    80.00 Ry     beta= 0.50
     Davidson diagonalization with overlap
     ethr =  1.59E-03,  avg # of iterations =  3.0

     total cpu time spent up to now is        4.9 secs

     total energy              =    -987.00510201 Ry
     Harris-Foulkes estimate   =    -987.17717064 Ry
     estimated scf accuracy    <       0.39843756 Ry

     iteration #  3     ecut=    80.00 Ry     beta= 0.50
     Davidson diagonalization with overlap
     ethr =  7.66E-04,  avg # of iterations =  2.0

     total cpu time spent up to now is        6.0 secs

     total energy              =    -987.07672571 Ry
     Harris-Foulkes estimate   =    -987.07906598 Ry
     estimated scf accuracy    <       0.00687696 Ry

     iteration #  4     ecut=    80.00 Ry     beta= 0.50
     Davidson diagonalization with overlap
     ethr =  1.32E-05,  avg # of iterations =  2.0

     total cpu time spent up to now is        7.1 secs

     total energy              =    -987.07731121 Ry
     Harris-Foulkes estimate   =    -987.07778265 Ry
     estimated scf accuracy    <       0.00155644 Ry

     iteration #  5     ecut=    80.00 Ry     beta= 0.50
     Davidson diagonalization with overlap
     ethr =  2.99E-06,  avg # of iterations =  2.0

     total cpu time spent up to now is        8.2 secs

     total energy              =    -987.07747675 Ry
     Harris-Foulkes estimate   =    -987.07748778 Ry
     estimated scf accuracy    <       0.00002096 Ry

     iteration #  6     ecut=    80.00 Ry     beta= 0.50
     Davidson diagonalization with overlap
     ethr =  4.03E-08,  avg # of iterations =  2.0

     total cpu time spent up to now is        9.2 secs

     total energy              =    -987.07748007 Ry
     Harris-Foulkes estimate   =    -987.07747942 Ry
     estimated scf accuracy    <       0.00000403 Ry

     iteration #  7     ecut=    80.00 Ry     beta= 0.50
     Davidson diagonalization with overlap
     ethr =  7.76E-09,  avg # of iterations =  1.7

     total cpu time spent up to now is       10.2 secs

     End of self-consistent calculation

          k = 0.0000 0.0000 0.0000 (  3863 PWs)   bands (ev):

  -114.3576-114.3574 -68.7222 -68.7222 -68.7217 -68.7217 -68.7016 -68.6987
    -9.2607  -8.5415   2.7850   2.8342   3.0972   3.0972   3.3562   3.3562
     4.2045   4.2045   4.4059   4.4059   4.5701   7.9135   7.9135   8.6638
     8.7914   8.7914

     occupation numbers 
     1.0000   1.0000   1.0000   1.0000   1.0000   1.0000   1.0000   1.0000
     1.0000   1.0000   1.0000   1.0000   1.0000   1.0000   1.0000   1.0000
     1.0000   1.0000   1.0000   1.0000   1.0000   1.0000   1.0000   1.0000
     1.0000   1.0000

          k = 0.0000 0.0000 0.0742 (  3863 PWs)   bands (ev):

  -114.3576-114.3574 -68.7222 -68.7222 -68.7217 -68.7217 -68.7015 -68.6987
    -9.2351  -8.5708   2.7363   2.8087   3.1039   3.1039   3.3425   3.3425
     4.2144   4.2144   4.4009   4.4009   4.7343   7.9475   7.9475   8.2676
     8.7585   8.7586

     occupation numbers 
     1.0000   1.0000   1.0000   1.0000   1.0000   1.0000   1.0000   1.0000
     1.0000   1.0000   1.0000   1.0000   1.0000   1.0000   1.0000   1.0000
     1.0000   1.0000   1.0000   1.0000   1.0000   1.0000   1.0000   1.0000
     1.0000   1.0000

          k = 0.0000 0.0000 0.1484 (  3881 PWs)   bands (ev):

  -114.3575-114.3574 -68.7222 -68.7222 -68.7218 -68.7218 -68.7011 -68.6991
    -9.1615  -8.6533   2.6477   2.7424   3.1241   3.1241   3.3055   3.3055
     4.2415   4.2415   4.3854   4.3854   5.1556   7.6463   8.0442   8.0442
     8.6647   8.6647

     occupation numbers 
     1.0000   1.0000   1.0000   1.0000   1.0000   1.0000   1.0000   1.0000
     1.0000   1.0000   1.0000   1.0000   1.0000   1.0000   1.0000   1.0000
     1.0000   1.0000   1.0000   1.0000   1.0000   1.0000   1.0000   1.0000
     1.0000   1.0000

          k = 0.0000 0.0000 0.2226 (  3875 PWs)   bands (ev):

  -114.3575-114.3574 -68.7221 -68.7221 -68.7219 -68.7219 -68.7006 -68.6996
    -9.0493  -8.7744   2.5954   2.6629   3.1579   3.1579   3.2554   3.2554
     4.2799   4.2799   4.3583   4.3583   5.7204   7.0005   8.1881   8.1881
     8.5238   8.5238

     occupation numbers 
     1.0000   1.0000   1.0000   1.0000   1.0000   1.0000   1.0000   1.0000
     1.0000   1.0000   1.0000   1.0000   1.0000   1.0000   1.0000   1.0000
     1.0000   1.0000   1.0000   1.0000   1.0000   1.0000   1.0000   1.0000
     1.0000   1.0000

          k =-0.0000-0.0000-0.2967 (  3868 PWs)   bands (ev):

  -114.3575-114.3574 -68.7220 -68.7220 -68.7220 -68.7219 -68.7001 -68.7001
    -8.9140  -8.9134   2.6041   2.6043   3.2032   3.2032   3.2033   3.2033
     4.3214   4.3214   4.3214   4.3214   6.3507   6.3508   8.3563   8.3563
     8.3568   8.3568

     occupation numbers 
     1.0000   1.0000   1.0000   1.0000   1.0000   1.0000   1.0000   1.0000
     1.0000   1.0000   1.0000   1.0000   1.0000   1.0000   1.0000   1.0000
     1.0000   1.0000   1.0000   1.0000   1.0000   1.0000   1.0000   1.0000
     1.0000   1.0000

          k = 0.0000 0.1443 0.0000 (  3869 PWs)   bands (ev):

  -114.3575-114.3574 -68.7226 -68.7224 -68.7222 -68.7218 -68.7014 -68.6987
    -9.1681  -8.4965   2.8879   2.9102   3.0333   3.1314   3.3480   3.4224
     4.1652   4.2050   4.4099   4.4117   4.5765   7.3570   7.7249   7.9685
     8.5689   8.7050

     occupation numbers 
     1.0000   1.0000   1.0000   1.0000   1.0000   1.0000   1.0000   1.0000
     1.0000   1.0000   1.0000   1.0000   1.0000   1.0000   1.0000   1.0000
     1.0000   1.0000   1.0000   1.0000   1.0000   1.0000   1.0000   1.0000
     1.0000   1.0000

          k = 0.0000 0.1443 0.0742 (  3872 PWs)   bands (ev):

  -114.3575-114.3574 -68.7226 -68.7223 -68.7222 -68.7219 -68.7013 -68.6988
    -9.1439  -8.5235   2.8317   2.8609   3.0468   3.1394   3.3387   3.4074
     4.1784   4.2145   4.4058   4.4103   4.7489   7.3891   7.7634   7.8329
     8.5008   8.6685

     occupation numbers 
     1.0000   1.0000   1.0000   1.0000   1.0000   1.0000   1.0000   1.0000
     1.0000   1.0000   1.0000   1.0000   1.0000   1.0000   1.0000   1.0000
     1.0000   1.0000   1.0000   1.0000   1.0000   1.0000   1.0000   1.0000
     1.0000   1.0000

          k = 0.0000 0.1443 0.1484 (  3863 PWs)   bands (ev):

  -114.3575-114.3574 -68.7226 -68.7223 -68.7222 -68.7219 -68.7010 -68.6991
    -9.0746  -8.5999   2.7218   2.7556   3.0893   3.1632   3.3053   3.3669
     4.2129   4.2407   4.3877   4.3924   5.1901   7.3755   7.5893   7.8724
     8.3399   8.5644

     occupation numbers 
     1.0000   1.0000   1.0000   1.0000   1.0000   1.0000   1.0000   1.0000
     1.0000   1.0000   1.0000   1.0000   1.0000   1.0000   1.0000   1.0000
     1.0000   1.0000   1.0000   1.0000   1.0000   1.0000   1.0000   1.0000
     1.0000   1.0000

          k = 0.0000 0.1443 0.2226 (  3855 PWs)   bands (ev):

  -114.3575-114.3574 -68.7225 -68.7223 -68.7222 -68.7220 -68.7006 -68.6995
    -8.9691  -8.7123   2.6363   2.6689   3.1401   3.2021   3.2537   3.3116
     4.2604   4.2782   4.3579   4.3580   5.7582   6.9272   7.7074   8.0337
     8.1326   8.4079

     occupation numbers 
     1.0000   1.0000   1.0000   1.0000   1.0000   1.0000   1.0000   1.0000
     1.0000   1.0000   1.0000   1.0000   1.0000   1.0000   1.0000   1.0000
     1.0000   1.0000   1.0000   1.0000   1.0000   1.0000   1.0000   1.0000
     1.0000   1.0000

          k =-0.0000 0.1443-0.2967 (  3858 PWs)   bands (ev):

  -114.3575-114.3574 -68.7224 -68.7223 -68.7221 -68.7220 -68.7001 -68.7000
    -8.8425  -8.8419   2.6209   2.6210   3.1960   3.1960   3.2535   3.2536
     4.3116   4.3117   4.3197   4.3197   6.3586   6.3587   7.9108   7.9111
     8.2215   8.2220

     occupation numbers 
     1.0000   1.0000   1.0000   1.0000   1.0000   1.0000   1.0000   1.0000
     1.0000   1.0000   1.0000   1.0000   1.0000   1.0000   1.0000   1.0000
     1.0000   1.0000   1.0000   1.0000   1.0000   1.0000   1.0000   1.0000
     1.0000   1.0000

          k =-0.0000 0.1443-0.2226 (  3855 PWs)   bands (ev):

  -114.3575-114.3574 -68.7225 -68.7223 -68.7222 -68.7220 -68.7006 -68.6995
    -8.9691  -8.7123   2.6362   2.6690   3.1401   3.2021   3.2538   3.3116
     4.2604   4.2782   4.3579   4.3580   5.7582   6.9272   7.7073   8.0337
     8.1326   8.4079

     occupation numbers 
     1.0000   1.0000   1.0000   1.0000   1.0000   1.0000   1.0000   1.0000
     1.0000   1.0000   1.0000   1.0000   1.0000   1.0000   1.0000   1.0000
     1.0000   1.0000   1.0000   1.0000   1.0000   1.0000   1.0000   1.0000
     1.0000   1.0000

          k =-0.0000 0.1443-0.1484 (  3863 PWs)   bands (ev):

  -114.3575-114.3574 -68.7226 -68.7223 -68.7222 -68.7219 -68.7010 -68.6991
    -9.0746  -8.5999   2.7217   2.7557   3.0893   3.1632   3.3053   3.3669
     4.2129   4.2407   4.3877   4.3924   5.1901   7.3755   7.5892   7.8724
     8.3399   8.5644

     occupation numbers 
     1.0000   1.0000   1.0000   1.0000   1.0000   1.0000   1.0000   1.0000
     1.0000   1.0000   1.0000   1.0000   1.0000   1.0000   1.0000   1.0000
     1.0000   1.0000   1.0000   1.0000   1.0000   1.0000   1.0000   1.0000
     1.0000   1.0000

          k =-0.0000 0.1443-0.0742 (  3872 PWs)   bands (ev):

  -114.3575-114.3574 -68.7226 -68.7223 -68.7222 -68.7219 -68.7013 -68.6988
    -9.1439  -8.5235   2.8316   2.8611   3.0467   3.1394   3.3387   3.4074
     4.1784   4.2145   4.4058   4.4102   4.7489   7.3891   7.7634   7.8329
     8.5008   8.6685

     occupation numbers 
     1.0000   1.0000   1.0000   1.0000   1.0000   1.0000   1.0000   1.0000
     1.0000   1.0000   1.0000   1.0000   1.0000   1.0000   1.0000   1.0000
     1.0000   1.0000   1.0000   1.0000   1.0000   1.0000   1.0000   1.0000
     1.0000   1.0000

          k = 0.0000 0.2887 0.0000 (  3855 PWs)   bands (ev):

  -114.3575-114.3573 -68.7235 -68.7231 -68.7226 -68.7221 -68.7011 -68.6989
    -8.9293  -8.3933   2.7675   2.9976   3.1950   3.2491   3.5051   3.6012
     4.0957   4.2441   4.3815   4.4237   4.6750   6.1904   7.0992   7.2660
     8.2375   8.4806

     occupation numbers 
     1.0000   1.0000   1.0000   1.0000   1.0000   1.0000   1.0000   1.0000
     1.0000   1.0000   1.0000   1.0000   1.0000   1.0000   1.0000   1.0000
     1.0000   1.0000   1.0000   1.0000   1.0000   1.0000   1.0000   1.0000
     1.0000   1.0000

          k = 0.0000 0.2887 0.0742 (  3864 PWs)   bands (ev):

  -114.3575-114.3573 -68.7235 -68.7232 -68.7226 -68.7221 -68.7010 -68.6990
    -8.9094  -8.4141   2.7358   2.9702   3.1965   3.2070   3.4537   3.5813
     4.1179   4.2509   4.4164   4.4220   4.8404   6.2387   7.0379   7.3155
     8.1914   8.4362

     occupation numbers 
     1.0000   1.0000   1.0000   1.0000   1.0000   1.0000   1.0000   1.0000
     1.0000   1.0000   1.0000   1.0000   1.0000   1.0000   1.0000   1.0000
     1.0000   1.0000   1.0000   1.0000   1.0000   1.0000   1.0000   1.0000
     1.0000   1.0000

          k = 0.0000 0.2887 0.1484 (  3860 PWs)   bands (ev):

  -114.3575-114.3573 -68.7235 -68.7232 -68.7225 -68.7221 -68.7007 -68.6992
    -8.8525  -8.4733   2.6692   2.8356   3.1720   3.2426   3.3863   3.5271
     4.1671   4.2703   4.3963   4.4144   5.2764   6.3613   6.9084   7.4542
     8.0200   8.3092

     occupation numbers 
     1.0000   1.0000   1.0000   1.0000   1.0000   1.0000   1.0000   1.0000
     1.0000   1.0000   1.0000   1.0000   1.0000   1.0000   1.0000   1.0000
     1.0000   1.0000   1.0000   1.0000   1.0000   1.0000   1.0000   1.0000
     1.0000   1.0000

          k = 0.0000 0.2887 0.2226 (  3853 PWs)   bands (ev):

  -114.3574-114.3574 -68.7234 -68.7233 -68.7225 -68.7222 -68.7004 -68.6995
    -8.7667  -8.5614   2.6156   2.6896   3.2069   3.2992   3.3223   3.4521
     4.2319   4.2991   4.3666   4.3669   5.7544   6.3820   6.9399   7.6567
     7.6973   8.1180

     occupation numbers 
     1.0000   1.0000   1.0000   1.0000   1.0000   1.0000   1.0000   1.0000
     1.0000   1.0000   1.0000   1.0000   1.0000   1.0000   1.0000   1.0000
     1.0000   1.0000   1.0000   1.0000   1.0000   1.0000   1.0000   1.0000
     1.0000   1.0000

          k =-0.0000 0.2887-0.2967 (  3854 PWs)   bands (ev):

  -114.3574-114.3574 -68.7234 -68.7233 -68.7224 -68.7223 -68.7000 -68.6999
    -8.6648  -8.6642   2.6146   2.6147   3.2606   3.2607   3.3719   3.3720
     4.3019   4.3019   4.3329   4.3329   6.1402   6.1403   7.2836   7.2837
     7.8894   7.8898

     occupation numbers 
     1.0000   1.0000   1.0000   1.0000   1.0000   1.0000   1.0000   1.0000
     1.0000   1.0000   1.0000   1.0000   1.0000   1.0000   1.0000   1.0000
     1.0000   1.0000   1.0000   1.0000   1.0000   1.0000   1.0000   1.0000
     1.0000   1.0000

          k =-0.0000 0.2887-0.2226 (  3853 PWs)   bands (ev):

  -114.3574-114.3574 -68.7234 -68.7233 -68.7225 -68.7222 -68.7004 -68.6995
    -8.7667  -8.5614   2.6156   2.6897   3.2068   3.2992   3.3224   3.4521
     4.2319   4.2991   4.3666   4.3669   5.7544   6.3821   6.9397   7.6566
     7.6974   8.1180

     occupation numbers 
     1.0000   1.0000   1.0000   1.0000   1.0000   1.0000   1.0000   1.0000
     1.0000   1.0000   1.0000   1.0000   1.0000   1.0000   1.0000   1.0000
     1.0000   1.0000   1.0000   1.0000   1.0000   1.0000   1.0000   1.0000
     1.0000   1.0000

          k =-0.0000 0.2887-0.1484 (  3860 PWs)   bands (ev):

  -114.3575-114.3573 -68.7235 -68.7232 -68.7225 -68.7221 -68.7007 -68.6992
    -8.8525  -8.4733   2.6692   2.8357   3.1718   3.2426   3.3864   3.5271
     4.1671   4.2704   4.3963   4.4143   5.2764   6.3614   6.9083   7.4542
     8.0200   8.3092

     occupation numbers 
     1.0000   1.0000   1.0000   1.0000   1.0000   1.0000   1.0000   1.0000
     1.0000   1.0000   1.0000   1.0000   1.0000   1.0000   1.0000   1.0000
     1.0000   1.0000   1.0000   1.0000   1.0000   1.0000   1.0000   1.0000
     1.0000   1.0000

          k =-0.0000 0.2887-0.0742 (  3864 PWs)   bands (ev):

  -114.3575-114.3573 -68.7235 -68.7232 -68.7226 -68.7221 -68.7010 -68.6990
    -8.9094  -8.4141   2.7358   2.9703   3.1963   3.2070   3.4538   3.5813
     4.1179   4.2509   4.4164   4.4220   4.8405   6.2388   7.0379   7.3155
     8.1914   8.4362

     occupation numbers 
     1.0000   1.0000   1.0000   1.0000   1.0000   1.0000   1.0000   1.0000
     1.0000   1.0000   1.0000   1.0000   1.0000   1.0000   1.0000   1.0000
     1.0000   1.0000   1.0000   1.0000   1.0000   1.0000   1.0000   1.0000
     1.0000   1.0000

          k = 0.0000 0.4330 0.0000 (  3857 PWs)   bands (ev):

  -114.3574-114.3573 -68.7245 -68.7241 -68.7229 -68.7223 -68.7006 -68.6992
    -8.6549  -8.3105   2.6891   3.0082   3.2272   3.4360   3.5540   3.8133
     4.1728   4.3450   4.4431   4.6022   4.8634   5.2437   6.3531   6.7770
     7.6717   8.2350

     occupation numbers 
     1.0000   1.0000   1.0000   1.0000   1.0000   1.0000   1.0000   1.0000
     1.0000   1.0000   1.0000   1.0000   1.0000   1.0000   1.0000   1.0000
     1.0000   1.0000   1.0000   1.0000   1.0000   1.0000   1.0000   1.0000
     1.0000   1.0000

          k = 0.0000 0.4330 0.0742 (  3865 PWs)   bands (ev):

  -114.3574-114.3573 -68.7245 -68.7242 -68.7229 -68.7223 -68.7005 -68.6992
    -8.6414  -8.3231   2.6648   2.9565   3.2443   3.4029   3.5317   3.7838
     4.1888   4.3476   4.4368   4.5637   4.9562   5.3696   6.3269   6.8401
     7.6920   8.1830

     occupation numbers 
     1.0000   1.0000   1.0000   1.0000   1.0000   1.0000   1.0000   1.0000
     1.0000   1.0000   1.0000   1.0000   1.0000   1.0000   1.0000   1.0000
     1.0000   1.0000   1.0000   1.0000   1.0000   1.0000   1.0000   1.0000
     1.0000   1.0000

          k = 0.0000 0.4330 0.1484 (  3843 PWs)   bands (ev):

  -114.3574-114.3573 -68.7244 -68.7242 -68.7228 -68.7224 -68.7004 -68.6993
    -8.6029  -8.3591   2.6113   2.8165   3.2948   3.3680   3.4919   3.7039
     4.2314   4.3555   4.4214   4.4969   5.1182   5.5982   6.3757   7.0137
     7.6809   8.0345

     occupation numbers 
     1.0000   1.0000   1.0000   1.0000   1.0000   1.0000   1.0000   1.0000
     1.0000   1.0000   1.0000   1.0000   1.0000   1.0000   1.0000   1.0000
     1.0000   1.0000   1.0000   1.0000   1.0000   1.0000   1.0000   1.0000
     1.0000   1.0000

          k = 0.0000 0.4330 0.2226 (  3845 PWs)   bands (ev):

  -114.3574-114.3573 -68.7244 -68.7243 -68.7227 -68.7225 -68.7001 -68.6996
    -8.5458  -8.4137   2.5710   2.6699   3.3735   3.3752   3.4468   3.5946
     4.2906   4.3681   4.4026   4.4272   5.2915   5.6065   6.7185   7.2613
     7.5193   7.8101

     occupation numbers 
     1.0000   1.0000   1.0000   1.0000   1.0000   1.0000   1.0000   1.0000
     1.0000   1.0000   1.0000   1.0000   1.0000   1.0000   1.0000   1.0000
     1.0000   1.0000   1.0000   1.0000   1.0000   1.0000   1.0000   1.0000
     1.0000   1.0000

          k =-0.0000 0.4330-0.2967 (  3852 PWs)   bands (ev):

  -114.3574-114.3573 -68.7244 -68.7243 -68.7226 -68.7226 -68.6999 -68.6998
    -8.4795  -8.4790   2.5837   2.5838   3.4041   3.4042   3.4790   3.4791
     4.3577   4.3577   4.3842   4.3843   5.4650   5.4651   7.1709   7.1711
     7.5400   7.5405

     occupation numbers 
     1.0000   1.0000   1.0000   1.0000   1.0000   1.0000   1.0000   1.0000
     1.0000   1.0000   1.0000   1.0000   1.0000   1.0000   1.0000   1.0000
     1.0000   1.0000   1.0000   1.0000   1.0000   1.0000   1.0000   1.0000
     1.0000   1.0000

          k =-0.0000 0.4330-0.2226 (  3845 PWs)   bands (ev):

  -114.3574-114.3573 -68.7244 -68.7243 -68.7227 -68.7225 -68.7001 -68.6996
    -8.5458  -8.4137   2.5710   2.6700   3.3734   3.3752   3.4470   3.5946
     4.2907   4.3681   4.4026   4.4271   5.2914   5.6066   6.7184   7.2613
     7.5193   7.8101

     occupation numbers 
     1.0000   1.0000   1.0000   1.0000   1.0000   1.0000   1.0000   1.0000
     1.0000   1.0000   1.0000   1.0000   1.0000   1.0000   1.0000   1.0000
     1.0000   1.0000   1.0000   1.0000   1.0000   1.0000   1.0000   1.0000
     1.0000   1.0000

          k =-0.0000 0.4330-0.1484 (  3843 PWs)   bands (ev):

  -114.3574-114.3573 -68.7244 -68.7242 -68.7228 -68.7224 -68.7004 -68.6993
    -8.6029  -8.3591   2.6113   2.8166   3.2948   3.3678   3.4920   3.7039
     4.2314   4.3556   4.4214   4.4969   5.1182   5.5984   6.3756   7.0137
     7.6810   8.0345

     occupation numbers 
     1.0000   1.0000   1.0000   1.0000   1.0000   1.0000   1.0000   1.0000
     1.0000   1.0000   1.0000   1.0000   1.0000   1.0000   1.0000   1.0000
     1.0000   1.0000   1.0000   1.0000   1.0000   1.0000   1.0000   1.0000
     1.0000   1.0000

          k = 0.0000 0.4330-0.0742 (  3865 PWs)   bands (ev):

  -114.3574-114.3573 -68.7245 -68.7242 -68.7229 -68.7223 -68.7005 -68.6992
    -8.6414  -8.3231   2.6648   2.9565   3.2443   3.4027   3.5318   3.7838
     4.1888   4.3476   4.4368   4.5636   4.9562   5.3697   6.3268   6.8401
     7.6920   8.1830

     occupation numbers 
     1.0000   1.0000   1.0000   1.0000   1.0000   1.0000   1.0000   1.0000
     1.0000   1.0000   1.0000   1.0000   1.0000   1.0000   1.0000   1.0000
     1.0000   1.0000   1.0000   1.0000   1.0000   1.0000   1.0000   1.0000
     1.0000   1.0000

          k =-0.0000-0.5774-0.0000 (  3854 PWs)   bands (ev):

  -114.3574-114.3573 -68.7249 -68.7245 -68.7230 -68.7224 -68.7003 -68.6994
    -8.5152  -8.2975   2.7538   2.9528   3.2316   3.3575   3.6617   3.9105
     4.1641   4.4116   4.4586   4.5578   4.9248   5.4699   5.8497   6.5540
     7.2910   8.1263

     occupation numbers 
     1.0000   1.0000   1.0000   1.0000   1.0000   1.0000   1.0000   1.0000
     1.0000   1.0000   1.0000   1.0000   1.0000   1.0000   1.0000   1.0000
     1.0000   1.0000   1.0000   1.0000   1.0000   1.0000   1.0000   1.0000
     1.0000   1.0000

          k =-0.0000-0.5774 0.0742 (  3840 PWs)   bands (ev):

  -114.3574-114.3573 -68.7248 -68.7245 -68.7230 -68.7224 -68.7003 -68.6994
    -8.5061  -8.3048   2.7229   2.8915   3.2509   3.3681   3.6353   3.8751
     4.2088   4.4122   4.4528   4.5563   4.9182   5.4162   5.9979   6.6248
     7.3456   8.0712

     occupation numbers 
     1.0000   1.0000   1.0000   1.0000   1.0000   1.0000   1.0000   1.0000
     1.0000   1.0000   1.0000   1.0000   1.0000   1.0000   1.0000   1.0000
     1.0000   1.0000   1.0000   1.0000   1.0000   1.0000   1.0000   1.0000
     1.0000   1.0000

          k = 0.0000-0.5774 0.1484 (  3850 PWs)   bands (ev):

  -114.3574-114.3573 -68.7248 -68.7246 -68.7229 -68.7225 -68.7002 -68.6995
    -8.4804  -8.3261   2.6526   2.7576   3.3077   3.3945   3.5802   3.7797
     4.3055   4.4140   4.4410   4.5489   4.9205   5.2909   6.3646   6.8173
     7.4332   7.9136

     occupation numbers 
     1.0000   1.0000   1.0000   1.0000   1.0000   1.0000   1.0000   1.0000
     1.0000   1.0000   1.0000   1.0000   1.0000   1.0000   1.0000   1.0000
     1.0000   1.0000   1.0000   1.0000   1.0000   1.0000   1.0000   1.0000
     1.0000   1.0000

          k = 0.0000-0.5774 0.2226 (  3840 PWs)   bands (ev):

  -114.3574-114.3573 -68.7248 -68.7246 -68.7228 -68.7226 -68.7000 -68.6996
    -8.4428  -8.3592   2.5899   2.6360   3.3988   3.4295   3.5228   3.6511
     4.4055   4.4173   4.4301   4.5277   4.9559   5.1513   6.8069   7.0872
     7.4091   7.6753

     occupation numbers 
     1.0000   1.0000   1.0000   1.0000   1.0000   1.0000   1.0000   1.0000
     1.0000   1.0000   1.0000   1.0000   1.0000   1.0000   1.0000   1.0000
     1.0000   1.0000   1.0000   1.0000   1.0000   1.0000   1.0000   1.0000
     1.0000   1.0000

          k =-0.0000-0.5774-0.2967 (  3836 PWs)   bands (ev):

  -114.3574-114.3573 -68.7247 -68.7247 -68.7227 -68.7227 -68.6998 -68.6998
    -8.4004  -8.3998   2.5771   2.5772   3.4719   3.4721   3.5173   3.5174
     4.4224   4.4224   4.4822   4.4822   5.0336   5.0337   7.1902   7.1904
     7.3871   7.3875

     occupation numbers 
     1.0000   1.0000   1.0000   1.0000   1.0000   1.0000   1.0000   1.0000
     1.0000   1.0000   1.0000   1.0000   1.0000   1.0000   1.0000   1.0000
     1.0000   1.0000   1.0000   1.0000   1.0000   1.0000   1.0000   1.0000
     1.0000   1.0000

          k = 0.1250 0.0722 0.0000 (  3869 PWs)   bands (ev):

  -114.3575-114.3574 -68.7226 -68.7224 -68.7222 -68.7218 -68.7014 -68.6987
    -9.1681  -8.4965   2.8879   2.9102   3.0333   3.1314   3.3480   3.4224
     4.1652   4.2050   4.4099   4.4117   4.5765   7.3570   7.7249   7.9685
     8.5689   8.7050

     occupation numbers 
     1.0000   1.0000   1.0000   1.0000   1.0000   1.0000   1.0000   1.0000
     1.0000   1.0000   1.0000   1.0000   1.0000   1.0000   1.0000   1.0000
     1.0000   1.0000   1.0000   1.0000   1.0000   1.0000   1.0000   1.0000
     1.0000   1.0000

          k = 0.1250 0.0722 0.0742 (  3872 PWs)   bands (ev):

  -114.3575-114.3574 -68.7226 -68.7223 -68.7222 -68.7219 -68.7013 -68.6988
    -9.1439  -8.5235   2.8316   2.8611   3.0467   3.1394   3.3387   3.4074
     4.1784   4.2145   4.4058   4.4102   4.7489   7.3891   7.7634   7.8329
     8.5008   8.6685

     occupation numbers 
     1.0000   1.0000   1.0000   1.0000   1.0000   1.0000   1.0000   1.0000
     1.0000   1.0000   1.0000   1.0000   1.0000   1.0000   1.0000   1.0000
     1.0000   1.0000   1.0000   1.0000   1.0000   1.0000   1.0000   1.0000
     1.0000   1.0000

          k = 0.1250 0.0722 0.1484 (  3863 PWs)   bands (ev):

  -114.3575-114.3574 -68.7226 -68.7223 -68.7222 -68.7219 -68.7010 -68.6991
    -9.0746  -8.5999   2.7217   2.7557   3.0893   3.1632   3.3053   3.3669
     4.2129   4.2407   4.3877   4.3924   5.1901   7.3755   7.5892   7.8724
     8.3399   8.5644

     occupation numbers 
     1.0000   1.0000   1.0000   1.0000   1.0000   1.0000   1.0000   1.0000
     1.0000   1.0000   1.0000   1.0000   1.0000   1.0000   1.0000   1.0000
     1.0000   1.0000   1.0000   1.0000   1.0000   1.0000   1.0000   1.0000
     1.0000   1.0000

          k = 0.1250 0.0722 0.2226 (  3855 PWs)   bands (ev):

  -114.3575-114.3574 -68.7225 -68.7223 -68.7222 -68.7220 -68.7006 -68.6995
    -8.9691  -8.7123   2.6362   2.6690   3.1401   3.2021   3.2537   3.3116
     4.2604   4.2782   4.3579   4.3580   5.7582   6.9272   7.7073   8.0337
     8.1326   8.4079

     occupation numbers 
     1.0000   1.0000   1.0000   1.0000   1.0000   1.0000   1.0000   1.0000
     1.0000   1.0000   1.0000   1.0000   1.0000   1.0000   1.0000   1.0000
     1.0000   1.0000   1.0000   1.0000   1.0000   1.0000   1.0000   1.0000
     1.0000   1.0000

          k = 0.1250 0.0722-0.2967 (  3858 PWs)   bands (ev):

  -114.3575-114.3574 -68.7224 -68.7223 -68.7221 -68.7220 -68.7001 -68.7000
    -8.8425  -8.8419   2.6209   2.6210   3.1960   3.1960   3.2535   3.2536
     4.3116   4.3117   4.3197   4.3197   6.3586   6.3587   7.9108   7.9111
     8.2215   8.2220

     occupation numbers 
     1.0000   1.0000   1.0000   1.0000   1.0000   1.0000   1.0000   1.0000
     1.0000   1.0000   1.0000   1.0000   1.0000   1.0000   1.0000   1.0000
     1.0000   1.0000   1.0000   1.0000   1.0000   1.0000   1.0000   1.0000
     1.0000   1.0000

          k = 0.1250 0.0722-0.2226 (  3855 PWs)   bands (ev):

  -114.3575-114.3574 -68.7225 -68.7223 -68.7222 -68.7220 -68.7006 -68.6995
    -8.9691  -8.7123   2.6363   2.6689   3.1401   3.2021   3.2537   3.3116
     4.2604   4.2782   4.3579   4.3580   5.7582   6.9272   7.7074   8.0337
     8.1326   8.4079

     occupation numbers 
     1.0000   1.0000   1.0000   1.0000   1.0000   1.0000   1.0000   1.0000
     1.0000   1.0000   1.0000   1.0000   1.0000   1.0000   1.0000   1.0000
     1.0000   1.0000   1.0000   1.0000   1.0000   1.0000   1.0000   1.0000
     1.0000   1.0000

          k = 0.1250 0.0722-0.1484 (  3863 PWs)   bands (ev):

  -114.3575-114.3574 -68.7226 -68.7223 -68.7222 -68.7219 -68.7010 -68.6991
    -9.0746  -8.5999   2.7218   2.7556   3.0893   3.1632   3.3053   3.3669
     4.2129   4.2407   4.3877   4.3924   5.1901   7.3755   7.5893   7.8724
     8.3399   8.5644

     occupation numbers 
     1.0000   1.0000   1.0000   1.0000   1.0000   1.0000   1.0000   1.0000
     1.0000   1.0000   1.0000   1.0000   1.0000   1.0000   1.0000   1.0000
     1.0000   1.0000   1.0000   1.0000   1.0000   1.0000   1.0000   1.0000
     1.0000   1.0000

          k = 0.1250 0.0722-0.0742 (  3872 PWs)   bands (ev):

  -114.3575-114.3574 -68.7226 -68.7223 -68.7222 -68.7219 -68.7013 -68.6988
    -9.1439  -8.5235   2.8317   2.8609   3.0468   3.1394   3.3387   3.4074
     4.1784   4.2145   4.4058   4.4103   4.7489   7.3891   7.7634   7.8329
     8.5008   8.6685

     occupation numbers 
     1.0000   1.0000   1.0000   1.0000   1.0000   1.0000   1.0000   1.0000
     1.0000   1.0000   1.0000   1.0000   1.0000   1.0000   1.0000   1.0000
     1.0000   1.0000   1.0000   1.0000   1.0000   1.0000   1.0000   1.0000
     1.0000   1.0000

          k = 0.1250 0.2165 0.0000 (  3841 PWs)   bands (ev):

  -114.3575-114.3573 -68.7232 -68.7229 -68.7225 -68.7220 -68.7012 -68.6988
    -9.0021  -8.4224   2.8872   2.9824   3.0164   3.2836   3.4314   3.5383
     4.1162   4.2055   4.4037   4.4175   4.6386   6.6902   6.9779   7.5716
     8.3609   8.4817

     occupation numbers 
     1.0000   1.0000   1.0000   1.0000   1.0000   1.0000   1.0000   1.0000
     1.0000   1.0000   1.0000   1.0000   1.0000   1.0000   1.0000   1.0000
     1.0000   1.0000   1.0000   1.0000   1.0000   1.0000   1.0000   1.0000
     1.0000   1.0000

          k = 0.1250 0.2165 0.0742 (  3857 PWs)   bands (ev):

  -114.3575-114.3573 -68.7232 -68.7229 -68.7225 -68.7221 -68.7011 -68.6989
    -8.9808  -8.4452   2.8260   2.9603   3.0294   3.2446   3.4051   3.5206
     4.1322   4.2262   4.4106   4.4258   4.8071   6.7383   6.9682   7.5508
     8.3035   8.4374

     occupation numbers 
     1.0000   1.0000   1.0000   1.0000   1.0000   1.0000   1.0000   1.0000
     1.0000   1.0000   1.0000   1.0000   1.0000   1.0000   1.0000   1.0000
     1.0000   1.0000   1.0000   1.0000   1.0000   1.0000   1.0000   1.0000
     1.0000   1.0000

          k = 0.1250 0.2165 0.1484 (  3869 PWs)   bands (ev):

  -114.3575-114.3574 -68.7232 -68.7229 -68.7225 -68.7221 -68.7008 -68.6992
    -8.9198  -8.5098   2.7320   2.8117   3.0938   3.2275   3.3599   3.4727
     4.1759   4.2557   4.3911   4.4113   5.2560   6.8779   6.8818   7.5667
     8.1172   8.3115

     occupation numbers 
     1.0000   1.0000   1.0000   1.0000   1.0000   1.0000   1.0000   1.0000
     1.0000   1.0000   1.0000   1.0000   1.0000   1.0000   1.0000   1.0000
     1.0000   1.0000   1.0000   1.0000   1.0000   1.0000   1.0000   1.0000
     1.0000   1.0000

          k = 0.1250 0.2165 0.2226 (  3870 PWs)   bands (ev):

  -114.3575-114.3574 -68.7231 -68.7230 -68.7224 -68.7222 -68.7004 -68.6996
    -8.8276  -8.6057   2.6564   2.6831   3.1552   3.2432   3.3197   3.4081
     4.2369   4.2891   4.3618   4.3657   5.7865   6.6399   7.1188   7.6854
     7.8217   8.1250

     occupation numbers 
     1.0000   1.0000   1.0000   1.0000   1.0000   1.0000   1.0000   1.0000
     1.0000   1.0000   1.0000   1.0000   1.0000   1.0000   1.0000   1.0000
     1.0000   1.0000   1.0000   1.0000   1.0000   1.0000   1.0000   1.0000
     1.0000   1.0000

          k = 0.1250 0.2165-0.2967 (  3870 PWs)   bands (ev):

  -114.3575-114.3574 -68.7231 -68.7230 -68.7224 -68.7223 -68.7000 -68.6999
    -8.7177  -8.7171   2.6320   2.6320   3.2131   3.2132   3.3446   3.3447
     4.3027   4.3027   4.3273   4.3274   6.2687   6.2688   7.4392   7.4394
     7.9105   7.9109

     occupation numbers 
     1.0000   1.0000   1.0000   1.0000   1.0000   1.0000   1.0000   1.0000
     1.0000   1.0000   1.0000   1.0000   1.0000   1.0000   1.0000   1.0000
     1.0000   1.0000   1.0000   1.0000   1.0000   1.0000   1.0000   1.0000
     1.0000   1.0000

          k = 0.1250 0.2165-0.2226 (  3870 PWs)   bands (ev):

  -114.3575-114.3574 -68.7231 -68.7230 -68.7224 -68.7222 -68.7004 -68.6996
    -8.8276  -8.6057   2.6564   2.6831   3.1552   3.2432   3.3197   3.4081
     4.2369   4.2891   4.3618   4.3657   5.7865   6.6399   7.1188   7.6854
     7.8217   8.1250

     occupation numbers 
     1.0000   1.0000   1.0000   1.0000   1.0000   1.0000   1.0000   1.0000
     1.0000   1.0000   1.0000   1.0000   1.0000   1.0000   1.0000   1.0000
     1.0000   1.0000   1.0000   1.0000   1.0000   1.0000   1.0000   1.0000
     1.0000   1.0000

          k = 0.1250 0.2165-0.1484 (  3869 PWs)   bands (ev):

  -114.3575-114.3574 -68.7232 -68.7229 -68.7225 -68.7221 -68.7008 -68.6992
    -8.9198  -8.5098   2.7320   2.8117   3.0938   3.2275   3.3599   3.4727
     4.1759   4.2557   4.3911   4.4113   5.2560   6.8779   6.8818   7.5667
     8.1172   8.3115

     occupation numbers 
     1.0000   1.0000   1.0000   1.0000   1.0000   1.0000   1.0000   1.0000
     1.0000   1.0000   1.0000   1.0000   1.0000   1.0000   1.0000   1.0000
     1.0000   1.0000   1.0000   1.0000   1.0000   1.0000   1.0000   1.0000
     1.0000   1.0000

          k = 0.1250 0.2165-0.0742 (  3857 PWs)   bands (ev):

  -114.3575-114.3573 -68.7232 -68.7229 -68.7225 -68.7221 -68.7011 -68.6989
    -8.9808  -8.4452   2.8260   2.9603   3.0294   3.2446   3.4051   3.5206
     4.1322   4.2262   4.4106   4.4258   4.8071   6.7383   6.9682   7.5508
     8.3035   8.4374

     occupation numbers 
     1.0000   1.0000   1.0000   1.0000   1.0000   1.0000   1.0000   1.0000
     1.0000   1.0000   1.0000   1.0000   1.0000   1.0000   1.0000   1.0000
     1.0000   1.0000   1.0000   1.0000   1.0000   1.0000   1.0000   1.0000
     1.0000   1.0000

          k = 0.1250 0.3608 0.0000 (  3858 PWs)   bands (ev):

  -114.3574-114.3573 -68.7240 -68.7238 -68.7229 -68.7224 -68.7007 -68.6991
    -8.7429  -8.3302   2.7876   3.0174   3.1294   3.3962   3.6439   3.7458
     4.1151   4.2018   4.4369   4.5336   4.8148   5.7181   6.3889   6.8410
     7.9198   8.1491

     occupation numbers 
     1.0000   1.0000   1.0000   1.0000   1.0000   1.0000   1.0000   1.0000
     1.0000   1.0000   1.0000   1.0000   1.0000   1.0000   1.0000   1.0000
     1.0000   1.0000   1.0000   1.0000   1.0000   1.0000   1.0000   1.0000
     1.0000   1.0000

          k = 0.1250 0.3608 0.0742 (  3858 PWs)   bands (ev):

  -114.3574-114.3573 -68.7240 -68.7238 -68.7229 -68.7224 -68.7007 -68.6991
    -8.7271  -8.3456   2.7566   2.9746   3.1585   3.3561   3.5789   3.7017
     4.1139   4.2703   4.4319   4.5267   4.9583   5.7936   6.3961   6.8494
     7.9129   8.0943

     occupation numbers 
     1.0000   1.0000   1.0000   1.0000   1.0000   1.0000   1.0000   1.0000
     1.0000   1.0000   1.0000   1.0000   1.0000   1.0000   1.0000   1.0000
     1.0000   1.0000   1.0000   1.0000   1.0000   1.0000   1.0000   1.0000
     1.0000   1.0000

          k = 0.1250 0.3608 0.1484 (  3858 PWs)   bands (ev):

  -114.3574-114.3573 -68.7240 -68.7238 -68.7228 -68.7225 -68.7005 -68.6993
    -8.6819  -8.3898   2.6897   2.8549   3.2108   3.2985   3.4986   3.6266
     4.1579   4.3203   4.4192   4.4834   5.2728   5.9694   6.4308   6.9412
[...]
    -8.4777  -8.3107   2.8810   2.8876   3.2535   3.3461   3.6963   3.7199
     4.1658   4.3342   4.5187   4.7042   5.0268   5.6418   6.1199   6.4254
     7.4078   7.5634

     occupation numbers 
     1.0000   1.0000   1.0000   1.0000   1.0000   1.0000   1.0000   1.0000
     1.0000   1.0000   1.0000   1.0000   1.0000   1.0000   1.0000   1.0000
     1.0000   1.0000   1.0000   1.0000   1.0000   1.0000   1.0000   1.0000
     1.0000   1.0000

          k =-0.5002-0.0000 0.2226 (  3846 PWs)   bands (ev):

  -114.3396-114.3396 -68.7065 -68.7065 -68.7055 -68.7054 -68.6823 -68.6819
    -8.4373  -8.3468   2.7962   2.8182   3.2245   3.3395   3.6341   3.6648
     4.2388   4.3425   4.5371   4.6285   5.2037   5.5385   6.3667   6.7889
     7.1801   7.5217

     occupation numbers 
     1.0000   1.0000   1.0000   1.0000   1.0000   1.0000   1.0000   1.0000
     1.0000   1.0000   1.0000   1.0000   1.0000   1.0000   1.0000   1.0000
     1.0000   1.0000   1.0000   1.0000   1.0000   1.0000   1.0000   1.0000
     1.0000   1.0000

          k =-0.5002 0.0000-0.2969 (  3840 PWs)   bands (ev):

  -114.3396-114.3396 -68.7065 -68.7065 -68.7055 -68.7054 -68.6821 -68.6821
    -8.3913  -8.3912   2.7721   2.7721   3.2784   3.2784   3.6305   3.6305
     4.3053   4.3053   4.5714   4.5714   5.3797   5.3797   6.6795   6.6795
     7.3224   7.3224

     occupation numbers 
     1.0000   1.0000   1.0000   1.0000   1.0000   1.0000   1.0000   1.0000
     1.0000   1.0000   1.0000   1.0000   1.0000   1.0000   1.0000   1.0000
     1.0000   1.0000   1.0000   1.0000   1.0000   1.0000   1.0000   1.0000
     1.0000   1.0000

          k =-0.5002 0.0000-0.2226 (  3846 PWs)   bands (ev):

  -114.3396-114.3396 -68.7065 -68.7065 -68.7055 -68.7054 -68.6823 -68.6819
    -8.4373  -8.3468   2.7962   2.8182   3.2245   3.3395   3.6341   3.6648
     4.2388   4.3425   4.5371   4.6285   5.2037   5.5385   6.3667   6.7889
     7.1801   7.5217

     occupation numbers 
     1.0000   1.0000   1.0000   1.0000   1.0000   1.0000   1.0000   1.0000
     1.0000   1.0000   1.0000   1.0000   1.0000   1.0000   1.0000   1.0000
     1.0000   1.0000   1.0000   1.0000   1.0000   1.0000   1.0000   1.0000
     1.0000   1.0000

          k =-0.5002 0.0000-0.1484 (  3847 PWs)   bands (ev):

  -114.3396-114.3396 -68.7065 -68.7065 -68.7056 -68.7053 -68.6825 -68.6818
    -8.4777  -8.3107   2.8810   2.8876   3.2535   3.3461   3.6963   3.7199
     4.1658   4.3342   4.5187   4.7042   5.0268   5.6418   6.1199   6.4254
     7.4078   7.5635

     occupation numbers 
     1.0000   1.0000   1.0000   1.0000   1.0000   1.0000   1.0000   1.0000
     1.0000   1.0000   1.0000   1.0000   1.0000   1.0000   1.0000   1.0000
     1.0000   1.0000   1.0000   1.0000   1.0000   1.0000   1.0000   1.0000
     1.0000   1.0000

          k =-0.5002 0.0000-0.0742 (  3841 PWs)   bands (ev):

  -114.3396-114.3396 -68.7065 -68.7065 -68.7056 -68.7052 -68.6826 -68.6817
    -8.5052  -8.2873   2.8985   3.0137   3.2949   3.3751   3.7740   3.8064
     4.1126   4.2612   4.5103   4.7684   4.8916   5.6161   6.0533   6.0785
     7.5059   7.6030

     occupation numbers 
     1.0000   1.0000   1.0000   1.0000   1.0000   1.0000   1.0000   1.0000
     1.0000   1.0000   1.0000   1.0000   1.0000   1.0000   1.0000   1.0000
     1.0000   1.0000   1.0000   1.0000   1.0000   1.0000   1.0000   1.0000
     1.0000   1.0000

          k =-0.5002 0.1444 0.0000 (  3841 PWs)   bands (ev):

  -114.3396-114.3396 -68.7069 -68.7066 -68.7054 -68.7048 -68.6826 -68.6817
    -8.5092  -8.2820   2.8055   3.0852   3.2218   3.4967   3.5661   3.9177
     4.1693   4.3308   4.4984   4.6797   4.9282   5.4126   5.9987   6.3222
     7.3452   7.9352

     occupation numbers 
     1.0000   1.0000   1.0000   1.0000   1.0000   1.0000   1.0000   1.0000
     1.0000   1.0000   1.0000   1.0000   1.0000   1.0000   1.0000   1.0000
     1.0000   1.0000   1.0000   1.0000   1.0000   1.0000   1.0000   1.0000
     1.0000   1.0000

          k =-0.5002 0.1444 0.0742 (  3838 PWs)   bands (ev):

  -114.3396-114.3396 -68.7069 -68.7066 -68.7054 -68.7049 -68.6826 -68.6817
    -8.4997  -8.2897   2.7828   3.0211   3.2266   3.4690   3.5790   3.8760
     4.1986   4.3437   4.4985   4.6741   4.9159   5.4734   6.0429   6.4070
     7.3920   7.8747

     occupation numbers 
     1.0000   1.0000   1.0000   1.0000   1.0000   1.0000   1.0000   1.0000
     1.0000   1.0000   1.0000   1.0000   1.0000   1.0000   1.0000   1.0000
     1.0000   1.0000   1.0000   1.0000   1.0000   1.0000   1.0000   1.0000
     1.0000   1.0000

          k =-0.5002 0.1444 0.1484 (  3838 PWs)   bands (ev):

  -114.3396-114.3396 -68.7069 -68.7066 -68.7054 -68.7050 -68.6825 -68.6818
    -8.4730  -8.3121   2.7254   2.8793   3.2399   3.4632   3.5691   3.7795
     4.2568   4.3653   4.5031   4.6424   4.9521   5.4640   6.2790   6.6421
     7.4491   7.7157

     occupation numbers 
     1.0000   1.0000   1.0000   1.0000   1.0000   1.0000   1.0000   1.0000
     1.0000   1.0000   1.0000   1.0000   1.0000   1.0000   1.0000   1.0000
     1.0000   1.0000   1.0000   1.0000   1.0000   1.0000   1.0000   1.0000
     1.0000   1.0000

          k =-0.5002 0.1444 0.2226 (  3845 PWs)   bands (ev):

  -114.3396-114.3396 -68.7068 -68.7067 -68.7053 -68.7051 -68.6823 -68.6819
    -8.4340  -8.3468   2.6727   2.7435   3.2905   3.4433   3.5643   3.6789
     4.3118   4.3708   4.5195   4.5944   5.0566   5.3434   6.6405   6.9694
     7.3318   7.5458

     occupation numbers 
     1.0000   1.0000   1.0000   1.0000   1.0000   1.0000   1.0000   1.0000
     1.0000   1.0000   1.0000   1.0000   1.0000   1.0000   1.0000   1.0000
     1.0000   1.0000   1.0000   1.0000   1.0000   1.0000   1.0000   1.0000
     1.0000   1.0000

          k =-0.5002 0.1444-0.2969 (  3832 PWs)   bands (ev):

  -114.3396-114.3396 -68.7068 -68.7068 -68.7052 -68.7052 -68.6821 -68.6821
    -8.3896  -8.3895   2.6709   2.6709   3.3700   3.3700   3.6049   3.6050
     4.3519   4.3519   4.5507   4.5507   5.1957   5.1957   6.9929   6.9930
     7.3326   7.3326

     occupation numbers 
     1.0000   1.0000   1.0000   1.0000   1.0000   1.0000   1.0000   1.0000
     1.0000   1.0000   1.0000   1.0000   1.0000   1.0000   1.0000   1.0000
     1.0000   1.0000   1.0000   1.0000   1.0000   1.0000   1.0000   1.0000
     1.0000   1.0000

          k =-0.5002 0.1444-0.2226 (  3845 PWs)   bands (ev):

  -114.3396-114.3396 -68.7068 -68.7067 -68.7053 -68.7051 -68.6823 -68.6819
    -8.4340  -8.3468   2.6727   2.7435   3.2905   3.4433   3.5643   3.6789
     4.3118   4.3708   4.5195   4.5944   5.0566   5.3434   6.6405   6.9694
     7.3318   7.5458

     occupation numbers 
     1.0000   1.0000   1.0000   1.0000   1.0000   1.0000   1.0000   1.0000
     1.0000   1.0000   1.0000   1.0000   1.0000   1.0000   1.0000   1.0000
     1.0000   1.0000   1.0000   1.0000   1.0000   1.0000   1.0000   1.0000
     1.0000   1.0000

          k =-0.5002 0.1444-0.1484 (  3838 PWs)   bands (ev):

  -114.3396-114.3396 -68.7069 -68.7066 -68.7054 -68.7050 -68.6825 -68.6818
    -8.4730  -8.3121   2.7254   2.8793   3.2399   3.4632   3.5691   3.7795
     4.2568   4.3653   4.5031   4.6424   4.9521   5.4640   6.2790   6.6421
     7.4491   7.7157

     occupation numbers 
     1.0000   1.0000   1.0000   1.0000   1.0000   1.0000   1.0000   1.0000
     1.0000   1.0000   1.0000   1.0000   1.0000   1.0000   1.0000   1.0000
     1.0000   1.0000   1.0000   1.0000   1.0000   1.0000   1.0000   1.0000
     1.0000   1.0000

          k =-0.5002 0.1444-0.0742 (  3838 PWs)   bands (ev):

  -114.3396-114.3396 -68.7069 -68.7066 -68.7054 -68.7049 -68.6826 -68.6817
    -8.4997  -8.2897   2.7828   3.0211   3.2266   3.4690   3.5790   3.8760
     4.1986   4.3437   4.4985   4.6741   4.9159   5.4734   6.0429   6.4070
     7.3920   7.8747

     occupation numbers 
     1.0000   1.0000   1.0000   1.0000   1.0000   1.0000   1.0000   1.0000
     1.0000   1.0000   1.0000   1.0000   1.0000   1.0000   1.0000   1.0000
     1.0000   1.0000   1.0000   1.0000   1.0000   1.0000   1.0000   1.0000
     1.0000   1.0000

          k =-0.5002-0.8664 0.0000 (  3854 PWs)   bands (ev):

  -114.3396-114.3396 -68.7071 -68.7068 -68.7053 -68.7046 -68.6826 -68.6817
    -8.5033  -8.2849   2.7661   2.9647   3.2458   3.3718   3.6748   3.9264
     4.1809   4.4294   4.4765   4.5760   4.9430   5.4863   5.8663   6.5696
     7.3088   8.1450

     occupation numbers 
     1.0000   1.0000   1.0000   1.0000   1.0000   1.0000   1.0000   1.0000
     1.0000   1.0000   1.0000   1.0000   1.0000   1.0000   1.0000   1.0000
     1.0000   1.0000   1.0000   1.0000   1.0000   1.0000   1.0000   1.0000
     1.0000   1.0000

          k =-0.5002-0.8664 0.0742 (  3836 PWs)   bands (ev):

  -114.3396-114.3396 -68.7071 -68.7068 -68.7053 -68.7046 -68.6826 -68.6817
    -8.4941  -8.2923   2.7351   2.9033   3.2651   3.3825   3.6485   3.8908
     4.2257   4.4300   4.4707   4.5745   4.9363   5.4328   6.0146   6.6405
     7.3634   8.0898

     occupation numbers 
     1.0000   1.0000   1.0000   1.0000   1.0000   1.0000   1.0000   1.0000
     1.0000   1.0000   1.0000   1.0000   1.0000   1.0000   1.0000   1.0000
     1.0000   1.0000   1.0000   1.0000   1.0000   1.0000   1.0000   1.0000
     1.0000   1.0000

          k =-0.5002-0.8664 0.1484 (  3846 PWs)   bands (ev):

  -114.3396-114.3396 -68.7071 -68.7068 -68.7052 -68.7047 -68.6824 -68.6818
    -8.4683  -8.3136   2.6646   2.7692   3.3220   3.4088   3.5938   3.7951
     4.3227   4.4318   4.4588   4.5670   4.9384   5.3077   6.3815   6.8335
     7.4510   7.9319

     occupation numbers 
     1.0000   1.0000   1.0000   1.0000   1.0000   1.0000   1.0000   1.0000
     1.0000   1.0000   1.0000   1.0000   1.0000   1.0000   1.0000   1.0000
     1.0000   1.0000   1.0000   1.0000   1.0000   1.0000   1.0000   1.0000
     1.0000   1.0000

          k =-0.5002-0.8664 0.2226 (  3836 PWs)   bands (ev):

  -114.3396-114.3396 -68.7070 -68.7069 -68.7051 -68.7048 -68.6823 -68.6819
    -8.4306  -8.3468   2.6016   2.6475   3.4133   3.4437   3.5366   3.6662
     4.4230   4.4351   4.4480   4.5457   4.9735   5.1683   6.8242   7.1039
     7.4269   7.6931

     occupation numbers 
     1.0000   1.0000   1.0000   1.0000   1.0000   1.0000   1.0000   1.0000
     1.0000   1.0000   1.0000   1.0000   1.0000   1.0000   1.0000   1.0000
     1.0000   1.0000   1.0000   1.0000   1.0000   1.0000   1.0000   1.0000
     1.0000   1.0000

          k =-0.5002-0.8664-0.2969 (  3828 PWs)   bands (ev):

  -114.3396-114.3396 -68.7070 -68.7070 -68.7049 -68.7049 -68.6821 -68.6821
    -8.3879  -8.3878   2.5886   2.5886   3.4860   3.4860   3.5321   3.5321
     4.4403   4.4403   4.5000   4.5000   5.0510   5.0510   7.2079   7.2080
     7.4046   7.4046

     occupation numbers 
     1.0000   1.0000   1.0000   1.0000   1.0000   1.0000   1.0000   1.0000
     1.0000   1.0000   1.0000   1.0000   1.0000   1.0000   1.0000   1.0000
     1.0000   1.0000   1.0000   1.0000   1.0000   1.0000   1.0000   1.0000
     1.0000   1.0000

     highest occupied level (ev):     8.8111

!    total energy              =    -987.07747768 Ry
     Harris-Foulkes estimate   =    -987.07747768 Ry
     estimated scf accuracy    <          2.7E-09 Ry

     The total energy is the sum of the following terms:

     one-electron contribution =    -802.31922654 Ry
     hartree contribution      =     422.57379226 Ry
     xc contribution           =     -98.07192045 Ry
     ewald contribution        =    -509.26012295 Ry

     convergence has been achieved in   8 iterations

     Forces acting on atoms (cartesian axes, Ry/au):

     atom    1 type  2   force =    -0.00000062   -0.00000104   -0.01558835
     atom    2 type  2   force =    -0.00000031   -0.00000149   -0.01558600
     atom    3 type  1   force =     0.00000072    0.00000066    0.01560331
     atom    4 type  1   force =     0.00000021    0.00000186    0.01557104
     The non-local contrib.  to forces
     atom    1 type  2   force =     0.00000110   -0.00000229   -0.00139918
     atom    2 type  2   force =     0.00000057    0.00000191   -0.00139924
     atom    3 type  1   force =     0.00000136    0.00000158   -0.00060221
     atom    4 type  1   force =     0.00000300    0.00000087   -0.00061607
     The ionic contribution  to forces
     atom    1 type  2   force =    -0.00001698    0.00002351    0.21201888
     atom    2 type  2   force =    -0.00000902   -0.00002382    0.21202778
     atom    3 type  1   force =     0.00000985   -0.00000043   -0.21202241
     atom    4 type  1   force =     0.00001616    0.00000074   -0.21202425
     The local contribution  to forces
     atom    1 type  2   force =     0.00001527   -0.00002224   -0.22627523
     atom    2 type  2   force =     0.00000817    0.00002045   -0.22628929
     atom    3 type  1   force =    -0.00001043   -0.00000047    0.22825414
     atom    4 type  1   force =    -0.00001898    0.00000020    0.22830954
     The core correction contribution to forces
     atom    1 type  2   force =    -0.00000001    0.00000001    0.00004700
     atom    2 type  2   force =    -0.00000000   -0.00000002    0.00004700
     atom    3 type  1   force =     0.00000000    0.00000000    0.00000000
     atom    4 type  1   force =     0.00000000    0.00000000    0.00000000
     The Hubbard contrib.    to forces
     atom    1 type  2   force =     0.00000000    0.00000000    0.00000000
     atom    2 type  2   force =     0.00000000    0.00000000    0.00000000
     atom    3 type  1   force =     0.00000000    0.00000000    0.00000000
     atom    4 type  1   force =     0.00000000    0.00000000    0.00000000
     The SCF correction term to forces
     atom    1 type  2   force =     0.00000000    0.00000000    0.00000000
     atom    2 type  2   force =     0.00000000    0.00000000    0.00000000
     atom    3 type  1   force =     0.00000000    0.00000000    0.00000000
     atom    4 type  1   force =     0.00000000    0.00000000    0.00000000

     Total force =     0.000000     Total SCF correction =     0.000000


     Computing stress (Cartesian axis) and pressure

          total   stress  (Ry/bohr**3)                   (kbar)     P=    0.13
   0.00000097  -0.00000000  -0.00000000          0.14     -0.00     -0.00
  -0.00000000   0.00000096  -0.00000000         -0.00      0.14     -0.00
  -0.00000000  -0.00000000   0.00000080         -0.00     -0.00      0.12

     kinetic stress (kbar)  33996.08     -0.00      0.00
                               -0.00  33996.08     -0.00
                                0.00     -0.00  33817.50

     local   stress (kbar)  -1396.45     -0.03      0.04
                               -0.03  -1396.57     -0.09
                                0.04     -0.09 -10656.09

     nonloc. stress (kbar)  -1705.27      0.00      0.00
                                0.00  -1705.27      0.00
                                0.00      0.00  -1633.94

     hartree stress (kbar)  63870.41      0.01     -0.01
                                0.01  63870.46      0.04
                               -0.01      0.04  67501.21

     exc-cor stress (kbar) -14173.22      0.00     -0.00
                                0.00 -14173.22      0.00
                               -0.00      0.00 -14169.13

     corecor stress (kbar)   -249.59      0.00      0.00
                                0.00   -249.59      0.00
                                0.00      0.00   -249.18

     ewald   stress (kbar) -80341.82      0.02     -0.02
                                0.02 -80341.75      0.06
                               -0.02      0.06 -74610.25

     hubbard stress (kbar)      0.00      0.00      0.00
                                0.00      0.00      0.00
                                0.00      0.00      0.00

     london  stress (kbar)      0.00      0.00      0.00
                                0.00      0.00      0.00
                                0.00      0.00      0.00

     DFT-D3  stress (kbar)      0.00      0.00      0.00
                                0.00      0.00      0.00
                                0.00      0.00      0.00

     XDM     stress (kbar)      0.00      0.00      0.00
                                0.00      0.00      0.00
                                0.00      0.00      0.00

     dft-nl  stress (kbar)      0.00      0.00      0.00
                                0.00      0.00      0.00
                                0.00      0.00      0.00

     TS-vdW  stress (kbar)      0.00      0.00      0.00
                                0.00      0.00      0.00
                                0.00      0.00      0.00



     Writing output data file ZnO.save/
 
     init_run     :      1.18s CPU      2.40s WALL (       2 calls)
     electrons    :    128.37s CPU    136.91s WALL (      13 calls)
     update_pot   :      1.35s CPU      1.37s WALL (      11 calls)
     forces       :      1.98s CPU      2.18s WALL (      13 calls)
     stress       :      3.59s CPU      3.70s WALL (      13 calls)

     Called by init_run:
     wfcinit      :      0.84s CPU      1.65s WALL (       2 calls)
     wfcinit:atom :      0.01s CPU      0.01s WALL (     130 calls)
     wfcinit:wfcr :      0.80s CPU      1.59s WALL (     130 calls)
     potinit      :      0.11s CPU      0.15s WALL (       2 calls)
     hinit0       :      0.19s CPU      0.34s WALL (       2 calls)

     Called by electrons:
     c_bands      :    108.53s CPU    116.11s WALL (     131 calls)
     sum_band     :     15.53s CPU     16.04s WALL (     131 calls)
     v_of_rho     :      3.61s CPU      3.65s WALL (     141 calls)
     v_h          :      0.05s CPU      0.05s WALL (     141 calls)
     v_xc         :      4.23s CPU      4.29s WALL (     167 calls)
     newd         :      0.60s CPU      0.62s WALL (     141 calls)
     mix_rho      :      0.14s CPU      0.19s WALL (     131 calls)

     Called by c_bands:
     init_us_2    :      1.33s CPU      1.41s WALL (   18850 calls)
     cegterg      :    101.80s CPU    106.09s WALL (    8515 calls)

     Called by sum_band:
     sum_band:bec :      0.09s CPU      0.10s WALL (    8515 calls)
     addusdens    :      0.58s CPU      0.60s WALL (     131 calls)

     Called by *egterg:
     h_psi        :     59.74s CPU     61.81s WALL (   24743 calls)
     s_psi        :      2.03s CPU      2.10s WALL (   24743 calls)
     g_psi        :      0.14s CPU      0.14s WALL (   16098 calls)
     cdiaghg      :     25.57s CPU     27.01s WALL (   23703 calls)
     cegterg:over :      6.38s CPU      7.31s WALL (   16098 calls)
     cegterg:upda :      3.64s CPU      3.70s WALL (   16098 calls)
     cegterg:last :      2.36s CPU      2.39s WALL (    8580 calls)
     cdiaghg:chol :      1.21s CPU      1.50s WALL (   23703 calls)
     cdiaghg:inve :      0.41s CPU      0.47s WALL (   23703 calls)
     cdiaghg:para :      2.65s CPU      2.86s WALL (   47406 calls)

     Called by h_psi:
     h_psi:pot    :     59.56s CPU     61.62s WALL (   24743 calls)
     h_psi:calbec :      3.53s CPU      3.66s WALL (   24743 calls)
     vloc_psi     :     53.86s CPU     55.72s WALL (   24743 calls)
     add_vuspsi   :      2.09s CPU      2.17s WALL (   24743 calls)

     General routines
     calbec       :      5.56s CPU      5.75s WALL (   37483 calls)
     fft          :      0.69s CPU      0.76s WALL (    2146 calls)
     ffts         :      0.04s CPU      0.04s WALL (     272 calls)
     fftw         :     62.38s CPU     64.49s WALL ( 1309478 calls)
     interpolate  :      0.06s CPU      0.06s WALL (     141 calls)
 
     Parallel routines
     fft_scatt_xy :      8.77s CPU      9.06s WALL ( 1311896 calls)
     fft_scatt_yz :     32.68s CPU     33.81s WALL ( 1311896 calls)
 
     PWSCF        :   2m17.23s CPU   2m29.50s WALL

 
   This run was terminated on:  14:36:59  16Jun2022            

=------------------------------------------------------------------------------=
   JOB DONE.
=------------------------------------------------------------------------------=
