
     Program PWSCF v.6.4.1 starts on 15Jun2022 at 20:48:23 

     This program is part of the open-source Quantum ESPRESSO suite
     for quantum simulation of materials; please cite
         "P. Giannozzi et al., J. Phys.:Condens. Matter 21 395502 (2009);
         "P. Giannozzi et al., J. Phys.:Condens. Matter 29 465901 (2017);
          URL http://www.quantum-espresso.org", 
     in publications or presentations arising from this work. More details at
     http://www.quantum-espresso.org/quote

     Parallel version (MPI), running on    64 processors

     MPI processes distributed on     1 nodes
     K-points division:     npool     =       4
     R & G space division:  proc/nbgrp/npool/nimage =      16
     Waiting for input...
     Reading input from standard input
Warning: card &IONS ignored
Warning: card   UPSCALE           = 100.D0, ignored
Warning: card / ignored
Warning: card &CELL ignored
Warning: card   CELL_DYNAMICS     = 'BFGS' ignored
Warning: card   PRESS_CONV_THR    = 0.5D0 ignored
Warning: card   CELL_DOFREE = 'ALL' ignored
Warning: card / ignored

     Current dimensions of program PWSCF are:
     Max number of different atomic species (ntypx) = 10
     Max number of k-points (npk) =  40000
     Max angular momentum in pseudopotentials (lmaxx) =  3

     Subspace diagonalization in iterative solution of the eigenvalue problem:
     one sub-group per band group will be used
     scalapack distributed-memory algorithm (size of sub-group:  2*  2 procs)

--------------------------------------------------------------------------------
NOTICE: Bravais lattice has wrong number ( 5) of symmetries - symmetries are disabled
--------------------------------------------------------------------------------
 
     Parallelization info
     --------------------
     sticks:   dense  smooth     PW     G-vecs:    dense   smooth      PW
     Min          94      51     15                 4944     1929     331
     Max          95      52     16                 4953     1934     338
     Sum        1519     817    253                79199    30885    5383
 


     bravais-lattice index     =            0
     lattice parameter (alat)  =       6.0768  a.u.
     unit-cell volume          =     318.9104 (a.u.)^3
     number of atoms/cell      =            4
     number of atomic types    =            2
     number of electrons       =        52.00
     number of Kohn-Sham states=           26
     kinetic-energy cutoff     =      80.0000  Ry
     charge density cutoff     =     600.0000  Ry
     convergence threshold     =      1.0E-06
     mixing beta               =       0.5000
     number of iterations used =            8  plain     mixing
     Exchange-correlation      = SLA  PW   PSX  PSC ( 1  4 10  8 0 0)
     Using LIBXC version       =    4   3   4

     celldm(1)=   6.076815  celldm(2)=   0.000000  celldm(3)=   0.000000
     celldm(4)=   0.000000  celldm(5)=   0.000000  celldm(6)=   0.000000

     crystal axes: (cart. coord. in units of alat)
               a(1) = (   1.000000   0.000000  -0.000000 )  
               a(2) = (  -0.500000   0.866025  -0.000000 )  
               a(3) = (  -0.000000  -0.000001   1.641005 )  

     reciprocal axes: (cart. coord. in units 2 pi/alat)
               b(1) = (  1.000000  0.577350  0.000000 )  
               b(2) = ( -0.000000  1.154701  0.000001 )  
               b(3) = (  0.000000  0.000000  0.609383 )  


     PseudoPot. # 1 for Zn read from file:
     ./GBRV_PBEsol/zn_pbesol_v1.uspp.F.UPF
     MD5 check sum: 7d8615e52efe7c1e2b1899de8658bae2
     Pseudo is Ultrasoft, Zval = 20.0
     Generated by new atomic code, or converted to UPF format
     Using radial grid of  943 points,  6 beta functions with: 
                l(1) =   0
                l(2) =   0
                l(3) =   1
                l(4) =   1
                l(5) =   2
                l(6) =   2
     Q(r) pseudized with  8 coefficients,  rinner =    1.100   1.100   1.100
                                                       1.100   1.100

     PseudoPot. # 2 for O  read from file:
     ./GBRV_PBEsol/o_pbesol_v1.2.uspp.F.UPF
     MD5 check sum: 501638753501ef6325af9037351f7734
     Pseudo is Ultrasoft + core correction, Zval =  6.0
     Generated by new atomic code, or converted to UPF format
     Using radial grid of  737 points,  5 beta functions with: 
                l(1) =   0
                l(2) =   0
                l(3) =   1
                l(4) =   1
                l(5) =   2
     Q(r) pseudized with  8 coefficients,  rinner =    0.900   0.900   0.900
                                                       0.900   0.900

     atomic species   valence    mass     pseudopotential
        Zn            20.00    65.38000     Zn( 1.00)
        O              6.00    15.99900     O ( 1.00)

     No symmetry found


                                    s                        frac. trans.

      isym =  1     identity                                     

 cryst.   s( 1) = (     1          0          0      )
                  (     0          1          0      )
                  (     0          0          1      )

 cart.    s( 1) = (  1.0000000 -0.0000000  0.0000000 )
                  ( -0.0000000  1.0000000 -0.0000000 )
                  ( -0.0000000  0.0000000  1.0000000 )


   Cartesian axes

     site n.     atom                  positions (alat units)
         1           O   tau(   1) = (   0.5000002   0.2886755   0.0120544  )
         2           O   tau(   2) = (   0.0000001   0.5773489   0.8325567  )
         3           Zn  tau(   3) = (   0.4999999   0.2886743   1.0442603  )
         4           Zn  tau(   4) = (  -0.0000003   0.5773502   1.8647628  )

   Crystallographic axes

     site n.     atom                  positions (cryst. coord.)
         1           O   tau(   1) = (  0.6666670  0.3333337  0.0073459  )
         2           O   tau(   2) = (  0.3333329  0.6666657  0.5073458  )
         3           Zn  tau(   3) = (  0.6666664  0.3333329  0.6363542  )
         4           Zn  tau(   4) = (  0.3333336  0.6666677  1.1363542  )

     number of k points=   260
                       cart. coord. in units 2pi/alat
        k(    1) = (   0.0000000   0.0000000   0.0000000), wk =   0.0039062
        k(    2) = (   0.0000000   0.0000000   0.0761728), wk =   0.0078125
        k(    3) = (   0.0000000   0.0000001   0.1523456), wk =   0.0078125
        k(    4) = (   0.0000000   0.0000001   0.2285185), wk =   0.0078125
        k(    5) = (  -0.0000000  -0.0000002  -0.3046913), wk =   0.0039062
        k(    6) = (  -0.0000000   0.1443376   0.0000001), wk =   0.0078125
        k(    7) = (  -0.0000000   0.1443376   0.0761729), wk =   0.0078125
        k(    8) = (  -0.0000000   0.1443377   0.1523457), wk =   0.0078125
        k(    9) = (   0.0000000   0.1443377   0.2285185), wk =   0.0078125
        k(   10) = (  -0.0000001   0.1443374  -0.3046912), wk =   0.0078125
        k(   11) = (  -0.0000001   0.1443375  -0.2285184), wk =   0.0078125
        k(   12) = (  -0.0000000   0.1443375  -0.1523456), wk =   0.0078125
        k(   13) = (  -0.0000000   0.1443376  -0.0761728), wk =   0.0078125
        k(   14) = (  -0.0000001   0.2886752   0.0000001), wk =   0.0078125
        k(   15) = (  -0.0000000   0.2886752   0.0761730), wk =   0.0078125
        k(   16) = (  -0.0000000   0.2886753   0.1523458), wk =   0.0078125
        k(   17) = (  -0.0000000   0.2886753   0.2285186), wk =   0.0078125
        k(   18) = (  -0.0000001   0.2886750  -0.3046912), wk =   0.0078125
        k(   19) = (  -0.0000001   0.2886751  -0.2285183), wk =   0.0078125
        k(   20) = (  -0.0000001   0.2886751  -0.1523455), wk =   0.0078125
        k(   21) = (  -0.0000001   0.2886751  -0.0761727), wk =   0.0078125
        k(   22) = (  -0.0000001   0.4330128   0.0000002), wk =   0.0078125
        k(   23) = (  -0.0000001   0.4330128   0.0761730), wk =   0.0078125
        k(   24) = (  -0.0000001   0.4330128   0.1523459), wk =   0.0078125
        k(   25) = (  -0.0000001   0.4330129   0.2285187), wk =   0.0078125
        k(   26) = (  -0.0000001   0.4330126  -0.3046911), wk =   0.0078125
        k(   27) = (  -0.0000001   0.4330127  -0.2285183), wk =   0.0078125
        k(   28) = (  -0.0000001   0.4330127  -0.1523454), wk =   0.0078125
        k(   29) = (  -0.0000001   0.4330127  -0.0761726), wk =   0.0078125
        k(   30) = (   0.0000001  -0.5773504  -0.0000003), wk =   0.0039062
        k(   31) = (   0.0000001  -0.5773503   0.0761725), wk =   0.0078125
        k(   32) = (   0.0000001  -0.5773503   0.1523454), wk =   0.0078125
        k(   33) = (   0.0000001  -0.5773502   0.2285182), wk =   0.0078125
        k(   34) = (   0.0000001  -0.5773505  -0.3046916), wk =   0.0039062
        k(   35) = (   0.1250000   0.0721688   0.0000000), wk =   0.0078125
        k(   36) = (   0.1250000   0.0721688   0.0761729), wk =   0.0078125
        k(   37) = (   0.1250000   0.0721688   0.1523457), wk =   0.0078125
        k(   38) = (   0.1250000   0.0721689   0.2285185), wk =   0.0078125
        k(   39) = (   0.1249999   0.0721686  -0.3046912), wk =   0.0078125
        k(   40) = (   0.1250000   0.0721687  -0.2285184), wk =   0.0078125
        k(   41) = (   0.1250000   0.0721687  -0.1523456), wk =   0.0078125
        k(   42) = (   0.1250000   0.0721687  -0.0761728), wk =   0.0078125
        k(   43) = (   0.1250000   0.2165064   0.0000001), wk =   0.0078125
        k(   44) = (   0.1250000   0.2165064   0.0761729), wk =   0.0078125
        k(   45) = (   0.1250000   0.2165064   0.1523458), wk =   0.0078125
        k(   46) = (   0.1250000   0.2165065   0.2285186), wk =   0.0078125
        k(   47) = (   0.1249999   0.2165062  -0.3046912), wk =   0.0078125
        k(   48) = (   0.1249999   0.2165062  -0.2285184), wk =   0.0078125
        k(   49) = (   0.1249999   0.2165063  -0.1523455), wk =   0.0078125
        k(   50) = (   0.1249999   0.2165063  -0.0761727), wk =   0.0078125
        k(   51) = (   0.1249999   0.3608439   0.0000002), wk =   0.0078125
        k(   52) = (   0.1249999   0.3608440   0.0761730), wk =   0.0078125
        k(   53) = (   0.1250000   0.3608440   0.1523458), wk =   0.0078125
        k(   54) = (   0.1250000   0.3608441   0.2285187), wk =   0.0078125
        k(   55) = (   0.1249999   0.3608438  -0.3046911), wk =   0.0078125
        k(   56) = (   0.1249999   0.3608438  -0.2285183), wk =   0.0078125
        k(   57) = (   0.1249999   0.3608439  -0.1523455), wk =   0.0078125
        k(   58) = (   0.1249999   0.3608439  -0.0761726), wk =   0.0078125
        k(   59) = (   0.1249999   0.5051815   0.0000003), wk =   0.0078125
        k(   60) = (   0.1249999   0.5051816   0.0761731), wk =   0.0078125
        k(   61) = (   0.1249999   0.5051816   0.1523459), wk =   0.0078125
        k(   62) = (   0.1249999   0.5051817   0.2285187), wk =   0.0078125
        k(   63) = (   0.1249999   0.5051814  -0.3046910), wk =   0.0078125
        k(   64) = (   0.1249999   0.5051814  -0.2285182), wk =   0.0078125
        k(   65) = (   0.1249999   0.5051815  -0.1523454), wk =   0.0078125
        k(   66) = (   0.1249999   0.5051815  -0.0761726), wk =   0.0078125
        k(   67) = (   0.1250001  -0.5051816  -0.0000002), wk =   0.0078125
        k(   68) = (   0.1250001  -0.5051815   0.0761726), wk =   0.0078125
        k(   69) = (   0.1250001  -0.5051815   0.1523454), wk =   0.0078125
        k(   70) = (   0.1250001  -0.5051815   0.2285182), wk =   0.0078125
        k(   71) = (   0.1250001  -0.5051817  -0.3046915), wk =   0.0078125
        k(   72) = (   0.1250001  -0.5051817  -0.2285187), wk =   0.0078125
        k(   73) = (   0.1250001  -0.5051817  -0.1523459), wk =   0.0078125
        k(   74) = (   0.1250001  -0.5051816  -0.0761731), wk =   0.0078125
        k(   75) = (   0.1250001  -0.3608440  -0.0000002), wk =   0.0078125
        k(   76) = (   0.1250001  -0.3608440   0.0761727), wk =   0.0078125
        k(   77) = (   0.1250001  -0.3608439   0.1523455), wk =   0.0078125
        k(   78) = (   0.1250001  -0.3608439   0.2285183), wk =   0.0078125
        k(   79) = (   0.1250000  -0.3608442  -0.3046915), wk =   0.0078125
        k(   80) = (   0.1250000  -0.3608441  -0.2285186), wk =   0.0078125
        k(   81) = (   0.1250000  -0.3608441  -0.1523458), wk =   0.0078125
        k(   82) = (   0.1250001  -0.3608440  -0.0761730), wk =   0.0078125
        k(   83) = (   0.1250000  -0.2165064  -0.0000001), wk =   0.0078125
        k(   84) = (   0.1250001  -0.2165064   0.0761727), wk =   0.0078125
        k(   85) = (   0.1250001  -0.2165063   0.1523456), wk =   0.0078125
        k(   86) = (   0.1250001  -0.2165063   0.2285184), wk =   0.0078125
        k(   87) = (   0.1250000  -0.2165066  -0.3046914), wk =   0.0078125
        k(   88) = (   0.1250000  -0.2165065  -0.2285186), wk =   0.0078125
        k(   89) = (   0.1250000  -0.2165065  -0.1523457), wk =   0.0078125
        k(   90) = (   0.1250000  -0.2165064  -0.0761729), wk =   0.0078125
        k(   91) = (   0.1250000  -0.0721688  -0.0000000), wk =   0.0078125
        k(   92) = (   0.1250000  -0.0721688   0.0761728), wk =   0.0078125
        k(   93) = (   0.1250000  -0.0721687   0.1523456), wk =   0.0078125
        k(   94) = (   0.1250000  -0.0721687   0.2285185), wk =   0.0078125
        k(   95) = (   0.1250000  -0.0721690  -0.3046913), wk =   0.0078125
        k(   96) = (   0.1250000  -0.0721689  -0.2285185), wk =   0.0078125
        k(   97) = (   0.1250000  -0.0721689  -0.1523457), wk =   0.0078125
        k(   98) = (   0.1250000  -0.0721689  -0.0761728), wk =   0.0078125
        k(   99) = (   0.2500000   0.1443375   0.0000001), wk =   0.0078125
        k(  100) = (   0.2500000   0.1443376   0.0761729), wk =   0.0078125
        k(  101) = (   0.2500000   0.1443376   0.1523457), wk =   0.0078125
        k(  102) = (   0.2500000   0.1443377   0.2285186), wk =   0.0078125
        k(  103) = (   0.2499999   0.1443374  -0.3046912), wk =   0.0078125
        k(  104) = (   0.2499999   0.1443374  -0.2285184), wk =   0.0078125
        k(  105) = (   0.2500000   0.1443375  -0.1523455), wk =   0.0078125
        k(  106) = (   0.2500000   0.1443375  -0.0761727), wk =   0.0078125
        k(  107) = (   0.2499999   0.2886751   0.0000002), wk =   0.0078125
        k(  108) = (   0.2500000   0.2886752   0.0761730), wk =   0.0078125
        k(  109) = (   0.2500000   0.2886752   0.1523458), wk =   0.0078125
        k(  110) = (   0.2500000   0.2886752   0.2285186), wk =   0.0078125
        k(  111) = (   0.2499999   0.2886750  -0.3046911), wk =   0.0078125
        k(  112) = (   0.2499999   0.2886750  -0.2285183), wk =   0.0078125
        k(  113) = (   0.2499999   0.2886751  -0.1523455), wk =   0.0078125
        k(  114) = (   0.2499999   0.2886751  -0.0761727), wk =   0.0078125
        k(  115) = (   0.2499999   0.4330127   0.0000002), wk =   0.0078125
        k(  116) = (   0.2499999   0.4330128   0.0761731), wk =   0.0078125
        k(  117) = (   0.2499999   0.4330128   0.1523459), wk =   0.0078125
        k(  118) = (   0.2499999   0.4330128   0.2285187), wk =   0.0078125
        k(  119) = (   0.2499999   0.4330126  -0.3046911), wk =   0.0078125
        k(  120) = (   0.2499999   0.4330126  -0.2285182), wk =   0.0078125
        k(  121) = (   0.2499999   0.4330126  -0.1523454), wk =   0.0078125
        k(  122) = (   0.2499999   0.4330127  -0.0761726), wk =   0.0078125
        k(  123) = (   0.2499999   0.5773503   0.0000003), wk =   0.0078125
        k(  124) = (   0.2499999   0.5773503   0.0761731), wk =   0.0078125
        k(  125) = (   0.2499999   0.5773504   0.1523460), wk =   0.0078125
        k(  126) = (   0.2499999   0.5773504   0.2285188), wk =   0.0078125
        k(  127) = (   0.2499998   0.5773502  -0.3046910), wk =   0.0078125
        k(  128) = (   0.2499999   0.5773502  -0.2285182), wk =   0.0078125
        k(  129) = (   0.2499999   0.5773502  -0.1523453), wk =   0.0078125
        k(  130) = (   0.2499999   0.5773503  -0.0761725), wk =   0.0078125
        k(  131) = (   0.2500001  -0.4330128  -0.0000002), wk =   0.0078125
        k(  132) = (   0.2500001  -0.4330128   0.0761726), wk =   0.0078125
        k(  133) = (   0.2500001  -0.4330127   0.1523455), wk =   0.0078125
        k(  134) = (   0.2500001  -0.4330127   0.2285183), wk =   0.0078125
        k(  135) = (   0.2500000  -0.4330130  -0.3046915), wk =   0.0078125
        k(  136) = (   0.2500001  -0.4330129  -0.2285187), wk =   0.0078125
        k(  137) = (   0.2500001  -0.4330129  -0.1523458), wk =   0.0078125
        k(  138) = (   0.2500001  -0.4330129  -0.0761730), wk =   0.0078125
        k(  139) = (   0.2500001  -0.2886752  -0.0000001), wk =   0.0078125
        k(  140) = (   0.2500001  -0.2886752   0.0761727), wk =   0.0078125
        k(  141) = (   0.2500001  -0.2886751   0.1523455), wk =   0.0078125
        k(  142) = (   0.2500001  -0.2886751   0.2285184), wk =   0.0078125
        k(  143) = (   0.2500000  -0.2886754  -0.3046914), wk =   0.0078125
        k(  144) = (   0.2500000  -0.2886753  -0.2285186), wk =   0.0078125
        k(  145) = (   0.2500000  -0.2886753  -0.1523458), wk =   0.0078125
        k(  146) = (   0.2500000  -0.2886753  -0.0761729), wk =   0.0078125
        k(  147) = (   0.2500000  -0.1443376  -0.0000000), wk =   0.0078125
        k(  148) = (   0.2500000  -0.1443376   0.0761728), wk =   0.0078125
        k(  149) = (   0.2500000  -0.1443376   0.1523456), wk =   0.0078125
        k(  150) = (   0.2500001  -0.1443375   0.2285184), wk =   0.0078125
        k(  151) = (   0.2500000  -0.1443378  -0.3046913), wk =   0.0078125
        k(  152) = (   0.2500000  -0.1443378  -0.2285185), wk =   0.0078125
        k(  153) = (   0.2500000  -0.1443377  -0.1523457), wk =   0.0078125
        k(  154) = (   0.2500000  -0.1443377  -0.0761729), wk =   0.0078125
        k(  155) = (   0.2500000  -0.0000000   0.0000000), wk =   0.0078125
        k(  156) = (   0.2500000  -0.0000000   0.0761729), wk =   0.0078125
        k(  157) = (   0.2500000   0.0000000   0.1523457), wk =   0.0078125
        k(  158) = (   0.2500000   0.0000001   0.2285185), wk =   0.0078125
        k(  159) = (   0.2500000  -0.0000002  -0.3046913), wk =   0.0078125
        k(  160) = (   0.2500000  -0.0000002  -0.2285184), wk =   0.0078125
        k(  161) = (   0.2500000  -0.0000001  -0.1523456), wk =   0.0078125
        k(  162) = (   0.2500000  -0.0000001  -0.0761728), wk =   0.0078125
        k(  163) = (   0.3750000   0.2165063   0.0000001), wk =   0.0078125
        k(  164) = (   0.3750000   0.2165064   0.0761730), wk =   0.0078125
        k(  165) = (   0.3750000   0.2165064   0.1523458), wk =   0.0078125
        k(  166) = (   0.3750000   0.2165064   0.2285186), wk =   0.0078125
        k(  167) = (   0.3749999   0.2165062  -0.3046911), wk =   0.0078125
        k(  168) = (   0.3749999   0.2165062  -0.2285183), wk =   0.0078125
        k(  169) = (   0.3749999   0.2165062  -0.1523455), wk =   0.0078125
        k(  170) = (   0.3749999   0.2165063  -0.0761727), wk =   0.0078125
        k(  171) = (   0.3749999   0.3608439   0.0000002), wk =   0.0078125
        k(  172) = (   0.3749999   0.3608439   0.0761730), wk =   0.0078125
        k(  173) = (   0.3750000   0.3608440   0.1523459), wk =   0.0078125
        k(  174) = (   0.3750000   0.3608440   0.2285187), wk =   0.0078125
        k(  175) = (   0.3749999   0.3608437  -0.3046911), wk =   0.0078125
        k(  176) = (   0.3749999   0.3608438  -0.2285183), wk =   0.0078125
        k(  177) = (   0.3749999   0.3608438  -0.1523454), wk =   0.0078125
        k(  178) = (   0.3749999   0.3608439  -0.0761726), wk =   0.0078125
        k(  179) = (   0.3749999   0.5051815   0.0000003), wk =   0.0078125
        k(  180) = (   0.3749999   0.5051815   0.0761731), wk =   0.0078125
        k(  181) = (   0.3749999   0.5051816   0.1523459), wk =   0.0078125
        k(  182) = (   0.3749999   0.5051816   0.2285188), wk =   0.0078125
        k(  183) = (   0.3749999   0.5051813  -0.3046910), wk =   0.0078125
        k(  184) = (   0.3749999   0.5051814  -0.2285182), wk =   0.0078125
        k(  185) = (   0.3749999   0.5051814  -0.1523454), wk =   0.0078125
        k(  186) = (   0.3749999   0.5051815  -0.0761725), wk =   0.0078125
        k(  187) = (   0.3749999   0.6495191   0.0000004), wk =   0.0078125
        k(  188) = (   0.3749999   0.6495191   0.0761732), wk =   0.0078125
        k(  189) = (   0.3749999   0.6495192   0.1523460), wk =   0.0078125
        k(  190) = (   0.3749999   0.6495192   0.2285188), wk =   0.0078125
        k(  191) = (   0.3749998   0.6495189  -0.3046909), wk =   0.0078125
        k(  192) = (   0.3749998   0.6495190  -0.2285181), wk =   0.0078125
        k(  193) = (   0.3749999   0.6495190  -0.1523453), wk =   0.0078125
        k(  194) = (   0.3749999   0.6495190  -0.0761725), wk =   0.0078125
        k(  195) = (   0.3750001  -0.3608440  -0.0000001), wk =   0.0078125
        k(  196) = (   0.3750001  -0.3608440   0.0761727), wk =   0.0078125
        k(  197) = (   0.3750001  -0.3608440   0.1523455), wk =   0.0078125
        k(  198) = (   0.3750001  -0.3608439   0.2285183), wk =   0.0078125
        k(  199) = (   0.3750000  -0.3608442  -0.3046914), wk =   0.0078125
        k(  200) = (   0.3750000  -0.3608442  -0.2285186), wk =   0.0078125
        k(  201) = (   0.3750000  -0.3608441  -0.1523458), wk =   0.0078125
        k(  202) = (   0.3750001  -0.3608441  -0.0761730), wk =   0.0078125
        k(  203) = (   0.3750000  -0.2165065  -0.0000001), wk =   0.0078125
        k(  204) = (   0.3750001  -0.2165064   0.0761728), wk =   0.0078125
        k(  205) = (   0.3750001  -0.2165064   0.1523456), wk =   0.0078125
        k(  206) = (   0.3750001  -0.2165063   0.2285184), wk =   0.0078125
        k(  207) = (   0.3750000  -0.2165066  -0.3046914), wk =   0.0078125
        k(  208) = (   0.3750000  -0.2165066  -0.2285185), wk =   0.0078125
        k(  209) = (   0.3750000  -0.2165065  -0.1523457), wk =   0.0078125
        k(  210) = (   0.3750000  -0.2165065  -0.0761729), wk =   0.0078125
        k(  211) = (   0.3750000  -0.0721689   0.0000000), wk =   0.0078125
        k(  212) = (   0.3750000  -0.0721688   0.0761728), wk =   0.0078125
        k(  213) = (   0.3750000  -0.0721688   0.1523457), wk =   0.0078125
        k(  214) = (   0.3750000  -0.0721688   0.2285185), wk =   0.0078125
        k(  215) = (   0.3750000  -0.0721690  -0.3046913), wk =   0.0078125
        k(  216) = (   0.3750000  -0.0721690  -0.2285185), wk =   0.0078125
        k(  217) = (   0.3750000  -0.0721689  -0.1523456), wk =   0.0078125
        k(  218) = (   0.3750000  -0.0721689  -0.0761728), wk =   0.0078125
        k(  219) = (   0.3750000   0.0721687   0.0000001), wk =   0.0078125
        k(  220) = (   0.3750000   0.0721688   0.0761729), wk =   0.0078125
        k(  221) = (   0.3750000   0.0721688   0.1523457), wk =   0.0078125
        k(  222) = (   0.3750000   0.0721688   0.2285186), wk =   0.0078125
        k(  223) = (   0.3749999   0.0721686  -0.3046912), wk =   0.0078125
        k(  224) = (   0.3750000   0.0721686  -0.2285184), wk =   0.0078125
        k(  225) = (   0.3750000   0.0721686  -0.1523456), wk =   0.0078125
        k(  226) = (   0.3750000   0.0721687  -0.0761727), wk =   0.0078125
        k(  227) = (  -0.4999999  -0.2886751  -0.0000002), wk =   0.0039062
        k(  228) = (  -0.4999999  -0.2886750   0.0761726), wk =   0.0078125
        k(  229) = (  -0.4999999  -0.2886750   0.1523454), wk =   0.0078125
        k(  230) = (  -0.4999999  -0.2886750   0.2285183), wk =   0.0078125
        k(  231) = (  -0.5000000  -0.2886752  -0.3046915), wk =   0.0039062
        k(  232) = (  -0.5000000  -0.1443375  -0.0000001), wk =   0.0078125
        k(  233) = (  -0.5000000  -0.1443375   0.0761727), wk =   0.0078125
        k(  234) = (  -0.5000000  -0.1443374   0.1523455), wk =   0.0078125
        k(  235) = (  -0.4999999  -0.1443374   0.2285183), wk =   0.0078125
        k(  236) = (  -0.5000000  -0.1443376  -0.3046914), wk =   0.0078125
        k(  237) = (  -0.5000000  -0.1443376  -0.2285186), wk =   0.0078125
        k(  238) = (  -0.5000000  -0.1443376  -0.1523458), wk =   0.0078125
        k(  239) = (  -0.5000000  -0.1443375  -0.0761730), wk =   0.0078125
        k(  240) = (  -0.5000000   0.0000001  -0.0000001), wk =   0.0078125
        k(  241) = (  -0.5000000   0.0000001   0.0761728), wk =   0.0078125
        k(  242) = (  -0.5000000   0.0000002   0.1523456), wk =   0.0078125
        k(  243) = (  -0.5000000   0.0000002   0.2285184), wk =   0.0078125
        k(  244) = (  -0.5000000  -0.0000001  -0.3046914), wk =   0.0078125
        k(  245) = (  -0.5000000  -0.0000000  -0.2285185), wk =   0.0078125
        k(  246) = (  -0.5000000   0.0000000  -0.1523457), wk =   0.0078125
        k(  247) = (  -0.5000000   0.0000001  -0.0761729), wk =   0.0078125
        k(  248) = (  -0.5000000   0.1443377   0.0000000), wk =   0.0078125
        k(  249) = (  -0.5000000   0.1443377   0.0761728), wk =   0.0078125
        k(  250) = (  -0.5000000   0.1443378   0.1523457), wk =   0.0078125
        k(  251) = (  -0.5000000   0.1443378   0.2285185), wk =   0.0078125
        k(  252) = (  -0.5000001   0.1443375  -0.3046913), wk =   0.0078125
        k(  253) = (  -0.5000001   0.1443376  -0.2285185), wk =   0.0078125
        k(  254) = (  -0.5000000   0.1443376  -0.1523456), wk =   0.0078125
        k(  255) = (  -0.5000000   0.1443376  -0.0761728), wk =   0.0078125
        k(  256) = (  -0.4999998  -0.8660254  -0.0000005), wk =   0.0039062
        k(  257) = (  -0.4999998  -0.8660254   0.0761723), wk =   0.0078125
        k(  258) = (  -0.4999998  -0.8660254   0.1523452), wk =   0.0078125
        k(  259) = (  -0.4999998  -0.8660253   0.2285180), wk =   0.0078125
        k(  260) = (  -0.4999999  -0.8660256  -0.3046918), wk =   0.0039062

                       cryst. coord.
        k(    1) = (   0.0000000   0.0000000   0.0000000), wk =   0.0039062
        k(    2) = (   0.0000000  -0.0000000   0.1250000), wk =   0.0078125
        k(    3) = (   0.0000000  -0.0000000   0.2500000), wk =   0.0078125
        k(    4) = (  -0.0000000   0.0000000   0.3750000), wk =   0.0078125
        k(    5) = (  -0.0000000   0.0000000  -0.5000000), wk =   0.0039062
        k(    6) = (  -0.0000000   0.1250000   0.0000000), wk =   0.0078125
        k(    7) = (  -0.0000000   0.1250000   0.1250000), wk =   0.0078125
        k(    8) = (   0.0000000   0.1250000   0.2500000), wk =   0.0078125
        k(    9) = (  -0.0000000   0.1250000   0.3750000), wk =   0.0078125
        k(   10) = (  -0.0000000   0.1250000  -0.5000000), wk =   0.0078125
        k(   11) = (  -0.0000000   0.1250000  -0.3750000), wk =   0.0078125
        k(   12) = (  -0.0000000   0.1250000  -0.2500000), wk =   0.0078125
        k(   13) = (   0.0000000   0.1250000  -0.1250000), wk =   0.0078125
        k(   14) = (  -0.0000000   0.2500000   0.0000000), wk =   0.0078125
        k(   15) = (  -0.0000000   0.2500000   0.1250000), wk =   0.0078125
        k(   16) = (  -0.0000000   0.2500000   0.2500000), wk =   0.0078125
        k(   17) = (   0.0000000   0.2500000   0.3750000), wk =   0.0078125
        k(   18) = (  -0.0000000   0.2500000  -0.5000000), wk =   0.0078125
        k(   19) = (  -0.0000000   0.2500000  -0.3750000), wk =   0.0078125
        k(   20) = (   0.0000000   0.2500000  -0.2500000), wk =   0.0078125
        k(   21) = (  -0.0000000   0.2500000  -0.1250000), wk =   0.0078125
        k(   22) = (  -0.0000000   0.3750000  -0.0000000), wk =   0.0078125
        k(   23) = (  -0.0000000   0.3750000   0.1250000), wk =   0.0078125
        k(   24) = (   0.0000000   0.3750000   0.2500000), wk =   0.0078125
        k(   25) = (   0.0000000   0.3750000   0.3750000), wk =   0.0078125
        k(   26) = (   0.0000000   0.3750000  -0.5000000), wk =   0.0078125
        k(   27) = (  -0.0000000   0.3750000  -0.3750000), wk =   0.0078125
        k(   28) = (  -0.0000000   0.3750000  -0.2500000), wk =   0.0078125
        k(   29) = (   0.0000000   0.3750000  -0.1250000), wk =   0.0078125
        k(   30) = (   0.0000000  -0.5000000  -0.0000000), wk =   0.0039062
        k(   31) = (   0.0000000  -0.5000000   0.1250000), wk =   0.0078125
        k(   32) = (   0.0000000  -0.5000000   0.2500000), wk =   0.0078125
        k(   33) = (   0.0000000  -0.5000000   0.3750000), wk =   0.0078125
        k(   34) = (   0.0000000  -0.5000000  -0.5000000), wk =   0.0039062
        k(   35) = (   0.1250000  -0.0000000   0.0000000), wk =   0.0078125
        k(   36) = (   0.1250000  -0.0000000   0.1250000), wk =   0.0078125
        k(   37) = (   0.1250000  -0.0000000   0.2500000), wk =   0.0078125
        k(   38) = (   0.1250000  -0.0000000   0.3750000), wk =   0.0078125
        k(   39) = (   0.1250000  -0.0000000  -0.5000000), wk =   0.0078125
        k(   40) = (   0.1250000  -0.0000000  -0.3750000), wk =   0.0078125
        k(   41) = (   0.1250000  -0.0000000  -0.2500000), wk =   0.0078125
        k(   42) = (   0.1250000  -0.0000000  -0.1250000), wk =   0.0078125
        k(   43) = (   0.1250000   0.1250000  -0.0000000), wk =   0.0078125
        k(   44) = (   0.1250000   0.1250000   0.1250000), wk =   0.0078125
        k(   45) = (   0.1250000   0.1250000   0.2500000), wk =   0.0078125
        k(   46) = (   0.1250000   0.1250000   0.3750000), wk =   0.0078125
        k(   47) = (   0.1250000   0.1250000  -0.5000000), wk =   0.0078125
        k(   48) = (   0.1250000   0.1250000  -0.3750000), wk =   0.0078125
        k(   49) = (   0.1250000   0.1250000  -0.2500000), wk =   0.0078125
        k(   50) = (   0.1250000   0.1250000  -0.1250000), wk =   0.0078125
        k(   51) = (   0.1250000   0.2500000   0.0000000), wk =   0.0078125
        k(   52) = (   0.1250000   0.2500000   0.1250000), wk =   0.0078125
        k(   53) = (   0.1250000   0.2500000   0.2500000), wk =   0.0078125
        k(   54) = (   0.1250000   0.2500000   0.3750000), wk =   0.0078125
        k(   55) = (   0.1250000   0.2500000  -0.5000000), wk =   0.0078125
        k(   56) = (   0.1250000   0.2500000  -0.3750000), wk =   0.0078125
        k(   57) = (   0.1250000   0.2500000  -0.2500000), wk =   0.0078125
        k(   58) = (   0.1250000   0.2500000  -0.1250000), wk =   0.0078125
        k(   59) = (   0.1250000   0.3750000  -0.0000000), wk =   0.0078125
        k(   60) = (   0.1250000   0.3750000   0.1250000), wk =   0.0078125
        k(   61) = (   0.1250000   0.3750000   0.2500000), wk =   0.0078125
        k(   62) = (   0.1250000   0.3750000   0.3750000), wk =   0.0078125
        k(   63) = (   0.1250000   0.3750000  -0.5000000), wk =   0.0078125
        k(   64) = (   0.1250000   0.3750000  -0.3750000), wk =   0.0078125
        k(   65) = (   0.1250000   0.3750000  -0.2500000), wk =   0.0078125
        k(   66) = (   0.1250000   0.3750000  -0.1250000), wk =   0.0078125
        k(   67) = (   0.1250000  -0.5000000   0.0000000), wk =   0.0078125
        k(   68) = (   0.1250000  -0.5000000   0.1250000), wk =   0.0078125
        k(   69) = (   0.1250000  -0.5000000   0.2500000), wk =   0.0078125
        k(   70) = (   0.1250000  -0.5000000   0.3750000), wk =   0.0078125
        k(   71) = (   0.1250000  -0.5000000  -0.5000000), wk =   0.0078125
        k(   72) = (   0.1250000  -0.5000000  -0.3750000), wk =   0.0078125
        k(   73) = (   0.1250000  -0.5000000  -0.2500000), wk =   0.0078125
        k(   74) = (   0.1250000  -0.5000000  -0.1250000), wk =   0.0078125
        k(   75) = (   0.1250000  -0.3750000   0.0000000), wk =   0.0078125
        k(   76) = (   0.1250000  -0.3750000   0.1250000), wk =   0.0078125
        k(   77) = (   0.1250000  -0.3750000   0.2500000), wk =   0.0078125
        k(   78) = (   0.1250000  -0.3750000   0.3750000), wk =   0.0078125
        k(   79) = (   0.1250000  -0.3750000  -0.5000000), wk =   0.0078125
        k(   80) = (   0.1250000  -0.3750000  -0.3750000), wk =   0.0078125
        k(   81) = (   0.1250000  -0.3750000  -0.2500000), wk =   0.0078125
        k(   82) = (   0.1250000  -0.3750000  -0.1250000), wk =   0.0078125
        k(   83) = (   0.1250000  -0.2500000  -0.0000000), wk =   0.0078125
        k(   84) = (   0.1250000  -0.2500000   0.1250000), wk =   0.0078125
        k(   85) = (   0.1250000  -0.2500000   0.2500000), wk =   0.0078125
        k(   86) = (   0.1250000  -0.2500000   0.3750000), wk =   0.0078125
        k(   87) = (   0.1250000  -0.2500000  -0.5000000), wk =   0.0078125
        k(   88) = (   0.1250000  -0.2500000  -0.3750000), wk =   0.0078125
        k(   89) = (   0.1250000  -0.2500000  -0.2500000), wk =   0.0078125
        k(   90) = (   0.1250000  -0.2500000  -0.1250000), wk =   0.0078125
        k(   91) = (   0.1250000  -0.1250000   0.0000000), wk =   0.0078125
        k(   92) = (   0.1250000  -0.1250000   0.1250000), wk =   0.0078125
        k(   93) = (   0.1250000  -0.1250000   0.2500000), wk =   0.0078125
        k(   94) = (   0.1250000  -0.1250000   0.3750000), wk =   0.0078125
        k(   95) = (   0.1250000  -0.1250000  -0.5000000), wk =   0.0078125
        k(   96) = (   0.1250000  -0.1250000  -0.3750000), wk =   0.0078125
        k(   97) = (   0.1250000  -0.1250000  -0.2500000), wk =   0.0078125
        k(   98) = (   0.1250000  -0.1250000  -0.1250000), wk =   0.0078125
        k(   99) = (   0.2500000  -0.0000000   0.0000000), wk =   0.0078125
        k(  100) = (   0.2500000  -0.0000000   0.1250000), wk =   0.0078125
        k(  101) = (   0.2500000  -0.0000000   0.2500000), wk =   0.0078125
        k(  102) = (   0.2500000  -0.0000000   0.3750000), wk =   0.0078125
        k(  103) = (   0.2500000  -0.0000000  -0.5000000), wk =   0.0078125
        k(  104) = (   0.2500000  -0.0000000  -0.3750000), wk =   0.0078125
        k(  105) = (   0.2500000  -0.0000000  -0.2500000), wk =   0.0078125
        k(  106) = (   0.2500000  -0.0000000  -0.1250000), wk =   0.0078125
        k(  107) = (   0.2500000   0.1250000  -0.0000000), wk =   0.0078125
        k(  108) = (   0.2500000   0.1250000   0.1250000), wk =   0.0078125
        k(  109) = (   0.2500000   0.1250000   0.2500000), wk =   0.0078125
        k(  110) = (   0.2500000   0.1250000   0.3750000), wk =   0.0078125
        k(  111) = (   0.2500000   0.1250000  -0.5000000), wk =   0.0078125
        k(  112) = (   0.2500000   0.1250000  -0.3750000), wk =   0.0078125
        k(  113) = (   0.2500000   0.1250000  -0.2500000), wk =   0.0078125
        k(  114) = (   0.2500000   0.1250000  -0.1250000), wk =   0.0078125
        k(  115) = (   0.2500000   0.2500000  -0.0000000), wk =   0.0078125
        k(  116) = (   0.2500000   0.2500000   0.1250000), wk =   0.0078125
        k(  117) = (   0.2500000   0.2500000   0.2500000), wk =   0.0078125
        k(  118) = (   0.2500000   0.2500000   0.3750000), wk =   0.0078125
        k(  119) = (   0.2500000   0.2500000  -0.5000000), wk =   0.0078125
        k(  120) = (   0.2500000   0.2500000  -0.3750000), wk =   0.0078125
        k(  121) = (   0.2500000   0.2500000  -0.2500000), wk =   0.0078125
        k(  122) = (   0.2500000   0.2500000  -0.1250000), wk =   0.0078125
        k(  123) = (   0.2500000   0.3750000  -0.0000000), wk =   0.0078125
        k(  124) = (   0.2500000   0.3750000   0.1250000), wk =   0.0078125
        k(  125) = (   0.2500000   0.3750000   0.2500000), wk =   0.0078125
        k(  126) = (   0.2500000   0.3750000   0.3750000), wk =   0.0078125
        k(  127) = (   0.2500000   0.3750000  -0.5000000), wk =   0.0078125
        k(  128) = (   0.2500000   0.3750000  -0.3750000), wk =   0.0078125
        k(  129) = (   0.2500000   0.3750000  -0.2500000), wk =   0.0078125
        k(  130) = (   0.2500000   0.3750000  -0.1250000), wk =   0.0078125
        k(  131) = (   0.2500000  -0.5000000  -0.0000000), wk =   0.0078125
        k(  132) = (   0.2500000  -0.5000000   0.1250000), wk =   0.0078125
        k(  133) = (   0.2500000  -0.5000000   0.2500000), wk =   0.0078125
        k(  134) = (   0.2500000  -0.5000000   0.3750000), wk =   0.0078125
        k(  135) = (   0.2500000  -0.5000000  -0.5000000), wk =   0.0078125
        k(  136) = (   0.2500000  -0.5000000  -0.3750000), wk =   0.0078125
        k(  137) = (   0.2500000  -0.5000000  -0.2500000), wk =   0.0078125
        k(  138) = (   0.2500000  -0.5000000  -0.1250000), wk =   0.0078125
        k(  139) = (   0.2500000  -0.3750000   0.0000000), wk =   0.0078125
        k(  140) = (   0.2500000  -0.3750000   0.1250000), wk =   0.0078125
        k(  141) = (   0.2500000  -0.3750000   0.2500000), wk =   0.0078125
        k(  142) = (   0.2500000  -0.3750000   0.3750000), wk =   0.0078125
        k(  143) = (   0.2500000  -0.3750000  -0.5000000), wk =   0.0078125
        k(  144) = (   0.2500000  -0.3750000  -0.3750000), wk =   0.0078125
        k(  145) = (   0.2500000  -0.3750000  -0.2500000), wk =   0.0078125
        k(  146) = (   0.2500000  -0.3750000  -0.1250000), wk =   0.0078125
        k(  147) = (   0.2500000  -0.2500000   0.0000000), wk =   0.0078125
        k(  148) = (   0.2500000  -0.2500000   0.1250000), wk =   0.0078125
        k(  149) = (   0.2500000  -0.2500000   0.2500000), wk =   0.0078125
        k(  150) = (   0.2500000  -0.2500000   0.3750000), wk =   0.0078125
        k(  151) = (   0.2500000  -0.2500000  -0.5000000), wk =   0.0078125
        k(  152) = (   0.2500000  -0.2500000  -0.3750000), wk =   0.0078125
        k(  153) = (   0.2500000  -0.2500000  -0.2500000), wk =   0.0078125
        k(  154) = (   0.2500000  -0.2500000  -0.1250000), wk =   0.0078125
        k(  155) = (   0.2500000  -0.1250000   0.0000000), wk =   0.0078125
        k(  156) = (   0.2500000  -0.1250000   0.1250000), wk =   0.0078125
        k(  157) = (   0.2500000  -0.1250000   0.2500000), wk =   0.0078125
        k(  158) = (   0.2500000  -0.1250000   0.3750000), wk =   0.0078125
        k(  159) = (   0.2500000  -0.1250000  -0.5000000), wk =   0.0078125
        k(  160) = (   0.2500000  -0.1250000  -0.3750000), wk =   0.0078125
        k(  161) = (   0.2500000  -0.1250000  -0.2500000), wk =   0.0078125
        k(  162) = (   0.2500000  -0.1250000  -0.1250000), wk =   0.0078125
        k(  163) = (   0.3750000  -0.0000000   0.0000000), wk =   0.0078125
        k(  164) = (   0.3750000  -0.0000000   0.1250000), wk =   0.0078125
        k(  165) = (   0.3750000  -0.0000000   0.2500000), wk =   0.0078125
        k(  166) = (   0.3750000  -0.0000000   0.3750000), wk =   0.0078125
        k(  167) = (   0.3750000  -0.0000000  -0.5000000), wk =   0.0078125
        k(  168) = (   0.3750000  -0.0000000  -0.3750000), wk =   0.0078125
        k(  169) = (   0.3750000  -0.0000000  -0.2500000), wk =   0.0078125
        k(  170) = (   0.3750000  -0.0000000  -0.1250000), wk =   0.0078125
        k(  171) = (   0.3750000   0.1250000   0.0000000), wk =   0.0078125
        k(  172) = (   0.3750000   0.1250000   0.1250000), wk =   0.0078125
        k(  173) = (   0.3750000   0.1250000   0.2500000), wk =   0.0078125
        k(  174) = (   0.3750000   0.1250000   0.3750000), wk =   0.0078125
        k(  175) = (   0.3750000   0.1250000  -0.5000000), wk =   0.0078125
        k(  176) = (   0.3750000   0.1250000  -0.3750000), wk =   0.0078125
        k(  177) = (   0.3750000   0.1250000  -0.2500000), wk =   0.0078125
        k(  178) = (   0.3750000   0.1250000  -0.1250000), wk =   0.0078125
        k(  179) = (   0.3750000   0.2500000   0.0000000), wk =   0.0078125
        k(  180) = (   0.3750000   0.2500000   0.1250000), wk =   0.0078125
        k(  181) = (   0.3750000   0.2500000   0.2500000), wk =   0.0078125
        k(  182) = (   0.3750000   0.2500000   0.3750000), wk =   0.0078125
        k(  183) = (   0.3750000   0.2500000  -0.5000000), wk =   0.0078125
        k(  184) = (   0.3750000   0.2500000  -0.3750000), wk =   0.0078125
        k(  185) = (   0.3750000   0.2500000  -0.2500000), wk =   0.0078125
        k(  186) = (   0.3750000   0.2500000  -0.1250000), wk =   0.0078125
        k(  187) = (   0.3750000   0.3750000   0.0000000), wk =   0.0078125
        k(  188) = (   0.3750000   0.3750000   0.1250000), wk =   0.0078125
        k(  189) = (   0.3750000   0.3750000   0.2500000), wk =   0.0078125
        k(  190) = (   0.3750000   0.3750000   0.3750000), wk =   0.0078125
        k(  191) = (   0.3750000   0.3750000  -0.5000000), wk =   0.0078125
        k(  192) = (   0.3750000   0.3750000  -0.3750000), wk =   0.0078125
        k(  193) = (   0.3750000   0.3750000  -0.2500000), wk =   0.0078125
        k(  194) = (   0.3750000   0.3750000  -0.1250000), wk =   0.0078125
        k(  195) = (   0.3750000  -0.5000000   0.0000000), wk =   0.0078125
        k(  196) = (   0.3750000  -0.5000000   0.1250000), wk =   0.0078125
        k(  197) = (   0.3750000  -0.5000000   0.2500000), wk =   0.0078125
        k(  198) = (   0.3750000  -0.5000000   0.3750000), wk =   0.0078125
        k(  199) = (   0.3750000  -0.5000000  -0.5000000), wk =   0.0078125
        k(  200) = (   0.3750000  -0.5000000  -0.3750000), wk =   0.0078125
        k(  201) = (   0.3750000  -0.5000000  -0.2500000), wk =   0.0078125
        k(  202) = (   0.3750000  -0.5000000  -0.1250000), wk =   0.0078125
        k(  203) = (   0.3750000  -0.3750000   0.0000000), wk =   0.0078125
        k(  204) = (   0.3750000  -0.3750000   0.1250000), wk =   0.0078125
        k(  205) = (   0.3750000  -0.3750000   0.2500000), wk =   0.0078125
        k(  206) = (   0.3750000  -0.3750000   0.3750000), wk =   0.0078125
        k(  207) = (   0.3750000  -0.3750000  -0.5000000), wk =   0.0078125
        k(  208) = (   0.3750000  -0.3750000  -0.3750000), wk =   0.0078125
        k(  209) = (   0.3750000  -0.3750000  -0.2500000), wk =   0.0078125
        k(  210) = (   0.3750000  -0.3750000  -0.1250000), wk =   0.0078125
        k(  211) = (   0.3750000  -0.2500000   0.0000000), wk =   0.0078125
        k(  212) = (   0.3750000  -0.2500000   0.1250000), wk =   0.0078125
        k(  213) = (   0.3750000  -0.2500000   0.2500000), wk =   0.0078125
        k(  214) = (   0.3750000  -0.2500000   0.3750000), wk =   0.0078125
        k(  215) = (   0.3750000  -0.2500000  -0.5000000), wk =   0.0078125
        k(  216) = (   0.3750000  -0.2500000  -0.3750000), wk =   0.0078125
        k(  217) = (   0.3750000  -0.2500000  -0.2500000), wk =   0.0078125
        k(  218) = (   0.3750000  -0.2500000  -0.1250000), wk =   0.0078125
        k(  219) = (   0.3750000  -0.1250000   0.0000000), wk =   0.0078125
        k(  220) = (   0.3750000  -0.1250000   0.1250000), wk =   0.0078125
        k(  221) = (   0.3750000  -0.1250000   0.2500000), wk =   0.0078125
        k(  222) = (   0.3750000  -0.1250000   0.3750000), wk =   0.0078125
        k(  223) = (   0.3750000  -0.1250000  -0.5000000), wk =   0.0078125
        k(  224) = (   0.3750000  -0.1250000  -0.3750000), wk =   0.0078125
        k(  225) = (   0.3750000  -0.1250000  -0.2500000), wk =   0.0078125
        k(  226) = (   0.3750000  -0.1250000  -0.1250000), wk =   0.0078125
        k(  227) = (  -0.5000000   0.0000000  -0.0000000), wk =   0.0039062
        k(  228) = (  -0.5000000   0.0000000   0.1250000), wk =   0.0078125
        k(  229) = (  -0.5000000   0.0000000   0.2500000), wk =   0.0078125
        k(  230) = (  -0.5000000   0.0000000   0.3750000), wk =   0.0078125
        k(  231) = (  -0.5000000   0.0000000  -0.5000000), wk =   0.0039062
        k(  232) = (  -0.5000000   0.1250000  -0.0000000), wk =   0.0078125
        k(  233) = (  -0.5000000   0.1250000   0.1250000), wk =   0.0078125
        k(  234) = (  -0.5000000   0.1250000   0.2500000), wk =   0.0078125
        k(  235) = (  -0.5000000   0.1250000   0.3750000), wk =   0.0078125
        k(  236) = (  -0.5000000   0.1250000  -0.5000000), wk =   0.0078125
        k(  237) = (  -0.5000000   0.1250000  -0.3750000), wk =   0.0078125
        k(  238) = (  -0.5000000   0.1250000  -0.2500000), wk =   0.0078125
        k(  239) = (  -0.5000000   0.1250000  -0.1250000), wk =   0.0078125
        k(  240) = (  -0.5000000   0.2500000  -0.0000000), wk =   0.0078125
        k(  241) = (  -0.5000000   0.2500000   0.1250000), wk =   0.0078125
        k(  242) = (  -0.5000000   0.2500000   0.2500000), wk =   0.0078125
        k(  243) = (  -0.5000000   0.2500000   0.3750000), wk =   0.0078125
        k(  244) = (  -0.5000000   0.2500000  -0.5000000), wk =   0.0078125
        k(  245) = (  -0.5000000   0.2500000  -0.3750000), wk =   0.0078125
        k(  246) = (  -0.5000000   0.2500000  -0.2500000), wk =   0.0078125
        k(  247) = (  -0.5000000   0.2500000  -0.1250000), wk =   0.0078125
        k(  248) = (  -0.5000000   0.3750000  -0.0000000), wk =   0.0078125
        k(  249) = (  -0.5000000   0.3750000   0.1250000), wk =   0.0078125
        k(  250) = (  -0.5000000   0.3750000   0.2500000), wk =   0.0078125
        k(  251) = (  -0.5000000   0.3750000   0.3750000), wk =   0.0078125
        k(  252) = (  -0.5000000   0.3750000  -0.5000000), wk =   0.0078125
        k(  253) = (  -0.5000000   0.3750000  -0.3750000), wk =   0.0078125
        k(  254) = (  -0.5000000   0.3750000  -0.2500000), wk =   0.0078125
        k(  255) = (  -0.5000000   0.3750000  -0.1250000), wk =   0.0078125
        k(  256) = (  -0.5000000  -0.5000000   0.0000000), wk =   0.0039062
        k(  257) = (  -0.5000000  -0.5000000   0.1250000), wk =   0.0078125
        k(  258) = (  -0.5000000  -0.5000000   0.2500000), wk =   0.0078125
        k(  259) = (  -0.5000000  -0.5000000   0.3750000), wk =   0.0078125
        k(  260) = (  -0.5000000  -0.5000000  -0.5000000), wk =   0.0039062

     Dense  grid:    79199 G-vectors     FFT dimensions: (  48,  48,  80)

     Smooth grid:    30885 G-vectors     FFT dimensions: (  36,  36,  60)

     Dynamical RAM for                 wfc:       0.10 MB

     Dynamical RAM for     wfc (w. buffer):       6.28 MB

     Dynamical RAM for           str. fact:       0.15 MB

     Dynamical RAM for           local pot:       0.00 MB

     Dynamical RAM for          nlocal pot:       0.23 MB

     Dynamical RAM for                qrad:       3.80 MB

     Dynamical RAM for          rho,v,vnew:       0.49 MB

     Dynamical RAM for               rhoin:       0.16 MB

     Dynamical RAM for            rho*nmix:       1.21 MB

     Dynamical RAM for           G-vectors:       0.30 MB

     Dynamical RAM for          h,s,v(r/c):       0.12 MB

     Dynamical RAM for          <psi|beta>:       0.02 MB

     Dynamical RAM for                 psi:       0.38 MB

     Dynamical RAM for                hpsi:       0.38 MB

     Dynamical RAM for                spsi:       0.38 MB

     Dynamical RAM for      wfcinit/wfcrot:       0.28 MB

     Dynamical RAM for           addusdens:       3.61 MB

     Dynamical RAM for          addusforce:       3.75 MB

     Dynamical RAM for         addusstress:       3.82 MB

     Estimated static dynamical RAM per process >      13.29 MB

     Estimated max dynamical RAM per process >      17.11 MB

     Estimated total dynamical RAM >       1.07 GB

     Check: negative core charge=   -0.000003

     Initial potential from superposition of free atoms

     starting charge   51.99974, renormalised to   52.00000
     Starting wfcs are   34 randomized atomic wfcs

     total cpu time spent up to now is        2.6 secs

     Self-consistent Calculation

     iteration #  1     ecut=    80.00 Ry     beta= 0.50
     Davidson diagonalization with overlap
     ethr =  1.00E-02,  avg # of iterations =  1.0

     total cpu time spent up to now is        3.7 secs

     total energy              =    -986.76712995 Ry
     Harris-Foulkes estimate   =    -987.28918254 Ry
     estimated scf accuracy    <       0.82137656 Ry

     iteration #  2     ecut=    80.00 Ry     beta= 0.50
     Davidson diagonalization with overlap
     ethr =  1.58E-03,  avg # of iterations =  3.0

     total cpu time spent up to now is        5.1 secs

     total energy              =    -987.00846302 Ry
     Harris-Foulkes estimate   =    -987.17851303 Ry
     estimated scf accuracy    <       0.39348071 Ry

     iteration #  3     ecut=    80.00 Ry     beta= 0.50
     Davidson diagonalization with overlap
     ethr =  7.57E-04,  avg # of iterations =  2.0

     total cpu time spent up to now is        6.2 secs

     total energy              =    -987.07921597 Ry
     Harris-Foulkes estimate   =    -987.08151951 Ry
     estimated scf accuracy    <       0.00683523 Ry

     iteration #  4     ecut=    80.00 Ry     beta= 0.50
     Davidson diagonalization with overlap
     ethr =  1.31E-05,  avg # of iterations =  2.0

     total cpu time spent up to now is        7.2 secs

     total energy              =    -987.07979744 Ry
     Harris-Foulkes estimate   =    -987.08026089 Ry
     estimated scf accuracy    <       0.00154819 Ry

     iteration #  5     ecut=    80.00 Ry     beta= 0.50
     Davidson diagonalization with overlap
     ethr =  2.98E-06,  avg # of iterations =  2.0

     total cpu time spent up to now is        8.2 secs

     total energy              =    -987.07996088 Ry
     Harris-Foulkes estimate   =    -987.07997140 Ry
     estimated scf accuracy    <       0.00002023 Ry

     iteration #  6     ecut=    80.00 Ry     beta= 0.50
     Davidson diagonalization with overlap
     ethr =  3.89E-08,  avg # of iterations =  2.0

     total cpu time spent up to now is        9.3 secs

     total energy              =    -987.07996401 Ry
     Harris-Foulkes estimate   =    -987.07996339 Ry
     estimated scf accuracy    <       0.00000409 Ry

     iteration #  7     ecut=    80.00 Ry     beta= 0.50
     Davidson diagonalization with overlap
     ethr =  7.87E-09,  avg # of iterations =  1.4

     total cpu time spent up to now is       10.2 secs

     End of self-consistent calculation

          k = 0.0000 0.0000 0.0000 (  3887 PWs)   bands (ev):

  -114.3375-114.3371 -68.6975 -68.6975 -68.6969 -68.6969 -68.6928 -68.6895
    -9.2727  -8.5288   2.9226   2.9626   3.0413   3.0413   3.2635   3.2635
     4.2171   4.2171   4.4261   4.4261   4.6629   7.9452   7.9452   8.6967
     8.7834   8.7834

     occupation numbers 
     1.0000   1.0000   1.0000   1.0000   1.0000   1.0000   1.0000   1.0000
     1.0000   1.0000   1.0000   1.0000   1.0000   1.0000   1.0000   1.0000
     1.0000   1.0000   1.0000   1.0000   1.0000   1.0000   1.0000   1.0000
     1.0000   1.0000

          k = 0.0000 0.0000 0.0762 (  3839 PWs)   bands (ev):

  -114.3375-114.3371 -68.6975 -68.6975 -68.6969 -68.6968 -68.6926 -68.6896
    -9.2461  -8.5589   2.8646   2.9337   3.0464   3.0464   3.2511   3.2511
     4.2278   4.2278   4.4215   4.4215   4.8353   7.9777   7.9777   8.3063
     8.7522   8.7522

     occupation numbers 
     1.0000   1.0000   1.0000   1.0000   1.0000   1.0000   1.0000   1.0000
     1.0000   1.0000   1.0000   1.0000   1.0000   1.0000   1.0000   1.0000
     1.0000   1.0000   1.0000   1.0000   1.0000   1.0000   1.0000   1.0000
     1.0000   1.0000

          k = 0.0000 0.0000 0.1523 (  3862 PWs)   bands (ev):

  -114.3375-114.3371 -68.6975 -68.6975 -68.6969 -68.6969 -68.6922 -68.6900
    -9.1697  -8.6439   2.7604   2.8592   3.0621   3.0621   3.2177   3.2177
     4.2572   4.2572   4.4064   4.4064   5.2685   7.7042   8.0698   8.0698
     8.6627   8.6627

     occupation numbers 
     1.0000   1.0000   1.0000   1.0000   1.0000   1.0000   1.0000   1.0000
     1.0000   1.0000   1.0000   1.0000   1.0000   1.0000   1.0000   1.0000
     1.0000   1.0000   1.0000   1.0000   1.0000   1.0000   1.0000   1.0000
     1.0000   1.0000

          k = 0.0000 0.0000 0.2285 (  3844 PWs)   bands (ev):

  -114.3375-114.3371 -68.6974 -68.6974 -68.6970 -68.6970 -68.6917 -68.6904
    -9.0533  -8.7688   2.6984   2.7705   3.0895   3.0895   3.1732   3.1732
     4.2981   4.2981   4.3794   4.3794   5.8353   7.0828   8.2072   8.2072
     8.5281   8.5281

     occupation numbers 
     1.0000   1.0000   1.0000   1.0000   1.0000   1.0000   1.0000   1.0000
     1.0000   1.0000   1.0000   1.0000   1.0000   1.0000   1.0000   1.0000
     1.0000   1.0000   1.0000   1.0000   1.0000   1.0000   1.0000   1.0000
     1.0000   1.0000

          k =-0.0000-0.0000-0.3047 (  3844 PWs)   bands (ev):

  -114.3375-114.3371 -68.6973 -68.6973 -68.6970 -68.6970 -68.6912 -68.6909
    -8.9129  -8.9127   2.7059   2.7061   3.1277   3.1277   3.1278   3.1278
     4.3415   4.3415   4.3417   4.3417   6.4544   6.4545   8.3682   8.3682
     8.3683   8.3683

     occupation numbers 
     1.0000   1.0000   1.0000   1.0000   1.0000   1.0000   1.0000   1.0000
     1.0000   1.0000   1.0000   1.0000   1.0000   1.0000   1.0000   1.0000
     1.0000   1.0000   1.0000   1.0000   1.0000   1.0000   1.0000   1.0000
     1.0000   1.0000

          k =-0.0000 0.1443 0.0000 (  3877 PWs)   bands (ev):

  -114.3375-114.3371 -68.6979 -68.6976 -68.6973 -68.6970 -68.6926 -68.6896
    -9.1821  -8.4870   2.9250   3.0168   3.0771   3.0844   3.2613   3.3322
     4.1791   4.2150   4.4331   4.4684   4.6495   7.3849   7.7445   7.9659
     8.5908   8.6812

     occupation numbers 
     1.0000   1.0000   1.0000   1.0000   1.0000   1.0000   1.0000   1.0000
     1.0000   1.0000   1.0000   1.0000   1.0000   1.0000   1.0000   1.0000
     1.0000   1.0000   1.0000   1.0000   1.0000   1.0000   1.0000   1.0000
     1.0000   1.0000

          k =-0.0000 0.1443 0.0762 (  3863 PWs)   bands (ev):

  -114.3375-114.3371 -68.6979 -68.6976 -68.6973 -68.6970 -68.6924 -68.6897
    -9.1570  -8.5148   2.8867   2.9652   3.0549   3.0905   3.2607   3.3187
     4.1935   4.2254   4.4273   4.4500   4.8471   7.4162   7.7812   7.8339
     8.5334   8.6464

     occupation numbers 
     1.0000   1.0000   1.0000   1.0000   1.0000   1.0000   1.0000   1.0000
     1.0000   1.0000   1.0000   1.0000   1.0000   1.0000   1.0000   1.0000
     1.0000   1.0000   1.0000   1.0000   1.0000   1.0000   1.0000   1.0000
     1.0000   1.0000

          k =-0.0000 0.1443 0.1523 (  3863 PWs)   bands (ev):

  -114.3375-114.3371 -68.6978 -68.6976 -68.6973 -68.6970 -68.6921 -68.6900
    -9.0849  -8.5935   2.7943   2.8324   3.0755   3.1092   3.2366   3.2826
     4.2313   4.2543   4.4094   4.4232   5.3045   7.4015   7.6113   7.8851
     8.3816   8.5469

     occupation numbers 
     1.0000   1.0000   1.0000   1.0000   1.0000   1.0000   1.0000   1.0000
     1.0000   1.0000   1.0000   1.0000   1.0000   1.0000   1.0000   1.0000
     1.0000   1.0000   1.0000   1.0000   1.0000   1.0000   1.0000   1.0000
     1.0000   1.0000

          k = 0.0000 0.1443 0.2285 (  3854 PWs)   bands (ev):

  -114.3375-114.3371 -68.6978 -68.6975 -68.6974 -68.6971 -68.6916 -68.6904
    -8.9754  -8.7095   2.7062   2.7386   3.1078   3.1407   3.1946   3.2339
     4.2828   4.2950   4.3793   4.3859   5.8701   6.9847   7.7343   8.0392
     8.1713   8.3972

     occupation numbers 
     1.0000   1.0000   1.0000   1.0000   1.0000   1.0000   1.0000   1.0000
     1.0000   1.0000   1.0000   1.0000   1.0000   1.0000   1.0000   1.0000
     1.0000   1.0000   1.0000   1.0000   1.0000   1.0000   1.0000   1.0000
     1.0000   1.0000

          k =-0.0000 0.1443-0.3047 (  3856 PWs)   bands (ev):

  -114.3375-114.3371 -68.6977 -68.6975 -68.6974 -68.6971 -68.6912 -68.6908
    -8.8439  -8.8437   2.6888   2.6889   3.1486   3.1487   3.1838   3.1839
     4.3372   4.3375   4.3392   4.3394   6.4500   6.4501   7.9426   7.9427
     8.2191   8.2192

     occupation numbers 
     1.0000   1.0000   1.0000   1.0000   1.0000   1.0000   1.0000   1.0000
     1.0000   1.0000   1.0000   1.0000   1.0000   1.0000   1.0000   1.0000
     1.0000   1.0000   1.0000   1.0000   1.0000   1.0000   1.0000   1.0000
     1.0000   1.0000

          k =-0.0000 0.1443-0.2285 (  3854 PWs)   bands (ev):

  -114.3375-114.3371 -68.6978 -68.6975 -68.6974 -68.6971 -68.6916 -68.6904
    -8.9754  -8.7095   2.7062   2.7386   3.1078   3.1407   3.1946   3.2339
     4.2828   4.2950   4.3793   4.3859   5.8701   6.9847   7.7343   8.0392
     8.1713   8.3972

     occupation numbers 
     1.0000   1.0000   1.0000   1.0000   1.0000   1.0000   1.0000   1.0000
     1.0000   1.0000   1.0000   1.0000   1.0000   1.0000   1.0000   1.0000
     1.0000   1.0000   1.0000   1.0000   1.0000   1.0000   1.0000   1.0000
     1.0000   1.0000

          k =-0.0000 0.1443-0.1523 (  3863 PWs)   bands (ev):

  -114.3375-114.3371 -68.6978 -68.6976 -68.6973 -68.6970 -68.6921 -68.6900
    -9.0849  -8.5935   2.7943   2.8324   3.0755   3.1092   3.2366   3.2826
     4.2313   4.2542   4.4094   4.4232   5.3045   7.4014   7.6113   7.8851
     8.3816   8.5469

     occupation numbers 
     1.0000   1.0000   1.0000   1.0000   1.0000   1.0000   1.0000   1.0000
     1.0000   1.0000   1.0000   1.0000   1.0000   1.0000   1.0000   1.0000
     1.0000   1.0000   1.0000   1.0000   1.0000   1.0000   1.0000   1.0000
     1.0000   1.0000

          k =-0.0000 0.1443-0.0762 (  3863 PWs)   bands (ev):

  -114.3375-114.3371 -68.6979 -68.6976 -68.6973 -68.6970 -68.6924 -68.6897
    -9.1570  -8.5148   2.8867   2.9652   3.0549   3.0905   3.2607   3.3187
     4.1935   4.2254   4.4273   4.4500   4.8471   7.4162   7.7812   7.8339
     8.5334   8.6464

     occupation numbers 
     1.0000   1.0000   1.0000   1.0000   1.0000   1.0000   1.0000   1.0000
     1.0000   1.0000   1.0000   1.0000   1.0000   1.0000   1.0000   1.0000
     1.0000   1.0000   1.0000   1.0000   1.0000   1.0000   1.0000   1.0000
     1.0000   1.0000

          k =-0.0000 0.2887 0.0000 (  3865 PWs)   bands (ev):

  -114.3374-114.3371 -68.6987 -68.6982 -68.6979 -68.6972 -68.6921 -68.6898
    -8.9482  -8.3926   2.7461   3.0740   3.1736   3.2482   3.5185   3.5244
     4.1005   4.2457   4.4467   4.5098   4.7180   6.2197   7.0713   7.2574
     8.2543   8.4176

     occupation numbers 
     1.0000   1.0000   1.0000   1.0000   1.0000   1.0000   1.0000   1.0000
     1.0000   1.0000   1.0000   1.0000   1.0000   1.0000   1.0000   1.0000
     1.0000   1.0000   1.0000   1.0000   1.0000   1.0000   1.0000   1.0000
     1.0000   1.0000

          k =-0.0000 0.2887 0.0762 (  3871 PWs)   bands (ev):

  -114.3374-114.3371 -68.6987 -68.6982 -68.6979 -68.6972 -68.6920 -68.6899
    -8.9275  -8.4140   2.7238   3.0168   3.1834   3.2252   3.4576   3.5011
     4.1281   4.2538   4.4392   4.4997   4.9295   6.2681   7.0106   7.3044
     8.2236   8.3751

     occupation numbers 
     1.0000   1.0000   1.0000   1.0000   1.0000   1.0000   1.0000   1.0000
     1.0000   1.0000   1.0000   1.0000   1.0000   1.0000   1.0000   1.0000
     1.0000   1.0000   1.0000   1.0000   1.0000   1.0000   1.0000   1.0000
     1.0000   1.0000

          k =-0.0000 0.2887 0.1523 (  3868 PWs)   bands (ev):

  -114.3374-114.3371 -68.6987 -68.6982 -68.6978 -68.6972 -68.6918 -68.6901
    -8.8681  -8.4749   2.6706   2.8557   3.2103   3.2124   3.3749   3.4538
     4.1877   4.2764   4.4179   4.4650   5.3802   6.3913   6.8935   7.4365
     8.0838   8.2539

     occupation numbers 
     1.0000   1.0000   1.0000   1.0000   1.0000   1.0000   1.0000   1.0000
     1.0000   1.0000   1.0000   1.0000   1.0000   1.0000   1.0000   1.0000
     1.0000   1.0000   1.0000   1.0000   1.0000   1.0000   1.0000   1.0000
     1.0000   1.0000

          k =-0.0000 0.2887 0.2285 (  3850 PWs)   bands (ev):

  -114.3374-114.3371 -68.6987 -68.6983 -68.6977 -68.6973 -68.6914 -68.6904
    -8.7787  -8.5658   2.6237   2.7034   3.2253   3.2594   3.3121   3.3891
     4.2621   4.3097   4.3860   4.4096   5.8313   6.3995   6.9799   7.6298
     7.7835   8.0711

     occupation numbers 
     1.0000   1.0000   1.0000   1.0000   1.0000   1.0000   1.0000   1.0000
     1.0000   1.0000   1.0000   1.0000   1.0000   1.0000   1.0000   1.0000
     1.0000   1.0000   1.0000   1.0000   1.0000   1.0000   1.0000   1.0000
     1.0000   1.0000

          k =-0.0000 0.2887-0.3047 (  3852 PWs)   bands (ev):

  -114.3374-114.3371 -68.6986 -68.6983 -68.6977 -68.6973 -68.6911 -68.6907
    -8.6727  -8.6725   2.6254   2.6255   3.2612   3.2613   3.3206   3.3207
     4.3393   4.3395   4.3480   4.3483   6.1760   6.1760   7.3651   7.3651
     7.8526   7.8527

     occupation numbers 
     1.0000   1.0000   1.0000   1.0000   1.0000   1.0000   1.0000   1.0000
     1.0000   1.0000   1.0000   1.0000   1.0000   1.0000   1.0000   1.0000
     1.0000   1.0000   1.0000   1.0000   1.0000   1.0000   1.0000   1.0000
     1.0000   1.0000

          k =-0.0000 0.2887-0.2285 (  3850 PWs)   bands (ev):

  -114.3374-114.3371 -68.6987 -68.6983 -68.6977 -68.6973 -68.6914 -68.6904
    -8.7787  -8.5658   2.6237   2.7034   3.2254   3.2594   3.3120   3.3891
     4.2621   4.3097   4.3860   4.4096   5.8313   6.3994   6.9799   7.6298
     7.7835   8.0711

     occupation numbers 
     1.0000   1.0000   1.0000   1.0000   1.0000   1.0000   1.0000   1.0000
     1.0000   1.0000   1.0000   1.0000   1.0000   1.0000   1.0000   1.0000
     1.0000   1.0000   1.0000   1.0000   1.0000   1.0000   1.0000   1.0000
     1.0000   1.0000

          k =-0.0000 0.2887-0.1523 (  3868 PWs)   bands (ev):

  -114.3374-114.3371 -68.6987 -68.6982 -68.6978 -68.6972 -68.6918 -68.6901
    -8.8681  -8.4749   2.6706   2.8557   3.2103   3.2124   3.3749   3.4538
     4.1877   4.2764   4.4179   4.4650   5.3802   6.3913   6.8936   7.4365
     8.0838   8.2539

     occupation numbers 
     1.0000   1.0000   1.0000   1.0000   1.0000   1.0000   1.0000   1.0000
     1.0000   1.0000   1.0000   1.0000   1.0000   1.0000   1.0000   1.0000
     1.0000   1.0000   1.0000   1.0000   1.0000   1.0000   1.0000   1.0000
     1.0000   1.0000

          k =-0.0000 0.2887-0.0762 (  3871 PWs)   bands (ev):

  -114.3374-114.3371 -68.6987 -68.6982 -68.6979 -68.6972 -68.6920 -68.6899
    -8.9275  -8.4140   2.7238   3.0168   3.1834   3.2252   3.4576   3.5011
     4.1281   4.2538   4.4392   4.4998   4.9294   6.2681   7.0106   7.3044
     8.2236   8.3751

     occupation numbers 
     1.0000   1.0000   1.0000   1.0000   1.0000   1.0000   1.0000   1.0000
     1.0000   1.0000   1.0000   1.0000   1.0000   1.0000   1.0000   1.0000
     1.0000   1.0000   1.0000   1.0000   1.0000   1.0000   1.0000   1.0000
     1.0000   1.0000

          k =-0.0000 0.4330 0.0000 (  3851 PWs)   bands (ev):

  -114.3374-114.3370 -68.6995 -68.6990 -68.6981 -68.6974 -68.6917 -68.6901
    -8.6785  -8.3206   2.6849   3.0221   3.2339   3.4643   3.6650   3.7442
     4.1906   4.3398   4.4647   4.6169   4.8618   5.3223   6.2822   6.7389
     7.7291   8.1307

     occupation numbers 
     1.0000   1.0000   1.0000   1.0000   1.0000   1.0000   1.0000   1.0000
     1.0000   1.0000   1.0000   1.0000   1.0000   1.0000   1.0000   1.0000
     1.0000   1.0000   1.0000   1.0000   1.0000   1.0000   1.0000   1.0000
     1.0000   1.0000

          k =-0.0000 0.4330 0.0762 (  3857 PWs)   bands (ev):

  -114.3374-114.3370 -68.6995 -68.6990 -68.6981 -68.6974 -68.6916 -68.6901
    -8.6642  -8.3334   2.6620   2.9615   3.2488   3.4482   3.6139   3.7187
     4.2020   4.3433   4.4570   4.5926   4.9577   5.4367   6.2749   6.7988
     7.7557   8.0813

     occupation numbers 
     1.0000   1.0000   1.0000   1.0000   1.0000   1.0000   1.0000   1.0000
     1.0000   1.0000   1.0000   1.0000   1.0000   1.0000   1.0000   1.0000
     1.0000   1.0000   1.0000   1.0000   1.0000   1.0000   1.0000   1.0000
     1.0000   1.0000

          k =-0.0000 0.4330 0.1523 (  3857 PWs)   bands (ev):

  -114.3374-114.3370 -68.6995 -68.6991 -68.6981 -68.6975 -68.6914 -68.6903
    -8.6238  -8.3703   2.6092   2.8121   3.2928   3.4217   3.5370   3.6497
     4.2474   4.3537   4.4380   4.5362   5.1223   5.6144   6.3973   6.9644
     7.7614   7.9397

     occupation numbers 
     1.0000   1.0000   1.0000   1.0000   1.0000   1.0000   1.0000   1.0000
     1.0000   1.0000   1.0000   1.0000   1.0000   1.0000   1.0000   1.0000
     1.0000   1.0000   1.0000   1.0000   1.0000   1.0000   1.0000   1.0000
     1.0000   1.0000

          k =-0.0000 0.4330 0.2285 (  3854 PWs)   bands (ev):

  -114.3374-114.3370 -68.6995 -68.6992 -68.6980 -68.6975 -68.6912 -68.6905
    -8.5639  -8.4266   2.5664   2.6621   3.3630   3.4164   3.4785   3.5547
     4.3163   4.3700   4.4143   4.4670   5.2874   5.5857   6.8058   7.2009
     7.6173   7.7256

     occupation numbers 
     1.0000   1.0000   1.0000   1.0000   1.0000   1.0000   1.0000   1.0000
     1.0000   1.0000   1.0000   1.0000   1.0000   1.0000   1.0000   1.0000
     1.0000   1.0000   1.0000   1.0000   1.0000   1.0000   1.0000   1.0000
     1.0000   1.0000

          k =-0.0000 0.4330-0.3047 (  3862 PWs)   bands (ev):

  -114.3374-114.3370 -68.6995 -68.6992 -68.6979 -68.6976 -68.6910 -68.6907
    -8.4946  -8.4944   2.5762   2.5762   3.4370   3.4372   3.4537   3.4539
     4.3907   4.3909   4.3922   4.3923   5.4487   5.4488   7.2750   7.2751
     7.4676   7.4677

     occupation numbers 
     1.0000   1.0000   1.0000   1.0000   1.0000   1.0000   1.0000   1.0000
     1.0000   1.0000   1.0000   1.0000   1.0000   1.0000   1.0000   1.0000
     1.0000   1.0000   1.0000   1.0000   1.0000   1.0000   1.0000   1.0000
     1.0000   1.0000

          k =-0.0000 0.4330-0.2285 (  3854 PWs)   bands (ev):

  -114.3374-114.3370 -68.6995 -68.6992 -68.6980 -68.6975 -68.6912 -68.6905
    -8.5639  -8.4266   2.5664   2.6622   3.3630   3.4165   3.4783   3.5547
     4.3162   4.3699   4.4144   4.4671   5.2874   5.5857   6.8058   7.2009
     7.6173   7.7256

     occupation numbers 
     1.0000   1.0000   1.0000   1.0000   1.0000   1.0000   1.0000   1.0000
     1.0000   1.0000   1.0000   1.0000   1.0000   1.0000   1.0000   1.0000
     1.0000   1.0000   1.0000   1.0000   1.0000   1.0000   1.0000   1.0000
     1.0000   1.0000

          k =-0.0000 0.4330-0.1523 (  3857 PWs)   bands (ev):

  -114.3374-114.3370 -68.6995 -68.6991 -68.6981 -68.6975 -68.6914 -68.6903
    -8.6238  -8.3703   2.6091   2.8121   3.2928   3.4219   3.5369   3.6497
     4.2474   4.3536   4.4380   4.5363   5.1223   5.6143   6.3974   6.9644
     7.7614   7.9397

     occupation numbers 
     1.0000   1.0000   1.0000   1.0000   1.0000   1.0000   1.0000   1.0000
     1.0000   1.0000   1.0000   1.0000   1.0000   1.0000   1.0000   1.0000
     1.0000   1.0000   1.0000   1.0000   1.0000   1.0000   1.0000   1.0000
     1.0000   1.0000

          k =-0.0000 0.4330-0.0762 (  3857 PWs)   bands (ev):

  -114.3374-114.3370 -68.6995 -68.6990 -68.6981 -68.6974 -68.6916 -68.6901
    -8.6642  -8.3334   2.6620   2.9615   3.2488   3.4483   3.6138   3.7187
     4.2019   4.3433   4.4571   4.5927   4.9578   5.4366   6.2749   6.7988
     7.7557   8.0813

     occupation numbers 
     1.0000   1.0000   1.0000   1.0000   1.0000   1.0000   1.0000   1.0000
     1.0000   1.0000   1.0000   1.0000   1.0000   1.0000   1.0000   1.0000
     1.0000   1.0000   1.0000   1.0000   1.0000   1.0000   1.0000   1.0000
     1.0000   1.0000

          k = 0.0000-0.5774-0.0000 (  3858 PWs)   bands (ev):

  -114.3374-114.3370 -68.6999 -68.6994 -68.6983 -68.6975 -68.6914 -68.6903
    -8.5400  -8.3132   2.7549   2.9484   3.2494   3.5449   3.6466   3.8514
     4.2203   4.4060   4.4769   4.5626   4.9873   5.2876   5.8713   6.5017
     7.3968   8.0040

     occupation numbers 
     1.0000   1.0000   1.0000   1.0000   1.0000   1.0000   1.0000   1.0000
     1.0000   1.0000   1.0000   1.0000   1.0000   1.0000   1.0000   1.0000
     1.0000   1.0000   1.0000   1.0000   1.0000   1.0000   1.0000   1.0000
     1.0000   1.0000

          k = 0.0000-0.5774 0.0762 (  3852 PWs)   bands (ev):

  -114.3374-114.3370 -68.6999 -68.6994 -68.6982 -68.6975 -68.6913 -68.6903
    -8.5303  -8.3206   2.7249   2.8869   3.2667   3.5408   3.6227   3.8207
     4.2639   4.4071   4.4694   4.5619   4.9645   5.2510   6.0363   6.5693
     7.4507   7.9516

     occupation numbers 
     1.0000   1.0000   1.0000   1.0000   1.0000   1.0000   1.0000   1.0000
     1.0000   1.0000   1.0000   1.0000   1.0000   1.0000   1.0000   1.0000
     1.0000   1.0000   1.0000   1.0000   1.0000   1.0000   1.0000   1.0000
     1.0000   1.0000

          k = 0.0000-0.5774 0.1523 (  3858 PWs)   bands (ev):

  -114.3374-114.3370 -68.6999 -68.6995 -68.6982 -68.6975 -68.6912 -68.6904
    -8.5030  -8.3422   2.6538   2.7505   3.3175   3.5326   3.5815   3.7376
     4.3530   4.4104   4.4530   4.5569   4.9390   5.1653   6.4320   6.7532
     7.5397   7.8016

     occupation numbers 
     1.0000   1.0000   1.0000   1.0000   1.0000   1.0000   1.0000   1.0000
     1.0000   1.0000   1.0000   1.0000   1.0000   1.0000   1.0000   1.0000
     1.0000   1.0000   1.0000   1.0000   1.0000   1.0000   1.0000   1.0000
     1.0000   1.0000

          k = 0.0000-0.5774 0.2285 (  3850 PWs)   bands (ev):

  -114.3374-114.3370 -68.6999 -68.6995 -68.6981 -68.6976 -68.6910 -68.6905
    -8.4633  -8.3762   2.5864   2.6265   3.3991   3.5278   3.5500   3.6242
     4.4161   4.4370   4.4394   4.5404   4.9468   5.0704   6.8979   7.0115
     7.5180   7.5741

     occupation numbers 
     1.0000   1.0000   1.0000   1.0000   1.0000   1.0000   1.0000   1.0000
     1.0000   1.0000   1.0000   1.0000   1.0000   1.0000   1.0000   1.0000
     1.0000   1.0000   1.0000   1.0000   1.0000   1.0000   1.0000   1.0000
     1.0000   1.0000

          k = 0.0000-0.5774-0.3047 (  3860 PWs)   bands (ev):

  -114.3374-114.3370 -68.6999 -68.6996 -68.6980 -68.6977 -68.6910 -68.6906
    -8.4187  -8.4185   2.5687   2.5688   3.5051   3.5052   3.5324   3.5326
     4.4246   4.4248   4.5031   4.5033   4.9926   4.9928   7.2953   7.2955
     7.2987   7.2989

     occupation numbers 
     1.0000   1.0000   1.0000   1.0000   1.0000   1.0000   1.0000   1.0000
     1.0000   1.0000   1.0000   1.0000   1.0000   1.0000   1.0000   1.0000
     1.0000   1.0000   1.0000   1.0000   1.0000   1.0000   1.0000   1.0000
     1.0000   1.0000

          k = 0.1250 0.0722 0.0000 (  3877 PWs)   bands (ev):

  -114.3375-114.3371 -68.6979 -68.6976 -68.6973 -68.6970 -68.6926 -68.6896
    -9.1821  -8.4870   2.9250   3.0168   3.0771   3.0844   3.2613   3.3322
     4.1791   4.2150   4.4331   4.4684   4.6495   7.3849   7.7445   7.9659
     8.5908   8.6812

     occupation numbers 
     1.0000   1.0000   1.0000   1.0000   1.0000   1.0000   1.0000   1.0000
     1.0000   1.0000   1.0000   1.0000   1.0000   1.0000   1.0000   1.0000
     1.0000   1.0000   1.0000   1.0000   1.0000   1.0000   1.0000   1.0000
     1.0000   1.0000

          k = 0.1250 0.0722 0.0762 (  3863 PWs)   bands (ev):

  -114.3375-114.3371 -68.6979 -68.6976 -68.6973 -68.6970 -68.6924 -68.6897
    -9.1570  -8.5148   2.8867   2.9652   3.0549   3.0905   3.2607   3.3187
     4.1935   4.2254   4.4273   4.4500   4.8471   7.4162   7.7812   7.8339
     8.5334   8.6464

     occupation numbers 
     1.0000   1.0000   1.0000   1.0000   1.0000   1.0000   1.0000   1.0000
     1.0000   1.0000   1.0000   1.0000   1.0000   1.0000   1.0000   1.0000
     1.0000   1.0000   1.0000   1.0000   1.0000   1.0000   1.0000   1.0000
     1.0000   1.0000

          k = 0.1250 0.0722 0.1523 (  3863 PWs)   bands (ev):

  -114.3375-114.3371 -68.6978 -68.6976 -68.6973 -68.6970 -68.6921 -68.6900
    -9.0849  -8.5935   2.7943   2.8324   3.0755   3.1092   3.2366   3.2826
     4.2313   4.2542   4.4094   4.4232   5.3045   7.4014   7.6113   7.8851
     8.3816   8.5469

     occupation numbers 
     1.0000   1.0000   1.0000   1.0000   1.0000   1.0000   1.0000   1.0000
     1.0000   1.0000   1.0000   1.0000   1.0000   1.0000   1.0000   1.0000
     1.0000   1.0000   1.0000   1.0000   1.0000   1.0000   1.0000   1.0000
     1.0000   1.0000

          k = 0.1250 0.0722 0.2285 (  3854 PWs)   bands (ev):

  -114.3375-114.3371 -68.6978 -68.6975 -68.6974 -68.6971 -68.6916 -68.6904
    -8.9754  -8.7095   2.7062   2.7386   3.1078   3.1407   3.1946   3.2339
     4.2828   4.2950   4.3793   4.3859   5.8701   6.9847   7.7343   8.0392
     8.1713   8.3972

     occupation numbers 
     1.0000   1.0000   1.0000   1.0000   1.0000   1.0000   1.0000   1.0000
     1.0000   1.0000   1.0000   1.0000   1.0000   1.0000   1.0000   1.0000
     1.0000   1.0000   1.0000   1.0000   1.0000   1.0000   1.0000   1.0000
     1.0000   1.0000

          k = 0.1250 0.0722-0.3047 (  3856 PWs)   bands (ev):

  -114.3375-114.3371 -68.6977 -68.6975 -68.6974 -68.6971 -68.6912 -68.6908
    -8.8439  -8.8437   2.6888   2.6889   3.1486   3.1487   3.1838   3.1839
     4.3372   4.3375   4.3392   4.3394   6.4500   6.4501   7.9426   7.9427
     8.2191   8.2192

     occupation numbers 
     1.0000   1.0000   1.0000   1.0000   1.0000   1.0000   1.0000   1.0000
     1.0000   1.0000   1.0000   1.0000   1.0000   1.0000   1.0000   1.0000
     1.0000   1.0000   1.0000   1.0000   1.0000   1.0000   1.0000   1.0000
     1.0000   1.0000

          k = 0.1250 0.0722-0.2285 (  3854 PWs)   bands (ev):

  -114.3375-114.3371 -68.6978 -68.6975 -68.6974 -68.6971 -68.6916 -68.6904
    -8.9754  -8.7095   2.7062   2.7386   3.1078   3.1407   3.1946   3.2339
     4.2828   4.2950   4.3793   4.3859   5.8701   6.9847   7.7343   8.0392
     8.1713   8.3972

     occupation numbers 
     1.0000   1.0000   1.0000   1.0000   1.0000   1.0000   1.0000   1.0000
     1.0000   1.0000   1.0000   1.0000   1.0000   1.0000   1.0000   1.0000
     1.0000   1.0000   1.0000   1.0000   1.0000   1.0000   1.0000   1.0000
     1.0000   1.0000

          k = 0.1250 0.0722-0.1523 (  3863 PWs)   bands (ev):

  -114.3375-114.3371 -68.6978 -68.6976 -68.6973 -68.6970 -68.6921 -68.6900
    -9.0849  -8.5935   2.7943   2.8324   3.0755   3.1092   3.2366   3.2826
     4.2313   4.2543   4.4094   4.4232   5.3045   7.4015   7.6113   7.8851
     8.3816   8.5469

     occupation numbers 
     1.0000   1.0000   1.0000   1.0000   1.0000   1.0000   1.0000   1.0000
     1.0000   1.0000   1.0000   1.0000   1.0000   1.0000   1.0000   1.0000
     1.0000   1.0000   1.0000   1.0000   1.0000   1.0000   1.0000   1.0000
     1.0000   1.0000

          k = 0.1250 0.0722-0.0762 (  3863 PWs)   bands (ev):

  -114.3375-114.3371 -68.6979 -68.6976 -68.6973 -68.6970 -68.6924 -68.6897
    -9.1570  -8.5148   2.8867   2.9652   3.0549   3.0905   3.2607   3.3187
     4.1935   4.2254   4.4273   4.4500   4.8471   7.4162   7.7812   7.8339
     8.5334   8.6464

     occupation numbers 
     1.0000   1.0000   1.0000   1.0000   1.0000   1.0000   1.0000   1.0000
     1.0000   1.0000   1.0000   1.0000   1.0000   1.0000   1.0000   1.0000
     1.0000   1.0000   1.0000   1.0000   1.0000   1.0000   1.0000   1.0000
     1.0000   1.0000

          k = 0.1250 0.2165 0.0000 (  3865 PWs)   bands (ev):

  -114.3375-114.3371 -68.6984 -68.6980 -68.6977 -68.6972 -68.6923 -68.6897
    -9.0196  -8.4189   2.8454   3.0287   3.0963   3.2477   3.4198   3.4611
     4.1306   4.2162   4.4406   4.5174   4.6799   6.7095   6.9939   7.5435
     8.3771   8.4306

     occupation numbers 
     1.0000   1.0000   1.0000   1.0000   1.0000   1.0000   1.0000   1.0000
     1.0000   1.0000   1.0000   1.0000   1.0000   1.0000   1.0000   1.0000
     1.0000   1.0000   1.0000   1.0000   1.0000   1.0000   1.0000   1.0000
     1.0000   1.0000

          k = 0.1250 0.2165 0.0762 (  3864 PWs)   bands (ev):

  -114.3375-114.3371 -68.6984 -68.6980 -68.6977 -68.6972 -68.6922 -68.6898
    -8.9974  -8.4424   2.8158   2.9824   3.1043   3.2127   3.3785   3.4457
     4.1493   4.2324   4.4336   4.4935   4.8989   6.7583   6.9805   7.5231
     8.3362   8.3882

     occupation numbers 
     1.0000   1.0000   1.0000   1.0000   1.0000   1.0000   1.0000   1.0000
     1.0000   1.0000   1.0000   1.0000   1.0000   1.0000   1.0000   1.0000
     1.0000   1.0000   1.0000   1.0000   1.0000   1.0000   1.0000   1.0000
     1.0000   1.0000

          k = 0.1250 0.2165 0.1523 (  3863 PWs)   bands (ev):

  -114.3375-114.3371 -68.6984 -68.6980 -68.6977 -68.6972 -68.6919 -68.6901
    -8.9338  -8.5089   2.7467   2.8405   3.1249   3.1906   3.3263   3.4044
     4.1993   4.2631   4.4132   4.4565   5.3676   6.8847   6.9067   7.5435
     8.1800   8.2679

     occupation numbers 
     1.0000   1.0000   1.0000   1.0000   1.0000   1.0000   1.0000   1.0000
     1.0000   1.0000   1.0000   1.0000   1.0000   1.0000   1.0000   1.0000
     1.0000   1.0000   1.0000   1.0000   1.0000   1.0000   1.0000   1.0000
     1.0000   1.0000

          k = 0.1250 0.2165 0.2285 (  3869 PWs)   bands (ev):

  -114.3374-114.3371 -68.6984 -68.6980 -68.6977 -68.6973 -68.6915 -68.6905
    -8.8379  -8.6079   2.6797   2.7101   3.1546   3.2009   3.2890   3.3498
     4.2670   4.3009   4.3816   4.4048   5.8824   6.6605   7.1593   7.6680
     7.8942   8.0894

     occupation numbers 
     1.0000   1.0000   1.0000   1.0000   1.0000   1.0000   1.0000   1.0000
     1.0000   1.0000   1.0000   1.0000   1.0000   1.0000   1.0000   1.0000
     1.0000   1.0000   1.0000   1.0000   1.0000   1.0000   1.0000   1.0000
     1.0000   1.0000

          k = 0.1250 0.2165-0.3047 (  3856 PWs)   bands (ev):

  -114.3374-114.3371 -68.6984 -68.6980 -68.6977 -68.6973 -68.6911 -68.6908
    -8.7236  -8.7234   2.6572   2.6573   3.1881   3.1882   3.3000   3.3001
     4.3355   4.3357   4.3458   4.3460   6.3259   6.3259   7.5025   7.5025
     7.8850   7.8851

     occupation numbers 
     1.0000   1.0000   1.0000   1.0000   1.0000   1.0000   1.0000   1.0000
     1.0000   1.0000   1.0000   1.0000   1.0000   1.0000   1.0000   1.0000
     1.0000   1.0000   1.0000   1.0000   1.0000   1.0000   1.0000   1.0000
     1.0000   1.0000

          k = 0.1250 0.2165-0.2285 (  3869 PWs)   bands (ev):

  -114.3374-114.3371 -68.6984 -68.6980 -68.6977 -68.6973 -68.6915 -68.6905
    -8.8379  -8.6079   2.6797   2.7101   3.1546   3.2009   3.2890   3.3498
     4.2670   4.3009   4.3816   4.4048   5.8824   6.6605   7.1593   7.6680
     7.8942   8.0894

     occupation numbers 
     1.0000   1.0000   1.0000   1.0000   1.0000   1.0000   1.0000   1.0000
     1.0000   1.0000   1.0000   1.0000   1.0000   1.0000   1.0000   1.0000
     1.0000   1.0000   1.0000   1.0000   1.0000   1.0000   1.0000   1.0000
     1.0000   1.0000

          k = 0.1250 0.2165-0.1523 (  3863 PWs)   bands (ev):

  -114.3375-114.3371 -68.6984 -68.6980 -68.6977 -68.6972 -68.6919 -68.6901
    -8.9338  -8.5089   2.7467   2.8405   3.1249   3.1906   3.3263   3.4044
     4.1993   4.2631   4.4132   4.4565   5.3676   6.8847   6.9067   7.5435
     8.1801   8.2679

     occupation numbers 
     1.0000   1.0000   1.0000   1.0000   1.0000   1.0000   1.0000   1.0000
     1.0000   1.0000   1.0000   1.0000   1.0000   1.0000   1.0000   1.0000
     1.0000   1.0000   1.0000   1.0000   1.0000   1.0000   1.0000   1.0000
     1.0000   1.0000

          k = 0.1250 0.2165-0.0762 (  3864 PWs)   bands (ev):

  -114.3375-114.3371 -68.6984 -68.6980 -68.6977 -68.6972 -68.6922 -68.6898
    -8.9974  -8.4424   2.8158   2.9824   3.1043   3.2127   3.3785   3.4457
     4.1493   4.2324   4.4336   4.4935   4.8989   6.7583   6.9805   7.5231
     8.3362   8.3882

     occupation numbers 
     1.0000   1.0000   1.0000   1.0000   1.0000   1.0000   1.0000   1.0000
     1.0000   1.0000   1.0000   1.0000   1.0000   1.0000   1.0000   1.0000
     1.0000   1.0000   1.0000   1.0000   1.0000   1.0000   1.0000   1.0000
     1.0000   1.0000

          k = 0.1250 0.3608 0.0000 (  3850 PWs)   bands (ev):

  -114.3374-114.3370 -68.6991 -68.6987 -68.6981 -68.6974 -68.6918 -68.6900
    -8.7652  -8.3368   2.7732   3.0314   3.1881   3.3773   3.6568   3.7180
     4.1048   4.2513   4.4588   4.5787   4.8590   5.7542   6.3848   6.7685
     7.9466   8.0595

     occupation numbers 
     1.0000   1.0000   1.0000   1.0000   1.0000   1.0000   1.0000   1.0000
     1.0000   1.0000   1.0000   1.0000   1.0000   1.0000   1.0000   1.0000
     1.0000   1.0000   1.0000   1.0000   1.0000   1.0000   1.0000   1.0000
     1.0000   1.0000

          k = 0.1250 0.3608 0.0762 (  3843 PWs)   bands (ev):

  -114.3374-114.3370 -68.6991 -68.6987 -68.6981 -68.6975 -68.6917 -68.6900
    -8.7486  -8.3526   2.7477   2.9879   3.1977   3.3552   3.6058   3.6456
     4.1230   4.2910   4.4523   4.5698   5.0182   5.8311   6.3888   6.7828
     7.9454   8.0132

     occupation numbers 
[...]

  -114.3374-114.3370 -68.6994 -68.6991 -68.6985 -68.6980 -68.6912 -68.6904
    -8.5123  -8.3390   2.8866   2.8921   3.2800   3.3444   3.6723   3.6891
     4.1843   4.3466   4.5008   4.6987   5.0039   5.5976   6.0215   6.4799
     7.2843   7.6124

     occupation numbers 
     1.0000   1.0000   1.0000   1.0000   1.0000   1.0000   1.0000   1.0000
     1.0000   1.0000   1.0000   1.0000   1.0000   1.0000   1.0000   1.0000
     1.0000   1.0000   1.0000   1.0000   1.0000   1.0000   1.0000   1.0000
     1.0000   1.0000

          k =-0.5000 0.0000 0.2285 (  3843 PWs)   bands (ev):

  -114.3374-114.3370 -68.6994 -68.6991 -68.6985 -68.6981 -68.6910 -68.6905
    -8.4699  -8.3760   2.7938   2.8177   3.2465   3.3318   3.6162   3.6183
     4.2642   4.3540   4.5198   4.6254   5.1796   5.4920   6.2732   6.7817
     7.1451   7.5906

     occupation numbers 
     1.0000   1.0000   1.0000   1.0000   1.0000   1.0000   1.0000   1.0000
     1.0000   1.0000   1.0000   1.0000   1.0000   1.0000   1.0000   1.0000
     1.0000   1.0000   1.0000   1.0000   1.0000   1.0000   1.0000   1.0000
     1.0000   1.0000

          k =-0.5000-0.0000-0.3047 (  3850 PWs)   bands (ev):

  -114.3374-114.3370 -68.6994 -68.6991 -68.6985 -68.6981 -68.6909 -68.6906
    -8.4220  -8.4218   2.7679   2.7680   3.2857   3.2858   3.5950   3.5951
     4.3253   4.3254   4.5612   4.5613   5.3444   5.3444   6.5819   6.5820
     7.3957   7.3958

     occupation numbers 
     1.0000   1.0000   1.0000   1.0000   1.0000   1.0000   1.0000   1.0000
     1.0000   1.0000   1.0000   1.0000   1.0000   1.0000   1.0000   1.0000
     1.0000   1.0000   1.0000   1.0000   1.0000   1.0000   1.0000   1.0000
     1.0000   1.0000

          k =-0.5000-0.0000-0.2285 (  3843 PWs)   bands (ev):

  -114.3374-114.3370 -68.6994 -68.6991 -68.6985 -68.6981 -68.6910 -68.6905
    -8.4699  -8.3760   2.7938   2.8177   3.2465   3.3318   3.6162   3.6183
     4.2642   4.3540   4.5198   4.6254   5.1796   5.4920   6.2732   6.7817
     7.1451   7.5906

     occupation numbers 
     1.0000   1.0000   1.0000   1.0000   1.0000   1.0000   1.0000   1.0000
     1.0000   1.0000   1.0000   1.0000   1.0000   1.0000   1.0000   1.0000
     1.0000   1.0000   1.0000   1.0000   1.0000   1.0000   1.0000   1.0000
     1.0000   1.0000

          k =-0.5000 0.0000-0.1523 (  3845 PWs)   bands (ev):

  -114.3374-114.3370 -68.6994 -68.6991 -68.6985 -68.6980 -68.6912 -68.6904
    -8.5123  -8.3390   2.8866   2.8921   3.2800   3.3444   3.6723   3.6891
     4.1843   4.3466   4.5008   4.6987   5.0039   5.5976   6.0215   6.4799
     7.2843   7.6124

     occupation numbers 
     1.0000   1.0000   1.0000   1.0000   1.0000   1.0000   1.0000   1.0000
     1.0000   1.0000   1.0000   1.0000   1.0000   1.0000   1.0000   1.0000
     1.0000   1.0000   1.0000   1.0000   1.0000   1.0000   1.0000   1.0000
     1.0000   1.0000

          k =-0.5000 0.0000-0.0762 (  3846 PWs)   bands (ev):

  -114.3374-114.3370 -68.6994 -68.6991 -68.6985 -68.6980 -68.6913 -68.6903
    -8.5414  -8.3153   2.9219   3.0018   3.3263   3.3889   3.7646   3.7874
     4.1149   4.2836   4.4965   4.7496   4.8543   5.5881   5.9366   6.1302
     7.4619   7.5357

     occupation numbers 
     1.0000   1.0000   1.0000   1.0000   1.0000   1.0000   1.0000   1.0000
     1.0000   1.0000   1.0000   1.0000   1.0000   1.0000   1.0000   1.0000
     1.0000   1.0000   1.0000   1.0000   1.0000   1.0000   1.0000   1.0000
     1.0000   1.0000

          k =-0.5000 0.1443 0.0000 (  3846 PWs)   bands (ev):

  -114.3374-114.3370 -68.6997 -68.6992 -68.6984 -68.6977 -68.6914 -68.6903
    -8.5460  -8.3101   2.8041   3.0869   3.2288   3.5390   3.6331   3.8597
     4.2043   4.3091   4.4916   4.6509   4.8969   5.3875   5.9072   6.2936
     7.3940   7.8010

     occupation numbers 
     1.0000   1.0000   1.0000   1.0000   1.0000   1.0000   1.0000   1.0000
     1.0000   1.0000   1.0000   1.0000   1.0000   1.0000   1.0000   1.0000
     1.0000   1.0000   1.0000   1.0000   1.0000   1.0000   1.0000   1.0000
     1.0000   1.0000

          k =-0.5000 0.1443 0.0762 (  3846 PWs)   bands (ev):

  -114.3374-114.3370 -68.6997 -68.6992 -68.6984 -68.6977 -68.6913 -68.6903
    -8.5359  -8.3179   2.7801   3.0206   3.2343   3.5192   3.6234   3.8179
     4.2233   4.3331   4.4894   4.6550   4.8858   5.4199   5.9864   6.3818
     7.4378   7.7497

     occupation numbers 
     1.0000   1.0000   1.0000   1.0000   1.0000   1.0000   1.0000   1.0000
     1.0000   1.0000   1.0000   1.0000   1.0000   1.0000   1.0000   1.0000
     1.0000   1.0000   1.0000   1.0000   1.0000   1.0000   1.0000   1.0000
     1.0000   1.0000

          k =-0.5000 0.1443 0.1523 (  3854 PWs)   bands (ev):

  -114.3374-114.3370 -68.6997 -68.6993 -68.6983 -68.6978 -68.6912 -68.6904
    -8.5077  -8.3406   2.7196   2.8709   3.2578   3.4882   3.6014   3.7247
     4.2713   4.3643   4.4902   4.6366   4.9215   5.3857   6.2529   6.6375
     7.4530   7.6518

     occupation numbers 
     1.0000   1.0000   1.0000   1.0000   1.0000   1.0000   1.0000   1.0000
     1.0000   1.0000   1.0000   1.0000   1.0000   1.0000   1.0000   1.0000
     1.0000   1.0000   1.0000   1.0000   1.0000   1.0000   1.0000   1.0000
     1.0000   1.0000

          k =-0.5000 0.1443 0.2285 (  3850 PWs)   bands (ev):

  -114.3374-114.3370 -68.6997 -68.6993 -68.6983 -68.6978 -68.6910 -68.6905
    -8.4667  -8.3761   2.6622   2.7299   3.3120   3.4531   3.5810   3.6326
     4.3233   4.3735   4.5061   4.5901   5.0214   5.2764   6.5929   6.9956
     7.2643   7.5841

     occupation numbers 
     1.0000   1.0000   1.0000   1.0000   1.0000   1.0000   1.0000   1.0000
     1.0000   1.0000   1.0000   1.0000   1.0000   1.0000   1.0000   1.0000
     1.0000   1.0000   1.0000   1.0000   1.0000   1.0000   1.0000   1.0000
     1.0000   1.0000

          k =-0.5000 0.1443-0.3047 (  3858 PWs)   bands (ev):

  -114.3374-114.3370 -68.6997 -68.6994 -68.6982 -68.6979 -68.6909 -68.6906
    -8.4204  -8.4201   2.6567   2.6568   3.3878   3.3879   3.5846   3.5847
     4.3594   4.3596   4.5415   4.5416   5.1470   5.1471   6.9237   6.9238
     7.3833   7.3834

     occupation numbers 
     1.0000   1.0000   1.0000   1.0000   1.0000   1.0000   1.0000   1.0000
     1.0000   1.0000   1.0000   1.0000   1.0000   1.0000   1.0000   1.0000
     1.0000   1.0000   1.0000   1.0000   1.0000   1.0000   1.0000   1.0000
     1.0000   1.0000

          k =-0.5000 0.1443-0.2285 (  3850 PWs)   bands (ev):

  -114.3374-114.3370 -68.6997 -68.6993 -68.6983 -68.6978 -68.6910 -68.6905
    -8.4667  -8.3761   2.6623   2.7298   3.3120   3.4530   3.5811   3.6326
     4.3234   4.3734   4.5061   4.5901   5.0213   5.2765   6.5929   6.9956
     7.2643   7.5840

     occupation numbers 
     1.0000   1.0000   1.0000   1.0000   1.0000   1.0000   1.0000   1.0000
     1.0000   1.0000   1.0000   1.0000   1.0000   1.0000   1.0000   1.0000
     1.0000   1.0000   1.0000   1.0000   1.0000   1.0000   1.0000   1.0000
     1.0000   1.0000

          k =-0.5000 0.1443-0.1523 (  3854 PWs)   bands (ev):

  -114.3374-114.3370 -68.6997 -68.6993 -68.6983 -68.6978 -68.6912 -68.6904
    -8.5077  -8.3406   2.7196   2.8708   3.2578   3.4881   3.6015   3.7247
     4.2714   4.3642   4.4902   4.6366   4.9214   5.3857   6.2529   6.6375
     7.4531   7.6518

     occupation numbers 
     1.0000   1.0000   1.0000   1.0000   1.0000   1.0000   1.0000   1.0000
     1.0000   1.0000   1.0000   1.0000   1.0000   1.0000   1.0000   1.0000
     1.0000   1.0000   1.0000   1.0000   1.0000   1.0000   1.0000   1.0000
     1.0000   1.0000

          k =-0.5000 0.1443-0.0762 (  3846 PWs)   bands (ev):

  -114.3374-114.3370 -68.6997 -68.6992 -68.6984 -68.6977 -68.6913 -68.6903
    -8.5359  -8.3179   2.7802   3.0206   3.2343   3.5191   3.6235   3.8179
     4.2234   4.3331   4.4894   4.6550   4.8857   5.4200   5.9864   6.3818
     7.4378   7.7497

     occupation numbers 
     1.0000   1.0000   1.0000   1.0000   1.0000   1.0000   1.0000   1.0000
     1.0000   1.0000   1.0000   1.0000   1.0000   1.0000   1.0000   1.0000
     1.0000   1.0000   1.0000   1.0000   1.0000   1.0000   1.0000   1.0000
     1.0000   1.0000

          k =-0.5000-0.8660-0.0000 (  3858 PWs)   bands (ev):

  -114.3374-114.3370 -68.6999 -68.6994 -68.6983 -68.6975 -68.6914 -68.6903
    -8.5400  -8.3132   2.7549   2.9484   3.2494   3.5449   3.6466   3.8514
     4.2203   4.4060   4.4769   4.5626   4.9873   5.2876   5.8713   6.5017
     7.3968   8.0040

     occupation numbers 
     1.0000   1.0000   1.0000   1.0000   1.0000   1.0000   1.0000   1.0000
     1.0000   1.0000   1.0000   1.0000   1.0000   1.0000   1.0000   1.0000
     1.0000   1.0000   1.0000   1.0000   1.0000   1.0000   1.0000   1.0000
     1.0000   1.0000

          k =-0.5000-0.8660 0.0762 (  3852 PWs)   bands (ev):

  -114.3374-114.3370 -68.6999 -68.6994 -68.6982 -68.6975 -68.6913 -68.6903
    -8.5303  -8.3206   2.7249   2.8869   3.2667   3.5408   3.6227   3.8207
     4.2639   4.4071   4.4694   4.5619   4.9645   5.2510   6.0363   6.5693
     7.4507   7.9516

     occupation numbers 
     1.0000   1.0000   1.0000   1.0000   1.0000   1.0000   1.0000   1.0000
     1.0000   1.0000   1.0000   1.0000   1.0000   1.0000   1.0000   1.0000
     1.0000   1.0000   1.0000   1.0000   1.0000   1.0000   1.0000   1.0000
     1.0000   1.0000

          k =-0.5000-0.8660 0.1523 (  3858 PWs)   bands (ev):

  -114.3374-114.3370 -68.6999 -68.6995 -68.6982 -68.6975 -68.6912 -68.6904
    -8.5030  -8.3422   2.6538   2.7505   3.3175   3.5326   3.5815   3.7376
     4.3530   4.4104   4.4530   4.5569   4.9390   5.1653   6.4320   6.7532
     7.5397   7.8016

     occupation numbers 
     1.0000   1.0000   1.0000   1.0000   1.0000   1.0000   1.0000   1.0000
     1.0000   1.0000   1.0000   1.0000   1.0000   1.0000   1.0000   1.0000
     1.0000   1.0000   1.0000   1.0000   1.0000   1.0000   1.0000   1.0000
     1.0000   1.0000

          k =-0.5000-0.8660 0.2285 (  3850 PWs)   bands (ev):

  -114.3374-114.3370 -68.6999 -68.6995 -68.6981 -68.6976 -68.6910 -68.6905
    -8.4633  -8.3762   2.5864   2.6265   3.3991   3.5278   3.5500   3.6242
     4.4161   4.4370   4.4394   4.5404   4.9468   5.0704   6.8979   7.0115
     7.5180   7.5741

     occupation numbers 
     1.0000   1.0000   1.0000   1.0000   1.0000   1.0000   1.0000   1.0000
     1.0000   1.0000   1.0000   1.0000   1.0000   1.0000   1.0000   1.0000
     1.0000   1.0000   1.0000   1.0000   1.0000   1.0000   1.0000   1.0000
     1.0000   1.0000

          k =-0.5000-0.8660-0.3047 (  3860 PWs)   bands (ev):

  -114.3374-114.3370 -68.6999 -68.6996 -68.6980 -68.6977 -68.6910 -68.6906
    -8.4187  -8.4185   2.5687   2.5688   3.5051   3.5052   3.5324   3.5325
     4.4246   4.4248   4.5031   4.5033   4.9926   4.9928   7.2953   7.2955
     7.2987   7.2989

     occupation numbers 
     1.0000   1.0000   1.0000   1.0000   1.0000   1.0000   1.0000   1.0000
     1.0000   1.0000   1.0000   1.0000   1.0000   1.0000   1.0000   1.0000
     1.0000   1.0000   1.0000   1.0000   1.0000   1.0000   1.0000   1.0000
     1.0000   1.0000

     highest occupied level (ev):     8.7834

!    total energy              =    -987.07996419 Ry
     Harris-Foulkes estimate   =    -987.07996423 Ry
     estimated scf accuracy    <       0.00000008 Ry

     The total energy is the sum of the following terms:

     one-electron contribution =    -803.28993431 Ry
     hartree contribution      =     423.04590308 Ry
     xc contribution           =     -98.07565901 Ry
     ewald contribution        =    -508.76027395 Ry

     convergence has been achieved in   7 iterations

     Forces acting on atoms (cartesian axes, Ry/au):

     atom    1 type  2   force =    -0.00000049   -0.00000051    0.00538561
     atom    2 type  2   force =    -0.00000094   -0.00000017    0.00536507
     atom    3 type  1   force =     0.00000082   -0.00000024   -0.00542133
     atom    4 type  1   force =     0.00000061    0.00000093   -0.00532934
     The non-local contrib.  to forces
     atom    1 type  2   force =     0.00000063   -0.00000174    0.00441054
     atom    2 type  2   force =     0.00000084    0.00000180    0.00441443
     atom    3 type  1   force =     0.00000229   -0.00000141   -0.00330817
     atom    4 type  1   force =     0.00000100    0.00000199   -0.00329812
     The ionic contribution  to forces
     atom    1 type  2   force =    -0.00000902    0.00002291   -0.16031156
     atom    2 type  2   force =    -0.00001546   -0.00002081   -0.16030465
     atom    3 type  1   force =     0.00001797   -0.00000095    0.16030983
     atom    4 type  1   force =     0.00000651   -0.00000115    0.16030639
     The local contribution  to forces
     atom    1 type  2   force =     0.00000713   -0.00002233    0.16137371
     atom    2 type  2   force =     0.00001539    0.00001878    0.16139033
     atom    3 type  1   force =    -0.00002010    0.00000441   -0.16248098
     atom    4 type  1   force =    -0.00000766   -0.00000208   -0.16254046
     The core correction contribution to forces
     atom    1 type  2   force =    -0.00000000    0.00000000   -0.00004953
     atom    2 type  2   force =     0.00000000   -0.00000002   -0.00004954
     atom    3 type  1   force =     0.00000000    0.00000000    0.00000000
     atom    4 type  1   force =     0.00000000    0.00000000    0.00000000
     The Hubbard contrib.    to forces
     atom    1 type  2   force =     0.00000000    0.00000000    0.00000000
     atom    2 type  2   force =     0.00000000    0.00000000    0.00000000
     atom    3 type  1   force =     0.00000000    0.00000000    0.00000000
     atom    4 type  1   force =     0.00000000    0.00000000    0.00000000
     The SCF correction term to forces
     atom    1 type  2   force =     0.00000000    0.00000000    0.00000000
     atom    2 type  2   force =     0.00000000    0.00000000    0.00000000
     atom    3 type  1   force =     0.00000000    0.00000000    0.00000000
     atom    4 type  1   force =     0.00000000    0.00000000    0.00000000

     Total force =     0.000000     Total SCF correction =     0.000000


     Computing stress (Cartesian axis) and pressure

          total   stress  (Ry/bohr**3)                   (kbar)     P=   -2.33
  -0.00001671  -0.00000000  -0.00000000         -2.46     -0.00     -0.00
  -0.00000000  -0.00001673   0.00000001         -0.00     -2.46      0.00
  -0.00000000   0.00000001  -0.00001409         -0.00      0.00     -2.07

     kinetic stress (kbar)  33900.35     -0.00     -0.00
                               -0.00  33900.35      0.00
                               -0.00      0.00  33848.82

     local   stress (kbar)  -2611.87     -0.01     -0.03
                               -0.01  -2611.99      0.09
                               -0.03      0.09  -8644.00

     nonloc. stress (kbar)  -1692.17      0.00      0.00
                                0.00  -1692.17     -0.00
                                0.00     -0.00  -1671.73

     hartree stress (kbar)  64189.94      0.00      0.01
                                0.00  64190.00     -0.04
                                0.01     -0.04  66760.11

     exc-cor stress (kbar) -14149.74      0.00      0.00
                                0.00 -14149.74     -0.00
                                0.00     -0.00 -14148.16

     corecor stress (kbar)   -249.09      0.00      0.00
                                0.00   -249.09     -0.00
                                0.00     -0.00   -248.95

     ewald   stress (kbar) -79389.88      0.01      0.02
                                0.01 -79389.81     -0.05
                                0.02     -0.05 -75898.16

     hubbard stress (kbar)      0.00      0.00      0.00
                                0.00      0.00      0.00
                                0.00      0.00      0.00

     london  stress (kbar)      0.00      0.00      0.00
                                0.00      0.00      0.00
                                0.00      0.00      0.00

     DFT-D3  stress (kbar)      0.00      0.00      0.00
                                0.00      0.00      0.00
                                0.00      0.00      0.00

     XDM     stress (kbar)      0.00      0.00      0.00
                                0.00      0.00      0.00
                                0.00      0.00      0.00

     dft-nl  stress (kbar)      0.00      0.00      0.00
                                0.00      0.00      0.00
                                0.00      0.00      0.00

     TS-vdW  stress (kbar)      0.00      0.00      0.00
                                0.00      0.00      0.00
                                0.00      0.00      0.00



     Writing output data file ZnO.save/
 
     init_run     :      0.54s CPU      1.94s WALL (       1 calls)
     electrons    :      6.79s CPU      7.62s WALL (       1 calls)
     forces       :      0.15s CPU      0.25s WALL (       1 calls)
     stress       :      0.27s CPU      0.34s WALL (       1 calls)

     Called by init_run:
     wfcinit      :      0.40s CPU      1.28s WALL (       1 calls)
     wfcinit:atom :      0.00s CPU      0.01s WALL (      65 calls)
     wfcinit:wfcr :      0.38s CPU      1.21s WALL (      65 calls)
     potinit      :      0.05s CPU      0.10s WALL (       1 calls)
     hinit0       :      0.07s CPU      0.30s WALL (       1 calls)

     Called by electrons:
     c_bands      :      5.75s CPU      6.16s WALL (       7 calls)
     sum_band     :      0.81s CPU      1.03s WALL (       7 calls)
     v_of_rho     :      0.20s CPU      0.23s WALL (       8 calls)
     v_h          :      0.00s CPU      0.01s WALL (       8 calls)
     v_xc         :      0.24s CPU      0.26s WALL (      10 calls)
     newd         :      0.03s CPU      0.13s WALL (       8 calls)
     mix_rho      :      0.01s CPU      0.09s WALL (       7 calls)

     Called by c_bands:
     init_us_2    :      0.07s CPU      0.11s WALL (    1105 calls)
     cegterg      :      5.38s CPU      5.66s WALL (     455 calls)

     Called by sum_band:
     sum_band:bec :      0.01s CPU      0.07s WALL (     455 calls)
     addusdens    :      0.03s CPU      0.08s WALL (       7 calls)

     Called by *egterg:
     h_psi        :      3.31s CPU      3.48s WALL (    1422 calls)
     s_psi        :      0.11s CPU      0.12s WALL (    1422 calls)
     g_psi        :      0.01s CPU      0.01s WALL (     902 calls)
     cdiaghg      :      1.50s CPU      2.31s WALL (    1357 calls)
     cegterg:over :      0.34s CPU      0.39s WALL (     902 calls)
     cegterg:upda :      0.18s CPU      0.19s WALL (     902 calls)
     cegterg:last :      0.12s CPU      0.13s WALL (     455 calls)
     cdiaghg:chol :      0.20s CPU      0.49s WALL (    1357 calls)
     cdiaghg:inve :      0.02s CPU      0.06s WALL (    1357 calls)
     cdiaghg:para :      0.14s CPU      0.15s WALL (    2714 calls)

     Called by h_psi:
     h_psi:pot    :      3.30s CPU      3.47s WALL (    1422 calls)
     h_psi:calbec :      0.19s CPU      0.24s WALL (    1422 calls)
     vloc_psi     :      2.99s CPU      3.10s WALL (    1422 calls)
     add_vuspsi   :      0.11s CPU      0.12s WALL (    1422 calls)

     General routines
     calbec       :      0.31s CPU      0.37s WALL (    2202 calls)
     fft          :      0.03s CPU      0.15s WALL (     127 calls)
     ffts         :      0.00s CPU      0.01s WALL (      15 calls)
     fftw         :      3.43s CPU      3.55s WALL (   73648 calls)
     interpolate  :      0.00s CPU      0.01s WALL (       8 calls)
 
     Parallel routines
     fft_scatt_xy :      0.49s CPU      0.50s WALL (   73790 calls)
     fft_scatt_yz :      1.77s CPU      1.83s WALL (   73790 calls)
 
     PWSCF        :      8.28s CPU     11.86s WALL

 
   This run was terminated on:  20:48:35  15Jun2022            

=------------------------------------------------------------------------------=
   JOB DONE.
=------------------------------------------------------------------------------=
