
     Program PWSCF v.6.4.1 starts on 16Jun2022 at 16:18:42 

     This program is part of the open-source Quantum ESPRESSO suite
     for quantum simulation of materials; please cite
         "P. Giannozzi et al., J. Phys.:Condens. Matter 21 395502 (2009);
         "P. Giannozzi et al., J. Phys.:Condens. Matter 29 465901 (2017);
          URL http://www.quantum-espresso.org", 
     in publications or presentations arising from this work. More details at
     http://www.quantum-espresso.org/quote

     Parallel version (MPI), running on    64 processors

     MPI processes distributed on     1 nodes
     K-points division:     npool     =       4
     R & G space division:  proc/nbgrp/npool/nimage =      16
     Waiting for input...
     Reading input from standard input
Warning: card &IONS ignored
Warning: card   UPSCALE           = 100.D0, ignored
Warning: card / ignored
Warning: card &CELL ignored
Warning: card   CELL_DYNAMICS     = 'BFGS' ignored
Warning: card   PRESS_CONV_THR    = 0.5D0 ignored
Warning: card   CELL_DOFREE = 'ALL' ignored
Warning: card / ignored

     Current dimensions of program PWSCF are:
     Max number of different atomic species (ntypx) = 10
     Max number of k-points (npk) =  40000
     Max angular momentum in pseudopotentials (lmaxx) =  3

     Subspace diagonalization in iterative solution of the eigenvalue problem:
     one sub-group per band group will be used
     scalapack distributed-memory algorithm (size of sub-group:  2*  2 procs)

 
     Parallelization info
     --------------------
     sticks:   dense  smooth     PW     G-vecs:    dense   smooth      PW
     Min         101      53     16                 4957     1927     332
     Max         102      55     18                 4960     1930     335
     Sum        1627     859    265                79339    30863    5323
 


     bravais-lattice index     =            0
     lattice parameter (alat)  =       6.2491  a.u.
     unit-cell volume          =     319.6265 (a.u.)^3
     number of atoms/cell      =            4
     number of atomic types    =            2
     number of electrons       =        32.00
     number of Kohn-Sham states=           16
     kinetic-energy cutoff     =      80.0000  Ry
     charge density cutoff     =     600.0000  Ry
     convergence threshold     =      1.0E-06
     mixing beta               =       0.5000
     number of iterations used =            8  plain     mixing
     Exchange-correlation      = SLA  PW   PSX  PSC ( 1  4 10  8 0 0)
     Using LIBXC version       =    4   3   4

     celldm(1)=   6.249053  celldm(2)=   0.000000  celldm(3)=   0.000000
     celldm(4)=   0.000000  celldm(5)=   0.000000  celldm(6)=   0.000000

     crystal axes: (cart. coord. in units of alat)
               a(1) = (   1.000000   0.000000  -0.000000 )  
               a(2) = (  -0.500000   0.866025   0.000000 )  
               a(3) = (  -0.000000   0.000000   1.512410 )  

     reciprocal axes: (cart. coord. in units 2 pi/alat)
               b(1) = (  1.000000  0.577350 -0.000000 )  
               b(2) = ( -0.000000  1.154700 -0.000000 )  
               b(3) = (  0.000000 -0.000000  0.661197 )  


     PseudoPot. # 1 for Mg read from file:
     ./GBRV_PBEsol/mg_pbesol_v1.4.uspp.F.UPF
     MD5 check sum: 4059f37963cf5867752dbf5ab2400678
     Pseudo is Ultrasoft, Zval = 10.0
     Generated by new atomic code, or converted to UPF format
     Using radial grid of  821 points,  7 beta functions with: 
                l(1) =   0
                l(2) =   0
                l(3) =   0
                l(4) =   1
                l(5) =   1
                l(6) =   2
                l(7) =   2
     Q(r) pseudized with  8 coefficients,  rinner =    1.200   1.200   1.200
                                                       1.200   1.200

     PseudoPot. # 2 for O  read from file:
     ./GBRV_PBEsol/o_pbesol_v1.2.uspp.F.UPF
     MD5 check sum: 501638753501ef6325af9037351f7734
     Pseudo is Ultrasoft + core correction, Zval =  6.0
     Generated by new atomic code, or converted to UPF format
     Using radial grid of  737 points,  5 beta functions with: 
                l(1) =   0
                l(2) =   0
                l(3) =   1
                l(4) =   1
                l(5) =   2
     Q(r) pseudized with  8 coefficients,  rinner =    0.900   0.900   0.900
                                                       0.900   0.900

     atomic species   valence    mass     pseudopotential
        Mg            10.00    24.30500     Mg( 1.00)
        O              6.00    15.99900     O ( 1.00)

     No symmetry found


                                    s                        frac. trans.

      isym =  1     identity                                     

 cryst.   s( 1) = (     1          0          0      )
                  (     0          1          0      )
                  (     0          0          1      )

 cart.    s( 1) = (  1.0000000 -0.0000000  0.0000000 )
                  ( -0.0000000  1.0000000 -0.0000000 )
                  (  0.0000000 -0.0000000  1.0000000 )


   Cartesian axes

     site n.     atom                  positions (alat units)
         1           O   tau(   1) = (   0.5000002   0.2886755   0.0111100  )
         2           O   tau(   2) = (   0.0000001   0.5773496   0.7673147  )
         3           Mg  tau(   3) = (   0.5000000   0.2886750   0.6145738  )
         4           Mg  tau(   4) = (  -0.0000002   0.5773515   1.3707785  )

   Crystallographic axes

     site n.     atom                  positions (cryst. coord.)
         1           O   tau(   1) = (  0.6666670  0.3333337  0.0073459  )
         2           O   tau(   2) = (  0.3333329  0.6666657  0.5073458  )
         3           Mg  tau(   3) = (  0.6666664  0.3333329  0.4063540  )
         4           Mg  tau(   4) = (  0.3333336  0.6666677  0.9063539  )

     number of k points=   260
                       cart. coord. in units 2pi/alat
        k(    1) = (   0.0000000   0.0000000   0.0000000), wk =   0.0039062
        k(    2) = (   0.0000000  -0.0000000   0.0826496), wk =   0.0078125
        k(    3) = (   0.0000000  -0.0000000   0.1652991), wk =   0.0078125
        k(    4) = (   0.0000000  -0.0000001   0.2479487), wk =   0.0078125
        k(    5) = (  -0.0000000   0.0000001  -0.3305983), wk =   0.0039062
        k(    6) = (  -0.0000000   0.1443376  -0.0000000), wk =   0.0078125
        k(    7) = (  -0.0000000   0.1443375   0.0826495), wk =   0.0078125
        k(    8) = (  -0.0000000   0.1443375   0.1652991), wk =   0.0078125
        k(    9) = (   0.0000000   0.1443375   0.2479487), wk =   0.0078125
        k(   10) = (  -0.0000000   0.1443376  -0.3305983), wk =   0.0078125
        k(   11) = (  -0.0000000   0.1443376  -0.2479487), wk =   0.0078125
        k(   12) = (  -0.0000000   0.1443376  -0.1652992), wk =   0.0078125
        k(   13) = (  -0.0000000   0.1443376  -0.0826496), wk =   0.0078125
        k(   14) = (  -0.0000000   0.2886751  -0.0000001), wk =   0.0078125
        k(   15) = (  -0.0000000   0.2886751   0.0826495), wk =   0.0078125
        k(   16) = (  -0.0000000   0.2886751   0.1652991), wk =   0.0078125
        k(   17) = (  -0.0000000   0.2886751   0.2479486), wk =   0.0078125
        k(   18) = (  -0.0000000   0.2886752  -0.3305983), wk =   0.0078125
        k(   19) = (  -0.0000000   0.2886752  -0.2479488), wk =   0.0078125
        k(   20) = (  -0.0000000   0.2886752  -0.1652992), wk =   0.0078125
        k(   21) = (  -0.0000000   0.2886751  -0.0826496), wk =   0.0078125
        k(   22) = (  -0.0000000   0.4330127  -0.0000001), wk =   0.0078125
        k(   23) = (  -0.0000000   0.4330127   0.0826495), wk =   0.0078125
        k(   24) = (  -0.0000000   0.4330126   0.1652991), wk =   0.0078125
        k(   25) = (  -0.0000000   0.4330126   0.2479486), wk =   0.0078125
        k(   26) = (  -0.0000000   0.4330127  -0.3305984), wk =   0.0078125
        k(   27) = (  -0.0000000   0.4330127  -0.2479488), wk =   0.0078125
        k(   28) = (  -0.0000000   0.4330127  -0.1652992), wk =   0.0078125
        k(   29) = (  -0.0000000   0.4330127  -0.0826497), wk =   0.0078125
        k(   30) = (   0.0000000  -0.5773502   0.0000001), wk =   0.0039062
        k(   31) = (   0.0000000  -0.5773502   0.0826497), wk =   0.0078125
        k(   32) = (   0.0000000  -0.5773503   0.1652992), wk =   0.0078125
        k(   33) = (   0.0000000  -0.5773503   0.2479488), wk =   0.0078125
        k(   34) = (   0.0000000  -0.5773502  -0.3305982), wk =   0.0039062
        k(   35) = (   0.1250000   0.0721688  -0.0000000), wk =   0.0078125
        k(   36) = (   0.1250000   0.0721688   0.0826496), wk =   0.0078125
        k(   37) = (   0.1250000   0.0721687   0.1652991), wk =   0.0078125
        k(   38) = (   0.1250000   0.0721687   0.2479487), wk =   0.0078125
        k(   39) = (   0.1250000   0.0721688  -0.3305983), wk =   0.0078125
        k(   40) = (   0.1250000   0.0721688  -0.2479487), wk =   0.0078125
        k(   41) = (   0.1250000   0.0721688  -0.1652991), wk =   0.0078125
        k(   42) = (   0.1250000   0.0721688  -0.0826496), wk =   0.0078125
        k(   43) = (   0.1250000   0.2165063  -0.0000000), wk =   0.0078125
        k(   44) = (   0.1250000   0.2165063   0.0826495), wk =   0.0078125
        k(   45) = (   0.1250000   0.2165063   0.1652991), wk =   0.0078125
        k(   46) = (   0.1250000   0.2165063   0.2479487), wk =   0.0078125
        k(   47) = (   0.1250000   0.2165064  -0.3305983), wk =   0.0078125
        k(   48) = (   0.1250000   0.2165064  -0.2479487), wk =   0.0078125
        k(   49) = (   0.1250000   0.2165064  -0.1652992), wk =   0.0078125
        k(   50) = (   0.1250000   0.2165063  -0.0826496), wk =   0.0078125
        k(   51) = (   0.1250000   0.3608439  -0.0000001), wk =   0.0078125
        k(   52) = (   0.1250000   0.3608439   0.0826495), wk =   0.0078125
        k(   53) = (   0.1250000   0.3608438   0.1652991), wk =   0.0078125
        k(   54) = (   0.1250000   0.3608438   0.2479486), wk =   0.0078125
        k(   55) = (   0.1250000   0.3608440  -0.3305983), wk =   0.0078125
        k(   56) = (   0.1250000   0.3608439  -0.2479488), wk =   0.0078125
        k(   57) = (   0.1250000   0.3608439  -0.1652992), wk =   0.0078125
        k(   58) = (   0.1250000   0.3608439  -0.0826496), wk =   0.0078125
        k(   59) = (   0.1250000   0.5051814  -0.0000001), wk =   0.0078125
        k(   60) = (   0.1250000   0.5051814   0.0826495), wk =   0.0078125
        k(   61) = (   0.1250000   0.5051814   0.1652990), wk =   0.0078125
        k(   62) = (   0.1250000   0.5051814   0.2479486), wk =   0.0078125
        k(   63) = (   0.1250000   0.5051815  -0.3305984), wk =   0.0078125
        k(   64) = (   0.1250000   0.5051815  -0.2479488), wk =   0.0078125
        k(   65) = (   0.1250000   0.5051815  -0.1652992), wk =   0.0078125
        k(   66) = (   0.1250000   0.5051815  -0.0826497), wk =   0.0078125
        k(   67) = (   0.1250000  -0.5051815   0.0000001), wk =   0.0078125
        k(   68) = (   0.1250000  -0.5051815   0.0826497), wk =   0.0078125
        k(   69) = (   0.1250000  -0.5051815   0.1652992), wk =   0.0078125
        k(   70) = (   0.1250000  -0.5051815   0.2479488), wk =   0.0078125
        k(   71) = (   0.1250000  -0.5051814  -0.3305982), wk =   0.0078125
        k(   72) = (   0.1250000  -0.5051814  -0.2479486), wk =   0.0078125
        k(   73) = (   0.1250000  -0.5051814  -0.1652990), wk =   0.0078125
        k(   74) = (   0.1250000  -0.5051814  -0.0826495), wk =   0.0078125
        k(   75) = (   0.1250000  -0.3608439   0.0000001), wk =   0.0078125
        k(   76) = (   0.1250000  -0.3608439   0.0826496), wk =   0.0078125
        k(   77) = (   0.1250000  -0.3608439   0.1652992), wk =   0.0078125
        k(   78) = (   0.1250000  -0.3608440   0.2479488), wk =   0.0078125
        k(   79) = (   0.1250000  -0.3608438  -0.3305982), wk =   0.0078125
        k(   80) = (   0.1250000  -0.3608438  -0.2479486), wk =   0.0078125
        k(   81) = (   0.1250000  -0.3608439  -0.1652991), wk =   0.0078125
        k(   82) = (   0.1250000  -0.3608439  -0.0826495), wk =   0.0078125
        k(   83) = (   0.1250000  -0.2165063   0.0000000), wk =   0.0078125
        k(   84) = (   0.1250000  -0.2165064   0.0826496), wk =   0.0078125
        k(   85) = (   0.1250000  -0.2165064   0.1652992), wk =   0.0078125
        k(   86) = (   0.1250000  -0.2165064   0.2479488), wk =   0.0078125
        k(   87) = (   0.1250000  -0.2165063  -0.3305982), wk =   0.0078125
        k(   88) = (   0.1250000  -0.2165063  -0.2479487), wk =   0.0078125
        k(   89) = (   0.1250000  -0.2165063  -0.1652991), wk =   0.0078125
        k(   90) = (   0.1250000  -0.2165063  -0.0826495), wk =   0.0078125
        k(   91) = (   0.1250000  -0.0721688   0.0000000), wk =   0.0078125
        k(   92) = (   0.1250000  -0.0721688   0.0826496), wk =   0.0078125
        k(   93) = (   0.1250000  -0.0721688   0.1652992), wk =   0.0078125
        k(   94) = (   0.1250000  -0.0721688   0.2479487), wk =   0.0078125
        k(   95) = (   0.1250000  -0.0721687  -0.3305982), wk =   0.0078125
        k(   96) = (   0.1250000  -0.0721687  -0.2479487), wk =   0.0078125
        k(   97) = (   0.1250000  -0.0721687  -0.1652991), wk =   0.0078125
        k(   98) = (   0.1250000  -0.0721688  -0.0826495), wk =   0.0078125
        k(   99) = (   0.2500000   0.1443375  -0.0000000), wk =   0.0078125
        k(  100) = (   0.2500000   0.1443375   0.0826496), wk =   0.0078125
        k(  101) = (   0.2500000   0.1443375   0.1652991), wk =   0.0078125
        k(  102) = (   0.2500000   0.1443375   0.2479487), wk =   0.0078125
        k(  103) = (   0.2500000   0.1443376  -0.3305983), wk =   0.0078125
        k(  104) = (   0.2500000   0.1443376  -0.2479487), wk =   0.0078125
        k(  105) = (   0.2500000   0.1443376  -0.1652991), wk =   0.0078125
        k(  106) = (   0.2500000   0.1443376  -0.0826496), wk =   0.0078125
        k(  107) = (   0.2500000   0.2886751  -0.0000000), wk =   0.0078125
        k(  108) = (   0.2500000   0.2886751   0.0826495), wk =   0.0078125
        k(  109) = (   0.2500000   0.2886751   0.1652991), wk =   0.0078125
        k(  110) = (   0.2500000   0.2886750   0.2479487), wk =   0.0078125
        k(  111) = (   0.2500000   0.2886752  -0.3305983), wk =   0.0078125
        k(  112) = (   0.2500000   0.2886752  -0.2479487), wk =   0.0078125
        k(  113) = (   0.2500000   0.2886751  -0.1652992), wk =   0.0078125
        k(  114) = (   0.2500000   0.2886751  -0.0826496), wk =   0.0078125
        k(  115) = (   0.2500000   0.4330127  -0.0000001), wk =   0.0078125
        k(  116) = (   0.2500000   0.4330126   0.0826495), wk =   0.0078125
        k(  117) = (   0.2500000   0.4330126   0.1652991), wk =   0.0078125
        k(  118) = (   0.2500000   0.4330126   0.2479486), wk =   0.0078125
        k(  119) = (   0.2500000   0.4330127  -0.3305983), wk =   0.0078125
        k(  120) = (   0.2500000   0.4330127  -0.2479488), wk =   0.0078125
        k(  121) = (   0.2500000   0.4330127  -0.1652992), wk =   0.0078125
        k(  122) = (   0.2500000   0.4330127  -0.0826496), wk =   0.0078125
        k(  123) = (   0.2500000   0.5773502  -0.0000001), wk =   0.0078125
        k(  124) = (   0.2500000   0.5773502   0.0826495), wk =   0.0078125
        k(  125) = (   0.2500000   0.5773502   0.1652990), wk =   0.0078125
        k(  126) = (   0.2500000   0.5773502   0.2479486), wk =   0.0078125
        k(  127) = (   0.2499999   0.5773503  -0.3305984), wk =   0.0078125
        k(  128) = (   0.2500000   0.5773503  -0.2479488), wk =   0.0078125
        k(  129) = (   0.2500000   0.5773503  -0.1652992), wk =   0.0078125
        k(  130) = (   0.2500000   0.5773502  -0.0826497), wk =   0.0078125
        k(  131) = (   0.2500000  -0.4330127   0.0000001), wk =   0.0078125
        k(  132) = (   0.2500000  -0.4330127   0.0826497), wk =   0.0078125
        k(  133) = (   0.2500000  -0.4330127   0.1652992), wk =   0.0078125
        k(  134) = (   0.2500000  -0.4330127   0.2479488), wk =   0.0078125
        k(  135) = (   0.2500000  -0.4330126  -0.3305982), wk =   0.0078125
        k(  136) = (   0.2500000  -0.4330126  -0.2479486), wk =   0.0078125
        k(  137) = (   0.2500000  -0.4330126  -0.1652990), wk =   0.0078125
        k(  138) = (   0.2500000  -0.4330127  -0.0826495), wk =   0.0078125
        k(  139) = (   0.2500000  -0.2886751   0.0000001), wk =   0.0078125
        k(  140) = (   0.2500000  -0.2886751   0.0826496), wk =   0.0078125
        k(  141) = (   0.2500000  -0.2886752   0.1652992), wk =   0.0078125
        k(  142) = (   0.2500000  -0.2886752   0.2479488), wk =   0.0078125
        k(  143) = (   0.2500000  -0.2886751  -0.3305982), wk =   0.0078125
        k(  144) = (   0.2500000  -0.2886751  -0.2479486), wk =   0.0078125
        k(  145) = (   0.2500000  -0.2886751  -0.1652991), wk =   0.0078125
        k(  146) = (   0.2500000  -0.2886751  -0.0826495), wk =   0.0078125
        k(  147) = (   0.2500000  -0.1443376   0.0000000), wk =   0.0078125
        k(  148) = (   0.2500000  -0.1443376   0.0826496), wk =   0.0078125
        k(  149) = (   0.2500000  -0.1443376   0.1652992), wk =   0.0078125
        k(  150) = (   0.2500000  -0.1443376   0.2479487), wk =   0.0078125
        k(  151) = (   0.2500000  -0.1443375  -0.3305982), wk =   0.0078125
        k(  152) = (   0.2500000  -0.1443375  -0.2479487), wk =   0.0078125
        k(  153) = (   0.2500000  -0.1443375  -0.1652991), wk =   0.0078125
        k(  154) = (   0.2500000  -0.1443376  -0.0826495), wk =   0.0078125
        k(  155) = (   0.2500000  -0.0000000   0.0000000), wk =   0.0078125
        k(  156) = (   0.2500000  -0.0000000   0.0826496), wk =   0.0078125
        k(  157) = (   0.2500000  -0.0000001   0.1652992), wk =   0.0078125
        k(  158) = (   0.2500000  -0.0000001   0.2479487), wk =   0.0078125
        k(  159) = (   0.2500000   0.0000001  -0.3305983), wk =   0.0078125
        k(  160) = (   0.2500000   0.0000000  -0.2479487), wk =   0.0078125
        k(  161) = (   0.2500000   0.0000000  -0.1652991), wk =   0.0078125
        k(  162) = (   0.2500000   0.0000000  -0.0826496), wk =   0.0078125
        k(  163) = (   0.3750000   0.2165063  -0.0000000), wk =   0.0078125
        k(  164) = (   0.3750000   0.2165063   0.0826495), wk =   0.0078125
        k(  165) = (   0.3750000   0.2165063   0.1652991), wk =   0.0078125
        k(  166) = (   0.3750000   0.2165063   0.2479487), wk =   0.0078125
        k(  167) = (   0.3750000   0.2165064  -0.3305983), wk =   0.0078125
        k(  168) = (   0.3750000   0.2165064  -0.2479487), wk =   0.0078125
        k(  169) = (   0.3750000   0.2165064  -0.1652992), wk =   0.0078125
        k(  170) = (   0.3750000   0.2165063  -0.0826496), wk =   0.0078125
        k(  171) = (   0.3750000   0.3608439  -0.0000000), wk =   0.0078125
        k(  172) = (   0.3750000   0.3608438   0.0826495), wk =   0.0078125
        k(  173) = (   0.3750000   0.3608438   0.1652991), wk =   0.0078125
        k(  174) = (   0.3750000   0.3608438   0.2479487), wk =   0.0078125
        k(  175) = (   0.3750000   0.3608439  -0.3305983), wk =   0.0078125
        k(  176) = (   0.3750000   0.3608439  -0.2479488), wk =   0.0078125
        k(  177) = (   0.3750000   0.3608439  -0.1652992), wk =   0.0078125
        k(  178) = (   0.3750000   0.3608439  -0.0826496), wk =   0.0078125
        k(  179) = (   0.3750000   0.5051814  -0.0000001), wk =   0.0078125
        k(  180) = (   0.3750000   0.5051814   0.0826495), wk =   0.0078125
        k(  181) = (   0.3750000   0.5051814   0.1652991), wk =   0.0078125
        k(  182) = (   0.3750000   0.5051814   0.2479486), wk =   0.0078125
        k(  183) = (   0.3750000   0.5051815  -0.3305983), wk =   0.0078125
        k(  184) = (   0.3750000   0.5051815  -0.2479488), wk =   0.0078125
        k(  185) = (   0.3750000   0.5051815  -0.1652992), wk =   0.0078125
        k(  186) = (   0.3750000   0.5051814  -0.0826496), wk =   0.0078125
        k(  187) = (   0.3750000   0.6495190  -0.0000001), wk =   0.0078125
        k(  188) = (   0.3750000   0.6495190   0.0826495), wk =   0.0078125
        k(  189) = (   0.3750000   0.6495189   0.1652990), wk =   0.0078125
        k(  190) = (   0.3750000   0.6495189   0.2479486), wk =   0.0078125
        k(  191) = (   0.3749999   0.6495191  -0.3305984), wk =   0.0078125
        k(  192) = (   0.3749999   0.6495190  -0.2479488), wk =   0.0078125
        k(  193) = (   0.3750000   0.6495190  -0.1652992), wk =   0.0078125
        k(  194) = (   0.3750000   0.6495190  -0.0826497), wk =   0.0078125
        k(  195) = (   0.3750000  -0.3608439   0.0000001), wk =   0.0078125
        k(  196) = (   0.3750000  -0.3608439   0.0826497), wk =   0.0078125
        k(  197) = (   0.3750000  -0.3608440   0.1652992), wk =   0.0078125
        k(  198) = (   0.3750000  -0.3608440   0.2479488), wk =   0.0078125
        k(  199) = (   0.3750000  -0.3608438  -0.3305982), wk =   0.0078125
        k(  200) = (   0.3750000  -0.3608439  -0.2479486), wk =   0.0078125
        k(  201) = (   0.3750000  -0.3608439  -0.1652990), wk =   0.0078125
        k(  202) = (   0.3750000  -0.3608439  -0.0826495), wk =   0.0078125
        k(  203) = (   0.3750000  -0.2165064   0.0000001), wk =   0.0078125
        k(  204) = (   0.3750000  -0.2165064   0.0826496), wk =   0.0078125
        k(  205) = (   0.3750000  -0.2165064   0.1652992), wk =   0.0078125
        k(  206) = (   0.3750000  -0.2165064   0.2479488), wk =   0.0078125
        k(  207) = (   0.3750000  -0.2165063  -0.3305982), wk =   0.0078125
        k(  208) = (   0.3750000  -0.2165063  -0.2479486), wk =   0.0078125
        k(  209) = (   0.3750000  -0.2165063  -0.1652991), wk =   0.0078125
        k(  210) = (   0.3750000  -0.2165063  -0.0826495), wk =   0.0078125
        k(  211) = (   0.3750000  -0.0721688   0.0000000), wk =   0.0078125
        k(  212) = (   0.3750000  -0.0721688   0.0826496), wk =   0.0078125
        k(  213) = (   0.3750000  -0.0721688   0.1652992), wk =   0.0078125
        k(  214) = (   0.3750000  -0.0721689   0.2479487), wk =   0.0078125
        k(  215) = (   0.3750000  -0.0721687  -0.3305982), wk =   0.0078125
        k(  216) = (   0.3750000  -0.0721687  -0.2479487), wk =   0.0078125
        k(  217) = (   0.3750000  -0.0721688  -0.1652991), wk =   0.0078125
        k(  218) = (   0.3750000  -0.0721688  -0.0826495), wk =   0.0078125
        k(  219) = (   0.3750000   0.0721688   0.0000000), wk =   0.0078125
        k(  220) = (   0.3750000   0.0721687   0.0826496), wk =   0.0078125
        k(  221) = (   0.3750000   0.0721687   0.1652991), wk =   0.0078125
        k(  222) = (   0.3750000   0.0721687   0.2479487), wk =   0.0078125
        k(  223) = (   0.3750000   0.0721688  -0.3305983), wk =   0.0078125
        k(  224) = (   0.3750000   0.0721688  -0.2479487), wk =   0.0078125
        k(  225) = (   0.3750000   0.0721688  -0.1652991), wk =   0.0078125
        k(  226) = (   0.3750000   0.0721688  -0.0826496), wk =   0.0078125
        k(  227) = (  -0.5000000  -0.2886751   0.0000000), wk =   0.0039062
        k(  228) = (  -0.5000000  -0.2886751   0.0826496), wk =   0.0078125
        k(  229) = (  -0.5000000  -0.2886751   0.1652992), wk =   0.0078125
        k(  230) = (  -0.5000000  -0.2886751   0.2479487), wk =   0.0078125
        k(  231) = (  -0.5000000  -0.2886750  -0.3305982), wk =   0.0039062
        k(  232) = (  -0.5000000  -0.1443375  -0.0000000), wk =   0.0078125
        k(  233) = (  -0.5000000  -0.1443375   0.0826496), wk =   0.0078125
        k(  234) = (  -0.5000000  -0.1443376   0.1652991), wk =   0.0078125
        k(  235) = (  -0.5000000  -0.1443376   0.2479487), wk =   0.0078125
        k(  236) = (  -0.5000000  -0.1443374  -0.3305983), wk =   0.0078125
        k(  237) = (  -0.5000000  -0.1443375  -0.2479487), wk =   0.0078125
        k(  238) = (  -0.5000000  -0.1443375  -0.1652991), wk =   0.0078125
        k(  239) = (  -0.5000000  -0.1443375  -0.0826496), wk =   0.0078125
        k(  240) = (  -0.5000000   0.0000000  -0.0000000), wk =   0.0078125
        k(  241) = (  -0.5000000   0.0000000   0.0826495), wk =   0.0078125
        k(  242) = (  -0.5000000  -0.0000000   0.1652991), wk =   0.0078125
        k(  243) = (  -0.5000000  -0.0000000   0.2479487), wk =   0.0078125
        k(  244) = (  -0.5000000   0.0000001  -0.3305983), wk =   0.0078125
        k(  245) = (  -0.5000000   0.0000001  -0.2479487), wk =   0.0078125
        k(  246) = (  -0.5000000   0.0000001  -0.1652992), wk =   0.0078125
        k(  247) = (  -0.5000000   0.0000001  -0.0826496), wk =   0.0078125
        k(  248) = (  -0.5000000   0.1443376  -0.0000001), wk =   0.0078125
        k(  249) = (  -0.5000000   0.1443376   0.0826495), wk =   0.0078125
        k(  250) = (  -0.5000000   0.1443375   0.1652991), wk =   0.0078125
        k(  251) = (  -0.5000000   0.1443375   0.2479486), wk =   0.0078125
        k(  252) = (  -0.5000000   0.1443377  -0.3305983), wk =   0.0078125
        k(  253) = (  -0.5000000   0.1443376  -0.2479488), wk =   0.0078125
        k(  254) = (  -0.5000000   0.1443376  -0.1652992), wk =   0.0078125
        k(  255) = (  -0.5000000   0.1443376  -0.0826496), wk =   0.0078125
        k(  256) = (  -0.4999999  -0.8660253   0.0000001), wk =   0.0039062
        k(  257) = (  -0.4999999  -0.8660253   0.0826497), wk =   0.0078125
        k(  258) = (  -0.4999999  -0.8660253   0.1652993), wk =   0.0078125
        k(  259) = (  -0.4999999  -0.8660254   0.2479488), wk =   0.0078125
        k(  260) = (  -0.5000000  -0.8660252  -0.3305981), wk =   0.0039062

                       cryst. coord.
        k(    1) = (   0.0000000   0.0000000   0.0000000), wk =   0.0039062
        k(    2) = (   0.0000000  -0.0000000   0.1250000), wk =   0.0078125
        k(    3) = (   0.0000000  -0.0000000   0.2500000), wk =   0.0078125
        k(    4) = (   0.0000000  -0.0000000   0.3750000), wk =   0.0078125
        k(    5) = (  -0.0000000   0.0000000  -0.5000000), wk =   0.0039062
        k(    6) = (  -0.0000000   0.1250000  -0.0000000), wk =   0.0078125
        k(    7) = (   0.0000000   0.1250000   0.1250000), wk =   0.0078125
        k(    8) = (  -0.0000000   0.1250000   0.2500000), wk =   0.0078125
        k(    9) = (   0.0000000   0.1250000   0.3750000), wk =   0.0078125
        k(   10) = (  -0.0000000   0.1250000  -0.5000000), wk =   0.0078125
        k(   11) = (  -0.0000000   0.1250000  -0.3750000), wk =   0.0078125
        k(   12) = (   0.0000000   0.1250000  -0.2500000), wk =   0.0078125
        k(   13) = (  -0.0000000   0.1250000  -0.1250000), wk =   0.0078125
        k(   14) = (  -0.0000000   0.2500000  -0.0000000), wk =   0.0078125
        k(   15) = (  -0.0000000   0.2500000   0.1250000), wk =   0.0078125
        k(   16) = (   0.0000000   0.2500000   0.2500000), wk =   0.0078125
        k(   17) = (   0.0000000   0.2500000   0.3750000), wk =   0.0078125
        k(   18) = (   0.0000000   0.2500000  -0.5000000), wk =   0.0078125
        k(   19) = (  -0.0000000   0.2500000  -0.3750000), wk =   0.0078125
        k(   20) = (  -0.0000000   0.2500000  -0.2500000), wk =   0.0078125
        k(   21) = (  -0.0000000   0.2500000  -0.1250000), wk =   0.0078125
        k(   22) = (  -0.0000000   0.3750000   0.0000000), wk =   0.0078125
        k(   23) = (  -0.0000000   0.3750000   0.1250000), wk =   0.0078125
        k(   24) = (  -0.0000000   0.3750000   0.2500000), wk =   0.0078125
        k(   25) = (  -0.0000000   0.3750000   0.3750000), wk =   0.0078125
        k(   26) = (  -0.0000000   0.3750000  -0.5000000), wk =   0.0078125
        k(   27) = (  -0.0000000   0.3750000  -0.3750000), wk =   0.0078125
        k(   28) = (  -0.0000000   0.3750000  -0.2500000), wk =   0.0078125
        k(   29) = (   0.0000000   0.3750000  -0.1250000), wk =   0.0078125
        k(   30) = (   0.0000000  -0.5000000   0.0000000), wk =   0.0039062
        k(   31) = (   0.0000000  -0.5000000   0.1250000), wk =   0.0078125
        k(   32) = (   0.0000000  -0.5000000   0.2500000), wk =   0.0078125
        k(   33) = (   0.0000000  -0.5000000   0.3750000), wk =   0.0078125
        k(   34) = (  -0.0000000  -0.5000000  -0.5000000), wk =   0.0039062
        k(   35) = (   0.1250000   0.0000000   0.0000000), wk =   0.0078125
        k(   36) = (   0.1250000   0.0000000   0.1250000), wk =   0.0078125
        k(   37) = (   0.1250000  -0.0000000   0.2500000), wk =   0.0078125
        k(   38) = (   0.1250000   0.0000000   0.3750000), wk =   0.0078125
        k(   39) = (   0.1250000  -0.0000000  -0.5000000), wk =   0.0078125
        k(   40) = (   0.1250000  -0.0000000  -0.3750000), wk =   0.0078125
        k(   41) = (   0.1250000   0.0000000  -0.2500000), wk =   0.0078125
        k(   42) = (   0.1250000  -0.0000000  -0.1250000), wk =   0.0078125
        k(   43) = (   0.1250000   0.1250000  -0.0000000), wk =   0.0078125
        k(   44) = (   0.1250000   0.1250000   0.1250000), wk =   0.0078125
        k(   45) = (   0.1250000   0.1250000   0.2500000), wk =   0.0078125
        k(   46) = (   0.1250000   0.1250000   0.3750000), wk =   0.0078125
        k(   47) = (   0.1250000   0.1250000  -0.5000000), wk =   0.0078125
        k(   48) = (   0.1250000   0.1250000  -0.3750000), wk =   0.0078125
        k(   49) = (   0.1250000   0.1250000  -0.2500000), wk =   0.0078125
        k(   50) = (   0.1250000   0.1250000  -0.1250000), wk =   0.0078125
        k(   51) = (   0.1250000   0.2500000   0.0000000), wk =   0.0078125
        k(   52) = (   0.1250000   0.2500000   0.1250000), wk =   0.0078125
        k(   53) = (   0.1250000   0.2500000   0.2500000), wk =   0.0078125
        k(   54) = (   0.1250000   0.2500000   0.3750000), wk =   0.0078125
        k(   55) = (   0.1250000   0.2500000  -0.5000000), wk =   0.0078125
        k(   56) = (   0.1250000   0.2500000  -0.3750000), wk =   0.0078125
        k(   57) = (   0.1250000   0.2500000  -0.2500000), wk =   0.0078125
        k(   58) = (   0.1250000   0.2500000  -0.1250000), wk =   0.0078125
        k(   59) = (   0.1250000   0.3750000  -0.0000000), wk =   0.0078125
        k(   60) = (   0.1250000   0.3750000   0.1250000), wk =   0.0078125
        k(   61) = (   0.1250000   0.3750000   0.2500000), wk =   0.0078125
        k(   62) = (   0.1250000   0.3750000   0.3750000), wk =   0.0078125
        k(   63) = (   0.1250000   0.3750000  -0.5000000), wk =   0.0078125
        k(   64) = (   0.1250000   0.3750000  -0.3750000), wk =   0.0078125
        k(   65) = (   0.1250000   0.3750000  -0.2500000), wk =   0.0078125
        k(   66) = (   0.1250000   0.3750000  -0.1250000), wk =   0.0078125
        k(   67) = (   0.1250000  -0.5000000   0.0000000), wk =   0.0078125
        k(   68) = (   0.1250000  -0.5000000   0.1250000), wk =   0.0078125
        k(   69) = (   0.1250000  -0.5000000   0.2500000), wk =   0.0078125
        k(   70) = (   0.1250000  -0.5000000   0.3750000), wk =   0.0078125
        k(   71) = (   0.1250000  -0.5000000  -0.5000000), wk =   0.0078125
        k(   72) = (   0.1250000  -0.5000000  -0.3750000), wk =   0.0078125
        k(   73) = (   0.1250000  -0.5000000  -0.2500000), wk =   0.0078125
        k(   74) = (   0.1250000  -0.5000000  -0.1250000), wk =   0.0078125
        k(   75) = (   0.1250000  -0.3750000   0.0000000), wk =   0.0078125
        k(   76) = (   0.1250000  -0.3750000   0.1250000), wk =   0.0078125
        k(   77) = (   0.1250000  -0.3750000   0.2500000), wk =   0.0078125
        k(   78) = (   0.1250000  -0.3750000   0.3750000), wk =   0.0078125
        k(   79) = (   0.1250000  -0.3750000  -0.5000000), wk =   0.0078125
        k(   80) = (   0.1250000  -0.3750000  -0.3750000), wk =   0.0078125
        k(   81) = (   0.1250000  -0.3750000  -0.2500000), wk =   0.0078125
        k(   82) = (   0.1250000  -0.3750000  -0.1250000), wk =   0.0078125
        k(   83) = (   0.1250000  -0.2500000   0.0000000), wk =   0.0078125
        k(   84) = (   0.1250000  -0.2500000   0.1250000), wk =   0.0078125
        k(   85) = (   0.1250000  -0.2500000   0.2500000), wk =   0.0078125
        k(   86) = (   0.1250000  -0.2500000   0.3750000), wk =   0.0078125
        k(   87) = (   0.1250000  -0.2500000  -0.5000000), wk =   0.0078125
        k(   88) = (   0.1250000  -0.2500000  -0.3750000), wk =   0.0078125
        k(   89) = (   0.1250000  -0.2500000  -0.2500000), wk =   0.0078125
        k(   90) = (   0.1250000  -0.2500000  -0.1250000), wk =   0.0078125
        k(   91) = (   0.1250000  -0.1250000   0.0000000), wk =   0.0078125
        k(   92) = (   0.1250000  -0.1250000   0.1250000), wk =   0.0078125
        k(   93) = (   0.1250000  -0.1250000   0.2500000), wk =   0.0078125
        k(   94) = (   0.1250000  -0.1250000   0.3750000), wk =   0.0078125
        k(   95) = (   0.1250000  -0.1250000  -0.5000000), wk =   0.0078125
        k(   96) = (   0.1250000  -0.1250000  -0.3750000), wk =   0.0078125
        k(   97) = (   0.1250000  -0.1250000  -0.2500000), wk =   0.0078125
        k(   98) = (   0.1250000  -0.1250000  -0.1250000), wk =   0.0078125
        k(   99) = (   0.2500000   0.0000000   0.0000000), wk =   0.0078125
        k(  100) = (   0.2500000   0.0000000   0.1250000), wk =   0.0078125
        k(  101) = (   0.2500000   0.0000000   0.2500000), wk =   0.0078125
        k(  102) = (   0.2500000   0.0000000   0.3750000), wk =   0.0078125
        k(  103) = (   0.2500000   0.0000000  -0.5000000), wk =   0.0078125
        k(  104) = (   0.2500000  -0.0000000  -0.3750000), wk =   0.0078125
        k(  105) = (   0.2500000  -0.0000000  -0.2500000), wk =   0.0078125
        k(  106) = (   0.2500000  -0.0000000  -0.1250000), wk =   0.0078125
        k(  107) = (   0.2500000   0.1250000  -0.0000000), wk =   0.0078125
        k(  108) = (   0.2500000   0.1250000   0.1250000), wk =   0.0078125
        k(  109) = (   0.2500000   0.1250000   0.2500000), wk =   0.0078125
        k(  110) = (   0.2500000   0.1250000   0.3750000), wk =   0.0078125
        k(  111) = (   0.2500000   0.1250000  -0.5000000), wk =   0.0078125
        k(  112) = (   0.2500000   0.1250000  -0.3750000), wk =   0.0078125
        k(  113) = (   0.2500000   0.1250000  -0.2500000), wk =   0.0078125
        k(  114) = (   0.2500000   0.1250000  -0.1250000), wk =   0.0078125
        k(  115) = (   0.2500000   0.2500000  -0.0000000), wk =   0.0078125
        k(  116) = (   0.2500000   0.2500000   0.1250000), wk =   0.0078125
        k(  117) = (   0.2500000   0.2500000   0.2500000), wk =   0.0078125
        k(  118) = (   0.2500000   0.2500000   0.3750000), wk =   0.0078125
        k(  119) = (   0.2500000   0.2500000  -0.5000000), wk =   0.0078125
        k(  120) = (   0.2500000   0.2500000  -0.3750000), wk =   0.0078125
        k(  121) = (   0.2500000   0.2500000  -0.2500000), wk =   0.0078125
        k(  122) = (   0.2500000   0.2500000  -0.1250000), wk =   0.0078125
        k(  123) = (   0.2500000   0.3750000  -0.0000000), wk =   0.0078125
        k(  124) = (   0.2500000   0.3750000   0.1250000), wk =   0.0078125
        k(  125) = (   0.2500000   0.3750000   0.2500000), wk =   0.0078125
        k(  126) = (   0.2500000   0.3750000   0.3750000), wk =   0.0078125
        k(  127) = (   0.2500000   0.3750000  -0.5000000), wk =   0.0078125
        k(  128) = (   0.2500000   0.3750000  -0.3750000), wk =   0.0078125
        k(  129) = (   0.2500000   0.3750000  -0.2500000), wk =   0.0078125
        k(  130) = (   0.2500000   0.3750000  -0.1250000), wk =   0.0078125
        k(  131) = (   0.2500000  -0.5000000   0.0000000), wk =   0.0078125
        k(  132) = (   0.2500000  -0.5000000   0.1250000), wk =   0.0078125
        k(  133) = (   0.2500000  -0.5000000   0.2500000), wk =   0.0078125
        k(  134) = (   0.2500000  -0.5000000   0.3750000), wk =   0.0078125
        k(  135) = (   0.2500000  -0.5000000  -0.5000000), wk =   0.0078125
        k(  136) = (   0.2500000  -0.5000000  -0.3750000), wk =   0.0078125
        k(  137) = (   0.2500000  -0.5000000  -0.2500000), wk =   0.0078125
        k(  138) = (   0.2500000  -0.5000000  -0.1250000), wk =   0.0078125
        k(  139) = (   0.2500000  -0.3750000  -0.0000000), wk =   0.0078125
        k(  140) = (   0.2500000  -0.3750000   0.1250000), wk =   0.0078125
        k(  141) = (   0.2500000  -0.3750000   0.2500000), wk =   0.0078125
        k(  142) = (   0.2500000  -0.3750000   0.3750000), wk =   0.0078125
        k(  143) = (   0.2500000  -0.3750000  -0.5000000), wk =   0.0078125
        k(  144) = (   0.2500000  -0.3750000  -0.3750000), wk =   0.0078125
        k(  145) = (   0.2500000  -0.3750000  -0.2500000), wk =   0.0078125
        k(  146) = (   0.2500000  -0.3750000  -0.1250000), wk =   0.0078125
        k(  147) = (   0.2500000  -0.2500000   0.0000000), wk =   0.0078125
        k(  148) = (   0.2500000  -0.2500000   0.1250000), wk =   0.0078125
        k(  149) = (   0.2500000  -0.2500000   0.2500000), wk =   0.0078125
        k(  150) = (   0.2500000  -0.2500000   0.3750000), wk =   0.0078125
        k(  151) = (   0.2500000  -0.2500000  -0.5000000), wk =   0.0078125
        k(  152) = (   0.2500000  -0.2500000  -0.3750000), wk =   0.0078125
        k(  153) = (   0.2500000  -0.2500000  -0.2500000), wk =   0.0078125
        k(  154) = (   0.2500000  -0.2500000  -0.1250000), wk =   0.0078125
        k(  155) = (   0.2500000  -0.1250000   0.0000000), wk =   0.0078125
        k(  156) = (   0.2500000  -0.1250000   0.1250000), wk =   0.0078125
        k(  157) = (   0.2500000  -0.1250000   0.2500000), wk =   0.0078125
        k(  158) = (   0.2500000  -0.1250000   0.3750000), wk =   0.0078125
        k(  159) = (   0.2500000  -0.1250000  -0.5000000), wk =   0.0078125
        k(  160) = (   0.2500000  -0.1250000  -0.3750000), wk =   0.0078125
        k(  161) = (   0.2500000  -0.1250000  -0.2500000), wk =   0.0078125
        k(  162) = (   0.2500000  -0.1250000  -0.1250000), wk =   0.0078125
        k(  163) = (   0.3750000   0.0000000   0.0000000), wk =   0.0078125
        k(  164) = (   0.3750000   0.0000000   0.1250000), wk =   0.0078125
        k(  165) = (   0.3750000   0.0000000   0.2500000), wk =   0.0078125
        k(  166) = (   0.3750000   0.0000000   0.3750000), wk =   0.0078125
        k(  167) = (   0.3750000   0.0000000  -0.5000000), wk =   0.0078125
        k(  168) = (   0.3750000   0.0000000  -0.3750000), wk =   0.0078125
        k(  169) = (   0.3750000   0.0000000  -0.2500000), wk =   0.0078125
        k(  170) = (   0.3750000   0.0000000  -0.1250000), wk =   0.0078125
        k(  171) = (   0.3750000   0.1250000   0.0000000), wk =   0.0078125
        k(  172) = (   0.3750000   0.1250000   0.1250000), wk =   0.0078125
        k(  173) = (   0.3750000   0.1250000   0.2500000), wk =   0.0078125
        k(  174) = (   0.3750000   0.1250000   0.3750000), wk =   0.0078125
        k(  175) = (   0.3750000   0.1250000  -0.5000000), wk =   0.0078125
        k(  176) = (   0.3750000   0.1250000  -0.3750000), wk =   0.0078125
        k(  177) = (   0.3750000   0.1250000  -0.2500000), wk =   0.0078125
        k(  178) = (   0.3750000   0.1250000  -0.1250000), wk =   0.0078125
        k(  179) = (   0.3750000   0.2500000  -0.0000000), wk =   0.0078125
        k(  180) = (   0.3750000   0.2500000   0.1250000), wk =   0.0078125
        k(  181) = (   0.3750000   0.2500000   0.2500000), wk =   0.0078125
        k(  182) = (   0.3750000   0.2500000   0.3750000), wk =   0.0078125
        k(  183) = (   0.3750000   0.2500000  -0.5000000), wk =   0.0078125
        k(  184) = (   0.3750000   0.2500000  -0.3750000), wk =   0.0078125
        k(  185) = (   0.3750000   0.2500000  -0.2500000), wk =   0.0078125
        k(  186) = (   0.3750000   0.2500000  -0.1250000), wk =   0.0078125
        k(  187) = (   0.3750000   0.3750000  -0.0000000), wk =   0.0078125
        k(  188) = (   0.3750000   0.3750000   0.1250000), wk =   0.0078125
        k(  189) = (   0.3750000   0.3750000   0.2500000), wk =   0.0078125
        k(  190) = (   0.3750000   0.3750000   0.3750000), wk =   0.0078125
        k(  191) = (   0.3750000   0.3750000  -0.5000000), wk =   0.0078125
        k(  192) = (   0.3750000   0.3750000  -0.3750000), wk =   0.0078125
        k(  193) = (   0.3750000   0.3750000  -0.2500000), wk =   0.0078125
        k(  194) = (   0.3750000   0.3750000  -0.1250000), wk =   0.0078125
        k(  195) = (   0.3750000  -0.5000000   0.0000000), wk =   0.0078125
        k(  196) = (   0.3750000  -0.5000000   0.1250000), wk =   0.0078125
        k(  197) = (   0.3750000  -0.5000000   0.2500000), wk =   0.0078125
        k(  198) = (   0.3750000  -0.5000000   0.3750000), wk =   0.0078125
        k(  199) = (   0.3750000  -0.5000000  -0.5000000), wk =   0.0078125
        k(  200) = (   0.3750000  -0.5000000  -0.3750000), wk =   0.0078125
        k(  201) = (   0.3750000  -0.5000000  -0.2500000), wk =   0.0078125
        k(  202) = (   0.3750000  -0.5000000  -0.1250000), wk =   0.0078125
        k(  203) = (   0.3750000  -0.3750000   0.0000000), wk =   0.0078125
        k(  204) = (   0.3750000  -0.3750000   0.1250000), wk =   0.0078125
        k(  205) = (   0.3750000  -0.3750000   0.2500000), wk =   0.0078125
        k(  206) = (   0.3750000  -0.3750000   0.3750000), wk =   0.0078125
        k(  207) = (   0.3750000  -0.3750000  -0.5000000), wk =   0.0078125
        k(  208) = (   0.3750000  -0.3750000  -0.3750000), wk =   0.0078125
        k(  209) = (   0.3750000  -0.3750000  -0.2500000), wk =   0.0078125
        k(  210) = (   0.3750000  -0.3750000  -0.1250000), wk =   0.0078125
        k(  211) = (   0.3750000  -0.2500000   0.0000000), wk =   0.0078125
        k(  212) = (   0.3750000  -0.2500000   0.1250000), wk =   0.0078125
        k(  213) = (   0.3750000  -0.2500000   0.2500000), wk =   0.0078125
        k(  214) = (   0.3750000  -0.2500000   0.3750000), wk =   0.0078125
        k(  215) = (   0.3750000  -0.2500000  -0.5000000), wk =   0.0078125
        k(  216) = (   0.3750000  -0.2500000  -0.3750000), wk =   0.0078125
        k(  217) = (   0.3750000  -0.2500000  -0.2500000), wk =   0.0078125
        k(  218) = (   0.3750000  -0.2500000  -0.1250000), wk =   0.0078125
        k(  219) = (   0.3750000  -0.1250000   0.0000000), wk =   0.0078125
        k(  220) = (   0.3750000  -0.1250000   0.1250000), wk =   0.0078125
        k(  221) = (   0.3750000  -0.1250000   0.2500000), wk =   0.0078125
        k(  222) = (   0.3750000  -0.1250000   0.3750000), wk =   0.0078125
        k(  223) = (   0.3750000  -0.1250000  -0.5000000), wk =   0.0078125
        k(  224) = (   0.3750000  -0.1250000  -0.3750000), wk =   0.0078125
        k(  225) = (   0.3750000  -0.1250000  -0.2500000), wk =   0.0078125
        k(  226) = (   0.3750000  -0.1250000  -0.1250000), wk =   0.0078125
        k(  227) = (  -0.5000000  -0.0000000  -0.0000000), wk =   0.0039062
        k(  228) = (  -0.5000000  -0.0000000   0.1250000), wk =   0.0078125
        k(  229) = (  -0.5000000   0.0000000   0.2500000), wk =   0.0078125
        k(  230) = (  -0.5000000  -0.0000000   0.3750000), wk =   0.0078125
        k(  231) = (  -0.5000000  -0.0000000  -0.5000000), wk =   0.0039062
        k(  232) = (  -0.5000000   0.1250000  -0.0000000), wk =   0.0078125
        k(  233) = (  -0.5000000   0.1250000   0.1250000), wk =   0.0078125
        k(  234) = (  -0.5000000   0.1250000   0.2500000), wk =   0.0078125
        k(  235) = (  -0.5000000   0.1250000   0.3750000), wk =   0.0078125
        k(  236) = (  -0.5000000   0.1250000  -0.5000000), wk =   0.0078125
        k(  237) = (  -0.5000000   0.1250000  -0.3750000), wk =   0.0078125
        k(  238) = (  -0.5000000   0.1250000  -0.2500000), wk =   0.0078125
        k(  239) = (  -0.5000000   0.1250000  -0.1250000), wk =   0.0078125
        k(  240) = (  -0.5000000   0.2500000  -0.0000000), wk =   0.0078125
        k(  241) = (  -0.5000000   0.2500000   0.1250000), wk =   0.0078125
        k(  242) = (  -0.5000000   0.2500000   0.2500000), wk =   0.0078125
        k(  243) = (  -0.5000000   0.2500000   0.3750000), wk =   0.0078125
        k(  244) = (  -0.5000000   0.2500000  -0.5000000), wk =   0.0078125
        k(  245) = (  -0.5000000   0.2500000  -0.3750000), wk =   0.0078125
        k(  246) = (  -0.5000000   0.2500000  -0.2500000), wk =   0.0078125
        k(  247) = (  -0.5000000   0.2500000  -0.1250000), wk =   0.0078125
        k(  248) = (  -0.5000000   0.3750000  -0.0000000), wk =   0.0078125
        k(  249) = (  -0.5000000   0.3750000   0.1250000), wk =   0.0078125
        k(  250) = (  -0.5000000   0.3750000   0.2500000), wk =   0.0078125
        k(  251) = (  -0.5000000   0.3750000   0.3750000), wk =   0.0078125
        k(  252) = (  -0.5000000   0.3750000  -0.5000000), wk =   0.0078125
        k(  253) = (  -0.5000000   0.3750000  -0.3750000), wk =   0.0078125
        k(  254) = (  -0.5000000   0.3750000  -0.2500000), wk =   0.0078125
        k(  255) = (  -0.5000000   0.3750000  -0.1250000), wk =   0.0078125
        k(  256) = (  -0.5000000  -0.5000000   0.0000000), wk =   0.0039062
        k(  257) = (  -0.5000000  -0.5000000   0.1250000), wk =   0.0078125
        k(  258) = (  -0.5000000  -0.5000000   0.2500000), wk =   0.0078125
        k(  259) = (  -0.5000000  -0.5000000   0.3750000), wk =   0.0078125
        k(  260) = (  -0.5000000  -0.5000000  -0.5000000), wk =   0.0039062

     Dense  grid:    79339 G-vectors     FFT dimensions: (  50,  50,  80)

     Smooth grid:    30863 G-vectors     FFT dimensions: (  36,  36,  54)

     Dynamical RAM for                 wfc:       0.06 MB

     Dynamical RAM for     wfc (w. buffer):       3.88 MB

     Dynamical RAM for           str. fact:       0.15 MB

     Dynamical RAM for           local pot:       0.00 MB

     Dynamical RAM for          nlocal pot:       0.24 MB

     Dynamical RAM for                qrad:       5.21 MB

     Dynamical RAM for          rho,v,vnew:       0.51 MB

     Dynamical RAM for               rhoin:       0.17 MB

     Dynamical RAM for            rho*nmix:       1.21 MB

     Dynamical RAM for           G-vectors:       0.30 MB

     Dynamical RAM for          h,s,v(r/c):       0.05 MB

     Dynamical RAM for          <psi|beta>:       0.02 MB

     Dynamical RAM for                 psi:       0.24 MB

     Dynamical RAM for                hpsi:       0.24 MB

     Dynamical RAM for                spsi:       0.24 MB

     Dynamical RAM for      wfcinit/wfcrot:       0.14 MB

     Dynamical RAM for           addusdens:       3.97 MB

     Dynamical RAM for          addusforce:       4.12 MB

     Dynamical RAM for         addusstress:       4.19 MB

     Estimated static dynamical RAM per process >      12.38 MB

     Estimated max dynamical RAM per process >      16.57 MB

     Estimated total dynamical RAM >       1.04 GB

     Check: negative core charge=   -0.000003

     Initial potential from superposition of free atoms

     starting charge   31.39954, renormalised to   32.00000
     Starting wfcs are   18 randomized atomic wfcs

     total cpu time spent up to now is        3.2 secs

     Self-consistent Calculation

     iteration #  1     ecut=    80.00 Ry     beta= 0.50
     Davidson diagonalization with overlap
     ethr =  1.00E-02,  avg # of iterations =  2.0

     total cpu time spent up to now is        4.0 secs

     total energy              =    -314.89324613 Ry
     Harris-Foulkes estimate   =    -315.45997694 Ry
     estimated scf accuracy    <       0.89655941 Ry

     iteration #  2     ecut=    80.00 Ry     beta= 0.50
     Davidson diagonalization with overlap
     ethr =  2.80E-03,  avg # of iterations =  2.8

     total cpu time spent up to now is        4.8 secs

     total energy              =    -315.13359439 Ry
     Harris-Foulkes estimate   =    -315.24732360 Ry
     estimated scf accuracy    <       0.26292539 Ry

     iteration #  3     ecut=    80.00 Ry     beta= 0.50
     Davidson diagonalization with overlap
     ethr =  8.22E-04,  avg # of iterations =  2.0

     total cpu time spent up to now is        5.5 secs

     total energy              =    -315.17856210 Ry
     Harris-Foulkes estimate   =    -315.18144255 Ry
     estimated scf accuracy    <       0.00961597 Ry

     iteration #  4     ecut=    80.00 Ry     beta= 0.50
     Davidson diagonalization with overlap
     ethr =  3.00E-05,  avg # of iterations =  1.9

     total cpu time spent up to now is        6.1 secs

     total energy              =    -315.17916908 Ry
     Harris-Foulkes estimate   =    -315.17919776 Ry
     estimated scf accuracy    <       0.00051435 Ry

     iteration #  5     ecut=    80.00 Ry     beta= 0.50
     Davidson diagonalization with overlap
     ethr =  1.61E-06,  avg # of iterations =  2.0

     total cpu time spent up to now is        6.8 secs

     total energy              =    -315.17922623 Ry
     Harris-Foulkes estimate   =    -315.17922877 Ry
     estimated scf accuracy    <       0.00002500 Ry

     iteration #  6     ecut=    80.00 Ry     beta= 0.50
     Davidson diagonalization with overlap
     ethr =  7.81E-08,  avg # of iterations =  2.5

     total cpu time spent up to now is        7.5 secs

     total energy              =    -315.17923227 Ry
     Harris-Foulkes estimate   =    -315.17923164 Ry
     estimated scf accuracy    <       0.00000105 Ry

     iteration #  7     ecut=    80.00 Ry     beta= 0.50
     Davidson diagonalization with overlap
     ethr =  3.27E-09,  avg # of iterations =  2.0

     total cpu time spent up to now is        8.2 secs

     End of self-consistent calculation

          k = 0.0000 0.0000 0.0000 (  3837 PWs)   bands (ev):

   -66.8059 -66.8014 -33.8272 -33.7783 -33.7751 -33.7751 -33.7664 -33.7664
   -11.4757 -10.6411   1.3506   3.8907   3.8907   4.2254   4.2254   4.6527

     occupation numbers 
     1.0000   1.0000   1.0000   1.0000   1.0000   1.0000   1.0000   1.0000
     1.0000   1.0000   1.0000   1.0000   1.0000   1.0000   1.0000   1.0000

          k = 0.0000-0.0000 0.0826 (  3843 PWs)   bands (ev):

   -66.8058 -66.8016 -33.8254 -33.7802 -33.7748 -33.7748 -33.7667 -33.7667
   -11.4459 -10.6751   1.4356   3.9029   3.9029   4.2121   4.2121   4.4150

     occupation numbers 
     1.0000   1.0000   1.0000   1.0000   1.0000   1.0000   1.0000   1.0000
     1.0000   1.0000   1.0000   1.0000   1.0000   1.0000   1.0000   1.0000

          k = 0.0000-0.0000 0.1653 (  3861 PWs)   bands (ev):

   -66.8053 -66.8021 -33.8202 -33.7856 -33.7738 -33.7738 -33.7677 -33.7677
   -11.3603 -10.7709   1.6855   3.8652   3.9379   3.9379   4.1745   4.1745

     occupation numbers 
     1.0000   1.0000   1.0000   1.0000   1.0000   1.0000   1.0000   1.0000
     1.0000   1.0000   1.0000   1.0000   1.0000   1.0000   1.0000   1.0000

          k = 0.0000-0.0000 0.2479 (  3867 PWs)   bands (ev):

   -66.8046 -66.8028 -33.8123 -33.7936 -33.7724 -33.7724 -33.7691 -33.7691
   -11.2301 -10.9113   2.0855   3.2244   3.9908   3.9908   4.1188   4.1188

     occupation numbers 
     1.0000   1.0000   1.0000   1.0000   1.0000   1.0000   1.0000   1.0000
     1.0000   1.0000   1.0000   1.0000   1.0000   1.0000   1.0000   1.0000

          k =-0.0000 0.0000-0.3306 (  3866 PWs)   bands (ev):

   -66.8037 -66.8036 -33.8030 -33.8029 -33.7708 -33.7708 -33.7707 -33.7707
   -11.0734 -11.0722   2.6104   2.6112   4.0537   4.0537   4.0549   4.0549

     occupation numbers 
     1.0000   1.0000   1.0000   1.0000   1.0000   1.0000   1.0000   1.0000
     1.0000   1.0000   1.0000   1.0000   1.0000   1.0000   1.0000   1.0000

          k =-0.0000 0.1443-0.0000 (  3851 PWs)   bands (ev):

   -66.8056 -66.8014 -33.8253 -33.7796 -33.7789 -33.7764 -33.7706 -33.7669
   -11.3939 -10.6132   1.5025   3.4988   3.7806   3.7900   4.2329   4.5975

     occupation numbers 
     1.0000   1.0000   1.0000   1.0000   1.0000   1.0000   1.0000   1.0000
     1.0000   1.0000   1.0000   1.0000   1.0000   1.0000   1.0000   1.0000

          k =-0.0000 0.1443 0.0826 (  3858 PWs)   bands (ev):

   -66.8054 -66.8015 -33.8237 -33.7819 -33.7785 -33.7760 -33.7704 -33.7673
   -11.3657 -10.6446   1.5703   3.4951   3.7228   3.8058   4.2149   4.5024

     occupation numbers 
     1.0000   1.0000   1.0000   1.0000   1.0000   1.0000   1.0000   1.0000
     1.0000   1.0000   1.0000   1.0000   1.0000   1.0000   1.0000   1.0000

          k =-0.0000 0.1443 0.1653 (  3847 PWs)   bands (ev):

   -66.8049 -66.8020 -33.8191 -33.7876 -33.7772 -33.7750 -33.7706 -33.7683
   -11.2849 -10.7333   1.7694   3.3290   3.6953   3.8513   4.1643   4.3045

     occupation numbers 
     1.0000   1.0000   1.0000   1.0000   1.0000   1.0000   1.0000   1.0000
     1.0000   1.0000   1.0000   1.0000   1.0000   1.0000   1.0000   1.0000

          k = 0.0000 0.1443 0.2479 (  3841 PWs)   bands (ev):

   -66.8043 -66.8027 -33.8122 -33.7953 -33.7754 -33.7735 -33.7717 -33.7699
   -11.1621 -10.8638   2.0859   2.9382   3.7946   3.9206   4.0899   4.1108

     occupation numbers 
     1.0000   1.0000   1.0000   1.0000   1.0000   1.0000   1.0000   1.0000
     1.0000   1.0000   1.0000   1.0000   1.0000   1.0000   1.0000   1.0000

          k =-0.0000 0.1443-0.3306 (  3852 PWs)   bands (ev):

   -66.8035 -66.8034 -33.8039 -33.8038 -33.7735 -33.7734 -33.7717 -33.7716
   -11.0152 -11.0140   2.4920   2.4926   3.9398   3.9406   4.0036   4.0048

     occupation numbers 
     1.0000   1.0000   1.0000   1.0000   1.0000   1.0000   1.0000   1.0000
     1.0000   1.0000   1.0000   1.0000   1.0000   1.0000   1.0000   1.0000

          k =-0.0000 0.1443-0.2479 (  3841 PWs)   bands (ev):

   -66.8043 -66.8027 -33.8122 -33.7953 -33.7755 -33.7735 -33.7717 -33.7699
   -11.1621 -10.8638   2.0859   2.9382   3.7946   3.9206   4.0899   4.1108

     occupation numbers 
     1.0000   1.0000   1.0000   1.0000   1.0000   1.0000   1.0000   1.0000
     1.0000   1.0000   1.0000   1.0000   1.0000   1.0000   1.0000   1.0000

          k =-0.0000 0.1443-0.1653 (  3847 PWs)   bands (ev):

   -66.8049 -66.8020 -33.8191 -33.7876 -33.7772 -33.7750 -33.7706 -33.7683
   -11.2849 -10.7333   1.7694   3.3290   3.6954   3.8513   4.1643   4.3045

     occupation numbers 
     1.0000   1.0000   1.0000   1.0000   1.0000   1.0000   1.0000   1.0000
     1.0000   1.0000   1.0000   1.0000   1.0000   1.0000   1.0000   1.0000

          k =-0.0000 0.1443-0.0826 (  3858 PWs)   bands (ev):

   -66.8054 -66.8015 -33.8237 -33.7819 -33.7785 -33.7760 -33.7704 -33.7673
   -11.3657 -10.6446   1.5703   3.4951   3.7229   3.8058   4.2149   4.5024

     occupation numbers 
     1.0000   1.0000   1.0000   1.0000   1.0000   1.0000   1.0000   1.0000
     1.0000   1.0000   1.0000   1.0000   1.0000   1.0000   1.0000   1.0000

          k =-0.0000 0.2887-0.0000 (  3867 PWs)   bands (ev):

   -66.8046 -66.8012 -33.8200 -33.7880 -33.7838 -33.7801 -33.7793 -33.7684
   -11.1811 -10.5550   1.9221   2.5674   3.1523   3.5916   4.2122   4.4142

     occupation numbers 
     1.0000   1.0000   1.0000   1.0000   1.0000   1.0000   1.0000   1.0000
     1.0000   1.0000   1.0000   1.0000   1.0000   1.0000   1.0000   1.0000

          k =-0.0000 0.2887 0.0826 (  3841 PWs)   bands (ev):

   -66.8044 -66.8014 -33.8192 -33.7882 -33.7865 -33.7789 -33.7780 -33.7688
   -11.1577 -10.5792   1.9013   2.5956   3.1469   3.6132   4.1863   4.3925

     occupation numbers 
     1.0000   1.0000   1.0000   1.0000   1.0000   1.0000   1.0000   1.0000
     1.0000   1.0000   1.0000   1.0000   1.0000   1.0000   1.0000   1.0000

          k =-0.0000 0.2887 0.1653 (  3855 PWs)   bands (ev):

   -66.8041 -66.8017 -33.8168 -33.7940 -33.7847 -33.7777 -33.7765 -33.7700
   -11.0908 -10.6479   1.8926   2.5265   3.2649   3.6754   4.1135   4.3034

     occupation numbers 
     1.0000   1.0000   1.0000   1.0000   1.0000   1.0000   1.0000   1.0000
     1.0000   1.0000   1.0000   1.0000   1.0000   1.0000   1.0000   1.0000

          k =-0.0000 0.2887 0.2479 (  3852 PWs)   bands (ev):

   -66.8035 -66.8023 -33.8127 -33.8008 -33.7817 -33.7769 -33.7759 -33.7718
   -10.9901 -10.7503   1.9574   2.3215   3.5394   3.7707   4.0075   4.1188

     occupation numbers 
     1.0000   1.0000   1.0000   1.0000   1.0000   1.0000   1.0000   1.0000
     1.0000   1.0000   1.0000   1.0000   1.0000   1.0000   1.0000   1.0000

          k =-0.0000 0.2887-0.3306 (  3840 PWs)   bands (ev):

   -66.8030 -66.8029 -33.8073 -33.8072 -33.7789 -33.7788 -33.7739 -33.7738
   -10.8712 -10.8700   2.1087   2.1087   3.8492   3.8493   3.8864   3.8876

     occupation numbers 
     1.0000   1.0000   1.0000   1.0000   1.0000   1.0000   1.0000   1.0000
     1.0000   1.0000   1.0000   1.0000   1.0000   1.0000   1.0000   1.0000

          k =-0.0000 0.2887-0.2479 (  3852 PWs)   bands (ev):

   -66.8035 -66.8023 -33.8127 -33.8008 -33.7817 -33.7769 -33.7759 -33.7718
   -10.9901 -10.7503   1.9574   2.3215   3.5394   3.7707   4.0075   4.1188

     occupation numbers 
     1.0000   1.0000   1.0000   1.0000   1.0000   1.0000   1.0000   1.0000
     1.0000   1.0000   1.0000   1.0000   1.0000   1.0000   1.0000   1.0000

          k =-0.0000 0.2887-0.1653 (  3855 PWs)   bands (ev):

   -66.8041 -66.8017 -33.8168 -33.7940 -33.7847 -33.7777 -33.7765 -33.7700
   -11.0908 -10.6479   1.8926   2.5265   3.2649   3.6754   4.1135   4.3034

     occupation numbers 
     1.0000   1.0000   1.0000   1.0000   1.0000   1.0000   1.0000   1.0000
     1.0000   1.0000   1.0000   1.0000   1.0000   1.0000   1.0000   1.0000

          k =-0.0000 0.2887-0.0826 (  3841 PWs)   bands (ev):

   -66.8044 -66.8014 -33.8192 -33.7882 -33.7865 -33.7789 -33.7780 -33.7688
   -11.1577 -10.5792   1.9013   2.5956   3.1470   3.6132   4.1863   4.3925

     occupation numbers 
     1.0000   1.0000   1.0000   1.0000   1.0000   1.0000   1.0000   1.0000
     1.0000   1.0000   1.0000   1.0000   1.0000   1.0000   1.0000   1.0000

          k =-0.0000 0.4330-0.0000 (  3860 PWs)   bands (ev):

   -66.8035 -66.8013 -33.8135 -33.7968 -33.7924 -33.7865 -33.7821 -33.7700
   -10.9300 -10.5256   1.8037   2.4858   2.6683   3.4235   4.0895   4.1694

     occupation numbers 
     1.0000   1.0000   1.0000   1.0000   1.0000   1.0000   1.0000   1.0000
     1.0000   1.0000   1.0000   1.0000   1.0000   1.0000   1.0000   1.0000

          k =-0.0000 0.4330 0.0826 (  3870 PWs)   bands (ev):

   -66.8034 -66.8013 -33.8143 -33.7970 -33.7940 -33.7839 -33.7817 -33.7704
   -10.9138 -10.5400   1.7295   2.3619   2.8388   3.4489   4.1330   4.1375

     occupation numbers 
     1.0000   1.0000   1.0000   1.0000   1.0000   1.0000   1.0000   1.0000
     1.0000   1.0000   1.0000   1.0000   1.0000   1.0000   1.0000   1.0000

          k =-0.0000 0.4330 0.1653 (  3865 PWs)   bands (ev):

   -66.8031 -66.8016 -33.8153 -33.8026 -33.7902 -33.7813 -33.7803 -33.7717
   -10.8678 -10.5814   1.6211   2.1132   3.1826   3.5223   4.0484   4.1803

     occupation numbers 
     1.0000   1.0000   1.0000   1.0000   1.0000   1.0000   1.0000   1.0000
     1.0000   1.0000   1.0000   1.0000   1.0000   1.0000   1.0000   1.0000

          k =-0.0000 0.4330 0.2479 (  3865 PWs)   bands (ev):

   -66.8028 -66.8019 -33.8149 -33.8082 -33.7857 -33.7807 -33.7784 -33.7737
   -10.7999 -10.6447   1.5910   1.8585   3.5627   3.6355   3.9197   4.1132

     occupation numbers 
     1.0000   1.0000   1.0000   1.0000   1.0000   1.0000   1.0000   1.0000
     1.0000   1.0000   1.0000   1.0000   1.0000   1.0000   1.0000   1.0000

          k =-0.0000 0.4330-0.3306 (  3856 PWs)   bands (ev):

   -66.8024 -66.8023 -33.8125 -33.8125 -33.7823 -33.7823 -33.7761 -33.7760
   -10.7220 -10.7207   1.6719   1.6723   3.7739   3.7750   3.8952   3.8956

     occupation numbers 
     1.0000   1.0000   1.0000   1.0000   1.0000   1.0000   1.0000   1.0000
     1.0000   1.0000   1.0000   1.0000   1.0000   1.0000   1.0000   1.0000

          k =-0.0000 0.4330-0.2479 (  3865 PWs)   bands (ev):

   -66.8028 -66.8019 -33.8149 -33.8082 -33.7857 -33.7807 -33.7784 -33.7737
   -10.7999 -10.6447   1.5910   1.8585   3.5627   3.6355   3.9197   4.1132

     occupation numbers 
     1.0000   1.0000   1.0000   1.0000   1.0000   1.0000   1.0000   1.0000
     1.0000   1.0000   1.0000   1.0000   1.0000   1.0000   1.0000   1.0000

          k =-0.0000 0.4330-0.1653 (  3865 PWs)   bands (ev):

   -66.8031 -66.8016 -33.8153 -33.8026 -33.7902 -33.7813 -33.7803 -33.7717
   -10.8678 -10.5814   1.6211   2.1132   3.1826   3.5223   4.0484   4.1803

     occupation numbers 
     1.0000   1.0000   1.0000   1.0000   1.0000   1.0000   1.0000   1.0000
     1.0000   1.0000   1.0000   1.0000   1.0000   1.0000   1.0000   1.0000

          k =-0.0000 0.4330-0.0826 (  3870 PWs)   bands (ev):

   -66.8034 -66.8013 -33.8143 -33.7970 -33.7941 -33.7839 -33.7817 -33.7704
   -10.9138 -10.5400   1.7295   2.3618   2.8388   3.4489   4.1330   4.1375

     occupation numbers 
     1.0000   1.0000   1.0000   1.0000   1.0000   1.0000   1.0000   1.0000
     1.0000   1.0000   1.0000   1.0000   1.0000   1.0000   1.0000   1.0000

          k = 0.0000-0.5774 0.0000 (  3856 PWs)   bands (ev):

   -66.8029 -66.8014 -33.8103 -33.7996 -33.7972 -33.7894 -33.7833 -33.7706
   -10.7961 -10.5404   1.5264   2.4425   2.8927   3.3593   3.8234   4.1484

     occupation numbers 
     1.0000   1.0000   1.0000   1.0000   1.0000   1.0000   1.0000   1.0000
     1.0000   1.0000   1.0000   1.0000   1.0000   1.0000   1.0000   1.0000

          k = 0.0000-0.5774 0.0826 (  3870 PWs)   bands (ev):

   -66.8028 -66.8014 -33.8124 -33.8008 -33.7966 -33.7867 -33.7828 -33.7711
   -10.7849 -10.5486   1.4804   2.2955   3.0138   3.3860   3.9222   4.1144

     occupation numbers 
     1.0000   1.0000   1.0000   1.0000   1.0000   1.0000   1.0000   1.0000
     1.0000   1.0000   1.0000   1.0000   1.0000   1.0000   1.0000   1.0000

          k = 0.0000-0.5774 0.1653 (  3864 PWs)   bands (ev):

   -66.8026 -66.8016 -33.8153 -33.8066 -33.7913 -33.7834 -33.7814 -33.7725
   -10.7536 -10.5725   1.4063   1.9921   3.3044   3.4632   4.0195   4.0699

     occupation numbers 
     1.0000   1.0000   1.0000   1.0000   1.0000   1.0000   1.0000   1.0000
     1.0000   1.0000   1.0000   1.0000   1.0000   1.0000   1.0000   1.0000

          k = 0.0000-0.5774 0.2479 (  3848 PWs)   bands (ev):

   -66.8024 -66.8018 -33.8164 -33.8117 -33.7864 -33.7821 -33.7794 -33.7745
   -10.7085 -10.6103   1.3946   1.6979   3.5825   3.6443   3.8829   4.0901

     occupation numbers 
     1.0000   1.0000   1.0000   1.0000   1.0000   1.0000   1.0000   1.0000
     1.0000   1.0000   1.0000   1.0000   1.0000   1.0000   1.0000   1.0000

          k = 0.0000-0.5774-0.3306 (  3864 PWs)   bands (ev):

   -66.8022 -66.8021 -33.8152 -33.8152 -33.7832 -33.7832 -33.7770 -33.7769
   -10.6585 -10.6573   1.4894   1.4899   3.7285   3.7297   3.9336   3.9342

     occupation numbers 
     1.0000   1.0000   1.0000   1.0000   1.0000   1.0000   1.0000   1.0000
     1.0000   1.0000   1.0000   1.0000   1.0000   1.0000   1.0000   1.0000

          k = 0.1250 0.0722-0.0000 (  3851 PWs)   bands (ev):

   -66.8056 -66.8014 -33.8253 -33.7796 -33.7789 -33.7764 -33.7706 -33.7669
   -11.3939 -10.6132   1.5025   3.4988   3.7806   3.7900   4.2329   4.5975

     occupation numbers 
     1.0000   1.0000   1.0000   1.0000   1.0000   1.0000   1.0000   1.0000
     1.0000   1.0000   1.0000   1.0000   1.0000   1.0000   1.0000   1.0000

          k = 0.1250 0.0722 0.0826 (  3858 PWs)   bands (ev):

   -66.8054 -66.8015 -33.8237 -33.7819 -33.7785 -33.7760 -33.7704 -33.7673
   -11.3657 -10.6446   1.5703   3.4951   3.7229   3.8058   4.2149   4.5024

     occupation numbers 
     1.0000   1.0000   1.0000   1.0000   1.0000   1.0000   1.0000   1.0000
     1.0000   1.0000   1.0000   1.0000   1.0000   1.0000   1.0000   1.0000

          k = 0.1250 0.0722 0.1653 (  3847 PWs)   bands (ev):

   -66.8049 -66.8020 -33.8191 -33.7876 -33.7772 -33.7750 -33.7706 -33.7683
   -11.2849 -10.7333   1.7694   3.3290   3.6954   3.8513   4.1643   4.3045

     occupation numbers 
     1.0000   1.0000   1.0000   1.0000   1.0000   1.0000   1.0000   1.0000
     1.0000   1.0000   1.0000   1.0000   1.0000   1.0000   1.0000   1.0000

          k = 0.1250 0.0722 0.2479 (  3841 PWs)   bands (ev):

   -66.8043 -66.8027 -33.8122 -33.7953 -33.7754 -33.7735 -33.7717 -33.7699
   -11.1621 -10.8638   2.0859   2.9382   3.7946   3.9206   4.0899   4.1108

     occupation numbers 
     1.0000   1.0000   1.0000   1.0000   1.0000   1.0000   1.0000   1.0000
     1.0000   1.0000   1.0000   1.0000   1.0000   1.0000   1.0000   1.0000

          k = 0.1250 0.0722-0.3306 (  3852 PWs)   bands (ev):

   -66.8035 -66.8034 -33.8039 -33.8038 -33.7735 -33.7734 -33.7717 -33.7716
   -11.0152 -11.0140   2.4920   2.4926   3.9398   3.9406   4.0036   4.0048

     occupation numbers 
     1.0000   1.0000   1.0000   1.0000   1.0000   1.0000   1.0000   1.0000
     1.0000   1.0000   1.0000   1.0000   1.0000   1.0000   1.0000   1.0000

          k = 0.1250 0.0722-0.2479 (  3841 PWs)   bands (ev):

   -66.8043 -66.8027 -33.8122 -33.7953 -33.7754 -33.7735 -33.7717 -33.7699
   -11.1621 -10.8638   2.0859   2.9382   3.7946   3.9206   4.0899   4.1108

     occupation numbers 
     1.0000   1.0000   1.0000   1.0000   1.0000   1.0000   1.0000   1.0000
     1.0000   1.0000   1.0000   1.0000   1.0000   1.0000   1.0000   1.0000

          k = 0.1250 0.0722-0.1653 (  3847 PWs)   bands (ev):

   -66.8049 -66.8020 -33.8191 -33.7876 -33.7772 -33.7750 -33.7706 -33.7683
   -11.2849 -10.7333   1.7694   3.3290   3.6953   3.8513   4.1643   4.3045

     occupation numbers 
     1.0000   1.0000   1.0000   1.0000   1.0000   1.0000   1.0000   1.0000
     1.0000   1.0000   1.0000   1.0000   1.0000   1.0000   1.0000   1.0000

          k = 0.1250 0.0722-0.0826 (  3858 PWs)   bands (ev):

   -66.8054 -66.8015 -33.8237 -33.7819 -33.7785 -33.7760 -33.7704 -33.7673
   -11.3657 -10.6446   1.5703   3.4951   3.7228   3.8058   4.2149   4.5024

     occupation numbers 
     1.0000   1.0000   1.0000   1.0000   1.0000   1.0000   1.0000   1.0000
     1.0000   1.0000   1.0000   1.0000   1.0000   1.0000   1.0000   1.0000

          k = 0.1250 0.2165-0.0000 (  3847 PWs)   bands (ev):

   -66.8049 -66.8013 -33.8216 -33.7845 -33.7823 -33.7804 -33.7757 -33.7686
   -11.2464 -10.5702   1.7893   2.9249   3.1606   3.7656   4.1324   4.4790

     occupation numbers 
     1.0000   1.0000   1.0000   1.0000   1.0000   1.0000   1.0000   1.0000
     1.0000   1.0000   1.0000   1.0000   1.0000   1.0000   1.0000   1.0000

          k = 0.1250 0.2165 0.0826 (  3845 PWs)   bands (ev):

   -66.8047 -66.8014 -33.8205 -33.7857 -33.7838 -33.7795 -33.7747 -33.7690
   -11.2214 -10.5967   1.8120   2.8797   3.2256   3.7376   4.1081   4.4505

     occupation numbers 
     1.0000   1.0000   1.0000   1.0000   1.0000   1.0000   1.0000   1.0000
     1.0000   1.0000   1.0000   1.0000   1.0000   1.0000   1.0000   1.0000

          k = 0.1250 0.2165 0.1653 (  3844 PWs)   bands (ev):

   -66.8043 -66.8018 -33.8174 -33.7918 -33.7820 -33.7782 -33.7739 -33.7701
   -11.1499 -10.6717   1.8893   2.7330   3.4004   3.7061   4.0416   4.3525

     occupation numbers 
     1.0000   1.0000   1.0000   1.0000   1.0000   1.0000   1.0000   1.0000
     1.0000   1.0000   1.0000   1.0000   1.0000   1.0000   1.0000   1.0000

          k = 0.1250 0.2165 0.2479 (  3845 PWs)   bands (ev):

   -66.8038 -66.8024 -33.8124 -33.7989 -33.7795 -33.7769 -33.7740 -33.7717
   -11.0420 -10.7832   2.0356   2.5011   3.6340   3.7295   3.9556   4.1792

     occupation numbers 
     1.0000   1.0000   1.0000   1.0000   1.0000   1.0000   1.0000   1.0000
     1.0000   1.0000   1.0000   1.0000   1.0000   1.0000   1.0000   1.0000

          k = 0.1250 0.2165-0.3306 (  3850 PWs)   bands (ev):

   -66.8031 -66.8030 -33.8060 -33.8060 -33.7773 -33.7772 -33.7735 -33.7734
   -10.9139 -10.9128   2.2491   2.2492   3.7781   3.7788   3.9717   3.9723

     occupation numbers 
     1.0000   1.0000   1.0000   1.0000   1.0000   1.0000   1.0000   1.0000
     1.0000   1.0000   1.0000   1.0000   1.0000   1.0000   1.0000   1.0000

          k = 0.1250 0.2165-0.2479 (  3845 PWs)   bands (ev):

   -66.8038 -66.8024 -33.8124 -33.7989 -33.7795 -33.7769 -33.7740 -33.7717
   -11.0420 -10.7832   2.0356   2.5011   3.6340   3.7295   3.9556   4.1792

     occupation numbers 
     1.0000   1.0000   1.0000   1.0000   1.0000   1.0000   1.0000   1.0000
     1.0000   1.0000   1.0000   1.0000   1.0000   1.0000   1.0000   1.0000

          k = 0.1250 0.2165-0.1653 (  3844 PWs)   bands (ev):

   -66.8043 -66.8018 -33.8174 -33.7918 -33.7820 -33.7782 -33.7739 -33.7701
   -11.1499 -10.6717   1.8893   2.7330   3.4004   3.7061   4.0416   4.3525

     occupation numbers 
     1.0000   1.0000   1.0000   1.0000   1.0000   1.0000   1.0000   1.0000
     1.0000   1.0000   1.0000   1.0000   1.0000   1.0000   1.0000   1.0000

          k = 0.1250 0.2165-0.0826 (  3845 PWs)   bands (ev):

   -66.8047 -66.8014 -33.8205 -33.7857 -33.7838 -33.7795 -33.7747 -33.7690
   -11.2214 -10.5967   1.8120   2.8797   3.2256   3.7376   4.1081   4.4505

     occupation numbers 
     1.0000   1.0000   1.0000   1.0000   1.0000   1.0000   1.0000   1.0000
     1.0000   1.0000   1.0000   1.0000   1.0000   1.0000   1.0000   1.0000

          k = 0.1250 0.3608-0.0000 (  3868 PWs)   bands (ev):

   -66.8038 -66.8012 -33.8155 -33.7925 -33.7894 -33.7855 -33.7810 -33.7710
   -11.0118 -10.5278   2.1424   2.2971   2.7713   3.4584   4.0141   4.2258

     occupation numbers 
     1.0000   1.0000   1.0000   1.0000   1.0000   1.0000   1.0000   1.0000
     1.0000   1.0000   1.0000   1.0000   1.0000   1.0000   1.0000   1.0000

          k = 0.1250 0.3608 0.0826 (  3864 PWs)   bands (ev):

   -66.8037 -66.8013 -33.8156 -33.7937 -33.7906 -33.7841 -33.7797 -33.7714
   -10.9930 -10.5456   2.0257   2.2838   2.9260   3.4335   3.9725   4.2667

     occupation numbers 
     1.0000   1.0000   1.0000   1.0000   1.0000   1.0000   1.0000   1.0000
     1.0000   1.0000   1.0000   1.0000   1.0000   1.0000   1.0000   1.0000

          k = 0.1250 0.3608 0.1653 (  3862 PWs)   bands (ev):

   -66.8034 -66.8016 -33.8152 -33.7994 -33.7876 -33.7824 -33.7779 -33.7726
   -10.9393 -10.5966   1.8855   2.1764   3.2129   3.4550   3.8727   4.3014

     occupation numbers 
     1.0000   1.0000   1.0000   1.0000   1.0000   1.0000   1.0000   1.0000
     1.0000   1.0000   1.0000   1.0000   1.0000   1.0000   1.0000   1.0000

          k = 0.1250 0.3608 0.2479 (  3867 PWs)   bands (ev):

   -66.8030 -66.8020 -33.8136 -33.8053 -33.7840 -33.7809 -33.7771 -33.7743
   -10.8595 -10.6739   1.8343   2.0187   3.3887   3.6127   3.8113   4.2309

     occupation numbers 
     1.0000   1.0000   1.0000   1.0000   1.0000   1.0000   1.0000   1.0000
     1.0000   1.0000   1.0000   1.0000   1.0000   1.0000   1.0000   1.0000

          k = 0.1250 0.3608-0.3306 (  3860 PWs)   bands (ev):

   -66.8026 -66.8025 -33.8102 -33.8102 -33.7813 -33.7813 -33.7762 -33.7761
   -10.7668 -10.7656   1.8862   1.8865   3.5237   3.5245   4.0358   4.0359

     occupation numbers 
     1.0000   1.0000   1.0000   1.0000   1.0000   1.0000   1.0000   1.0000
     1.0000   1.0000   1.0000   1.0000   1.0000   1.0000   1.0000   1.0000

          k = 0.1250 0.3608-0.2479 (  3867 PWs)   bands (ev):

   -66.8030 -66.8020 -33.8136 -33.8053 -33.7840 -33.7809 -33.7771 -33.7743
   -10.8595 -10.6739   1.8343   2.0186   3.3888   3.6127   3.8113   4.2309

     occupation numbers 
     1.0000   1.0000   1.0000   1.0000   1.0000   1.0000   1.0000   1.0000
     1.0000   1.0000   1.0000   1.0000   1.0000   1.0000   1.0000   1.0000

          k = 0.1250 0.3608-0.1653 (  3862 PWs)   bands (ev):

   -66.8034 -66.8016 -33.8152 -33.7994 -33.7876 -33.7824 -33.7779 -33.7726
   -10.9393 -10.5966   1.8855   2.1764   3.2129   3.4550   3.8727   4.3014

     occupation numbers 
     1.0000   1.0000   1.0000   1.0000   1.0000   1.0000   1.0000   1.0000
     1.0000   1.0000   1.0000   1.0000   1.0000   1.0000   1.0000   1.0000

          k = 0.1250 0.3608-0.0826 (  3864 PWs)   bands (ev):

   -66.8037 -66.8013 -33.8156 -33.7937 -33.7906 -33.7841 -33.7797 -33.7714
   -10.9930 -10.5456   2.0257   2.2838   2.9260   3.4335   3.9725   4.2667

     occupation numbers 
     1.0000   1.0000   1.0000   1.0000   1.0000   1.0000   1.0000   1.0000
     1.0000   1.0000   1.0000   1.0000   1.0000   1.0000   1.0000   1.0000

          k = 0.1250 0.5052-0.0000 (  3871 PWs)   bands (ev):

   -66.8029 -66.8014 -33.8099 -33.7982 -33.7958 -33.7892 -33.7848 -33.7726
   -10.8024 -10.5357   1.6777   2.5339   2.8591   3.2007   3.8674   3.9452

     occupation numbers 
     1.0000   1.0000   1.0000   1.0000   1.0000   1.0000   1.0000   1.0000
     1.0000   1.0000   1.0000   1.0000   1.0000   1.0000   1.0000   1.0000

          k = 0.1250 0.5052 0.0826 (  3872 PWs)   bands (ev):

   -66.8028 -66.8014 -33.8116 -33.8001 -33.7951 -33.7867 -33.7840 -33.7731
   -10.7908 -10.5443   1.6399   2.3664   2.9417   3.2862   3.8497   4.0155

     occupation numbers 
     1.0000   1.0000   1.0000   1.0000   1.0000   1.0000   1.0000   1.0000
     1.0000   1.0000   1.0000   1.0000   1.0000   1.0000   1.0000   1.0000

          k = 0.1250 0.5052 0.1653 (  3864 PWs)   bands (ev):

   -66.8027 -66.8016 -33.8142 -33.8057 -33.7906 -33.7840 -33.7818 -33.7743
   -10.7585 -10.5696   1.5728   2.0806   3.0299   3.5467   3.7380   4.1671

     occupation numbers 
     1.0000   1.0000   1.0000   1.0000   1.0000   1.0000   1.0000   1.0000
     1.0000   1.0000   1.0000   1.0000   1.0000   1.0000   1.0000   1.0000

          k = 0.1250 0.5052 0.2479 (  3866 PWs)   bands (ev):

   -66.8024 -66.8018 -33.8152 -33.8107 -33.7864 -33.7824 -33.7799 -33.7759
   -10.7117 -10.6093   1.5546   1.8155   3.1624   3.5362   3.8787   4.2206

     occupation numbers 
     1.0000   1.0000   1.0000   1.0000   1.0000   1.0000   1.0000   1.0000
     1.0000   1.0000   1.0000   1.0000   1.0000   1.0000   1.0000   1.0000

          k = 0.1250 0.5052-0.3306 (  3860 PWs)   bands (ev):

   -66.8022 -66.8021 -33.8141 -33.8141 -33.7835 -33.7834 -33.7778 -33.7778
   -10.6596 -10.6584   1.6320   1.6325   3.3416   3.3423   4.1161   4.1163

     occupation numbers 
     1.0000   1.0000   1.0000   1.0000   1.0000   1.0000   1.0000   1.0000
     1.0000   1.0000   1.0000   1.0000   1.0000   1.0000   1.0000   1.0000

          k = 0.1250 0.5052-0.2479 (  3866 PWs)   bands (ev):

   -66.8024 -66.8018 -33.8152 -33.8107 -33.7864 -33.7824 -33.7799 -33.7759
   -10.7117 -10.6093   1.5546   1.8155   3.1624   3.5362   3.8787   4.2206

     occupation numbers 
     1.0000   1.0000   1.0000   1.0000   1.0000   1.0000   1.0000   1.0000
     1.0000   1.0000   1.0000   1.0000   1.0000   1.0000   1.0000   1.0000

          k = 0.1250 0.5052-0.1653 (  3864 PWs)   bands (ev):

   -66.8027 -66.8016 -33.8142 -33.8057 -33.7906 -33.7840 -33.7818 -33.7743
   -10.7585 -10.5696   1.5728   2.0806   3.0299   3.5467   3.7380   4.1671

     occupation numbers 
     1.0000   1.0000   1.0000   1.0000   1.0000   1.0000   1.0000   1.0000
     1.0000   1.0000   1.0000   1.0000   1.0000   1.0000   1.0000   1.0000

          k = 0.1250 0.5052-0.0826 (  3872 PWs)   bands (ev):

   -66.8028 -66.8014 -33.8116 -33.8001 -33.7951 -33.7867 -33.7840 -33.7731
   -10.7908 -10.5443   1.6399   2.3664   2.9417   3.2862   3.8497   4.0155

     occupation numbers 
     1.0000   1.0000   1.0000   1.0000   1.0000   1.0000   1.0000   1.0000
     1.0000   1.0000   1.0000   1.0000   1.0000   1.0000   1.0000   1.0000

          k = 0.1250-0.5052 0.0000 (  3871 PWs)   bands (ev):

   -66.8029 -66.8014 -33.8099 -33.7982 -33.7958 -33.7892 -33.7848 -33.7726
   -10.8024 -10.5357   1.6777   2.5339   2.8591   3.2007   3.8674   3.9452

     occupation numbers 
     1.0000   1.0000   1.0000   1.0000   1.0000   1.0000   1.0000   1.0000
     1.0000   1.0000   1.0000   1.0000   1.0000   1.0000   1.0000   1.0000

          k = 0.1250-0.5052 0.0826 (  3872 PWs)   bands (ev):

   -66.8028 -66.8014 -33.8116 -33.8001 -33.7951 -33.7867 -33.7840 -33.7731
   -10.7908 -10.5443   1.6399   2.3664   2.9417   3.2862   3.8497   4.0155

     occupation numbers 
     1.0000   1.0000   1.0000   1.0000   1.0000   1.0000   1.0000   1.0000
     1.0000   1.0000   1.0000   1.0000   1.0000   1.0000   1.0000   1.0000

          k = 0.1250-0.5052 0.1653 (  3864 PWs)   bands (ev):

   -66.8027 -66.8016 -33.8142 -33.8057 -33.7906 -33.7840 -33.7818 -33.7743
   -10.7585 -10.5696   1.5728   2.0806   3.0299   3.5467   3.7380   4.1671

     occupation numbers 
     1.0000   1.0000   1.0000   1.0000   1.0000   1.0000   1.0000   1.0000
     1.0000   1.0000   1.0000   1.0000   1.0000   1.0000   1.0000   1.0000

          k = 0.1250-0.5052 0.2479 (  3866 PWs)   bands (ev):

   -66.8024 -66.8018 -33.8152 -33.8107 -33.7864 -33.7824 -33.7799 -33.7759
   -10.7117 -10.6093   1.5546   1.8155   3.1624   3.5362   3.8787   4.2206

     occupation numbers 
     1.0000   1.0000   1.0000   1.0000   1.0000   1.0000   1.0000   1.0000
     1.0000   1.0000   1.0000   1.0000   1.0000   1.0000   1.0000   1.0000

          k = 0.1250-0.5052-0.3306 (  3860 PWs)   bands (ev):

   -66.8022 -66.8021 -33.8141 -33.8141 -33.7835 -33.7834 -33.7778 -33.7778
   -10.6596 -10.6584   1.6320   1.6325   3.3416   3.3423   4.1161   4.1163

     occupation numbers 
     1.0000   1.0000   1.0000   1.0000   1.0000   1.0000   1.0000   1.0000
     1.0000   1.0000   1.0000   1.0000   1.0000   1.0000   1.0000   1.0000

          k = 0.1250-0.5052-0.2479 (  3866 PWs)   bands (ev):

   -66.8024 -66.8018 -33.8152 -33.8107 -33.7864 -33.7824 -33.7799 -33.7759
   -10.7117 -10.6093   1.5546   1.8155   3.1624   3.5362   3.8787   4.2206

     occupation numbers 
     1.0000   1.0000   1.0000   1.0000   1.0000   1.0000   1.0000   1.0000
     1.0000   1.0000   1.0000   1.0000   1.0000   1.0000   1.0000   1.0000

          k = 0.1250-0.5052-0.1653 (  3864 PWs)   bands (ev):

   -66.8027 -66.8016 -33.8142 -33.8057 -33.7906 -33.7840 -33.7818 -33.7743
   -10.7585 -10.5696   1.5728   2.0806   3.0299   3.5467   3.7380   4.1671

     occupation numbers 
     1.0000   1.0000   1.0000   1.0000   1.0000   1.0000   1.0000   1.0000
     1.0000   1.0000   1.0000   1.0000   1.0000   1.0000   1.0000   1.0000

          k = 0.1250-0.5052-0.0826 (  3872 PWs)   bands (ev):

   -66.8028 -66.8014 -33.8116 -33.8001 -33.7951 -33.7867 -33.7840 -33.7731
   -10.7908 -10.5443   1.6399   2.3664   2.9417   3.2862   3.8497   4.0155

     occupation numbers 
     1.0000   1.0000   1.0000   1.0000   1.0000   1.0000   1.0000   1.0000
     1.0000   1.0000   1.0000   1.0000   1.0000   1.0000   1.0000   1.0000

          k = 0.1250-0.3608 0.0000 (  3868 PWs)   bands (ev):

   -66.8038 -66.8012 -33.8155 -33.7925 -33.7894 -33.7855 -33.7810 -33.7710
   -11.0118 -10.5278   2.1424   2.2971   2.7713   3.4584   4.0141   4.2258

     occupation numbers 
     1.0000   1.0000   1.0000   1.0000   1.0000   1.0000   1.0000   1.0000
     1.0000   1.0000   1.0000   1.0000   1.0000   1.0000   1.0000   1.0000

          k = 0.1250-0.3608 0.0826 (  3864 PWs)   bands (ev):

   -66.8037 -66.8013 -33.8156 -33.7937 -33.7906 -33.7841 -33.7797 -33.7714
   -10.9930 -10.5456   2.0257   2.2838   2.9260   3.4335   3.9725   4.2667

     occupation numbers 
     1.0000   1.0000   1.0000   1.0000   1.0000   1.0000   1.0000   1.0000
     1.0000   1.0000   1.0000   1.0000   1.0000   1.0000   1.0000   1.0000

          k = 0.1250-0.3608 0.1653 (  3862 PWs)   bands (ev):

   -66.8034 -66.8016 -33.8152 -33.7994 -33.7876 -33.7824 -33.7779 -33.7726
   -10.9393 -10.5966   1.8855   2.1764   3.2129   3.4550   3.8727   4.3014

     occupation numbers 
     1.0000   1.0000   1.0000   1.0000   1.0000   1.0000   1.0000   1.0000
     1.0000   1.0000   1.0000   1.0000   1.0000   1.0000   1.0000   1.0000

          k = 0.1250-0.3608 0.2479 (  3867 PWs)   bands (ev):

   -66.8030 -66.8020 -33.8136 -33.8053 -33.7840 -33.7809 -33.7771 -33.7743
   -10.8595 -10.6739   1.8343   2.0186   3.3888   3.6127   3.8113   4.2309

     occupation numbers 
[...]
     1.0000   1.0000   1.0000   1.0000   1.0000   1.0000   1.0000   1.0000

          k =-0.5000-0.1443 0.0826 (  3872 PWs)   bands (ev):

   -66.8028 -66.8014 -33.8116 -33.8001 -33.7951 -33.7867 -33.7840 -33.7731
   -10.7908 -10.5443   1.6399   2.3664   2.9417   3.2862   3.8497   4.0155

     occupation numbers 
     1.0000   1.0000   1.0000   1.0000   1.0000   1.0000   1.0000   1.0000
     1.0000   1.0000   1.0000   1.0000   1.0000   1.0000   1.0000   1.0000

          k =-0.5000-0.1443 0.1653 (  3864 PWs)   bands (ev):

   -66.8027 -66.8016 -33.8142 -33.8057 -33.7906 -33.7840 -33.7818 -33.7743
   -10.7585 -10.5696   1.5728   2.0806   3.0299   3.5467   3.7380   4.1671

     occupation numbers 
     1.0000   1.0000   1.0000   1.0000   1.0000   1.0000   1.0000   1.0000
     1.0000   1.0000   1.0000   1.0000   1.0000   1.0000   1.0000   1.0000

          k =-0.5000-0.1443 0.2479 (  3866 PWs)   bands (ev):

   -66.8024 -66.8018 -33.8152 -33.8107 -33.7864 -33.7824 -33.7799 -33.7759
   -10.7117 -10.6093   1.5546   1.8155   3.1624   3.5362   3.8787   4.2206

     occupation numbers 
     1.0000   1.0000   1.0000   1.0000   1.0000   1.0000   1.0000   1.0000
     1.0000   1.0000   1.0000   1.0000   1.0000   1.0000   1.0000   1.0000

          k =-0.5000-0.1443-0.3306 (  3860 PWs)   bands (ev):

   -66.8022 -66.8021 -33.8141 -33.8141 -33.7835 -33.7834 -33.7778 -33.7778
   -10.6596 -10.6584   1.6320   1.6325   3.3416   3.3423   4.1161   4.1163

     occupation numbers 
     1.0000   1.0000   1.0000   1.0000   1.0000   1.0000   1.0000   1.0000
     1.0000   1.0000   1.0000   1.0000   1.0000   1.0000   1.0000   1.0000

          k =-0.5000-0.1443-0.2479 (  3866 PWs)   bands (ev):

   -66.8024 -66.8018 -33.8152 -33.8107 -33.7864 -33.7824 -33.7799 -33.7759
   -10.7117 -10.6093   1.5546   1.8155   3.1624   3.5362   3.8787   4.2206

     occupation numbers 
     1.0000   1.0000   1.0000   1.0000   1.0000   1.0000   1.0000   1.0000
     1.0000   1.0000   1.0000   1.0000   1.0000   1.0000   1.0000   1.0000

          k =-0.5000-0.1443-0.1653 (  3864 PWs)   bands (ev):

   -66.8027 -66.8016 -33.8142 -33.8057 -33.7906 -33.7840 -33.7818 -33.7743
   -10.7585 -10.5696   1.5728   2.0806   3.0299   3.5467   3.7380   4.1671

     occupation numbers 
     1.0000   1.0000   1.0000   1.0000   1.0000   1.0000   1.0000   1.0000
     1.0000   1.0000   1.0000   1.0000   1.0000   1.0000   1.0000   1.0000

          k =-0.5000-0.1443-0.0826 (  3872 PWs)   bands (ev):

   -66.8028 -66.8014 -33.8116 -33.8000 -33.7951 -33.7867 -33.7840 -33.7731
   -10.7908 -10.5443   1.6399   2.3664   2.9417   3.2862   3.8497   4.0155

     occupation numbers 
     1.0000   1.0000   1.0000   1.0000   1.0000   1.0000   1.0000   1.0000
     1.0000   1.0000   1.0000   1.0000   1.0000   1.0000   1.0000   1.0000

          k =-0.5000 0.0000-0.0000 (  3859 PWs)   bands (ev):

   -66.8029 -66.8014 -33.8094 -33.7960 -33.7936 -33.7909 -33.7853 -33.7752
   -10.8085 -10.5312   1.8982   2.5209   2.8611   3.1207   3.6571   3.9209

     occupation numbers 
     1.0000   1.0000   1.0000   1.0000   1.0000   1.0000   1.0000   1.0000
     1.0000   1.0000   1.0000   1.0000   1.0000   1.0000   1.0000   1.0000

          k =-0.5000 0.0000 0.0826 (  3883 PWs)   bands (ev):

   -66.8028 -66.8014 -33.8108 -33.7994 -33.7915 -33.7898 -33.7833 -33.7757
   -10.7966 -10.5403   1.9007   2.2908   3.0224   3.1329   3.6130   4.0303

     occupation numbers 
     1.0000   1.0000   1.0000   1.0000   1.0000   1.0000   1.0000   1.0000
     1.0000   1.0000   1.0000   1.0000   1.0000   1.0000   1.0000   1.0000

          k =-0.5000-0.0000 0.1653 (  3879 PWs)   bands (ev):

   -66.8027 -66.8016 -33.8131 -33.8048 -33.7881 -33.7873 -33.7802 -33.7770
   -10.7632 -10.5668   1.8906   2.0311   2.8925   3.3662   3.6359   4.2020

     occupation numbers 
     1.0000   1.0000   1.0000   1.0000   1.0000   1.0000   1.0000   1.0000
     1.0000   1.0000   1.0000   1.0000   1.0000   1.0000   1.0000   1.0000

          k =-0.5000-0.0000 0.2479 (  3875 PWs)   bands (ev):

   -66.8024 -66.8018 -33.8140 -33.8097 -33.7859 -33.7839 -33.7786 -33.7785
   -10.7148 -10.6083   1.8500   1.8724   2.8909   3.2118   3.9481   4.2741

     occupation numbers 
     1.0000   1.0000   1.0000   1.0000   1.0000   1.0000   1.0000   1.0000
     1.0000   1.0000   1.0000   1.0000   1.0000   1.0000   1.0000   1.0000

          k =-0.5000 0.0000-0.3306 (  3880 PWs)   bands (ev):

   -66.8022 -66.8021 -33.8129 -33.8129 -33.7839 -33.7838 -33.7786 -33.7786
   -10.6608 -10.6595   1.8223   1.8226   3.0197   3.0205   4.1871   4.1874

     occupation numbers 
     1.0000   1.0000   1.0000   1.0000   1.0000   1.0000   1.0000   1.0000
     1.0000   1.0000   1.0000   1.0000   1.0000   1.0000   1.0000   1.0000

          k =-0.5000 0.0000-0.2479 (  3875 PWs)   bands (ev):

   -66.8024 -66.8018 -33.8140 -33.8097 -33.7859 -33.7839 -33.7786 -33.7785
   -10.7148 -10.6083   1.8500   1.8724   2.8909   3.2118   3.9481   4.2741

     occupation numbers 
     1.0000   1.0000   1.0000   1.0000   1.0000   1.0000   1.0000   1.0000
     1.0000   1.0000   1.0000   1.0000   1.0000   1.0000   1.0000   1.0000

          k =-0.5000 0.0000-0.1653 (  3879 PWs)   bands (ev):

   -66.8027 -66.8016 -33.8131 -33.8048 -33.7881 -33.7873 -33.7802 -33.7770
   -10.7632 -10.5668   1.8906   2.0311   2.8925   3.3662   3.6359   4.2020

     occupation numbers 
     1.0000   1.0000   1.0000   1.0000   1.0000   1.0000   1.0000   1.0000
     1.0000   1.0000   1.0000   1.0000   1.0000   1.0000   1.0000   1.0000

          k =-0.5000 0.0000-0.0826 (  3883 PWs)   bands (ev):

   -66.8028 -66.8014 -33.8108 -33.7994 -33.7915 -33.7898 -33.7833 -33.7757
   -10.7966 -10.5403   1.9007   2.2908   3.0224   3.1329   3.6130   4.0303

     occupation numbers 
     1.0000   1.0000   1.0000   1.0000   1.0000   1.0000   1.0000   1.0000
     1.0000   1.0000   1.0000   1.0000   1.0000   1.0000   1.0000   1.0000

          k =-0.5000 0.1443-0.0000 (  3871 PWs)   bands (ev):

   -66.8029 -66.8014 -33.8099 -33.7982 -33.7958 -33.7892 -33.7848 -33.7726
   -10.8024 -10.5357   1.6778   2.5339   2.8591   3.2007   3.8674   3.9452

     occupation numbers 
     1.0000   1.0000   1.0000   1.0000   1.0000   1.0000   1.0000   1.0000
     1.0000   1.0000   1.0000   1.0000   1.0000   1.0000   1.0000   1.0000

          k =-0.5000 0.1443 0.0826 (  3872 PWs)   bands (ev):

   -66.8028 -66.8014 -33.8116 -33.8000 -33.7951 -33.7867 -33.7840 -33.7731
   -10.7908 -10.5443   1.6399   2.3664   2.9417   3.2862   3.8497   4.0155

     occupation numbers 
     1.0000   1.0000   1.0000   1.0000   1.0000   1.0000   1.0000   1.0000
     1.0000   1.0000   1.0000   1.0000   1.0000   1.0000   1.0000   1.0000

          k =-0.5000 0.1443 0.1653 (  3864 PWs)   bands (ev):

   -66.8027 -66.8016 -33.8142 -33.8057 -33.7906 -33.7840 -33.7818 -33.7743
   -10.7585 -10.5696   1.5728   2.0806   3.0299   3.5467   3.7380   4.1671

     occupation numbers 
     1.0000   1.0000   1.0000   1.0000   1.0000   1.0000   1.0000   1.0000
     1.0000   1.0000   1.0000   1.0000   1.0000   1.0000   1.0000   1.0000

          k =-0.5000 0.1443 0.2479 (  3866 PWs)   bands (ev):

   -66.8024 -66.8018 -33.8152 -33.8107 -33.7864 -33.7824 -33.7799 -33.7759
   -10.7117 -10.6093   1.5546   1.8155   3.1624   3.5362   3.8787   4.2206

     occupation numbers 
     1.0000   1.0000   1.0000   1.0000   1.0000   1.0000   1.0000   1.0000
     1.0000   1.0000   1.0000   1.0000   1.0000   1.0000   1.0000   1.0000

          k =-0.5000 0.1443-0.3306 (  3860 PWs)   bands (ev):

   -66.8022 -66.8021 -33.8141 -33.8141 -33.7835 -33.7834 -33.7778 -33.7778
   -10.6596 -10.6584   1.6320   1.6325   3.3416   3.3423   4.1161   4.1163

     occupation numbers 
     1.0000   1.0000   1.0000   1.0000   1.0000   1.0000   1.0000   1.0000
     1.0000   1.0000   1.0000   1.0000   1.0000   1.0000   1.0000   1.0000

          k =-0.5000 0.1443-0.2479 (  3866 PWs)   bands (ev):

   -66.8024 -66.8018 -33.8152 -33.8107 -33.7864 -33.7824 -33.7799 -33.7759
   -10.7117 -10.6093   1.5546   1.8155   3.1624   3.5362   3.8787   4.2206

     occupation numbers 
     1.0000   1.0000   1.0000   1.0000   1.0000   1.0000   1.0000   1.0000
     1.0000   1.0000   1.0000   1.0000   1.0000   1.0000   1.0000   1.0000

          k =-0.5000 0.1443-0.1653 (  3864 PWs)   bands (ev):

   -66.8027 -66.8016 -33.8142 -33.8057 -33.7906 -33.7840 -33.7818 -33.7743
   -10.7585 -10.5696   1.5728   2.0806   3.0299   3.5467   3.7380   4.1671

     occupation numbers 
     1.0000   1.0000   1.0000   1.0000   1.0000   1.0000   1.0000   1.0000
     1.0000   1.0000   1.0000   1.0000   1.0000   1.0000   1.0000   1.0000

          k =-0.5000 0.1443-0.0826 (  3872 PWs)   bands (ev):

   -66.8028 -66.8014 -33.8116 -33.8001 -33.7951 -33.7867 -33.7840 -33.7731
   -10.7908 -10.5443   1.6399   2.3664   2.9417   3.2862   3.8497   4.0155

     occupation numbers 
     1.0000   1.0000   1.0000   1.0000   1.0000   1.0000   1.0000   1.0000
     1.0000   1.0000   1.0000   1.0000   1.0000   1.0000   1.0000   1.0000

          k =-0.5000-0.8660 0.0000 (  3856 PWs)   bands (ev):

   -66.8029 -66.8014 -33.8103 -33.7996 -33.7972 -33.7894 -33.7833 -33.7706
   -10.7961 -10.5404   1.5264   2.4425   2.8927   3.3593   3.8234   4.1484

     occupation numbers 
     1.0000   1.0000   1.0000   1.0000   1.0000   1.0000   1.0000   1.0000
     1.0000   1.0000   1.0000   1.0000   1.0000   1.0000   1.0000   1.0000

          k =-0.5000-0.8660 0.0826 (  3870 PWs)   bands (ev):

   -66.8028 -66.8014 -33.8124 -33.8008 -33.7966 -33.7867 -33.7828 -33.7711
   -10.7849 -10.5486   1.4804   2.2955   3.0138   3.3860   3.9222   4.1144

     occupation numbers 
     1.0000   1.0000   1.0000   1.0000   1.0000   1.0000   1.0000   1.0000
     1.0000   1.0000   1.0000   1.0000   1.0000   1.0000   1.0000   1.0000

          k =-0.5000-0.8660 0.1653 (  3864 PWs)   bands (ev):

   -66.8026 -66.8016 -33.8153 -33.8066 -33.7913 -33.7834 -33.7814 -33.7725
   -10.7536 -10.5725   1.4063   1.9921   3.3044   3.4632   4.0195   4.0699

     occupation numbers 
     1.0000   1.0000   1.0000   1.0000   1.0000   1.0000   1.0000   1.0000
     1.0000   1.0000   1.0000   1.0000   1.0000   1.0000   1.0000   1.0000

          k =-0.5000-0.8660 0.2479 (  3848 PWs)   bands (ev):

   -66.8024 -66.8018 -33.8164 -33.8117 -33.7864 -33.7821 -33.7794 -33.7745
   -10.7085 -10.6103   1.3946   1.6979   3.5825   3.6444   3.8829   4.0901

     occupation numbers 
     1.0000   1.0000   1.0000   1.0000   1.0000   1.0000   1.0000   1.0000
     1.0000   1.0000   1.0000   1.0000   1.0000   1.0000   1.0000   1.0000

          k =-0.5000-0.8660-0.3306 (  3864 PWs)   bands (ev):

   -66.8022 -66.8021 -33.8152 -33.8152 -33.7832 -33.7832 -33.7770 -33.7769
   -10.6585 -10.6573   1.4894   1.4899   3.7285   3.7297   3.9336   3.9342

     occupation numbers 
     1.0000   1.0000   1.0000   1.0000   1.0000   1.0000   1.0000   1.0000
     1.0000   1.0000   1.0000   1.0000   1.0000   1.0000   1.0000   1.0000

     highest occupied level (ev):     4.6527

!    total energy              =    -315.17923246 Ry
     Harris-Foulkes estimate   =    -315.17923243 Ry
     estimated scf accuracy    <       0.00000022 Ry

     The total energy is the sum of the following terms:

     one-electron contribution =    -212.96169759 Ry
     hartree contribution      =     112.71912864 Ry
     xc contribution           =     -48.05746574 Ry
     ewald contribution        =    -166.87919777 Ry

     convergence has been achieved in   7 iterations

     Forces acting on atoms (cartesian axes, Ry/au):

     atom    1 type  2   force =    -0.00000045    0.00000039    0.00040271
     atom    2 type  2   force =    -0.00000044    0.00000087    0.00039754
     atom    3 type  1   force =     0.00000064   -0.00000064   -0.00036584
     atom    4 type  1   force =     0.00000024   -0.00000062   -0.00043441
     The non-local contrib.  to forces
     atom    1 type  2   force =    -0.00000026   -0.00000085    0.04106570
     atom    2 type  2   force =    -0.00000023    0.00000217    0.04105816
     atom    3 type  1   force =     0.00000048   -0.00000233    0.07435702
     atom    4 type  1   force =     0.00000076   -0.00000040    0.07435500
     The ionic contribution  to forces
     atom    1 type  2   force =    -0.00000590    0.00001543   -0.47031536
     atom    2 type  2   force =    -0.00000156    0.00000078   -0.47031602
     atom    3 type  1   force =     0.00000202   -0.00001346    0.47031562
     atom    4 type  1   force =     0.00000544   -0.00000275    0.47031575
     The local contribution  to forces
     atom    1 type  2   force =     0.00000555   -0.00001528    0.42979155
     atom    2 type  2   force =     0.00000124   -0.00000168    0.42981330
     atom    3 type  1   force =    -0.00000231    0.00001494   -0.54519747
     atom    4 type  1   force =    -0.00000583    0.00000243   -0.54502973
     The core correction contribution to forces
     atom    1 type  2   force =     0.00000001   -0.00000001   -0.00010806
     atom    2 type  2   force =     0.00000000   -0.00000002   -0.00010795
     atom    3 type  1   force =     0.00000000    0.00000000    0.00000000
     atom    4 type  1   force =     0.00000000    0.00000000    0.00000000
     The Hubbard contrib.    to forces
     atom    1 type  2   force =     0.00000000    0.00000000    0.00000000
     atom    2 type  2   force =     0.00000000    0.00000000    0.00000000
     atom    3 type  1   force =     0.00000000    0.00000000    0.00000000
     atom    4 type  1   force =     0.00000000    0.00000000    0.00000000
     The SCF correction term to forces
     atom    1 type  2   force =     0.00000000    0.00000000    0.00000000
     atom    2 type  2   force =     0.00000000    0.00000000    0.00000000
     atom    3 type  1   force =     0.00000000    0.00000000    0.00000000
     atom    4 type  1   force =     0.00000000    0.00000000    0.00000000

     Total force =     0.000000     Total SCF correction =     0.000000


     Computing stress (Cartesian axis) and pressure

          total   stress  (Ry/bohr**3)                   (kbar)     P=   -1.11
  -0.00000716   0.00000000  -0.00000000         -1.05      0.00     -0.00
   0.00000000  -0.00000717  -0.00000001          0.00     -1.05     -0.00
  -0.00000000  -0.00000001  -0.00000833         -0.00     -0.00     -1.23

     kinetic stress (kbar)  19009.27      0.00      0.00
                                0.00  19009.27     -0.00
                                0.00     -0.00  19042.28

     local   stress (kbar)  -8325.30     -0.02      0.02
                               -0.02  -8325.32     -0.05
                                0.02     -0.05 -10090.96

     nonloc. stress (kbar)   5215.61      0.00     -0.00
                                0.00   5215.61      0.00
                               -0.00      0.00   5190.35

     hartree stress (kbar)  16973.59      0.01     -0.01
                                0.01  16973.60      0.02
                               -0.01      0.02  17930.72

     exc-cor stress (kbar)  -6756.24      0.00     -0.00
                                0.00  -6756.24      0.00
                               -0.00      0.00  -6757.88

     corecor stress (kbar)   -249.03     -0.00     -0.00
                               -0.00   -249.03     -0.00
                               -0.00     -0.00   -249.05

     ewald   stress (kbar) -25868.95      0.01     -0.01
                                0.01 -25868.94      0.03
                               -0.01      0.03 -25066.67

     hubbard stress (kbar)      0.00      0.00      0.00
                                0.00      0.00      0.00
                                0.00      0.00      0.00

     london  stress (kbar)      0.00      0.00      0.00
                                0.00      0.00      0.00
                                0.00      0.00      0.00

     DFT-D3  stress (kbar)      0.00      0.00      0.00
                                0.00      0.00      0.00
                                0.00      0.00      0.00

     XDM     stress (kbar)      0.00      0.00      0.00
                                0.00      0.00      0.00
                                0.00      0.00      0.00

     dft-nl  stress (kbar)      0.00      0.00      0.00
                                0.00      0.00      0.00
                                0.00      0.00      0.00

     TS-vdW  stress (kbar)      0.00      0.00      0.00
                                0.00      0.00      0.00
                                0.00      0.00      0.00



     Writing output data file ZnO.save/
 
     init_run     :      0.40s CPU      1.94s WALL (       1 calls)
     electrons    :      4.49s CPU      5.09s WALL (       1 calls)
     forces       :      0.13s CPU      0.14s WALL (       1 calls)
     stress       :      0.23s CPU      0.25s WALL (       1 calls)

     Called by init_run:
     wfcinit      :      0.27s CPU      1.23s WALL (       1 calls)
     wfcinit:atom :      0.00s CPU      0.00s WALL (      65 calls)
     wfcinit:wfcr :      0.25s CPU      1.21s WALL (      65 calls)
     potinit      :      0.05s CPU      0.12s WALL (       1 calls)
     hinit0       :      0.07s CPU      0.47s WALL (       1 calls)

     Called by electrons:
     c_bands      :      3.70s CPU      4.09s WALL (       7 calls)
     sum_band     :      0.54s CPU      0.61s WALL (       7 calls)
     v_of_rho     :      0.21s CPU      0.26s WALL (       8 calls)
     v_h          :      0.00s CPU      0.00s WALL (       8 calls)
     v_xc         :      0.26s CPU      0.30s WALL (      10 calls)
     newd         :      0.03s CPU      0.05s WALL (       8 calls)
     mix_rho      :      0.01s CPU      0.06s WALL (       7 calls)

     Called by c_bands:
     init_us_2    :      0.08s CPU      0.08s WALL (    1105 calls)
     cegterg      :      3.31s CPU      3.57s WALL (     455 calls)

     Called by sum_band:
     sum_band:bec :      0.00s CPU      0.01s WALL (     455 calls)
     addusdens    :      0.03s CPU      0.04s WALL (       7 calls)

     Called by *egterg:
     h_psi        :      2.09s CPU      2.18s WALL (    1503 calls)
     s_psi        :      0.08s CPU      0.08s WALL (    1503 calls)
     g_psi        :      0.00s CPU      0.00s WALL (     983 calls)
     cdiaghg      :      0.83s CPU      1.88s WALL (    1438 calls)
     cegterg:over :      0.26s CPU      0.30s WALL (     983 calls)
     cegterg:upda :      0.12s CPU      0.12s WALL (     983 calls)
     cegterg:last :      0.06s CPU      0.07s WALL (     455 calls)
     cdiaghg:chol :      0.06s CPU      0.57s WALL (    1438 calls)
     cdiaghg:inve :      0.02s CPU      0.07s WALL (    1438 calls)
     cdiaghg:para :      0.08s CPU      0.09s WALL (    2876 calls)

     Called by h_psi:
     h_psi:pot    :      2.08s CPU      2.17s WALL (    1503 calls)
     h_psi:calbec :      0.13s CPU      0.14s WALL (    1503 calls)
     vloc_psi     :      1.86s CPU      1.94s WALL (    1503 calls)
     add_vuspsi   :      0.08s CPU      0.08s WALL (    1503 calls)

     General routines
     calbec       :      0.21s CPU      0.23s WALL (    2283 calls)
     fft          :      0.04s CPU      0.13s WALL (     127 calls)
     ffts         :      0.00s CPU      0.01s WALL (      15 calls)
     fftw         :      2.13s CPU      2.22s WALL (   45278 calls)
     interpolate  :      0.00s CPU      0.01s WALL (       8 calls)
 
     Parallel routines
     fft_scatt_xy :      0.29s CPU      0.30s WALL (   45420 calls)
     fft_scatt_yz :      1.14s CPU      1.19s WALL (   45420 calls)
 
     PWSCF        :      5.50s CPU      9.83s WALL

 
   This run was terminated on:  16:18:52  16Jun2022            

=------------------------------------------------------------------------------=
   JOB DONE.
=------------------------------------------------------------------------------=
