
     Program PWSCF v.6.4.1 starts on 15Jul2022 at  1:26:20 

     This program is part of the open-source Quantum ESPRESSO suite
     for quantum simulation of materials; please cite
         "P. Giannozzi et al., J. Phys.:Condens. Matter 21 395502 (2009);
         "P. Giannozzi et al., J. Phys.:Condens. Matter 29 465901 (2017);
          URL http://www.quantum-espresso.org", 
     in publications or presentations arising from this work. More details at
     http://www.quantum-espresso.org/quote

     Parallel version (MPI), running on   128 processors

     MPI processes distributed on     2 nodes
     K-points division:     npool     =       8
     R & G space division:  proc/nbgrp/npool/nimage =      16
     Waiting for input...
     Reading input from standard input
Warning: card &IONS ignored
Warning: card   UPSCALE           = 100.D0, ignored
Warning: card / ignored
Warning: card &CELL ignored
Warning: card   CELL_DYNAMICS     = 'BFGS' ignored
Warning: card   PRESS_CONV_THR    = 0.5D0 ignored
Warning: card   CELL_DOFREE = 'ALL' ignored
Warning: card / ignored

     Current dimensions of program PWSCF are:
     Max number of different atomic species (ntypx) = 10
     Max number of k-points (npk) =  40000
     Max angular momentum in pseudopotentials (lmaxx) =  3

     Subspace diagonalization in iterative solution of the eigenvalue problem:
     one sub-group per band group will be used
     scalapack distributed-memory algorithm (size of sub-group:  2*  2 procs)

 
     Parallelization info
     --------------------
     sticks:   dense  smooth     PW     G-vecs:    dense   smooth      PW
     Min         732     352     96                67290    22378    3221
     Max         733     353     97                67296    22381    3225
     Sum       11725    5643   1539              1076691   358069   51577
 


     bravais-lattice index     =            0
     lattice parameter (alat)  =      18.4447  a.u.
     unit-cell volume          =    5702.6630 (a.u.)^3
     number of atoms/cell      =           72
     number of atomic types    =            3
     number of electrons       =       776.00
     number of Kohn-Sham states=          466
     kinetic-energy cutoff     =      60.0000  Ry
     charge density cutoff     =     500.0000  Ry
     convergence threshold     =      1.0E-08
     mixing beta               =       0.5000
     number of iterations used =            8  plain     mixing
     Exchange-correlation      = SLA  PW   PSX  PSC ( 1  4 10  8 0 0)
     Using LIBXC version       =    4   3   4

     celldm(1)=  18.444651  celldm(2)=   0.000000  celldm(3)=   0.000000
     celldm(4)=   0.000000  celldm(5)=   0.000000  celldm(6)=   0.000000

     crystal axes: (cart. coord. in units of alat)
               a(1) = (   1.000000  -0.000668   0.000654 )  
               a(2) = (  -0.500577   0.867025  -0.000259 )  
               a(3) = (   0.000697   0.000083   1.048583 )  

     reciprocal axes: (cart. coord. in units 2 pi/alat)
               b(1) = (  1.000387  0.577573 -0.000710 )  
               b(2) = (  0.000771  1.153815 -0.000091 )  
               b(3) = ( -0.000623 -0.000075  0.953668 )  


     PseudoPot. # 1 for Zn read from file:
     ./GBRV_PBEsol/zn_pbesol_v1.uspp.F.UPF
     MD5 check sum: 7d8615e52efe7c1e2b1899de8658bae2
     Pseudo is Ultrasoft, Zval = 20.0
     Generated by new atomic code, or converted to UPF format
     Using radial grid of  943 points,  6 beta functions with: 
                l(1) =   0
                l(2) =   0
                l(3) =   1
                l(4) =   1
                l(5) =   2
                l(6) =   2
     Q(r) pseudized with  8 coefficients,  rinner =    1.100   1.100   1.100
                                                       1.100   1.100

     PseudoPot. # 2 for O  read from file:
     ./GBRV_PBEsol/o_pbesol_v1.2.uspp.F.UPF
     MD5 check sum: 501638753501ef6325af9037351f7734
     Pseudo is Ultrasoft + core correction, Zval =  6.0
     Generated by new atomic code, or converted to UPF format
     Using radial grid of  737 points,  5 beta functions with: 
                l(1) =   0
                l(2) =   0
                l(3) =   1
                l(4) =   1
                l(5) =   2
     Q(r) pseudized with  8 coefficients,  rinner =    0.900   0.900   0.900
                                                       0.900   0.900

     PseudoPot. # 3 for Mg read from file:
     ./GBRV_PBEsol/mg_pbesol_v1.4.uspp.F.UPF
     MD5 check sum: 4059f37963cf5867752dbf5ab2400678
     Pseudo is Ultrasoft, Zval = 10.0
     Generated by new atomic code, or converted to UPF format
     Using radial grid of  821 points,  7 beta functions with: 
                l(1) =   0
                l(2) =   0
                l(3) =   0
                l(4) =   1
                l(5) =   1
                l(6) =   2
                l(7) =   2
     Q(r) pseudized with  8 coefficients,  rinner =    1.200   1.200   1.200
                                                       1.200   1.200

     atomic species   valence    mass     pseudopotential
        Zn            20.00    65.38000     Zn( 1.00)
        O              6.00    15.99900     O ( 1.00)
        Mg            10.00    24.30500     Mg( 1.00)

     No symmetry found


                                    s                        frac. trans.

      isym =  1     identity                                     

 cryst.   s( 1) = (     1          0          0      )
                  (     0          1          0      )
                  (     0          0          1      )

 cart.    s( 1) = (  1.0000000  0.0000000 -0.0000000 )
                  (  0.0000000  1.0000000 -0.0000000 )
                  (  0.0000000 -0.0000000  1.0000000 )


   Cartesian axes

     site n.     atom                  positions (alat units)
         1           Zn  tau(   1) = (   0.1646139   0.0953872   0.2063897  )
         2           Zn  tau(   2) = (   0.3320114   0.3843670   0.2033986  )
         3           Zn  tau(   3) = (   0.6692678   0.3848792   0.2038035  )
         4           Zn  tau(   4) = (   0.1679135   0.0961174   0.7307713  )
         5           Zn  tau(   5) = (   0.5012084   0.0961981   0.7276222  )
         6           Zn  tau(   6) = (   0.8317903   0.0963501   0.7263234  )
         7           Zn  tau(   7) = (  -0.0001594   0.3868460   0.7272743  )
         8           Zn  tau(   8) = (   0.6661336   0.3851812   0.7288640  )
         9           Zn  tau(   9) = (   0.1653101   0.6739604   0.7282261  )
        10           Zn  tau(  10) = (   0.5001921   0.6715783   0.7259159  )
        11           Zn  tau(  11) = (   0.3319145   0.1939623   0.4676739  )
        12           Zn  tau(  12) = (   0.6672267   0.1932580   0.4651419  )
        13           Zn  tau(  13) = (   0.1671904   0.4803588   0.4661658  )
        14           Zn  tau(  14) = (   0.4993922   0.4797423   0.4644928  )
        15           Zn  tau(  15) = (  -0.0024626   0.7688398   0.4648698  )
        16           Zn  tau(  16) = (  -0.0007635   0.1924428   0.9904649  )
        17           Zn  tau(  17) = (   0.3340033   0.1901338   0.9921654  )
        18           Zn  tau(  18) = (   0.1653797   0.4819586   0.9918132  )
        19           Zn  tau(  19) = (  -0.3347554   0.7695395   0.9902059  )
        20           Zn  tau(  20) = (   0.0008399   0.7717114   0.9924266  )
        21           Mg  tau(  21) = (   0.4981859   0.0970723   0.2080974  )
        22           Mg  tau(  22) = (   0.8355846   0.0953879   0.2065253  )
        23           Mg  tau(  23) = (   0.0020281   0.3827160   0.2056382  )
        24           Mg  tau(  24) = (  -0.1676099   0.6757560   0.2030548  )
        25           Mg  tau(  25) = (   0.1668970   0.6743479   0.2062051  )
        26           Mg  tau(  26) = (   0.4998540   0.6755385   0.2068567  )
        27           Mg  tau(  27) = (   0.3337642   0.3851838   0.7309127  )
        28           Mg  tau(  28) = (  -0.1650978   0.6751806   0.7293787  )
        29           Mg  tau(  29) = (   0.0022741   0.1932056   0.4699866  )
        30           Mg  tau(  30) = (  -0.1668747   0.4823184   0.4659901  )
        31           Mg  tau(  31) = (  -0.3315544   0.7718490   0.4683877  )
        32           Mg  tau(  32) = (   0.3313298   0.7693114   0.4682156  )
        33           Mg  tau(  33) = (   0.6674800   0.1920272   0.9925780  )
        34           Mg  tau(  34) = (  -0.1648774   0.4803839   0.9898648  )
        35           Mg  tau(  35) = (   0.5023388   0.4821583   0.9937983  )
        36           Mg  tau(  36) = (   0.3349733   0.7708231   0.9886119  )
        37           O   tau(  37) = (   0.1653747   0.0952538   0.0025057  )
        38           O   tau(  38) = (   0.5004405   0.0965264   0.0059090  )
        39           O   tau(  39) = (   0.8325874   0.0946858   0.0040202  )
        40           O   tau(  40) = (  -0.0005585   0.3843496   0.0038954  )
        41           O   tau(  41) = (   0.3332901   0.3847892  -0.0004796  )
        42           O   tau(  42) = (   0.6678146   0.3845864   0.0006039  )
        43           O   tau(  43) = (  -0.1673406   0.6731352   0.0004325  )
        44           O   tau(  44) = (   0.1677256   0.6748970   0.0035495  )
        45           O   tau(  45) = (   0.4983066   0.6738464   0.0047801  )
        46           O   tau(  46) = (   0.1671355   0.0960547   0.5280719  )
        47           O   tau(  47) = (   0.5001105   0.0959488   0.5240548  )
        48           O   tau(  48) = (   0.8340089   0.0956853   0.5237756  )
        49           O   tau(  49) = (  -0.0007981   0.3856820   0.5241610  )
        50           O   tau(  50) = (   0.3335632   0.3856566   0.5291837  )
        51           O   tau(  51) = (   0.6665545   0.3851025   0.5259665  )
        52           O   tau(  52) = (  -0.1677587   0.6732905   0.5275985  )
        53           O   tau(  53) = (   0.1648971   0.6734154   0.5250197  )
        54           O   tau(  54) = (   0.5000519   0.6738284   0.5226421  )
        55           O   tau(  55) = (  -0.0001893   0.1925027   0.2681741  )
        56           O   tau(  56) = (   0.3315276   0.1929471   0.2649946  )
        57           O   tau(  57) = (   0.6673793   0.1917432   0.2617446  )
        58           O   tau(  58) = (  -0.1641485   0.4829211   0.2633661  )
        59           O   tau(  59) = (   0.1667976   0.4818419   0.2634953  )
        60           O   tau(  60) = (   0.5003934   0.4809149   0.2610367  )
        61           O   tau(  61) = (  -0.3330422   0.7699852   0.2665919  )
        62           O   tau(  62) = (  -0.0006805   0.7706030   0.2622241  )
        63           O   tau(  63) = (   0.3328765   0.7703968   0.2657857  )
        64           O   tau(  64) = (  -0.0004573   0.1931844   0.7866282  )
        65           O   tau(  65) = (   0.3346576   0.1923804   0.7890674  )
        66           O   tau(  66) = (   0.6668792   0.1925525   0.7902754  )
        67           O   tau(  67) = (  -0.1665380   0.4826732   0.7878082  )
        68           O   tau(  68) = (   0.1666740   0.4816720   0.7885972  )
        69           O   tau(  69) = (   0.4998598   0.4811913   0.7914622  )
        70           O   tau(  70) = (  -0.3335891   0.7696390   0.7865136  )
        71           O   tau(  71) = (   0.0005499   0.7716027   0.7891780  )
        72           O   tau(  72) = (   0.3336719   0.7700936   0.7860977  )

   Crystallographic axes

     site n.     atom                  positions (cryst. coord.)
         1           Zn  tau(   1) = (  0.2196241  0.1101672  0.1967175  )
         2           Zn  tau(   2) = (  0.5539955  0.4437257  0.1937389  )
         3           Zn  tau(   3) = (  0.8916779  0.4445767  0.1939147  )
         4           Zn  tau(   4) = (  0.2229741  0.1109644  0.6968015  )
         5           Zn  tau(   5) = (  0.5564469  0.1113148  0.6935906  )
         6           Zn  tau(   6) = (  0.8872454  0.1117452  0.6921458  )
         7           Zn  tau(   7) = (  0.2227558  0.4462820  0.6935494  )
         8           Zn  tau(   8) = (  0.8883439  0.4448749  0.6946503  )
         9           Zn  tau(   9) = (  0.5541184  0.7776864  0.6943324  )
        10           Zn  tau(  10) = (  0.8877557  0.7751963  0.6919207  )
        11           Zn  tau(  11) = (  0.4437382  0.2240098  0.4457843  )
        12           Zn  tau(  12) = (  0.7787751  0.2234560  0.4431606  )
        13           Zn  tau(  13) = (  0.4443664  0.5543314  0.4444272  )
        14           Zn  tau(  14) = (  0.7763419  0.5538764  0.4426247  )
        15           Zn  tau(  15) = (  0.4412676  0.8870542  0.4432753  )
        16           Zn  tau(  16) = (  0.1096824  0.2219523  0.9445610  )
        17           Zn  tau(  17) = (  0.4432439  0.2195462  0.9459742  )
        18           Zn  tau(  18) = (  0.4431055  0.5561279  0.9457216  )
        19           Zn  tau(  19) = (  0.1088771  0.8875573  0.9444789  )
        20           Zn  tau(  20) = (  0.4458551  0.8903219  0.9463873  )
        21           Mg  tau(  21) = (  0.5542972  0.1123686  0.1981380  )
        22           Mg  tau(  22) = (  0.8908547  0.1106854  0.1964285  )
        23           Mg  tau(  23) = (  0.2229293  0.4415661  0.1960806  )
        24           Mg  tau(  24) = (  0.2224796  0.7795493  0.1937006  )
        25           Mg  tau(  25) = (  0.5563004  0.7781823  0.1964965  )
        26           Mg  tau(  26) = (  0.8900735  0.7798128  0.1969102  )
        27           Mg  tau(  27) = (  0.5558460  0.4446213  0.6968112  )
        28           Mg  tau(  28) = (  0.2242865  0.7788393  0.6956375  )
        29           Mg  tau(  29) = (  0.1135315  0.2228823  0.4481954  )
        30           Mg  tau(  30) = (  0.1113040  0.5563347  0.4444677  )
        31           Mg  tau(  31) = (  0.1137840  0.8902721  0.4468352  )
        32           Mg  tau(  32) = (  0.7754592  0.8878555  0.4462580  )
        33           Mg  tau(  33) = (  0.7779428  0.2219879  0.9461597  )
        34           Mg  tau(  34) = (  0.1118125  0.5540564  0.9440693  )
        35           Mg  tau(  35) = (  0.7803089  0.5566179  0.9474046  )
        36           Mg  tau(  36) = (  0.7796075  0.8895549  0.9425411  )
        37           O   tau(  37) = (  0.2204529  0.1100325  0.0022793  )
        38           O   tau(  38) = (  0.5563810  0.1117590  0.0053159  )
        39           O   tau(  39) = (  0.8875947  0.1098915  0.0033077  )
        40           O   tau(  40) = (  0.2214286  0.4434674  0.0036864  )
        41           O   tau(  41) = (  0.5556634  0.4442324 -0.0006941  )
        42           O   tau(  42) = (  0.8901994  0.4442563  0.0001307  )
        43           O   tau(  43) = (  0.2213793  0.7765442  0.0004662  )
        44           O   tau(  44) = (  0.5575905  0.7788351  0.0032297  )
        45           O   tau(  45) = (  0.8876917  0.7778776  0.0041973  )
        46           O   tau(  46) = (  0.2223036  0.1109100  0.5034941  )
        47           O   tau(  47) = (  0.5553492  0.1110449  0.4994555  )
        48           O   tau(  48) = (  0.8892248  0.1109984  0.4989811  )
        49           O   tau(  49) = (  0.2215889  0.4449570  0.4998473  )
        50           O   tau(  50) = (  0.5560613  0.4451851  0.5044288  )
        51           O   tau(  51) = (  0.8888637  0.4448029  0.5011531  )
        52           O   tau(  52) = (  0.2206763  0.7766749  0.5032080  )
        53           O   tau(  53) = (  0.5535347  0.7770758  0.5005413  )
        54           O   tau(  54) = (  0.8890594  0.7778109  0.4980648  )
        55           O   tau(  55) = (  0.1108046  0.2220878  0.2557348  )
        56           O   tau(  56) = (  0.4429087  0.2228566  0.2524958  )
        57           O   tau(  57) = (  0.7781973  0.2217268  0.2491871  )
        58           O   tau(  58) = (  0.1145233  0.5570508  0.2512299  )
        59           O   tau(  59) = (  0.4449741  0.5560608  0.2511469  )
        60           O   tau(  60) = (  0.7781652  0.5552487  0.2485943  )
        61           O   tau(  61) = (  0.1113625  0.8881390  0.2543900  )
        62           O   tau(  62) = (  0.4442127  0.8891085  0.2500173  )
        63           O   tau(  63) = (  0.7777772  0.8891275  0.2532060  )
        64           O   tau(  64) = (  0.1105619  0.2228268  0.7501682  )
        65           O   tau(  65) = (  0.4453403  0.2221573  0.7522855  )
        66           O   tau(  66) = (  0.7777890  0.2226120  0.7532304  )
        67           O   tau(  67) = (  0.1116171  0.5567150  0.7513753  )
        68           O   tau(  68) = (  0.4443792  0.5558167  0.7519201  )
        69           O   tau(  69) = (  0.7774142  0.5555187  0.7544447  )
        70           O   tau(  70) = (  0.1102461  0.8876917  0.7502233  )
        71           O   tau(  71) = (  0.4456467  0.8902149  0.7525557  )
        72           O   tau(  72) = (  0.7780281  0.8887308  0.7494106  )

     number of k points=    36  Marzari-Vanderbilt smearing, width (Ry)=  0.0010
                       cart. coord. in units 2pi/alat
        k(    1) = (   0.0000000   0.0000000   0.0000000), wk =   0.0312500
        k(    2) = (  -0.0001559  -0.0000188   0.2384171), wk =   0.0625000
        k(    3) = (   0.0003117   0.0000376  -0.4768342), wk =   0.0312500
        k(    4) = (   0.0001928   0.2884536  -0.0000228), wk =   0.0625000
        k(    5) = (   0.0000369   0.2884348   0.2383943), wk =   0.0625000
        k(    6) = (   0.0005045   0.2884913  -0.4768570), wk =   0.0625000
        k(    7) = (   0.0003486   0.2884725  -0.2384399), wk =   0.0625000
        k(    8) = (  -0.0003856  -0.5769073   0.0000457), wk =   0.0312500
        k(    9) = (  -0.0005414  -0.5769261   0.2384628), wk =   0.0625000
        k(   10) = (  -0.0000739  -0.5768697  -0.4767885), wk =   0.0312500
        k(   11) = (   0.2500967   0.1443934  -0.0001776), wk =   0.0625000
        k(   12) = (   0.2499409   0.1443745   0.2382395), wk =   0.0625000
        k(   13) = (   0.2504084   0.1444310  -0.4770118), wk =   0.0625000
        k(   14) = (   0.2502526   0.1444122  -0.2385947), wk =   0.0625000
        k(   15) = (   0.2502895   0.4328470  -0.0002004), wk =   0.0625000
        k(   16) = (   0.2501337   0.4328282   0.2382166), wk =   0.0625000
        k(   17) = (   0.2506012   0.4328846  -0.4770346), wk =   0.0625000
        k(   18) = (   0.2504454   0.4328658  -0.2386175), wk =   0.0625000
        k(   19) = (   0.2497111  -0.4325139  -0.0001319), wk =   0.0625000
        k(   20) = (   0.2495553  -0.4325328   0.2382851), wk =   0.0625000
        k(   21) = (   0.2500229  -0.4324763  -0.4769661), wk =   0.0625000
        k(   22) = (   0.2498670  -0.4324951  -0.2385490), wk =   0.0625000
        k(   23) = (   0.2499039  -0.1440603  -0.0001548), wk =   0.0625000
        k(   24) = (   0.2497481  -0.1440791   0.2382623), wk =   0.0625000
        k(   25) = (   0.2502156  -0.1440227  -0.4769890), wk =   0.0625000
        k(   26) = (   0.2500598  -0.1440415  -0.2385719), wk =   0.0625000
        k(   27) = (  -0.5001934  -0.2887867   0.0003552), wk =   0.0312500
        k(   28) = (  -0.5003493  -0.2888055   0.2387723), wk =   0.0625000
        k(   29) = (  -0.4998817  -0.2887491  -0.4764790), wk =   0.0312500
        k(   30) = (  -0.5000007  -0.0003331   0.0003324), wk =   0.0625000
        k(   31) = (  -0.5001565  -0.0003519   0.2387495), wk =   0.0625000
        k(   32) = (  -0.4996889  -0.0002954  -0.4765018), wk =   0.0625000
        k(   33) = (  -0.4998448  -0.0003142  -0.2380847), wk =   0.0625000
        k(   34) = (  -0.5005790  -0.8656940   0.0004009), wk =   0.0312500
        k(   35) = (  -0.5007349  -0.8657128   0.2388180), wk =   0.0625000
        k(   36) = (  -0.5002673  -0.8656564  -0.4764333), wk =   0.0312500

                       cryst. coord.
        k(    1) = (   0.0000000   0.0000000   0.0000000), wk =   0.0312500
        k(    2) = (  -0.0000000   0.0000000   0.2500000), wk =   0.0625000
        k(    3) = (   0.0000000  -0.0000000  -0.5000000), wk =   0.0312500
        k(    4) = (   0.0000000   0.2500000  -0.0000000), wk =   0.0625000
        k(    5) = (   0.0000000   0.2500000   0.2500000), wk =   0.0625000
        k(    6) = (   0.0000000   0.2500000  -0.5000000), wk =   0.0625000
        k(    7) = (   0.0000000   0.2500000  -0.2500000), wk =   0.0625000
        k(    8) = (  -0.0000000  -0.5000000   0.0000000), wk =   0.0312500
        k(    9) = (  -0.0000000  -0.5000000   0.2500000), wk =   0.0625000
        k(   10) = (  -0.0000000  -0.5000000  -0.5000000), wk =   0.0312500
        k(   11) = (   0.2500000  -0.0000000  -0.0000000), wk =   0.0625000
        k(   12) = (   0.2500000  -0.0000000   0.2500000), wk =   0.0625000
        k(   13) = (   0.2500000  -0.0000000  -0.5000000), wk =   0.0625000
        k(   14) = (   0.2500000  -0.0000000  -0.2500000), wk =   0.0625000
        k(   15) = (   0.2500000   0.2500000  -0.0000000), wk =   0.0625000
        k(   16) = (   0.2500000   0.2500000   0.2500000), wk =   0.0625000
        k(   17) = (   0.2500000   0.2500000  -0.5000000), wk =   0.0625000
        k(   18) = (   0.2500000   0.2500000  -0.2500000), wk =   0.0625000
        k(   19) = (   0.2500000  -0.5000000  -0.0000000), wk =   0.0625000
        k(   20) = (   0.2500000  -0.5000000   0.2500000), wk =   0.0625000
        k(   21) = (   0.2500000  -0.5000000  -0.5000000), wk =   0.0625000
        k(   22) = (   0.2500000  -0.5000000  -0.2500000), wk =   0.0625000
        k(   23) = (   0.2500000  -0.2500000   0.0000000), wk =   0.0625000
        k(   24) = (   0.2500000  -0.2500000   0.2500000), wk =   0.0625000
        k(   25) = (   0.2500000  -0.2500000  -0.5000000), wk =   0.0625000
        k(   26) = (   0.2500000  -0.2500000  -0.2500000), wk =   0.0625000
        k(   27) = (  -0.5000000   0.0000000   0.0000000), wk =   0.0312500
        k(   28) = (  -0.5000000   0.0000000   0.2500000), wk =   0.0625000
        k(   29) = (  -0.5000000   0.0000000  -0.5000000), wk =   0.0312500
        k(   30) = (  -0.5000000   0.2500000   0.0000000), wk =   0.0625000
        k(   31) = (  -0.5000000   0.2500000   0.2500000), wk =   0.0625000
        k(   32) = (  -0.5000000   0.2500000  -0.5000000), wk =   0.0625000
        k(   33) = (  -0.5000000   0.2500000  -0.2500000), wk =   0.0625000
        k(   34) = (  -0.5000000  -0.5000000   0.0000000), wk =   0.0312500
        k(   35) = (  -0.5000000  -0.5000000   0.2500000), wk =   0.0625000
        k(   36) = (  -0.5000000  -0.5000000  -0.5000000), wk =   0.0312500

     Dense  grid:  1076691 G-vectors     FFT dimensions: ( 135, 135, 144)

     Smooth grid:   358069 G-vectors     FFT dimensions: (  96,  96,  96)

     Dynamical RAM for                 wfc:      19.89 MB

     Dynamical RAM for     wfc (w. buffer):     119.33 MB

     Dynamical RAM for           str. fact:       3.08 MB

     Dynamical RAM for           local pot:       0.00 MB

     Dynamical RAM for          nlocal pot:      48.31 MB

     Dynamical RAM for                qrad:      21.05 MB

     Dynamical RAM for          rho,v,vnew:       6.83 MB

     Dynamical RAM for               rhoin:       2.28 MB

     Dynamical RAM for            rho*nmix:      16.43 MB

     Dynamical RAM for           G-vectors:       4.02 MB

     Dynamical RAM for          h,s,v(r/c):      39.76 MB

     Dynamical RAM for          <psi|beta>:       8.05 MB

     Dynamical RAM for                 psi:      79.55 MB

     Dynamical RAM for                hpsi:      79.55 MB

     Dynamical RAM for                spsi:      79.55 MB

     Dynamical RAM for      wfcinit/wfcrot:      46.68 MB

     Dynamical RAM for           addusdens:      31.83 MB

     Estimated static dynamical RAM per process >     231.70 MB

     Estimated max dynamical RAM per process >     518.17 MB

     Estimated total dynamical RAM >      64.77 GB

     Check: negative core charge=   -0.000002

     Initial potential from superposition of free atoms

     starting charge  771.19370, renormalised to  776.00000
     Starting wfcs are  484 randomized atomic wfcs

     total cpu time spent up to now is       14.3 secs

     Self-consistent Calculation

     iteration #  1     ecut=    60.00 Ry     beta= 0.50
     Davidson diagonalization with overlap
     ethr =  1.00E-02,  avg # of iterations =  4.8

     total cpu time spent up to now is       72.5 secs

     total energy              =  -12379.61580999 Ry
     Harris-Foulkes estimate   =  -12398.53355026 Ry
     estimated scf accuracy    <      27.59023488 Ry

     iteration #  2     ecut=    60.00 Ry     beta= 0.50
     Davidson diagonalization with overlap
     ethr =  3.56E-03,  avg # of iterations =  3.1

     total cpu time spent up to now is      134.4 secs

     total energy              =  -12386.71684684 Ry
     Harris-Foulkes estimate   =  -12398.01152089 Ry
     estimated scf accuracy    <      27.77695600 Ry

     iteration #  3     ecut=    60.00 Ry     beta= 0.50
     Davidson diagonalization with overlap
     ethr =  3.56E-03,  avg # of iterations =  3.2

     total cpu time spent up to now is      191.5 secs

     total energy              =  -12392.02479188 Ry
     Harris-Foulkes estimate   =  -12392.67028519 Ry
     estimated scf accuracy    <       1.85875088 Ry

     iteration #  4     ecut=    60.00 Ry     beta= 0.50
     Davidson diagonalization with overlap
     ethr =  2.40E-04,  avg # of iterations =  4.4

     total cpu time spent up to now is      248.8 secs

     total energy              =  -12392.20347213 Ry
     Harris-Foulkes estimate   =  -12392.26465068 Ry
     estimated scf accuracy    <       0.17697406 Ry

     iteration #  5     ecut=    60.00 Ry     beta= 0.50
     Davidson diagonalization with overlap
     ethr =  2.28E-05,  avg # of iterations =  5.2

     total cpu time spent up to now is      328.9 secs

     total energy              =  -12392.21762884 Ry
     Harris-Foulkes estimate   =  -12392.23838773 Ry
     estimated scf accuracy    <       0.04898213 Ry

     iteration #  6     ecut=    60.00 Ry     beta= 0.50
     Davidson diagonalization with overlap
     ethr =  6.31E-06,  avg # of iterations =  3.9

     total cpu time spent up to now is      395.2 secs

     total energy              =  -12392.22695259 Ry
     Harris-Foulkes estimate   =  -12392.22948769 Ry
     estimated scf accuracy    <       0.00930609 Ry

     iteration #  7     ecut=    60.00 Ry     beta= 0.50
     Davidson diagonalization with overlap
     ethr =  1.20E-06,  avg # of iterations =  2.7

     total cpu time spent up to now is      442.2 secs

     total energy              =  -12392.22830920 Ry
     Harris-Foulkes estimate   =  -12392.22854526 Ry
     estimated scf accuracy    <       0.00086206 Ry

     iteration #  8     ecut=    60.00 Ry     beta= 0.50
     Davidson diagonalization with overlap
     ethr =  1.11E-07,  avg # of iterations =  2.0

     total cpu time spent up to now is      486.2 secs

     total energy              =  -12392.22845706 Ry
     Harris-Foulkes estimate   =  -12392.22848424 Ry
     estimated scf accuracy    <       0.00009015 Ry

     iteration #  9     ecut=    60.00 Ry     beta= 0.50
     Davidson diagonalization with overlap
     ethr =  1.16E-08,  avg # of iterations =  2.0

     total cpu time spent up to now is      530.6 secs

     total energy              =  -12392.22847906 Ry
     Harris-Foulkes estimate   =  -12392.22848074 Ry
     estimated scf accuracy    <       0.00002059 Ry

     iteration # 10     ecut=    60.00 Ry     beta= 0.50
     Davidson diagonalization with overlap
     ethr =  2.65E-09,  avg # of iterations =  2.0

     total cpu time spent up to now is      570.2 secs

     total energy              =  -12392.22848260 Ry
     Harris-Foulkes estimate   =  -12392.22848257 Ry
     estimated scf accuracy    <       0.00000236 Ry

     iteration # 11     ecut=    60.00 Ry     beta= 0.50
     Davidson diagonalization with overlap
     ethr =  3.04E-10,  avg # of iterations =  2.0

     total cpu time spent up to now is      614.8 secs

     total energy              =  -12392.22848306 Ry
     Harris-Foulkes estimate   =  -12392.22848306 Ry
     estimated scf accuracy    <       0.00000027 Ry

     iteration # 12     ecut=    60.00 Ry     beta= 0.50
     Davidson diagonalization with overlap
     ethr =  3.44E-11,  avg # of iterations =  2.0

     total cpu time spent up to now is      657.3 secs

     total energy              =  -12392.22848312 Ry
     Harris-Foulkes estimate   =  -12392.22848312 Ry
     estimated scf accuracy    <       0.00000005 Ry

     iteration # 13     ecut=    60.00 Ry     beta= 0.50
     Davidson diagonalization with overlap
     ethr =  6.77E-12,  avg # of iterations =  2.0

     total cpu time spent up to now is      701.7 secs

     End of self-consistent calculation

          k = 0.0000 0.0000 0.0000 ( 44677 PWs)   bands (ev):

  -115.6185-115.6138-115.6077-115.6069-115.6066-115.6035-115.6022-115.6019
  -115.5967-115.5964-115.5952-115.5944-115.5927-115.5911-115.5885-115.5870
  -115.5797-115.5793-115.5776-115.5601 -69.9813 -69.9767 -69.9760 -69.9712
   -69.9698 -69.9694 -69.9682 -69.9676 -69.9659 -69.9656 -69.9650 -69.9643
   -69.9639 -69.9635 -69.9618 -69.9611 -69.9602 -69.9593 -69.9587 -69.9586
   -69.9585 -69.9584 -69.9582 -69.9573 -69.9571 -69.9559 -69.9546 -69.9545
   -69.9544 -69.9531 -69.9530 -69.9528 -69.9523 -69.9516 -69.9509 -69.9502
   -69.9490 -69.9476 -69.9474 -69.9455 -69.9452 -69.9444 -69.9440 -69.9432
   -69.9432 -69.9427 -69.9426 -69.9419 -69.9403 -69.9395 -69.9370 -69.9355
   -69.9347 -69.9345 -69.9323 -69.9297 -69.9250 -69.9248 -69.9162 -69.9098
   -65.0459 -65.0397 -65.0220 -65.0212 -65.0069 -64.9977 -64.9933 -64.9867
   -64.9828 -64.9798 -64.9758 -64.9735 -64.9688 -64.9682 -64.9527 -64.9447
   -32.0401 -32.0356 -32.0306 -32.0301 -32.0277 -32.0245 -32.0154 -32.0153
   -32.0096 -32.0094 -32.0065 -32.0050 -32.0030 -31.9959 -31.9954 -31.9922
   -31.9886 -31.9872 -31.9859 -31.9839 -31.9815 -31.9801 -31.9775 -31.9740
   -31.9729 -31.9718 -31.9701 -31.9698 -31.9677 -31.9666 -31.9652 -31.9639
   -31.9635 -31.9634 -31.9606 -31.9589 -31.9577 -31.9562 -31.9542 -31.9530
   -31.9501 -31.9491 -31.9473 -31.9390 -31.9367 -31.9333 -31.9289 -31.9249
   -10.2575  -9.9350  -9.8879  -9.8260  -9.8035  -9.7713  -9.7375  -9.7304
    -9.6765  -9.6362  -9.5942  -9.5690  -9.5533  -9.5332  -9.5198  -9.4782
    -9.4744  -9.4421  -9.4286  -9.4144  -9.4066  -9.3733  -9.3507  -9.3414
    -9.3260  -9.2920  -9.2715  -9.2459  -9.2126  -9.1609  -9.1410  -9.1304
    -9.0970  -9.0638  -9.0526  -8.9089   1.5421   1.5823   1.6054   1.6122
     1.6365   1.6541   1.6799   1.6919   1.7160   1.7398   1.7683   1.7773
     1.8428   1.8584   1.8800   1.8964   1.9006   1.9155   1.9324   1.9452
     1.9616   1.9822   1.9965   2.0272   2.0465   2.0691   2.0728   2.0800
     2.0895   2.1054   2.1077   2.1246   2.1327   2.1635   2.1680   2.1736
     2.1889   2.2024   2.2218   2.2251   2.2313   2.2546   2.2668   2.2767
     2.2842   2.2902   2.3144   2.3381   2.3543   2.3797   2.4046   2.4434
     2.4556   2.4791   2.5006   2.5184   2.5279   2.5400   2.5518   2.5762
     2.5920   2.6150   2.6341   2.6512   2.6627   2.6700   2.6846   2.6984
     2.7130   2.7384   2.7454   2.7624   2.7731   2.7954   2.8076   2.8212
     2.8496   2.8722   2.8904   2.8933   2.9043   2.9254   2.9428   2.9625
     2.9710   2.9853   3.0001   3.0114   3.0264   3.0398   3.0580   3.0789
     3.0852   3.0919   3.1050   3.1185   3.1324   3.1404   3.1600   3.1800
     3.1841   3.2849   3.3688   3.4242   3.4652   3.4814   3.5029   3.5606
     3.5906   3.6004   3.6352   3.6557   3.7089   3.7268   3.7749   3.8054
     3.8418   3.8820   3.9073   3.9545   3.9850   4.0279   4.1197   4.1518
     4.1716   4.1810   4.2148   4.2636   4.2753   4.3300   4.3494   4.3970
     4.4237   4.4475   4.4803   4.5561   4.5987   4.6066   4.6313   4.7283
     4.8014   4.8523   4.9221   4.9484   4.9907   5.1123   5.1649   5.2726
     5.3036   5.3272   5.3358   5.3662   5.3953   5.4019   5.4329   5.4890
     5.5053   5.5197   5.5471   5.5956   5.6129   5.6932   5.7353   5.7491
     5.7757   5.8198   5.8318   5.8480   5.8555   5.8691   5.9028   5.9301
     5.9664   5.9835   5.9930   6.0162   6.0371   6.0915   6.1015   6.1039
     6.1230   6.1844   6.2009   6.2464   6.2782   6.2960   6.3188   6.3388
     6.3521   6.3935   6.4263   6.4563   6.4693   6.4893   6.5270   6.5397
     6.5508   6.5617   6.5756   6.6342   6.6863   6.7738   6.7890   6.8092
     6.8630   7.0957   7.1048   7.1246   8.9083  11.3756  11.4146  11.9924
    12.0434  12.1136  12.1925  12.2938  12.4501  12.8825  12.9412  12.9715
    12.9992  13.0479  13.0733  13.1265  13.1447  13.2119  13.2909  13.3820
    13.4267  13.7386  14.8627  14.8696  14.9774  15.0619  15.0962  15.1219
    15.1253  15.1554  15.1881  15.2263  15.2399  15.2831  15.3040  15.3184
    15.3444  15.3905  15.4237  15.4399  15.4843  15.5429  15.6288  15.7228
    15.7856  15.8668  15.8922  15.9414  15.9763  16.0377  16.1201  16.1947
    16.2120  16.2552  16.3062  16.3433  16.3495  16.4968  16.5563  16.7903
    16.8279  17.0516  17.2578  17.2936  17.3534  17.5103  17.5549  17.6003
    17.6361  17.6613  17.8903  17.9262  18.0576  18.3233  18.3471  18.3925
    18.4296  18.5892

     occupation numbers 
     1.0000   1.0000   1.0000   1.0000   1.0000   1.0000   1.0000   1.0000
     1.0000   1.0000   1.0000   1.0000   1.0000   1.0000   1.0000   1.0000
     1.0000   1.0000   1.0000   1.0000   1.0000   1.0000   1.0000   1.0000
     1.0000   1.0000   1.0000   1.0000   1.0000   1.0000   1.0000   1.0000
     1.0000   1.0000   1.0000   1.0000   1.0000   1.0000   1.0000   1.0000
     1.0000   1.0000   1.0000   1.0000   1.0000   1.0000   1.0000   1.0000
     1.0000   1.0000   1.0000   1.0000   1.0000   1.0000   1.0000   1.0000
     1.0000   1.0000   1.0000   1.0000   1.0000   1.0000   1.0000   1.0000
     1.0000   1.0000   1.0000   1.0000   1.0000   1.0000   1.0000   1.0000
     1.0000   1.0000   1.0000   1.0000   1.0000   1.0000   1.0000   1.0000
     1.0000   1.0000   1.0000   1.0000   1.0000   1.0000   1.0000   1.0000
     1.0000   1.0000   1.0000   1.0000   1.0000   1.0000   1.0000   1.0000
     1.0000   1.0000   1.0000   1.0000   1.0000   1.0000   1.0000   1.0000
     1.0000   1.0000   1.0000   1.0000   1.0000   1.0000   1.0000   1.0000
     1.0000   1.0000   1.0000   1.0000   1.0000   1.0000   1.0000   1.0000
     1.0000   1.0000   1.0000   1.0000   1.0000   1.0000   1.0000   1.0000
     1.0000   1.0000   1.0000   1.0000   1.0000   1.0000   1.0000   1.0000
     1.0000   1.0000   1.0000   1.0000   1.0000   1.0000   1.0000   1.0000
     1.0000   1.0000   1.0000   1.0000   1.0000   1.0000   1.0000   1.0000
     1.0000   1.0000   1.0000   1.0000   1.0000   1.0000   1.0000   1.0000
     1.0000   1.0000   1.0000   1.0000   1.0000   1.0000   1.0000   1.0000
     1.0000   1.0000   1.0000   1.0000   1.0000   1.0000   1.0000   1.0000
     1.0000   1.0000   1.0000   1.0000   1.0000   1.0000   1.0000   1.0000
     1.0000   1.0000   1.0000   1.0000   1.0000   1.0000   1.0000   1.0000
     1.0000   1.0000   1.0000   1.0000   1.0000   1.0000   1.0000   1.0000
     1.0000   1.0000   1.0000   1.0000   1.0000   1.0000   1.0000   1.0000
     1.0000   1.0000   1.0000   1.0000   1.0000   1.0000   1.0000   1.0000
     1.0000   1.0000   1.0000   1.0000   1.0000   1.0000   1.0000   1.0000
     1.0000   1.0000   1.0000   1.0000   1.0000   1.0000   1.0000   1.0000
     1.0000   1.0000   1.0000   1.0000   1.0000   1.0000   1.0000   1.0000
     1.0000   1.0000   1.0000   1.0000   1.0000   1.0000   1.0000   1.0000
     1.0000   1.0000   1.0000   1.0000   1.0000   1.0000   1.0000   1.0000
     1.0000   1.0000   1.0000   1.0000   1.0000   1.0000   1.0000   1.0000
     1.0000   1.0000   1.0000   1.0000   1.0000   1.0000   1.0000   1.0000
     1.0000   1.0000   1.0000   1.0000   1.0000   1.0000   1.0000   1.0000
     1.0000   1.0000   1.0000   1.0000   1.0000   1.0000   1.0000   1.0000
     1.0000   1.0000   1.0000   1.0000   1.0000   1.0000   1.0000   1.0000
     1.0000   1.0000   1.0000   1.0000   1.0000   1.0000   1.0000   1.0000
     1.0000   1.0000   1.0000   1.0000   1.0000   1.0000   1.0000   1.0000
     1.0000   1.0000   1.0000   1.0000   1.0000   1.0000   1.0000   1.0000
     1.0000   1.0000   1.0000   1.0000   1.0000   1.0000   1.0000   1.0000
     1.0000   1.0000   1.0000   1.0000   1.0000   1.0000   1.0000   1.0000
     1.0000   1.0000   1.0000   1.0000   1.0000   1.0000   1.0000   1.0000
     1.0000   1.0000   1.0000   1.0000   1.0000   1.0000   1.0000   1.0000
     1.0000   1.0000   1.0000   1.0000   1.0000   1.0000   1.0000   1.0000
     1.0000   1.0000   1.0000   1.0000   1.0000   1.0000   1.0000   1.0000
     1.0000   1.0000   1.0000   1.0000   1.0000   1.0000   1.0000   1.0000
     1.0000   1.0000   1.0000   1.0000   1.0000   1.0000   1.0000   1.0000
     1.0000   1.0000   1.0000   1.0000   0.0000   0.0000   0.0000   0.0000
     0.0000   0.0000   0.0000   0.0000   0.0000   0.0000   0.0000   0.0000
     0.0000   0.0000   0.0000   0.0000   0.0000   0.0000   0.0000   0.0000
     0.0000   0.0000   0.0000   0.0000   0.0000   0.0000   0.0000   0.0000
     0.0000   0.0000   0.0000   0.0000   0.0000   0.0000   0.0000   0.0000
     0.0000   0.0000   0.0000   0.0000   0.0000   0.0000   0.0000   0.0000
     0.0000   0.0000   0.0000   0.0000   0.0000   0.0000   0.0000   0.0000
     0.0000   0.0000   0.0000   0.0000   0.0000   0.0000   0.0000   0.0000
     0.0000   0.0000   0.0000   0.0000   0.0000   0.0000   0.0000   0.0000
     0.0000   0.0000   0.0000   0.0000   0.0000   0.0000   0.0000   0.0000
     0.0000   0.0000

          k =-0.0002-0.0000 0.2384 ( 44826 PWs)   bands (ev):

  -115.6185-115.6138-115.6077-115.6069-115.6066-115.6035-115.6022-115.6019
  -115.5967-115.5964-115.5952-115.5944-115.5927-115.5911-115.5885-115.5870
  -115.5797-115.5793-115.5776-115.5601 -69.9813 -69.9767 -69.9760 -69.9712
   -69.9698 -69.9694 -69.9682 -69.9676 -69.9659 -69.9656 -69.9650 -69.9643
   -69.9639 -69.9635 -69.9618 -69.9611 -69.9602 -69.9593 -69.9587 -69.9586
   -69.9585 -69.9584 -69.9582 -69.9573 -69.9571 -69.9559 -69.9546 -69.9545
   -69.9544 -69.9531 -69.9529 -69.9528 -69.9523 -69.9516 -69.9509 -69.9502
   -69.9490 -69.9476 -69.9474 -69.9455 -69.9452 -69.9444 -69.9440 -69.9432
   -69.9432 -69.9427 -69.9426 -69.9419 -69.9403 -69.9395 -69.9370 -69.9355
   -69.9347 -69.9345 -69.9323 -69.9297 -69.9250 -69.9248 -69.9162 -69.9098
   -65.0459 -65.0397 -65.0220 -65.0212 -65.0069 -64.9977 -64.9933 -64.9867
   -64.9828 -64.9798 -64.9758 -64.9735 -64.9688 -64.9682 -64.9527 -64.9447
   -32.0401 -32.0356 -32.0306 -32.0301 -32.0277 -32.0245 -32.0154 -32.0153
   -32.0096 -32.0094 -32.0065 -32.0050 -32.0030 -31.9959 -31.9955 -31.9922
   -31.9885 -31.9872 -31.9859 -31.9840 -31.9815 -31.9801 -31.9775 -31.9740
   -31.9729 -31.9718 -31.9701 -31.9698 -31.9678 -31.9666 -31.9652 -31.9639
   -31.9635 -31.9634 -31.9606 -31.9589 -31.9577 -31.9562 -31.9542 -31.9530
   -31.9501 -31.9491 -31.9473 -31.9390 -31.9367 -31.9333 -31.9289 -31.9249
   -10.2353 -10.0173  -9.8502  -9.8190  -9.7908  -9.7614  -9.7397  -9.6970
    -9.6735  -9.6494  -9.6175  -9.6009  -9.5743  -9.5289  -9.5066  -9.4756
    -9.4665  -9.4492  -9.4367  -9.4109  -9.4014  -9.3542  -9.3459  -9.3295
    -9.3129  -9.2932  -9.2727  -9.2455  -9.2134  -9.1654  -9.1418  -9.1321
    -9.1007  -9.0673  -9.0563  -8.9103   1.5492   1.6011   1.6128   1.6227
     1.6451   1.6685   1.6933   1.7072   1.7292   1.7524   1.7734   1.7945
     1.8492   1.8609   1.8808   1.9016   1.9113   1.9184   1.9325   1.9539
     1.9662   1.9928   1.9971   2.0266   2.0420   2.0521   2.0624   2.0735
     2.0956   2.1048   2.1148   2.1213   2.1313   2.1533   2.1639   2.1714
     2.1929   2.2048   2.2102   2.2283   2.2367   2.2555   2.2614   2.2687
     2.2832   2.2926   2.3060   2.3286   2.3474   2.3827   2.3955   2.4274
     2.4484   2.4561   2.4870   2.4955   2.5089   2.5206   2.5342   2.5563
     2.5755   2.5867   2.6024   2.6307   2.6399   2.6494   2.6744   2.6799
     2.6999   2.7086   2.7276   2.7442   2.7663   2.7763   2.7955   2.8207
     2.8367   2.8547   2.8759   2.8894   2.9116   2.9286   2.9365   2.9572
     2.9773   2.9845   3.0032   3.0096   3.0316   3.0410   3.0614   3.0777
     3.0903   3.0947   3.1072   3.1193   3.1282   3.1465   3.1669   3.1827
     3.2296   3.2963   3.3784   3.4659   3.4826   3.5118   3.5344   3.5611
     3.5934   3.6224   3.6481   3.6880   3.7154   3.7524   3.7890   3.8259
     3.8542   3.8751   3.9260   3.9657   4.0268   4.0513   4.1124   4.1387
     4.1835   4.2223   4.2414   4.2713   4.3010   4.3290   4.3416   4.3959
     4.4112   4.4481   4.4781   4.5128   4.5468   4.5876   4.7439   4.8044
     4.8781   4.9161   4.9351   4.9787   5.0629   5.1052   5.2104   5.2635
     5.2928   5.3352   5.3496   5.3779   5.3954   5.4184   5.4285   5.4423
     5.4618   5.4818   5.5108   5.5280   5.5592   5.5844   5.6158   5.6572
     5.6829   5.7045   5.7515   5.7751   5.8074   5.8331   5.8689   5.9019
     5.9640   5.9782   6.0014   6.0332   6.0931   6.1082   6.1400   6.1619
     6.1891   6.2116   6.2330   6.2519   6.2943   6.3237   6.3451   6.3579
     6.3810   6.4253   6.4538   6.4767   6.4919   6.5089   6.5389   6.5626
     6.5828   6.6039   6.6175   6.6484   6.6649   6.7128   6.7622   6.8566
     6.9007   6.9093   7.0950   7.1150   9.2132  10.6595  11.9216  12.0128
    12.0649  12.1470  12.2160  12.3316  12.4559  12.5090  12.6150  12.6630
    12.7546  12.8193  13.0019  13.3368  13.5423  13.6280  13.6647  13.6992
    13.8019  13.8868  14.6477  14.7198  14.7986  14.8101  14.8859  14.9216
    14.9438  14.9658  15.1000  15.1116  15.1756  15.1865  15.2847  15.2926
    15.3339  15.4840  15.5306  15.6146  15.6717  15.7091  15.7279  15.8050
    15.8415  15.8993  15.9157  15.9723  16.0686  16.1179  16.1768  16.1878
    16.2438  16.2796  16.3090  16.4235  16.4395  16.5639  16.6624  16.7103
    16.8850  17.0146  17.1056  17.2052  17.3246  17.4089  17.4505  17.5064
    17.5602  17.6247  17.7039  17.9192  18.0545  18.1082  18.2019  18.3113
    18.4487  18.5216

     occupation numbers 
     1.0000   1.0000   1.0000   1.0000   1.0000   1.0000   1.0000   1.0000
     1.0000   1.0000   1.0000   1.0000   1.0000   1.0000   1.0000   1.0000
     1.0000   1.0000   1.0000   1.0000   1.0000   1.0000   1.0000   1.0000
     1.0000   1.0000   1.0000   1.0000   1.0000   1.0000   1.0000   1.0000
     1.0000   1.0000   1.0000   1.0000   1.0000   1.0000   1.0000   1.0000
     1.0000   1.0000   1.0000   1.0000   1.0000   1.0000   1.0000   1.0000
     1.0000   1.0000   1.0000   1.0000   1.0000   1.0000   1.0000   1.0000
     1.0000   1.0000   1.0000   1.0000   1.0000   1.0000   1.0000   1.0000
     1.0000   1.0000   1.0000   1.0000   1.0000   1.0000   1.0000   1.0000
     1.0000   1.0000   1.0000   1.0000   1.0000   1.0000   1.0000   1.0000
     1.0000   1.0000   1.0000   1.0000   1.0000   1.0000   1.0000   1.0000
     1.0000   1.0000   1.0000   1.0000   1.0000   1.0000   1.0000   1.0000
     1.0000   1.0000   1.0000   1.0000   1.0000   1.0000   1.0000   1.0000
     1.0000   1.0000   1.0000   1.0000   1.0000   1.0000   1.0000   1.0000
     1.0000   1.0000   1.0000   1.0000   1.0000   1.0000   1.0000   1.0000
     1.0000   1.0000   1.0000   1.0000   1.0000   1.0000   1.0000   1.0000
     1.0000   1.0000   1.0000   1.0000   1.0000   1.0000   1.0000   1.0000
     1.0000   1.0000   1.0000   1.0000   1.0000   1.0000   1.0000   1.0000
     1.0000   1.0000   1.0000   1.0000   1.0000   1.0000   1.0000   1.0000
     1.0000   1.0000   1.0000   1.0000   1.0000   1.0000   1.0000   1.0000
     1.0000   1.0000   1.0000   1.0000   1.0000   1.0000   1.0000   1.0000
     1.0000   1.0000   1.0000   1.0000   1.0000   1.0000   1.0000   1.0000
     1.0000   1.0000   1.0000   1.0000   1.0000   1.0000   1.0000   1.0000
     1.0000   1.0000   1.0000   1.0000   1.0000   1.0000   1.0000   1.0000
     1.0000   1.0000   1.0000   1.0000   1.0000   1.0000   1.0000   1.0000
     1.0000   1.0000   1.0000   1.0000   1.0000   1.0000   1.0000   1.0000
     1.0000   1.0000   1.0000   1.0000   1.0000   1.0000   1.0000   1.0000
     1.0000   1.0000   1.0000   1.0000   1.0000   1.0000   1.0000   1.0000
     1.0000   1.0000   1.0000   1.0000   1.0000   1.0000   1.0000   1.0000
     1.0000   1.0000   1.0000   1.0000   1.0000   1.0000   1.0000   1.0000
     1.0000   1.0000   1.0000   1.0000   1.0000   1.0000   1.0000   1.0000
     1.0000   1.0000   1.0000   1.0000   1.0000   1.0000   1.0000   1.0000
     1.0000   1.0000   1.0000   1.0000   1.0000   1.0000   1.0000   1.0000
     1.0000   1.0000   1.0000   1.0000   1.0000   1.0000   1.0000   1.0000
     1.0000   1.0000   1.0000   1.0000   1.0000   1.0000   1.0000   1.0000
     1.0000   1.0000   1.0000   1.0000   1.0000   1.0000   1.0000   1.0000
     1.0000   1.0000   1.0000   1.0000   1.0000   1.0000   1.0000   1.0000
     1.0000   1.0000   1.0000   1.0000   1.0000   1.0000   1.0000   1.0000
     1.0000   1.0000   1.0000   1.0000   1.0000   1.0000   1.0000   1.0000
     1.0000   1.0000   1.0000   1.0000   1.0000   1.0000   1.0000   1.0000
     1.0000   1.0000   1.0000   1.0000   1.0000   1.0000   1.0000   1.0000
     1.0000   1.0000   1.0000   1.0000   1.0000   1.0000   1.0000   1.0000
     1.0000   1.0000   1.0000   1.0000   1.0000   1.0000   1.0000   1.0000
     1.0000   1.0000   1.0000   1.0000   1.0000   1.0000   1.0000   1.0000
     1.0000   1.0000   1.0000   1.0000   1.0000   1.0000   1.0000   1.0000
     1.0000   1.0000   1.0000   1.0000   1.0000   1.0000   1.0000   1.0000
     1.0000   1.0000   1.0000   1.0000   1.0000   1.0000   1.0000   1.0000
     1.0000   1.0000   1.0000   1.0000   1.0000   1.0000   1.0000   1.0000
     1.0000   1.0000   1.0000   1.0000   0.0000   0.0000   0.0000   0.0000
     0.0000   0.0000   0.0000   0.0000   0.0000   0.0000   0.0000   0.0000
     0.0000   0.0000   0.0000   0.0000   0.0000   0.0000   0.0000   0.0000
     0.0000   0.0000   0.0000   0.0000   0.0000   0.0000   0.0000   0.0000
     0.0000   0.0000   0.0000   0.0000   0.0000   0.0000   0.0000   0.0000
     0.0000   0.0000   0.0000   0.0000   0.0000   0.0000   0.0000   0.0000
     0.0000   0.0000   0.0000   0.0000   0.0000   0.0000   0.0000   0.0000
     0.0000   0.0000   0.0000   0.0000   0.0000   0.0000   0.0000   0.0000
     0.0000   0.0000   0.0000   0.0000   0.0000   0.0000   0.0000   0.0000
     0.0000   0.0000   0.0000   0.0000   0.0000   0.0000   0.0000   0.0000
     0.0000   0.0000

          k = 0.0003 0.0000-0.4768 ( 44758 PWs)   bands (ev):

  -115.6185-115.6138-115.6077-115.6069-115.6066-115.6035-115.6022-115.6019
  -115.5967-115.5964-115.5952-115.5944-115.5927-115.5911-115.5885-115.5870
  -115.5797-115.5793-115.5776-115.5601 -69.9813 -69.9767 -69.9760 -69.9712
   -69.9698 -69.9694 -69.9682 -69.9676 -69.9659 -69.9656 -69.9650 -69.9643
   -69.9639 -69.9635 -69.9618 -69.9611 -69.9602 -69.9593 -69.9587 -69.9586
   -69.9585 -69.9584 -69.9582 -69.9573 -69.9571 -69.9559 -69.9546 -69.9545
   -69.9544 -69.9531 -69.9529 -69.9528 -69.9523 -69.9516 -69.9509 -69.9502
   -69.9490 -69.9476 -69.9474 -69.9455 -69.9452 -69.9444 -69.9440 -69.9432
   -69.9432 -69.9427 -69.9426 -69.9419 -69.9403 -69.9395 -69.9370 -69.9355
   -69.9347 -69.9345 -69.9323 -69.9297 -69.9250 -69.9248 -69.9162 -69.9098
   -65.0459 -65.0397 -65.0220 -65.0212 -65.0069 -64.9977 -64.9933 -64.9867
   -64.9828 -64.9798 -64.9758 -64.9735 -64.9688 -64.9682 -64.9527 -64.9447
   -32.0401 -32.0356 -32.0306 -32.0301 -32.0277 -32.0245 -32.0154 -32.0153
   -32.0096 -32.0094 -32.0065 -32.0050 -32.0030 -31.9959 -31.9955 -31.9922
   -31.9884 -31.9872 -31.9859 -31.9840 -31.9814 -31.9801 -31.9775 -31.9741
   -31.9729 -31.9718 -31.9701 -31.9698 -31.9678 -31.9666 -31.9652 -31.9639
   -31.9635 -31.9634 -31.9606 -31.9589 -31.9577 -31.9562 -31.9542 -31.9530
   -31.9501 -31.9491 -31.9473 -31.9390 -31.9367 -31.9333 -31.9289 -31.9249
   -10.1998 -10.0852  -9.8349  -9.8040  -9.7774  -9.7508  -9.7362  -9.7105
    -9.6650  -9.6543  -9.6409  -9.6159  -9.5537  -9.5375  -9.5252  -9.4760
    -9.4690  -9.4454  -9.4406  -9.4100  -9.3922  -9.3435  -9.3221  -9.3161
    -9.3152  -9.2986  -9.2723  -9.2414  -9.2159  -9.1702  -9.1426  -9.1334
    -9.1044  -9.0711  -9.0603  -8.9117   1.5555   1.6141   1.6201   1.6338
     1.6562   1.6933   1.7081   1.7262   1.7334   1.7576   1.7957   1.8161
     1.8525   1.8793   1.8862   1.9044   1.9119   1.9186   1.9394   1.9622
     1.9807   1.9907   1.9989   2.0108   2.0324   2.0450   2.0532   2.0693
     2.0837   2.1001   2.1109   2.1207   2.1254   2.1514   2.1640   2.1673
     2.1983   2.2015   2.2180   2.2315   2.2407   2.2537   2.2588   2.2675
     2.2910   2.3014   2.3121   2.3210   2.3362   2.3596   2.3771   2.3938
     2.4134   2.4446   2.4512   2.4788   2.4879   2.5062   2.5167   2.5267
     2.5470   2.5654   2.5929   2.6123   2.6217   2.6391   2.6485   2.6758
     2.6933   2.6943   2.7076   2.7399   2.7554   2.7639   2.7839   2.8004
     2.8344   2.8528   2.8688   2.8898   2.9078   2.9239   2.9371   2.9610
     2.9793   2.9871   3.0027   3.0093   3.0402   3.0530   3.0660   3.0733
     3.0922   3.0989   3.1101   3.1134   3.1350   3.1518   3.1751   3.1809
     3.2703   3.3229   3.4029   3.4742   3.5033   3.5257   3.5408   3.5763
     3.6211   3.6713   3.6933   3.7192   3.7383   3.7636   3.7901   3.8173
     3.8356   3.8866   3.9089   3.9309   3.9782   4.0246   4.0656   4.1244
     4.1907   4.2238   4.2483   4.2686   4.3081   4.3707   4.4070   4.4394
     4.4485   4.5306   4.5417   4.6025   4.6251   4.6854   4.7692   4.8961
     4.9180   4.9586   4.9963   5.0386   5.0477   5.0896   5.0977   5.1197
     5.1531   5.2149   5.2306   5.2984   5.3144   5.3573   5.3849   5.4370
     5.4690   5.4936   5.5266   5.5501   5.5970   5.6273   5.6425   5.6779
     5.7039   5.7161   5.7322   5.7560   5.7750   5.8002   5.8139   5.8248
     5.8562   5.9044   5.9866   6.0490   6.1094   6.1293   6.1553   6.1763
     6.2124   6.2468   6.2693   6.2873   6.2898   6.3322   6.3473   6.4073
     6.4170   6.4213   6.4628   6.4981   6.5127   6.5380   6.5510   6.5816
     6.5962   6.6229   6.6436   6.6532   6.6732   6.6997   6.7098   6.7455
     6.9090   6.9342   7.0828   7.1032   9.7654  10.0077  12.0047  12.0691
    12.1388  12.1739  12.2430  12.2962  12.3752  12.3994  12.4714  12.5119
    12.6517  12.8372  12.9005  13.1880  14.0863  14.1228  14.1501  14.1628
    14.1891  14.2344  14.2625  14.2921  14.3345  14.3864  14.4356  14.5019
    14.9646  14.9692  15.0709  15.0780  15.1599  15.1674  15.2829  15.2921
    15.3290  15.5298  15.6238  15.6694  15.6859  15.7243  15.8050  15.8682
    15.8934  15.9376  16.0397  16.0984  16.1265  16.1551  16.1823  16.2005
    16.2348  16.3141  16.3948  16.5305  16.5961  16.6338  16.6738  16.7279
    16.8080  16.9121  17.0562  17.0887  17.2124  17.2941  17.3678  17.4421
    17.4490  17.5369  17.6920  17.9072  18.0577  18.1262  18.1545  18.2243
    18.3371  18.4508

     occupation numbers 
     1.0000   1.0000   1.0000   1.0000   1.0000   1.0000   1.0000   1.0000
     1.0000   1.0000   1.0000   1.0000   1.0000   1.0000   1.0000   1.0000
     1.0000   1.0000   1.0000   1.0000   1.0000   1.0000   1.0000   1.0000
     1.0000   1.0000   1.0000   1.0000   1.0000   1.0000   1.0000   1.0000
     1.0000   1.0000   1.0000   1.0000   1.0000   1.0000   1.0000   1.0000
     1.0000   1.0000   1.0000   1.0000   1.0000   1.0000   1.0000   1.0000
     1.0000   1.0000   1.0000   1.0000   1.0000   1.0000   1.0000   1.0000
     1.0000   1.0000   1.0000   1.0000   1.0000   1.0000   1.0000   1.0000
     1.0000   1.0000   1.0000   1.0000   1.0000   1.0000   1.0000   1.0000
     1.0000   1.0000   1.0000   1.0000   1.0000   1.0000   1.0000   1.0000
     1.0000   1.0000   1.0000   1.0000   1.0000   1.0000   1.0000   1.0000
     1.0000   1.0000   1.0000   1.0000   1.0000   1.0000   1.0000   1.0000
     1.0000   1.0000   1.0000   1.0000   1.0000   1.0000   1.0000   1.0000
     1.0000   1.0000   1.0000   1.0000   1.0000   1.0000   1.0000   1.0000
     1.0000   1.0000   1.0000   1.0000   1.0000   1.0000   1.0000   1.0000
     1.0000   1.0000   1.0000   1.0000   1.0000   1.0000   1.0000   1.0000
     1.0000   1.0000   1.0000   1.0000   1.0000   1.0000   1.0000   1.0000
     1.0000   1.0000   1.0000   1.0000   1.0000   1.0000   1.0000   1.0000
     1.0000   1.0000   1.0000   1.0000   1.0000   1.0000   1.0000   1.0000
     1.0000   1.0000   1.0000   1.0000   1.0000   1.0000   1.0000   1.0000
     1.0000   1.0000   1.0000   1.0000   1.0000   1.0000   1.0000   1.0000
     1.0000   1.0000   1.0000   1.0000   1.0000   1.0000   1.0000   1.0000
     1.0000   1.0000   1.0000   1.0000   1.0000   1.0000   1.0000   1.0000
     1.0000   1.0000   1.0000   1.0000   1.0000   1.0000   1.0000   1.0000
     1.0000   1.0000   1.0000   1.0000   1.0000   1.0000   1.0000   1.0000
     1.0000   1.0000   1.0000   1.0000   1.0000   1.0000   1.0000   1.0000
     1.0000   1.0000   1.0000   1.0000   1.0000   1.0000   1.0000   1.0000
     1.0000   1.0000   1.0000   1.0000   1.0000   1.0000   1.0000   1.0000
     1.0000   1.0000   1.0000   1.0000   1.0000   1.0000   1.0000   1.0000
     1.0000   1.0000   1.0000   1.0000   1.0000   1.0000   1.0000   1.0000
     1.0000   1.0000   1.0000   1.0000   1.0000   1.0000   1.0000   1.0000
     1.0000   1.0000   1.0000   1.0000   1.0000   1.0000   1.0000   1.0000
     1.0000   1.0000   1.0000   1.0000   1.0000   1.0000   1.0000   1.0000
     1.0000   1.0000   1.0000   1.0000   1.0000   1.0000   1.0000   1.0000
     1.0000   1.0000   1.0000   1.0000   1.0000   1.0000   1.0000   1.0000
     1.0000   1.0000   1.0000   1.0000   1.0000   1.0000   1.0000   1.0000
     1.0000   1.0000   1.0000   1.0000   1.0000   1.0000   1.0000   1.0000
     1.0000   1.0000   1.0000   1.0000   1.0000   1.0000   1.0000   1.0000
     1.0000   1.0000   1.0000   1.0000   1.0000   1.0000   1.0000   1.0000
     1.0000   1.0000   1.0000   1.0000   1.0000   1.0000   1.0000   1.0000
     1.0000   1.0000   1.0000   1.0000   1.0000   1.0000   1.0000   1.0000
     1.0000   1.0000   1.0000   1.0000   1.0000   1.0000   1.0000   1.0000
     1.0000   1.0000   1.0000   1.0000   1.0000   1.0000   1.0000   1.0000
     1.0000   1.0000   1.0000   1.0000   1.0000   1.0000   1.0000   1.0000
     1.0000   1.0000   1.0000   1.0000   1.0000   1.0000   1.0000   1.0000
     1.0000   1.0000   1.0000   1.0000   1.0000   1.0000   1.0000   1.0000
     1.0000   1.0000   1.0000   1.0000   1.0000   1.0000   1.0000   1.0000
     1.0000   1.0000   1.0000   1.0000   1.0000   1.0000   1.0000   1.0000
     1.0000   1.0000   1.0000   1.0000   0.0000   0.0000   0.0000   0.0000
     0.0000   0.0000   0.0000   0.0000   0.0000   0.0000   0.0000   0.0000
     0.0000   0.0000   0.0000   0.0000   0.0000   0.0000   0.0000   0.0000
     0.0000   0.0000   0.0000   0.0000   0.0000   0.0000   0.0000   0.0000
     0.0000   0.0000   0.0000   0.0000   0.0000   0.0000   0.0000   0.0000
     0.0000   0.0000   0.0000   0.0000   0.0000   0.0000   0.0000   0.0000
     0.0000   0.0000   0.0000   0.0000   0.0000   0.0000   0.0000   0.0000
     0.0000   0.0000   0.0000   0.0000   0.0000   0.0000   0.0000   0.0000
     0.0000   0.0000   0.0000   0.0000   0.0000   0.0000   0.0000   0.0000
     0.0000   0.0000   0.0000   0.0000   0.0000   0.0000   0.0000   0.0000
     0.0000   0.0000

          k = 0.0002 0.2885-0.0000 ( 44730 PWs)   bands (ev):

  -115.6185-115.6138-115.6077-115.6069-115.6066-115.6035-115.6022-115.6019
  -115.5967-115.5964-115.5952-115.5944-115.5927-115.5911-115.5885-115.5870
  -115.5797-115.5793-115.5776-115.5601 -69.9813 -69.9767 -69.9760 -69.9712
   -69.9698 -69.9694 -69.9682 -69.9676 -69.9659 -69.9656 -69.9650 -69.9643
   -69.9639 -69.9635 -69.9618 -69.9611 -69.9602 -69.9593 -69.9587 -69.9586
   -69.9585 -69.9584 -69.9582 -69.9573 -69.9571 -69.9559 -69.9546 -69.9545
   -69.9544 -69.9531 -69.9530 -69.9528 -69.9523 -69.9516 -69.9509 -69.9502
   -69.9490 -69.9476 -69.9474 -69.9455 -69.9452 -69.9444 -69.9440 -69.9432
   -69.9432 -69.9427 -69.9426 -69.9419 -69.9403 -69.9395 -69.9370 -69.9355
   -69.9347 -69.9345 -69.9323 -69.9297 -69.9250 -69.9248 -69.9162 -69.9098
   -65.0459 -65.0397 -65.0220 -65.0212 -65.0069 -64.9977 -64.9933 -64.9867
   -64.9828 -64.9798 -64.9758 -64.9735 -64.9688 -64.9682 -64.9527 -64.9447
   -32.0401 -32.0356 -32.0306 -32.0301 -32.0277 -32.0245 -32.0154 -32.0153
   -32.0097 -32.0096 -32.0065 -32.0050 -32.0030 -31.9958 -31.9954 -31.9922
   -31.9886 -31.9872 -31.9858 -31.9841 -31.9815 -31.9800 -31.9774 -31.9741
   -31.9727 -31.9715 -31.9706 -31.9697 -31.9676 -31.9667 -31.9652 -31.9639
   -31.9634 -31.9629 -31.9606 -31.9589 -31.9577 -31.9564 -31.9543 -31.9529
   -31.9502 -31.9493 -31.9473 -31.9384 -31.9367 -31.9333 -31.9289 -31.9253
   -10.2220  -9.9594  -9.9318  -9.8699  -9.7967  -9.7800  -9.6941  -9.6882
    -9.6616  -9.6345  -9.6162  -9.5855  -9.5515  -9.5403  -9.5147  -9.4905
    -9.4637  -9.4530  -9.4296  -9.4154  -9.3964  -9.3659  -9.3455  -9.3358
    -9.3177  -9.2875  -9.2724  -9.2576  -9.2032  -9.1581  -9.1459  -9.1302
    -9.0988  -9.0854  -9.0337  -8.9092   1.5606   1.5922   1.6228   1.6360
     1.6593   1.6682   1.6874   1.7055   1.7320   1.7569   1.7826   1.8027
     1.8365   1.8556   1.8708   1.8752   1.9081   1.9169   1.9271   1.9519
     1.9582   1.9838   2.0047   2.0117   2.0275   2.0459   2.0605   2.0692
     2.0879   2.0979   2.1091   2.1176   2.1298   2.1558   2.1642   2.1709
     2.1886   2.2002   2.2114   2.2219   2.2382   2.2474   2.2704   2.2765
     2.2914   2.3044   2.3090   2.3263   2.3353   2.3637   2.3761   2.4113
     2.4345   2.4619   2.4751   2.4950   2.5104   2.5137   2.5398   2.5674
     2.5879   2.5988   2.6113   2.6352   2.6466   2.6665   2.6836   2.7067
     2.7135   2.7295   2.7479   2.7654   2.7745   2.7817   2.8045   2.8129
     2.8343   2.8443   2.8671   2.8853   2.9100   2.9215   2.9562   2.9619
     2.9745   2.9945   3.0030   3.0144   3.0225   3.0415   3.0621   3.0683
     3.0865   3.1022   3.1071   3.1183   3.1274   3.1412   3.1621   3.1769
     3.1985   3.2663   3.3204   3.3844   3.4271   3.4642   3.4949   3.5193
     3.5361   3.5874   3.6097   3.6396   3.6678   3.7107   3.7834   3.8012
     3.8536   3.8701   3.9523   3.9921   4.0170   4.0616   4.1263   4.1611
     4.2285   4.2703   4.2974   4.3427   4.3583   4.4383   4.4624   4.5206
     4.5480   4.5834   4.6251   4.6644   4.6916   4.7263   4.7625   4.7819
     4.8056   4.8581   4.9128   4.9229   5.0140   5.0364   5.0880   5.1252
     5.1824   5.2148   5.2723   5.3578   5.4091   5.4600   5.4899   5.5221
     5.5680   5.5923   5.6102   5.6209   5.6531   5.6847   5.7060   5.7228
     5.7540   5.7601   5.8021   5.8112   5.8230   5.8810   5.8916   5.9163
     5.9383   5.9508   5.9906   6.0066   6.0228   6.0728   6.0946   6.1154
     6.1634   6.1747   6.1915   6.2209   6.2436   6.2556   6.2886   6.3157
     6.3300   6.3482   6.3620   6.3846   6.3931   6.4358   6.4474   6.4781
     6.5508   6.5803   6.6372   6.6514   6.6622   6.7166   6.7358   6.7684
     6.8221   6.8460   7.0668   7.0766   9.3345  11.1628  11.5267  11.5948
    11.8415  11.9759  12.5790  12.6224  12.6803  12.8381  12.9543  12.9787
    13.0295  13.1092  13.1931  13.2953  13.3355  13.4013  13.4537  13.5669
    13.5990  13.9327  14.4709  14.5528  14.6095  14.6608  14.6940  14.7509
    14.8514  14.9090  14.9728  15.0218  15.0690  15.1261  15.1816  15.2816
    15.3511  15.3858  15.4417  15.4895  15.5652  15.5959  15.6554  15.7228
    15.8772  15.9224  16.0344  16.0789  16.1466  16.2481  16.3300  16.3653
    16.4415  16.4734  16.5522  16.6011  16.7252  16.7417  16.7744  16.8653
    16.9516  17.1295  17.1911  17.3346  17.5009  17.5263  17.5710  17.6724
    17.7068  17.8183  17.8793  17.9694  18.0677  18.2599  18.2936  18.3434
    18.4164  18.4941

     occupation numbers 
     1.0000   1.0000   1.0000   1.0000   1.0000   1.0000   1.0000   1.0000
     1.0000   1.0000   1.0000   1.0000   1.0000   1.0000   1.0000   1.0000
     1.0000   1.0000   1.0000   1.0000   1.0000   1.0000   1.0000   1.0000
     1.0000   1.0000   1.0000   1.0000   1.0000   1.0000   1.0000   1.0000
     1.0000   1.0000   1.0000   1.0000   1.0000   1.0000   1.0000   1.0000
     1.0000   1.0000   1.0000   1.0000   1.0000   1.0000   1.0000   1.0000
     1.0000   1.0000   1.0000   1.0000   1.0000   1.0000   1.0000   1.0000
     1.0000   1.0000   1.0000   1.0000   1.0000   1.0000   1.0000   1.0000
     1.0000   1.0000   1.0000   1.0000   1.0000   1.0000   1.0000   1.0000
     1.0000   1.0000   1.0000   1.0000   1.0000   1.0000   1.0000   1.0000
     1.0000   1.0000   1.0000   1.0000   1.0000   1.0000   1.0000   1.0000
     1.0000   1.0000   1.0000   1.0000   1.0000   1.0000   1.0000   1.0000
     1.0000   1.0000   1.0000   1.0000   1.0000   1.0000   1.0000   1.0000
     1.0000   1.0000   1.0000   1.0000   1.0000   1.0000   1.0000   1.0000
     1.0000   1.0000   1.0000   1.0000   1.0000   1.0000   1.0000   1.0000
     1.0000   1.0000   1.0000   1.0000   1.0000   1.0000   1.0000   1.0000
     1.0000   1.0000   1.0000   1.0000   1.0000   1.0000   1.0000   1.0000
     1.0000   1.0000   1.0000   1.0000   1.0000   1.0000   1.0000   1.0000
     1.0000   1.0000   1.0000   1.0000   1.0000   1.0000   1.0000   1.0000
     1.0000   1.0000   1.0000   1.0000   1.0000   1.0000   1.0000   1.0000
     1.0000   1.0000   1.0000   1.0000   1.0000   1.0000   1.0000   1.0000
     1.0000   1.0000   1.0000   1.0000   1.0000   1.0000   1.0000   1.0000
     1.0000   1.0000   1.0000   1.0000   1.0000   1.0000   1.0000   1.0000
     1.0000   1.0000   1.0000   1.0000   1.0000   1.0000   1.0000   1.0000
     1.0000   1.0000   1.0000   1.0000   1.0000   1.0000   1.0000   1.0000
     1.0000   1.0000   1.0000   1.0000   1.0000   1.0000   1.0000   1.0000
     1.0000   1.0000   1.0000   1.0000   1.0000   1.0000   1.0000   1.0000
     1.0000   1.0000   1.0000   1.0000   1.0000   1.0000   1.0000   1.0000
     1.0000   1.0000   1.0000   1.0000   1.0000   1.0000   1.0000   1.0000
     1.0000   1.0000   1.0000   1.0000   1.0000   1.0000   1.0000   1.0000
     1.0000   1.0000   1.0000   1.0000   1.0000   1.0000   1.0000   1.0000
     1.0000   1.0000   1.0000   1.0000   1.0000   1.0000   1.0000   1.0000
     1.0000   1.0000   1.0000   1.0000   1.0000   1.0000   1.0000   1.0000
     1.0000   1.0000   1.0000   1.0000   1.0000   1.0000   1.0000   1.0000
     1.0000   1.0000   1.0000   1.0000   1.0000   1.0000   1.0000   1.0000
     1.0000   1.0000   1.0000   1.0000   1.0000   1.0000   1.0000   1.0000
     1.0000   1.0000   1.0000   1.0000   1.0000   1.0000   1.0000   1.0000
     1.0000   1.0000   1.0000   1.0000   1.0000   1.0000   1.0000   1.0000
     1.0000   1.0000   1.0000   1.0000   1.0000   1.0000   1.0000   1.0000
     1.0000   1.0000   1.0000   1.0000   1.0000   1.0000   1.0000   1.0000
     1.0000   1.0000   1.0000   1.0000   1.0000   1.0000   1.0000   1.0000
     1.0000   1.0000   1.0000   1.0000   1.0000   1.0000   1.0000   1.0000
     1.0000   1.0000   1.0000   1.0000   1.0000   1.0000   1.0000   1.0000
     1.0000   1.0000   1.0000   1.0000   1.0000   1.0000   1.0000   1.0000
     1.0000   1.0000   1.0000   1.0000   1.0000   1.0000   1.0000   1.0000
     1.0000   1.0000   1.0000   1.0000   1.0000   1.0000   1.0000   1.0000
     1.0000   1.0000   1.0000   1.0000   1.0000   1.0000   1.0000   1.0000
     1.0000   1.0000   1.0000   1.0000   1.0000   1.0000   1.0000   1.0000
     1.0000   1.0000   1.0000   1.0000   0.0000   0.0000   0.0000   0.0000
     0.0000   0.0000   0.0000   0.0000   0.0000   0.0000   0.0000   0.0000
     0.0000   0.0000   0.0000   0.0000   0.0000   0.0000   0.0000   0.0000
     0.0000   0.0000   0.0000   0.0000   0.0000   0.0000   0.0000   0.0000
     0.0000   0.0000   0.0000   0.0000   0.0000   0.0000   0.0000   0.0000
     0.0000   0.0000   0.0000   0.0000   0.0000   0.0000   0.0000   0.0000
     0.0000   0.0000   0.0000   0.0000   0.0000   0.0000   0.0000   0.0000
     0.0000   0.0000   0.0000   0.0000   0.0000   0.0000   0.0000   0.0000
     0.0000   0.0000   0.0000   0.0000   0.0000   0.0000   0.0000   0.0000
     0.0000   0.0000   0.0000   0.0000   0.0000   0.0000   0.0000   0.0000
     0.0000   0.0000

          k = 0.0000 0.2884 0.2384 ( 44743 PWs)   bands (ev):

  -115.6185-115.6138-115.6077-115.6069-115.6066-115.6035-115.6022-115.6019
  -115.5967-115.5964-115.5952-115.5944-115.5927-115.5911-115.5885-115.5870
  -115.5797-115.5793-115.5776-115.5601 -69.9813 -69.9767 -69.9760 -69.9712
   -69.9698 -69.9694 -69.9682 -69.9676 -69.9659 -69.9656 -69.9650 -69.9643
   -69.9639 -69.9635 -69.9618 -69.9611 -69.9602 -69.9593 -69.9587 -69.9586
   -69.9585 -69.9584 -69.9582 -69.9573 -69.9571 -69.9559 -69.9546 -69.9545
   -69.9544 -69.9531 -69.9530 -69.9528 -69.9523 -69.9516 -69.9509 -69.9502
   -69.9490 -69.9476 -69.9474 -69.9455 -69.9452 -69.9444 -69.9440 -69.9432
   -69.9432 -69.9427 -69.9426 -69.9419 -69.9403 -69.9395 -69.9370 -69.9355
   -69.9347 -69.9345 -69.9323 -69.9297 -69.9250 -69.9248 -69.9162 -69.9098
   -65.0459 -65.0397 -65.0220 -65.0212 -65.0069 -64.9977 -64.9933 -64.9867
   -64.9828 -64.9798 -64.9758 -64.9735 -64.9688 -64.9682 -64.9527 -64.9447
   -32.0401 -32.0356 -32.0306 -32.0301 -32.0277 -32.0245 -32.0154 -32.0153
   -32.0097 -32.0096 -32.0065 -32.0050 -32.0030 -31.9958 -31.9955 -31.9922
   -31.9885 -31.9872 -31.9858 -31.9841 -31.9814 -31.9800 -31.9774 -31.9741
   -31.9727 -31.9715 -31.9706 -31.9697 -31.9676 -31.9667 -31.9652 -31.9639
   -31.9634 -31.9629 -31.9606 -31.9589 -31.9577 -31.9564 -31.9543 -31.9529
   -31.9502 -31.9493 -31.9473 -31.9384 -31.9367 -31.9333 -31.9289 -31.9253
   -10.2005 -10.0003  -9.9303  -9.8668  -9.8133  -9.7461  -9.7213  -9.6749
    -9.6711  -9.6338  -9.6110  -9.5880  -9.5610  -9.5298  -9.5218  -9.4794
    -9.4641  -9.4524  -9.4255  -9.4059  -9.3946  -9.3606  -9.3421  -9.3382
    -9.3118  -9.2853  -9.2782  -9.2519  -9.2029  -9.1617  -9.1446  -9.1343
    -9.1040  -9.0889  -9.0351  -8.9104   1.5720   1.6166   1.6309   1.6487
     1.6669   1.6847   1.6988   1.7156   1.7476   1.7623   1.7939   1.8141
     1.8437   1.8607   1.8787   1.8819   1.9118   1.9211   1.9307   1.9434
     1.9616   1.9913   2.0059   2.0146   2.0296   2.0386   2.0529   2.0689
     2.0784   2.0961   2.1080   2.1229   2.1319   2.1407   2.1598   2.1758
     2.1902   2.2032   2.2152   2.2290   2.2382   2.2440   2.2577   2.2704
     2.2830   2.2924   2.3103   2.3152   2.3224   2.3629   2.3741   2.4049
     2.4106   2.4281   2.4572   2.4826   2.4877   2.5012   2.5156   2.5483
     2.5573   2.5786   2.5979   2.6107   2.6197   2.6539   2.6620   2.6819
     2.7013   2.7137   2.7184   2.7390   2.7603   2.7738   2.7903   2.8187
     2.8322   2.8476   2.8683   2.8794   2.9027   2.9212   2.9445   2.9539
     2.9769   2.9956   2.9994   3.0294   3.0397   3.0523   3.0588   3.0725
     3.0922   3.0948   3.1091   3.1168   3.1283   3.1513   3.1701   3.1883
     3.2395   3.3117   3.3347   3.4098   3.4497   3.4671   3.5044   3.5345
     3.5744   3.5943   3.6310   3.6549   3.6895   3.7336   3.7799   3.8055
     3.8798   3.8983   3.9665   4.0141   4.0375   4.0733   4.0997   4.1768
     4.2212   4.2691   4.3155   4.3512   4.3645   4.4155   4.4399   4.4727
     4.5173   4.5543   4.6097   4.6448   4.6746   4.7138   4.7715   4.8251
     4.8978   4.9476   5.0199   5.0595   5.0915   5.1207   5.1481   5.1770
     5.2368   5.2517   5.3006   5.3132   5.3555   5.3743   5.4262   5.4653
     5.4834   5.5072   5.5378   5.5582   5.5802   5.6118   5.6312   5.6693
     5.7017   5.7174   5.7454   5.7857   5.8107   5.8451   5.8601   5.9114
     5.9333   5.9565   5.9934   5.9965   6.0294   6.0664   6.1136   6.1317
     6.1420   6.1851   6.2042   6.2348   6.2512   6.2758   6.2960   6.3242
     6.3344   6.3777   6.3970   6.4257   6.4434   6.4558   6.4964   6.5327
     6.5603   6.5921   6.6091   6.6340   6.6732   6.6919   6.7203   6.7768
     6.8518   6.8677   7.0347   7.0644   9.5690  10.8621  11.2734  11.7427
    11.9559  12.0861  12.2910  12.4946  12.5402  12.7342  12.8647  12.9590
    13.0518  13.1311  13.2679  13.4061  13.4980  13.6745  13.7413  13.8194
    13.8598  13.9787  14.3835  14.4649  14.5673  14.6013  14.6708  14.7244
    14.7673  14.8013  14.8312  14.8608  14.9063  14.9757  14.9908  15.0508
    15.3469  15.4413  15.5273  15.5878  15.6781  15.7575  15.8364  15.8748
    15.9120  15.9757  16.0107  16.0806  16.1128  16.2064  16.2895  16.3943
    16.4841  16.5272  16.5932  16.6261  16.7122  16.7592  16.8549  16.9083
    16.9587  17.0751  17.2037  17.2921  17.4251  17.4324  17.5107  17.5757
    17.6125  17.7159  17.7780  17.9321  18.0027  18.1088  18.2612  18.3201
    18.4077  18.4958

     occupation numbers 
     1.0000   1.0000   1.0000   1.0000   1.0000   1.0000   1.0000   1.0000
     1.0000   1.0000   1.0000   1.0000   1.0000   1.0000   1.0000   1.0000
     1.0000   1.0000   1.0000   1.0000   1.0000   1.0000   1.0000   1.0000
     1.0000   1.0000   1.0000   1.0000   1.0000   1.0000   1.0000   1.0000
     1.0000   1.0000   1.0000   1.0000   1.0000   1.0000   1.0000   1.0000
     1.0000   1.0000   1.0000   1.0000   1.0000   1.0000   1.0000   1.0000
     1.0000   1.0000   1.0000   1.0000   1.0000   1.0000   1.0000   1.0000
     1.0000   1.0000   1.0000   1.0000   1.0000   1.0000   1.0000   1.0000
     1.0000   1.0000   1.0000   1.0000   1.0000   1.0000   1.0000   1.0000
     1.0000   1.0000   1.0000   1.0000   1.0000   1.0000   1.0000   1.0000
     1.0000   1.0000   1.0000   1.0000   1.0000   1.0000   1.0000   1.0000
     1.0000   1.0000   1.0000   1.0000   1.0000   1.0000   1.0000   1.0000
     1.0000   1.0000   1.0000   1.0000   1.0000   1.0000   1.0000   1.0000
     1.0000   1.0000   1.0000   1.0000   1.0000   1.0000   1.0000   1.0000
     1.0000   1.0000   1.0000   1.0000   1.0000   1.0000   1.0000   1.0000
     1.0000   1.0000   1.0000   1.0000   1.0000   1.0000   1.0000   1.0000
     1.0000   1.0000   1.0000   1.0000   1.0000   1.0000   1.0000   1.0000
     1.0000   1.0000   1.0000   1.0000   1.0000   1.0000   1.0000   1.0000
     1.0000   1.0000   1.0000   1.0000   1.0000   1.0000   1.0000   1.0000
     1.0000   1.0000   1.0000   1.0000   1.0000   1.0000   1.0000   1.0000
     1.0000   1.0000   1.0000   1.0000   1.0000   1.0000   1.0000   1.0000
     1.0000   1.0000   1.0000   1.0000   1.0000   1.0000   1.0000   1.0000
     1.0000   1.0000   1.0000   1.0000   1.0000   1.0000   1.0000   1.0000
     1.0000   1.0000   1.0000   1.0000   1.0000   1.0000   1.0000   1.0000
     1.0000   1.0000   1.0000   1.0000   1.0000   1.0000   1.0000   1.0000
     1.0000   1.0000   1.0000   1.0000   1.0000   1.0000   1.0000   1.0000
     1.0000   1.0000   1.0000   1.0000   1.0000   1.0000   1.0000   1.0000
     1.0000   1.0000   1.0000   1.0000   1.0000   1.0000   1.0000   1.0000
     1.0000   1.0000   1.0000   1.0000   1.0000   1.0000   1.0000   1.0000
     1.0000   1.0000   1.0000   1.0000   1.0000   1.0000   1.0000   1.0000
     1.0000   1.0000   1.0000   1.0000   1.0000   1.0000   1.0000   1.0000
     1.0000   1.0000   1.0000   1.0000   1.0000   1.0000   1.0000   1.0000
     1.0000   1.0000   1.0000   1.0000   1.0000   1.0000   1.0000   1.0000
     1.0000   1.0000   1.0000   1.0000   1.0000   1.0000   1.0000   1.0000
     1.0000   1.0000   1.0000   1.0000   1.0000   1.0000   1.0000   1.0000
     1.0000   1.0000   1.0000   1.0000   1.0000   1.0000   1.0000   1.0000
     1.0000   1.0000   1.0000   1.0000   1.0000   1.0000   1.0000   1.0000
     1.0000   1.0000   1.0000   1.0000   1.0000   1.0000   1.0000   1.0000
     1.0000   1.0000   1.0000   1.0000   1.0000   1.0000   1.0000   1.0000
     1.0000   1.0000   1.0000   1.0000   1.0000   1.0000   1.0000   1.0000
     1.0000   1.0000   1.0000   1.0000   1.0000   1.0000   1.0000   1.0000
     1.0000   1.0000   1.0000   1.0000   1.0000   1.0000   1.0000   1.0000
     1.0000   1.0000   1.0000   1.0000   1.0000   1.0000   1.0000   1.0000
     1.0000   1.0000   1.0000   1.0000   1.0000   1.0000   1.0000   1.0000
     1.0000   1.0000   1.0000   1.0000   1.0000   1.0000   1.0000   1.0000
     1.0000   1.0000   1.0000   1.0000   1.0000   1.0000   1.0000   1.0000
     1.0000   1.0000   1.0000   1.0000   1.0000   1.0000   1.0000   1.0000
     1.0000   1.0000   1.0000   1.0000   1.0000   1.0000   1.0000   1.0000
     1.0000   1.0000   1.0000   1.0000   0.0000   0.0000   0.0000   0.0000
     0.0000   0.0000   0.0000   0.0000   0.0000   0.0000   0.0000   0.0000
     0.0000   0.0000   0.0000   0.0000   0.0000   0.0000   0.0000   0.0000
     0.0000   0.0000   0.0000   0.0000   0.0000   0.0000   0.0000   0.0000
     0.0000   0.0000   0.0000   0.0000   0.0000   0.0000   0.0000   0.0000
     0.0000   0.0000   0.0000   0.0000   0.0000   0.0000   0.0000   0.0000
     0.0000   0.0000   0.0000   0.0000   0.0000   0.0000   0.0000   0.0000
     0.0000   0.0000   0.0000   0.0000   0.0000   0.0000   0.0000   0.0000
     0.0000   0.0000   0.0000   0.0000   0.0000   0.0000   0.0000   0.0000
     0.0000   0.0000   0.0000   0.0000   0.0000   0.0000   0.0000   0.0000
     0.0000   0.0000

          k = 0.0005 0.2885-0.4769 ( 44780 PWs)   bands (ev):

  -115.6185-115.6138-115.6077-115.6069-115.6066-115.6035-115.6022-115.6019
  -115.5967-115.5964-115.5952-115.5944-115.5927-115.5911-115.5885-115.5870
  -115.5797-115.5793-115.5776-115.5601 -69.9813 -69.9767 -69.9760 -69.9712
   -69.9698 -69.9694 -69.9682 -69.9676 -69.9659 -69.9656 -69.9650 -69.9643
   -69.9639 -69.9635 -69.9618 -69.9611 -69.9602 -69.9593 -69.9587 -69.9586
   -69.9585 -69.9584 -69.9582 -69.9573 -69.9571 -69.9559 -69.9546 -69.9545
   -69.9544 -69.9531 -69.9530 -69.9528 -69.9523 -69.9516 -69.9509 -69.9502
   -69.9490 -69.9476 -69.9474 -69.9455 -69.9452 -69.9444 -69.9440 -69.9432
   -69.9432 -69.9427 -69.9426 -69.9419 -69.9403 -69.9395 -69.9370 -69.9355
   -69.9347 -69.9345 -69.9323 -69.9297 -69.9250 -69.9248 -69.9162 -69.9098
   -65.0459 -65.0397 -65.0220 -65.0212 -65.0069 -64.9977 -64.9933 -64.9867
   -64.9828 -64.9798 -64.9758 -64.9735 -64.9688 -64.9682 -64.9527 -64.9447
   -32.0401 -32.0356 -32.0306 -32.0301 -32.0277 -32.0245 -32.0154 -32.0153
   -32.0097 -32.0096 -32.0065 -32.0050 -32.0030 -31.9958 -31.9955 -31.9922
   -31.9884 -31.9872 -31.9858 -31.9841 -31.9814 -31.9800 -31.9774 -31.9741
   -31.9727 -31.9715 -31.9706 -31.9697 -31.9676 -31.9667 -31.9652 -31.9639
   -31.9634 -31.9629 -31.9606 -31.9589 -31.9577 -31.9564 -31.9543 -31.9529
   -31.9502 -31.9493 -31.9473 -31.9384 -31.9367 -31.9333 -31.9289 -31.9253
   -10.1663 -10.0586  -9.9155  -9.8510  -9.8147  -9.7783  -9.7299  -9.6709
    -9.6605  -9.6325  -9.6174  -9.5803  -9.5565  -9.5321  -9.5054  -9.4777
    -9.4734  -9.4561  -9.4313  -9.4002  -9.3894  -9.3549  -9.3417  -9.3203
    -9.3070  -9.2970  -9.2757  -9.2436  -9.2048  -9.1675  -9.1470  -9.1363
    -9.1090  -9.0910  -9.0367  -8.9117   1.5837   1.6294   1.6482   1.6608
     1.6790   1.7048   1.7113   1.7372   1.7606   1.7693   1.8050   1.8168
     1.8540   1.8711   1.8803   1.8959   1.9044   1.9222   1.9433   1.9537
     1.9712   1.9861   2.0048   2.0142   2.0240   2.0306   2.0458   2.0564
     2.0708   2.0994   2.1033   2.1201   2.1297   2.1447   2.1624   2.1702
     2.1960   2.2015   2.2065   2.2273   2.2351   2.2414   2.2543   2.2744
     2.2836   2.2914   2.3099   2.3139   2.3231   2.3456   2.3601   2.3739
     2.3926   2.4042   2.4258   2.4444   2.4708   2.4766   2.5065   2.5246
     2.5325   2.5524   2.5633   2.5849   2.6065   2.6271   2.6404   2.6776
     2.6889   2.7128   2.7223   2.7312   2.7482   2.7584   2.7812   2.8040
     2.8224   2.8421   2.8697   2.8943   2.9114   2.9279   2.9564   2.9609
     2.9748   2.9945   3.0106   3.0273   3.0381   3.0513   3.0638   3.0867
     3.0901   3.0971   3.1063   3.1175   3.1344   3.1417   3.1846   3.1979
     3.2724   3.3121   3.3592   3.4213   3.4501   3.4980   3.5240   3.5584
     3.5889   3.6219   3.6527   3.6906   3.7292   3.7567   3.7797   3.8054
     3.8663   3.9374   3.9605   3.9931   4.0266   4.0799   4.1283   4.1680
     4.2085   4.2484   4.2575   4.3185   4.3598   4.4058   4.4372   4.4564
     4.5169   4.5683   4.6360   4.7371   4.7745   4.8151   4.8473   4.9213
     4.9849   5.0075   5.0578   5.0862   5.1107   5.1326   5.1514   5.1955
     5.2158   5.2399   5.2647   5.3053   5.3350   5.3598   5.3708   5.3937
     5.4240   5.4423   5.4783   5.5086   5.5262   5.5402   5.5715   5.6031
     5.6417   5.6871   5.7084   5.7313   5.7518   5.8017   5.8656   5.9034
     5.9392   5.9522   6.0097   6.0166   6.0501   6.0849   6.1125   6.1304
     6.1842   6.1859   6.2115   6.2391   6.2652   6.2964   6.3182   6.3314
     6.3577   6.3659   6.4161   6.4289   6.4520   6.4717   6.5049   6.5324
     6.5705   6.5788   6.6105   6.6322   6.6851   6.7063   6.7329   6.7683
     6.8915   6.9051   7.0003   7.0513  10.0340  10.2652  11.4526  11.6340
    11.9342  12.0650  12.1424  12.3151  12.6385  12.7302  12.8310  12.9185
    13.0135  13.1441  13.2046  13.4156  13.9250  14.0390  14.0987  14.1628
    14.2017  14.2353  14.2618  14.2937  14.3313  14.3969  14.4328  14.4874
    14.5212  14.6442  14.6969  14.7217  14.8509  14.8828  14.9221  14.9552
    15.4952  15.5410  15.5954  15.7000  15.7329  15.7898  15.8568  15.9236
    15.9508  16.0053  16.0565  16.1091  16.1558  16.1823  16.3129  16.3574
    16.3960  16.5409  16.5833  16.7016  16.7782  16.8495  16.8850  16.9689
    17.0154  17.0755  17.1347  17.1911  17.2746  17.3703  17.4402  17.5122
    17.5632  17.6394  17.6942  17.9305  17.9978  18.1269  18.2069  18.2904
    18.3682  18.3813

     occupation numbers 
     1.0000   1.0000   1.0000   1.0000   1.0000   1.0000   1.0000   1.0000
     1.0000   1.0000   1.0000   1.0000   1.0000   1.0000   1.0000   1.0000
     1.0000   1.0000   1.0000   1.0000   1.0000   1.0000   1.0000   1.0000
     1.0000   1.0000   1.0000   1.0000   1.0000   1.0000   1.0000   1.0000
     1.0000   1.0000   1.0000   1.0000   1.0000   1.0000   1.0000   1.0000
     1.0000   1.0000   1.0000   1.0000   1.0000   1.0000   1.0000   1.0000
     1.0000   1.0000   1.0000   1.0000   1.0000   1.0000   1.0000   1.0000
     1.0000   1.0000   1.0000   1.0000   1.0000   1.0000   1.0000   1.0000
     1.0000   1.0000   1.0000   1.0000   1.0000   1.0000   1.0000   1.0000
     1.0000   1.0000   1.0000   1.0000   1.0000   1.0000   1.0000   1.0000
     1.0000   1.0000   1.0000   1.0000   1.0000   1.0000   1.0000   1.0000
     1.0000   1.0000   1.0000   1.0000   1.0000   1.0000   1.0000   1.0000
     1.0000   1.0000   1.0000   1.0000   1.0000   1.0000   1.0000   1.0000
     1.0000   1.0000   1.0000   1.0000   1.0000   1.0000   1.0000   1.0000
     1.0000   1.0000   1.0000   1.0000   1.0000   1.0000   1.0000   1.0000
     1.0000   1.0000   1.0000   1.0000   1.0000   1.0000   1.0000   1.0000
     1.0000   1.0000   1.0000   1.0000   1.0000   1.0000   1.0000   1.0000
     1.0000   1.0000   1.0000   1.0000   1.0000   1.0000   1.0000   1.0000
     1.0000   1.0000   1.0000   1.0000   1.0000   1.0000   1.0000   1.0000
     1.0000   1.0000   1.0000   1.0000   1.0000   1.0000   1.0000   1.0000
     1.0000   1.0000   1.0000   1.0000   1.0000   1.0000   1.0000   1.0000
     1.0000   1.0000   1.0000   1.0000   1.0000   1.0000   1.0000   1.0000
     1.0000   1.0000   1.0000   1.0000   1.0000   1.0000   1.0000   1.0000
     1.0000   1.0000   1.0000   1.0000   1.0000   1.0000   1.0000   1.0000
     1.0000   1.0000   1.0000   1.0000   1.0000   1.0000   1.0000   1.0000
     1.0000   1.0000   1.0000   1.0000   1.0000   1.0000   1.0000   1.0000
     1.0000   1.0000   1.0000   1.0000   1.0000   1.0000   1.0000   1.0000
     1.0000   1.0000   1.0000   1.0000   1.0000   1.0000   1.0000   1.0000
     1.0000   1.0000   1.0000   1.0000   1.0000   1.0000   1.0000   1.0000
     1.0000   1.0000   1.0000   1.0000   1.0000   1.0000   1.0000   1.0000
     1.0000   1.0000   1.0000   1.0000   1.0000   1.0000   1.0000   1.0000
     1.0000   1.0000   1.0000   1.0000   1.0000   1.0000   1.0000   1.0000
     1.0000   1.0000   1.0000   1.0000   1.0000   1.0000   1.0000   1.0000
[...]
    -9.6429  -9.6060  -9.5839  -9.5695  -9.5579  -9.5338  -9.5202  -9.4952
    -9.4694  -9.4458  -9.4284  -9.3990  -9.3800  -9.3682  -9.3480  -9.3298
    -9.3241  -9.2886  -9.2789  -9.2508  -9.1918  -9.1515  -9.1473  -9.1347
    -9.1223  -9.0923  -9.0263  -8.9099   1.5945   1.6358   1.6613   1.6828
     1.6889   1.6988   1.7342   1.7467   1.7562   1.7811   1.7973   1.8049
     1.8311   1.8396   1.8604   1.8695   1.8910   1.9058   1.9327   1.9570
     1.9614   1.9716   1.9995   2.0149   2.0334   2.0456   2.0549   2.0729
     2.0873   2.0959   2.1004   2.1171   2.1343   2.1402   2.1625   2.1667
     2.1832   2.1961   2.1996   2.2146   2.2240   2.2308   2.2521   2.2550
     2.2694   2.2804   2.2942   2.3100   2.3344   2.3477   2.3549   2.3646
     2.3774   2.3965   2.4180   2.4601   2.4664   2.4996   2.5137   2.5360
     2.5470   2.5734   2.5898   2.6028   2.6144   2.6358   2.6645   2.6810
     2.6921   2.7071   2.7263   2.7401   2.7691   2.7907   2.8051   2.8251
     2.8374   2.8459   2.8661   2.8913   2.8985   2.9209   2.9378   2.9565
     2.9677   2.9767   3.0003   3.0181   3.0345   3.0471   3.0519   3.0718
     3.0812   3.0964   3.1153   3.1362   3.1466   3.1567   3.1748   3.1902
     3.2262   3.2686   3.3249   3.3691   3.3759   3.4520   3.4962   3.5335
     3.5423   3.5560   3.6078   3.6435   3.7134   3.7299   3.7730   3.8072
     3.8536   3.9013   3.9476   4.0005   4.0552   4.0977   4.1669   4.2034
     4.2555   4.3173   4.3646   4.4274   4.5030   4.5456   4.5637   4.6340
     4.6719   4.7157   4.7444   4.7727   4.7775   4.8107   4.8540   4.8820
     4.9217   4.9528   4.9667   5.0077   5.0144   5.0442   5.0870   5.1031
     5.1601   5.2119   5.3261   5.3315   5.3697   5.4062   5.4459   5.4584
     5.4930   5.5285   5.5527   5.5710   5.5866   5.6302   5.6451   5.6800
     5.7028   5.7248   5.7425   5.7589   5.8045   5.8424   5.8773   5.9026
     5.9170   5.9469   5.9640   6.0038   6.0126   6.0226   6.0791   6.0930
     6.1114   6.1446   6.1503   6.1855   6.2112   6.2276   6.2511   6.2765
     6.2975   6.3159   6.3344   6.3750   6.3788   6.4262   6.4332   6.4764
     6.4926   6.5396   6.5561   6.5879   6.6208   6.6746   6.7175   6.7543
     6.9047   6.9284   6.9588   6.9797  10.2997  10.3948  11.3140  11.4797
    11.7584  11.8975  12.3694  12.5659  12.7783  12.8935  13.1676  13.4024
    13.4416  13.4875  13.5353  13.6088  13.6857  13.7100  13.7337  13.8194
    13.9274  13.9616  14.0148  14.1402  14.2082  14.2417  14.2764  14.3280
    14.3779  14.4364  14.8017  14.8477  14.8719  14.8912  15.0010  15.0890
    15.2230  15.4760  15.4994  15.5367  15.6560  15.8192  15.8520  15.8924
    15.9492  15.9726  16.0197  16.1437  16.1946  16.2674  16.3951  16.4520
    16.5621  16.6396  16.7675  16.8685  16.9073  17.0522  17.1019  17.1873
    17.2110  17.2497  17.3415  17.3868  17.4506  17.5024  17.5496  17.5802
    17.7349  17.8257  17.9928  18.0335  18.1261  18.2377  18.2679  18.3557
    18.3810  18.4654

     occupation numbers 
     1.0000   1.0000   1.0000   1.0000   1.0000   1.0000   1.0000   1.0000
     1.0000   1.0000   1.0000   1.0000   1.0000   1.0000   1.0000   1.0000
     1.0000   1.0000   1.0000   1.0000   1.0000   1.0000   1.0000   1.0000
     1.0000   1.0000   1.0000   1.0000   1.0000   1.0000   1.0000   1.0000
     1.0000   1.0000   1.0000   1.0000   1.0000   1.0000   1.0000   1.0000
     1.0000   1.0000   1.0000   1.0000   1.0000   1.0000   1.0000   1.0000
     1.0000   1.0000   1.0000   1.0000   1.0000   1.0000   1.0000   1.0000
     1.0000   1.0000   1.0000   1.0000   1.0000   1.0000   1.0000   1.0000
     1.0000   1.0000   1.0000   1.0000   1.0000   1.0000   1.0000   1.0000
     1.0000   1.0000   1.0000   1.0000   1.0000   1.0000   1.0000   1.0000
     1.0000   1.0000   1.0000   1.0000   1.0000   1.0000   1.0000   1.0000
     1.0000   1.0000   1.0000   1.0000   1.0000   1.0000   1.0000   1.0000
     1.0000   1.0000   1.0000   1.0000   1.0000   1.0000   1.0000   1.0000
     1.0000   1.0000   1.0000   1.0000   1.0000   1.0000   1.0000   1.0000
     1.0000   1.0000   1.0000   1.0000   1.0000   1.0000   1.0000   1.0000
     1.0000   1.0000   1.0000   1.0000   1.0000   1.0000   1.0000   1.0000
     1.0000   1.0000   1.0000   1.0000   1.0000   1.0000   1.0000   1.0000
     1.0000   1.0000   1.0000   1.0000   1.0000   1.0000   1.0000   1.0000
     1.0000   1.0000   1.0000   1.0000   1.0000   1.0000   1.0000   1.0000
     1.0000   1.0000   1.0000   1.0000   1.0000   1.0000   1.0000   1.0000
     1.0000   1.0000   1.0000   1.0000   1.0000   1.0000   1.0000   1.0000
     1.0000   1.0000   1.0000   1.0000   1.0000   1.0000   1.0000   1.0000
     1.0000   1.0000   1.0000   1.0000   1.0000   1.0000   1.0000   1.0000
     1.0000   1.0000   1.0000   1.0000   1.0000   1.0000   1.0000   1.0000
     1.0000   1.0000   1.0000   1.0000   1.0000   1.0000   1.0000   1.0000
     1.0000   1.0000   1.0000   1.0000   1.0000   1.0000   1.0000   1.0000
     1.0000   1.0000   1.0000   1.0000   1.0000   1.0000   1.0000   1.0000
     1.0000   1.0000   1.0000   1.0000   1.0000   1.0000   1.0000   1.0000
     1.0000   1.0000   1.0000   1.0000   1.0000   1.0000   1.0000   1.0000
     1.0000   1.0000   1.0000   1.0000   1.0000   1.0000   1.0000   1.0000
     1.0000   1.0000   1.0000   1.0000   1.0000   1.0000   1.0000   1.0000
     1.0000   1.0000   1.0000   1.0000   1.0000   1.0000   1.0000   1.0000
     1.0000   1.0000   1.0000   1.0000   1.0000   1.0000   1.0000   1.0000
     1.0000   1.0000   1.0000   1.0000   1.0000   1.0000   1.0000   1.0000
     1.0000   1.0000   1.0000   1.0000   1.0000   1.0000   1.0000   1.0000
     1.0000   1.0000   1.0000   1.0000   1.0000   1.0000   1.0000   1.0000
     1.0000   1.0000   1.0000   1.0000   1.0000   1.0000   1.0000   1.0000
     1.0000   1.0000   1.0000   1.0000   1.0000   1.0000   1.0000   1.0000
     1.0000   1.0000   1.0000   1.0000   1.0000   1.0000   1.0000   1.0000
     1.0000   1.0000   1.0000   1.0000   1.0000   1.0000   1.0000   1.0000
     1.0000   1.0000   1.0000   1.0000   1.0000   1.0000   1.0000   1.0000
     1.0000   1.0000   1.0000   1.0000   1.0000   1.0000   1.0000   1.0000
     1.0000   1.0000   1.0000   1.0000   1.0000   1.0000   1.0000   1.0000
     1.0000   1.0000   1.0000   1.0000   1.0000   1.0000   1.0000   1.0000
     1.0000   1.0000   1.0000   1.0000   1.0000   1.0000   1.0000   1.0000
     1.0000   1.0000   1.0000   1.0000   1.0000   1.0000   1.0000   1.0000
     1.0000   1.0000   1.0000   1.0000   1.0000   1.0000   1.0000   1.0000
     1.0000   1.0000   1.0000   1.0000   1.0000   1.0000   1.0000   1.0000
     1.0000   1.0000   1.0000   1.0000   0.0000   0.0000   0.0000   0.0000
     0.0000   0.0000   0.0000   0.0000   0.0000   0.0000   0.0000   0.0000
     0.0000   0.0000   0.0000   0.0000   0.0000   0.0000   0.0000   0.0000
     0.0000   0.0000   0.0000   0.0000   0.0000   0.0000   0.0000   0.0000
     0.0000   0.0000   0.0000   0.0000   0.0000   0.0000   0.0000   0.0000
     0.0000   0.0000   0.0000   0.0000   0.0000   0.0000   0.0000   0.0000
     0.0000   0.0000   0.0000   0.0000   0.0000   0.0000   0.0000   0.0000
     0.0000   0.0000   0.0000   0.0000   0.0000   0.0000   0.0000   0.0000
     0.0000   0.0000   0.0000   0.0000   0.0000   0.0000   0.0000   0.0000
     0.0000   0.0000   0.0000   0.0000   0.0000   0.0000   0.0000   0.0000
     0.0000   0.0000

          k =-0.5003-0.8657-0.4764 ( 44770 PWs)   bands (ev):

  -115.6185-115.6138-115.6077-115.6069-115.6066-115.6035-115.6022-115.6019
  -115.5967-115.5964-115.5952-115.5944-115.5927-115.5911-115.5885-115.5870
  -115.5797-115.5793-115.5776-115.5601 -69.9813 -69.9767 -69.9760 -69.9712
   -69.9698 -69.9694 -69.9682 -69.9676 -69.9659 -69.9656 -69.9650 -69.9643
   -69.9639 -69.9635 -69.9618 -69.9611 -69.9602 -69.9593 -69.9587 -69.9586
   -69.9585 -69.9584 -69.9582 -69.9573 -69.9571 -69.9559 -69.9546 -69.9545
   -69.9544 -69.9531 -69.9530 -69.9528 -69.9523 -69.9516 -69.9509 -69.9501
   -69.9490 -69.9476 -69.9474 -69.9455 -69.9452 -69.9444 -69.9440 -69.9432
   -69.9432 -69.9427 -69.9426 -69.9419 -69.9403 -69.9395 -69.9370 -69.9355
   -69.9347 -69.9345 -69.9323 -69.9297 -69.9250 -69.9248 -69.9162 -69.9098
   -65.0459 -65.0397 -65.0220 -65.0212 -65.0069 -64.9977 -64.9933 -64.9867
   -64.9828 -64.9798 -64.9758 -64.9735 -64.9688 -64.9682 -64.9527 -64.9447
   -32.0401 -32.0356 -32.0306 -32.0301 -32.0277 -32.0245 -32.0154 -32.0153
   -32.0098 -32.0098 -32.0065 -32.0050 -32.0030 -31.9957 -31.9956 -31.9922
   -31.9884 -31.9871 -31.9859 -31.9842 -31.9816 -31.9800 -31.9774 -31.9740
   -31.9727 -31.9710 -31.9702 -31.9698 -31.9678 -31.9667 -31.9652 -31.9640
   -31.9633 -31.9624 -31.9605 -31.9590 -31.9577 -31.9567 -31.9544 -31.9523
   -31.9503 -31.9494 -31.9473 -31.9391 -31.9367 -31.9339 -31.9289 -31.9249
   -10.0783 -10.0669 -10.0027  -9.8721  -9.8390  -9.7983  -9.7548  -9.6849
    -9.6299  -9.5970  -9.5829  -9.5671  -9.5310  -9.5228  -9.5206  -9.5015
    -9.4571  -9.4445  -9.4304  -9.4017  -9.3809  -9.3771  -9.3422  -9.3313
    -9.3146  -9.2955  -9.2772  -9.2420  -9.1956  -9.1559  -9.1445  -9.1379
    -9.1289  -9.0956  -9.0270  -8.9110   1.6141   1.6713   1.6758   1.6954
     1.7087   1.7185   1.7411   1.7438   1.7569   1.7900   1.8093   1.8227
     1.8320   1.8394   1.8735   1.8811   1.8915   1.9236   1.9404   1.9550
     1.9640   1.9741   1.9910   2.0135   2.0263   2.0368   2.0441   2.0695
     2.0830   2.0926   2.0985   2.1153   2.1326   2.1387   2.1656   2.1764
     2.1905   2.1923   2.2020   2.2092   2.2183   2.2217   2.2306   2.2373
     2.2558   2.2723   2.2861   2.3071   2.3242   2.3391   2.3510   2.3560
     2.3748   2.3819   2.4077   2.4165   2.4503   2.4664   2.4825   2.5146
     2.5272   2.5452   2.5656   2.5871   2.6059   2.6177   2.6513   2.6687
     2.6828   2.6972   2.7120   2.7354   2.7637   2.7858   2.7895   2.8260
     2.8334   2.8514   2.8586   2.8853   2.8948   2.9155   2.9416   2.9583
     2.9854   2.9968   3.0131   3.0215   3.0243   3.0425   3.0563   3.0731
     3.0841   3.0916   3.1106   3.1399   3.1467   3.1626   3.1779   3.1974
     3.2374   3.2892   3.3349   3.3844   3.4211   3.4950   3.5208   3.5293
     3.5439   3.5936   3.6643   3.6993   3.7208   3.7808   3.8013   3.8415
     3.8560   3.8939   3.9420   3.9606   4.0453   4.0639   4.1466   4.1754
     4.2036   4.2569   4.3263   4.3950   4.4858   4.5584   4.6261   4.6867
     4.6905   4.7183   4.7391   4.7540   4.8095   4.8327   4.8841   4.9060
     4.9617   5.0414   5.0702   5.0991   5.1252   5.1682   5.1764   5.1926
     5.2155   5.2700   5.2819   5.3016   5.3510   5.3595   5.3781   5.3913
     5.4059   5.4492   5.4661   5.4842   5.5338   5.5414   5.5880   5.6269
     5.6514   5.6683   5.6899   5.7520   5.7843   5.8097   5.8513   5.8790
     5.8878   5.9222   5.9422   5.9646   5.9929   6.0358   6.0827   6.1042
     6.1336   6.1524   6.1718   6.2101   6.2148   6.2489   6.2658   6.2812
     6.3021   6.3105   6.3441   6.3609   6.3750   6.4129   6.4252   6.4621
     6.5110   6.5484   6.5737   6.6137   6.6822   6.7397   6.7864   6.8512
     6.8790   6.8877   6.9326   6.9620  10.6361  10.6864  10.7955  11.0418
    11.8950  11.9871  12.0640  12.3272  13.0972  13.2354  13.3074  13.3393
    13.4405  13.4599  13.5401  13.5937  13.6080  13.7867  13.8189  13.9018
    13.9639  14.0272  14.0452  14.1102  14.2915  14.3668  14.4062  14.4350
    14.5061  14.5531  14.5673  14.6186  14.6342  14.6677  14.7001  14.7034
    15.4933  15.5701  15.6384  15.6531  15.7021  15.7458  15.8463  15.9150
    15.9665  16.0406  16.1107  16.1422  16.1950  16.2852  16.3133  16.4085
    16.5205  16.6354  16.7479  16.8482  16.9050  17.0265  17.0517  17.1960
    17.2686  17.3047  17.3246  17.3555  17.4045  17.4404  17.4977  17.5113
    17.7110  17.7902  17.9674  18.0178  18.1416  18.1894  18.2334  18.4008
    18.4681  18.4978

     occupation numbers 
     1.0000   1.0000   1.0000   1.0000   1.0000   1.0000   1.0000   1.0000
     1.0000   1.0000   1.0000   1.0000   1.0000   1.0000   1.0000   1.0000
     1.0000   1.0000   1.0000   1.0000   1.0000   1.0000   1.0000   1.0000
     1.0000   1.0000   1.0000   1.0000   1.0000   1.0000   1.0000   1.0000
     1.0000   1.0000   1.0000   1.0000   1.0000   1.0000   1.0000   1.0000
     1.0000   1.0000   1.0000   1.0000   1.0000   1.0000   1.0000   1.0000
     1.0000   1.0000   1.0000   1.0000   1.0000   1.0000   1.0000   1.0000
     1.0000   1.0000   1.0000   1.0000   1.0000   1.0000   1.0000   1.0000
     1.0000   1.0000   1.0000   1.0000   1.0000   1.0000   1.0000   1.0000
     1.0000   1.0000   1.0000   1.0000   1.0000   1.0000   1.0000   1.0000
     1.0000   1.0000   1.0000   1.0000   1.0000   1.0000   1.0000   1.0000
     1.0000   1.0000   1.0000   1.0000   1.0000   1.0000   1.0000   1.0000
     1.0000   1.0000   1.0000   1.0000   1.0000   1.0000   1.0000   1.0000
     1.0000   1.0000   1.0000   1.0000   1.0000   1.0000   1.0000   1.0000
     1.0000   1.0000   1.0000   1.0000   1.0000   1.0000   1.0000   1.0000
     1.0000   1.0000   1.0000   1.0000   1.0000   1.0000   1.0000   1.0000
     1.0000   1.0000   1.0000   1.0000   1.0000   1.0000   1.0000   1.0000
     1.0000   1.0000   1.0000   1.0000   1.0000   1.0000   1.0000   1.0000
     1.0000   1.0000   1.0000   1.0000   1.0000   1.0000   1.0000   1.0000
     1.0000   1.0000   1.0000   1.0000   1.0000   1.0000   1.0000   1.0000
     1.0000   1.0000   1.0000   1.0000   1.0000   1.0000   1.0000   1.0000
     1.0000   1.0000   1.0000   1.0000   1.0000   1.0000   1.0000   1.0000
     1.0000   1.0000   1.0000   1.0000   1.0000   1.0000   1.0000   1.0000
     1.0000   1.0000   1.0000   1.0000   1.0000   1.0000   1.0000   1.0000
     1.0000   1.0000   1.0000   1.0000   1.0000   1.0000   1.0000   1.0000
     1.0000   1.0000   1.0000   1.0000   1.0000   1.0000   1.0000   1.0000
     1.0000   1.0000   1.0000   1.0000   1.0000   1.0000   1.0000   1.0000
     1.0000   1.0000   1.0000   1.0000   1.0000   1.0000   1.0000   1.0000
     1.0000   1.0000   1.0000   1.0000   1.0000   1.0000   1.0000   1.0000
     1.0000   1.0000   1.0000   1.0000   1.0000   1.0000   1.0000   1.0000
     1.0000   1.0000   1.0000   1.0000   1.0000   1.0000   1.0000   1.0000
     1.0000   1.0000   1.0000   1.0000   1.0000   1.0000   1.0000   1.0000
     1.0000   1.0000   1.0000   1.0000   1.0000   1.0000   1.0000   1.0000
     1.0000   1.0000   1.0000   1.0000   1.0000   1.0000   1.0000   1.0000
     1.0000   1.0000   1.0000   1.0000   1.0000   1.0000   1.0000   1.0000
     1.0000   1.0000   1.0000   1.0000   1.0000   1.0000   1.0000   1.0000
     1.0000   1.0000   1.0000   1.0000   1.0000   1.0000   1.0000   1.0000
     1.0000   1.0000   1.0000   1.0000   1.0000   1.0000   1.0000   1.0000
     1.0000   1.0000   1.0000   1.0000   1.0000   1.0000   1.0000   1.0000
     1.0000   1.0000   1.0000   1.0000   1.0000   1.0000   1.0000   1.0000
     1.0000   1.0000   1.0000   1.0000   1.0000   1.0000   1.0000   1.0000
     1.0000   1.0000   1.0000   1.0000   1.0000   1.0000   1.0000   1.0000
     1.0000   1.0000   1.0000   1.0000   1.0000   1.0000   1.0000   1.0000
     1.0000   1.0000   1.0000   1.0000   1.0000   1.0000   1.0000   1.0000
     1.0000   1.0000   1.0000   1.0000   1.0000   1.0000   1.0000   1.0000
     1.0000   1.0000   1.0000   1.0000   1.0000   1.0000   1.0000   1.0000
     1.0000   1.0000   1.0000   1.0000   1.0000   1.0000   1.0000   1.0000
     1.0000   1.0000   1.0000   1.0000   1.0000   1.0000   1.0000   1.0000
     1.0000   1.0000   1.0000   1.0000   0.0000   0.0000   0.0000   0.0000
     0.0000   0.0000   0.0000   0.0000   0.0000   0.0000   0.0000   0.0000
     0.0000   0.0000   0.0000   0.0000   0.0000   0.0000   0.0000   0.0000
     0.0000   0.0000   0.0000   0.0000   0.0000   0.0000   0.0000   0.0000
     0.0000   0.0000   0.0000   0.0000   0.0000   0.0000   0.0000   0.0000
     0.0000   0.0000   0.0000   0.0000   0.0000   0.0000   0.0000   0.0000
     0.0000   0.0000   0.0000   0.0000   0.0000   0.0000   0.0000   0.0000
     0.0000   0.0000   0.0000   0.0000   0.0000   0.0000   0.0000   0.0000
     0.0000   0.0000   0.0000   0.0000   0.0000   0.0000   0.0000   0.0000
     0.0000   0.0000   0.0000   0.0000   0.0000   0.0000   0.0000   0.0000
     0.0000   0.0000

     the Fermi energy is     8.1379 ev

!    total energy              =  -12392.22848313 Ry
     Harris-Foulkes estimate   =  -12392.22848313 Ry
     estimated scf accuracy    <          9.6E-09 Ry

     The total energy is the sum of the following terms:

     one-electron contribution =  -10386.99855575 Ry
     hartree contribution      =    5450.39780455 Ry
     xc contribution           =   -1365.58161719 Ry
     ewald contribution        =   -6090.04611473 Ry
     smearing contrib. (-TS)   =       0.00000000 Ry

     convergence has been achieved in  13 iterations

     Writing output data file ZnO.save/
 
     init_run     :     13.30s CPU     13.81s WALL (       1 calls)
     electrons    :    672.79s CPU    687.48s WALL (       1 calls)

     Called by init_run:
     wfcinit      :     11.01s CPU     11.38s WALL (       1 calls)
     wfcinit:atom :      0.09s CPU      0.11s WALL (       5 calls)
     wfcinit:wfcr :     10.51s CPU     10.82s WALL (       5 calls)
     potinit      :      1.02s CPU      1.05s WALL (       1 calls)
     hinit0       :      0.77s CPU      0.83s WALL (       1 calls)

     Called by electrons:
     c_bands      :    618.78s CPU    632.12s WALL (      13 calls)
     sum_band     :     46.38s CPU     47.21s WALL (      13 calls)
     v_of_rho     :      5.92s CPU      6.20s WALL (      14 calls)
     v_h          :      0.16s CPU      0.21s WALL (      14 calls)
     v_xc         :      5.76s CPU      5.98s WALL (      14 calls)
     newd         :      1.46s CPU      1.51s WALL (      14 calls)
     mix_rho      :      0.37s CPU      0.47s WALL (      13 calls)

     Called by c_bands:
     init_us_2    :      4.75s CPU      4.78s WALL (     135 calls)
     cegterg      :    566.83s CPU    579.80s WALL (      65 calls)

     Called by sum_band:
     sum_band:bec :      0.24s CPU      0.24s WALL (      65 calls)
     addusdens    :      1.14s CPU      1.21s WALL (      13 calls)

     Called by *egterg:
     h_psi        :    201.84s CPU    205.24s WALL (     264 calls)
     s_psi        :     53.12s CPU     53.14s WALL (     264 calls)
     g_psi        :      0.80s CPU      0.80s WALL (     194 calls)
     cdiaghg      :    189.45s CPU    195.11s WALL (     259 calls)
     cegterg:over :     56.26s CPU     57.74s WALL (     194 calls)
     cegterg:upda :     36.92s CPU     37.37s WALL (     194 calls)
     cegterg:last :     20.28s CPU     20.34s WALL (      65 calls)
     cdiaghg:chol :      9.04s CPU      9.13s WALL (     259 calls)
     cdiaghg:inve :      2.86s CPU      2.87s WALL (     259 calls)
     cdiaghg:para :     45.70s CPU     50.17s WALL (     518 calls)

     Called by h_psi:
     h_psi:pot    :    200.15s CPU    202.45s WALL (     264 calls)
     h_psi:calbec :     54.52s CPU     55.99s WALL (     264 calls)
     vloc_psi     :     92.03s CPU     92.63s WALL (     264 calls)
     add_vuspsi   :     53.60s CPU     53.83s WALL (     264 calls)

     General routines
     calbec       :     75.66s CPU     77.67s WALL (     329 calls)
     fft          :      1.35s CPU      1.82s WALL (     180 calls)
     ffts         :      0.05s CPU      0.05s WALL (      27 calls)
     fftw         :    103.18s CPU    103.86s WALL (  182582 calls)
     interpolate  :      0.16s CPU      0.20s WALL (      14 calls)
 
     Parallel routines
     fft_scatt_xy :     16.53s CPU     16.64s WALL (  182789 calls)
     fft_scatt_yz :     31.00s CPU     31.66s WALL (  182789 calls)
 
     PWSCF        :  11m33.71s CPU  11m50.87s WALL

 
   This run was terminated on:   1:38:11  15Jul2022            

=------------------------------------------------------------------------------=
   JOB DONE.
=------------------------------------------------------------------------------=
