
     Program PWSCF v.6.4.1 starts on 16Jun2022 at 15:59:42 

     This program is part of the open-source Quantum ESPRESSO suite
     for quantum simulation of materials; please cite
         "P. Giannozzi et al., J. Phys.:Condens. Matter 21 395502 (2009);
         "P. Giannozzi et al., J. Phys.:Condens. Matter 29 465901 (2017);
          URL http://www.quantum-espresso.org", 
     in publications or presentations arising from this work. More details at
     http://www.quantum-espresso.org/quote

     Parallel version (MPI), running on    64 processors

     MPI processes distributed on     1 nodes
     K-points division:     npool     =       4
     R & G space division:  proc/nbgrp/npool/nimage =      16
     Waiting for input...
     Reading input from standard input

     Current dimensions of program PWSCF are:
     Max number of different atomic species (ntypx) = 10
     Max number of k-points (npk) =  40000
     Max angular momentum in pseudopotentials (lmaxx) =  3

     Subspace diagonalization in iterative solution of the eigenvalue problem:
     one sub-group per band group will be used
     scalapack distributed-memory algorithm (size of sub-group:  2*  2 procs)

 
     Parallelization info
     --------------------
     sticks:   dense  smooth     PW     G-vecs:    dense   smooth      PW
     Min          97      52     15                 5019     1952     339
     Max          98      53     16                 5024     1956     348
     Sum        1555     835    253                80363    31251    5527
 


     bravais-lattice index     =            0
     lattice parameter (alat)  =       6.1292  a.u.
     unit-cell volume          =     323.4009 (a.u.)^3
     number of atoms/cell      =            4
     number of atomic types    =            2
     number of electrons       =        32.00
     number of Kohn-Sham states=           16
     kinetic-energy cutoff     =      80.0000  Ry
     charge density cutoff     =     600.0000  Ry
     convergence threshold     =      1.0E-06
     mixing beta               =       0.5000
     number of iterations used =            8  plain     mixing
     Exchange-correlation      = SLA  PW   PSX  PSC ( 1  4 10  8 0 0)
     Using LIBXC version       =    4   3   4
     nstep                     =          200


     celldm(1)=   6.129151  celldm(2)=   0.000000  celldm(3)=   0.000000
     celldm(4)=   0.000000  celldm(5)=   0.000000  celldm(6)=   0.000000

     crystal axes: (cart. coord. in units of alat)
               a(1) = (   1.000000  -0.000000   0.000000 )  
               a(2) = (  -0.500000   0.866025  -0.000000 )  
               a(3) = (   0.000000   0.000000   1.621846 )  

     reciprocal axes: (cart. coord. in units 2 pi/alat)
               b(1) = (  1.000000  0.577350 -0.000000 )  
               b(2) = (  0.000000  1.154701 -0.000000 )  
               b(3) = ( -0.000000 -0.000000  0.616581 )  


     PseudoPot. # 1 for Mg read from file:
     ./GBRV_PBEsol/mg_pbesol_v1.4.uspp.F.UPF
     MD5 check sum: 4059f37963cf5867752dbf5ab2400678
     Pseudo is Ultrasoft, Zval = 10.0
     Generated by new atomic code, or converted to UPF format
     Using radial grid of  821 points,  7 beta functions with: 
                l(1) =   0
                l(2) =   0
                l(3) =   0
                l(4) =   1
                l(5) =   1
                l(6) =   2
                l(7) =   2
     Q(r) pseudized with  8 coefficients,  rinner =    1.200   1.200   1.200
                                                       1.200   1.200

     PseudoPot. # 2 for O  read from file:
     ./GBRV_PBEsol/o_pbesol_v1.2.uspp.F.UPF
     MD5 check sum: 501638753501ef6325af9037351f7734
     Pseudo is Ultrasoft + core correction, Zval =  6.0
     Generated by new atomic code, or converted to UPF format
     Using radial grid of  737 points,  5 beta functions with: 
                l(1) =   0
                l(2) =   0
                l(3) =   1
                l(4) =   1
                l(5) =   2
     Q(r) pseudized with  8 coefficients,  rinner =    0.900   0.900   0.900
                                                       0.900   0.900

     atomic species   valence    mass     pseudopotential
        Mg            10.00    24.30500     Mg( 1.00)
        O              6.00    15.99900     O ( 1.00)

     No symmetry found


                                    s                        frac. trans.

      isym =  1     identity                                     

 cryst.   s( 1) = (     1          0          0      )
                  (     0          1          0      )
                  (     0          0          1      )

 cart.    s( 1) = (  1.0000000 -0.0000000 -0.0000000 )
                  (  0.0000000  1.0000000 -0.0000000 )
                  ( -0.0000000  0.0000000  1.0000000 )


   Cartesian axes

     site n.     atom                  positions (alat units)
         1           O   tau(   1) = (   0.5000002   0.2886755   0.0119139  )
         2           O   tau(   2) = (   0.0000001   0.5773494   0.8228368  )
         3           Mg  tau(   3) = (   0.5000001   0.2886748   1.0320685  )
         4           Mg  tau(   4) = (  -0.0000001   0.5773512   1.8429915  )

   Crystallographic axes

     site n.     atom                  positions (cryst. coord.)
         1           O   tau(   1) = (  0.6666670  0.3333337  0.0073459  )
         2           O   tau(   2) = (  0.3333329  0.6666657  0.5073458  )
         3           Mg  tau(   3) = (  0.6666664  0.3333329  0.6363540  )
         4           Mg  tau(   4) = (  0.3333336  0.6666677  1.1363539  )

     number of k points=   260
                       cart. coord. in units 2pi/alat
        k(    1) = (   0.0000000   0.0000000   0.0000000), wk =   0.0039062
        k(    2) = (  -0.0000000  -0.0000000   0.0770727), wk =   0.0078125
        k(    3) = (  -0.0000000  -0.0000000   0.1541453), wk =   0.0078125
        k(    4) = (  -0.0000000  -0.0000000   0.2312180), wk =   0.0078125
        k(    5) = (   0.0000000   0.0000000  -0.3082906), wk =   0.0039062
        k(    6) = (   0.0000000   0.1443376  -0.0000000), wk =   0.0078125
        k(    7) = (  -0.0000000   0.1443376   0.0770727), wk =   0.0078125
        k(    8) = (  -0.0000000   0.1443376   0.1541453), wk =   0.0078125
        k(    9) = (  -0.0000000   0.1443376   0.2312180), wk =   0.0078125
        k(   10) = (   0.0000000   0.1443376  -0.3082906), wk =   0.0078125
        k(   11) = (   0.0000000   0.1443376  -0.2312180), wk =   0.0078125
        k(   12) = (   0.0000000   0.1443376  -0.1541453), wk =   0.0078125
        k(   13) = (   0.0000000   0.1443376  -0.0770727), wk =   0.0078125
        k(   14) = (   0.0000000   0.2886751  -0.0000000), wk =   0.0078125
        k(   15) = (   0.0000000   0.2886751   0.0770727), wk =   0.0078125
        k(   16) = (  -0.0000000   0.2886751   0.1541453), wk =   0.0078125
        k(   17) = (  -0.0000000   0.2886751   0.2312180), wk =   0.0078125
        k(   18) = (   0.0000000   0.2886751  -0.3082906), wk =   0.0078125
        k(   19) = (   0.0000000   0.2886751  -0.2312180), wk =   0.0078125
        k(   20) = (   0.0000000   0.2886751  -0.1541453), wk =   0.0078125
        k(   21) = (   0.0000000   0.2886751  -0.0770727), wk =   0.0078125
        k(   22) = (   0.0000000   0.4330127  -0.0000000), wk =   0.0078125
        k(   23) = (   0.0000000   0.4330127   0.0770727), wk =   0.0078125
        k(   24) = (   0.0000000   0.4330127   0.1541453), wk =   0.0078125
        k(   25) = (  -0.0000000   0.4330127   0.2312180), wk =   0.0078125
        k(   26) = (   0.0000000   0.4330127  -0.3082906), wk =   0.0078125
        k(   27) = (   0.0000000   0.4330127  -0.2312180), wk =   0.0078125
        k(   28) = (   0.0000000   0.4330127  -0.1541453), wk =   0.0078125
        k(   29) = (   0.0000000   0.4330127  -0.0770727), wk =   0.0078125
        k(   30) = (  -0.0000000  -0.5773503   0.0000000), wk =   0.0039062
        k(   31) = (  -0.0000000  -0.5773503   0.0770727), wk =   0.0078125
        k(   32) = (  -0.0000000  -0.5773503   0.1541453), wk =   0.0078125
        k(   33) = (  -0.0000000  -0.5773503   0.2312180), wk =   0.0078125
        k(   34) = (   0.0000000  -0.5773502  -0.3082906), wk =   0.0039062
        k(   35) = (   0.1250000   0.0721688  -0.0000000), wk =   0.0078125
        k(   36) = (   0.1250000   0.0721688   0.0770726), wk =   0.0078125
        k(   37) = (   0.1250000   0.0721688   0.1541453), wk =   0.0078125
        k(   38) = (   0.1250000   0.0721688   0.2312180), wk =   0.0078125
        k(   39) = (   0.1250000   0.0721688  -0.3082906), wk =   0.0078125
        k(   40) = (   0.1250000   0.0721688  -0.2312180), wk =   0.0078125
        k(   41) = (   0.1250000   0.0721688  -0.1541453), wk =   0.0078125
        k(   42) = (   0.1250000   0.0721688  -0.0770727), wk =   0.0078125
        k(   43) = (   0.1250000   0.2165063  -0.0000000), wk =   0.0078125
        k(   44) = (   0.1250000   0.2165063   0.0770726), wk =   0.0078125
        k(   45) = (   0.1250000   0.2165063   0.1541453), wk =   0.0078125
        k(   46) = (   0.1250000   0.2165063   0.2312180), wk =   0.0078125
        k(   47) = (   0.1250000   0.2165063  -0.3082906), wk =   0.0078125
        k(   48) = (   0.1250000   0.2165063  -0.2312180), wk =   0.0078125
        k(   49) = (   0.1250000   0.2165063  -0.1541453), wk =   0.0078125
        k(   50) = (   0.1250000   0.2165063  -0.0770727), wk =   0.0078125
        k(   51) = (   0.1250000   0.3608439  -0.0000000), wk =   0.0078125
        k(   52) = (   0.1250000   0.3608439   0.0770726), wk =   0.0078125
        k(   53) = (   0.1250000   0.3608439   0.1541453), wk =   0.0078125
        k(   54) = (   0.1250000   0.3608439   0.2312180), wk =   0.0078125
        k(   55) = (   0.1250000   0.3608439  -0.3082906), wk =   0.0078125
        k(   56) = (   0.1250000   0.3608439  -0.2312180), wk =   0.0078125
        k(   57) = (   0.1250000   0.3608439  -0.1541453), wk =   0.0078125
        k(   58) = (   0.1250000   0.3608439  -0.0770727), wk =   0.0078125
        k(   59) = (   0.1250000   0.5051815  -0.0000000), wk =   0.0078125
        k(   60) = (   0.1250000   0.5051815   0.0770726), wk =   0.0078125
        k(   61) = (   0.1250000   0.5051815   0.1541453), wk =   0.0078125
        k(   62) = (   0.1250000   0.5051815   0.2312179), wk =   0.0078125
        k(   63) = (   0.1250000   0.5051815  -0.3082906), wk =   0.0078125
        k(   64) = (   0.1250000   0.5051815  -0.2312180), wk =   0.0078125
        k(   65) = (   0.1250000   0.5051815  -0.1541453), wk =   0.0078125
        k(   66) = (   0.1250000   0.5051815  -0.0770727), wk =   0.0078125
        k(   67) = (   0.1250000  -0.5051815  -0.0000000), wk =   0.0078125
        k(   68) = (   0.1250000  -0.5051815   0.0770727), wk =   0.0078125
        k(   69) = (   0.1250000  -0.5051815   0.1541453), wk =   0.0078125
        k(   70) = (   0.1250000  -0.5051815   0.2312180), wk =   0.0078125
        k(   71) = (   0.1250000  -0.5051815  -0.3082906), wk =   0.0078125
        k(   72) = (   0.1250000  -0.5051815  -0.2312180), wk =   0.0078125
        k(   73) = (   0.1250000  -0.5051815  -0.1541453), wk =   0.0078125
        k(   74) = (   0.1250000  -0.5051815  -0.0770727), wk =   0.0078125
        k(   75) = (   0.1250000  -0.3608439  -0.0000000), wk =   0.0078125
        k(   76) = (   0.1250000  -0.3608439   0.0770726), wk =   0.0078125
        k(   77) = (   0.1250000  -0.3608439   0.1541453), wk =   0.0078125
        k(   78) = (   0.1250000  -0.3608439   0.2312180), wk =   0.0078125
        k(   79) = (   0.1250000  -0.3608439  -0.3082906), wk =   0.0078125
        k(   80) = (   0.1250000  -0.3608439  -0.2312180), wk =   0.0078125
        k(   81) = (   0.1250000  -0.3608439  -0.1541453), wk =   0.0078125
        k(   82) = (   0.1250000  -0.3608439  -0.0770727), wk =   0.0078125
        k(   83) = (   0.1250000  -0.2165063  -0.0000000), wk =   0.0078125
        k(   84) = (   0.1250000  -0.2165063   0.0770726), wk =   0.0078125
        k(   85) = (   0.1250000  -0.2165064   0.1541453), wk =   0.0078125
        k(   86) = (   0.1250000  -0.2165064   0.2312180), wk =   0.0078125
        k(   87) = (   0.1250000  -0.2165063  -0.3082906), wk =   0.0078125
        k(   88) = (   0.1250000  -0.2165063  -0.2312180), wk =   0.0078125
        k(   89) = (   0.1250000  -0.2165063  -0.1541453), wk =   0.0078125
        k(   90) = (   0.1250000  -0.2165063  -0.0770727), wk =   0.0078125
        k(   91) = (   0.1250000  -0.0721688  -0.0000000), wk =   0.0078125
        k(   92) = (   0.1250000  -0.0721688   0.0770726), wk =   0.0078125
        k(   93) = (   0.1250000  -0.0721688   0.1541453), wk =   0.0078125
        k(   94) = (   0.1250000  -0.0721688   0.2312180), wk =   0.0078125
        k(   95) = (   0.1250000  -0.0721688  -0.3082906), wk =   0.0078125
        k(   96) = (   0.1250000  -0.0721688  -0.2312180), wk =   0.0078125
        k(   97) = (   0.1250000  -0.0721688  -0.1541453), wk =   0.0078125
        k(   98) = (   0.1250000  -0.0721688  -0.0770727), wk =   0.0078125
        k(   99) = (   0.2500000   0.1443376  -0.0000000), wk =   0.0078125
        k(  100) = (   0.2500000   0.1443376   0.0770726), wk =   0.0078125
        k(  101) = (   0.2500000   0.1443376   0.1541453), wk =   0.0078125
        k(  102) = (   0.2500000   0.1443376   0.2312179), wk =   0.0078125
        k(  103) = (   0.2500000   0.1443376  -0.3082906), wk =   0.0078125
        k(  104) = (   0.2500000   0.1443376  -0.2312180), wk =   0.0078125
        k(  105) = (   0.2500000   0.1443376  -0.1541453), wk =   0.0078125
        k(  106) = (   0.2500000   0.1443376  -0.0770727), wk =   0.0078125
        k(  107) = (   0.2500000   0.2886751  -0.0000000), wk =   0.0078125
        k(  108) = (   0.2500000   0.2886751   0.0770726), wk =   0.0078125
        k(  109) = (   0.2500000   0.2886751   0.1541453), wk =   0.0078125
        k(  110) = (   0.2500000   0.2886751   0.2312179), wk =   0.0078125
        k(  111) = (   0.2500000   0.2886751  -0.3082906), wk =   0.0078125
        k(  112) = (   0.2500000   0.2886751  -0.2312180), wk =   0.0078125
        k(  113) = (   0.2500000   0.2886751  -0.1541453), wk =   0.0078125
        k(  114) = (   0.2500000   0.2886751  -0.0770727), wk =   0.0078125
        k(  115) = (   0.2500000   0.4330127  -0.0000000), wk =   0.0078125
        k(  116) = (   0.2500000   0.4330127   0.0770726), wk =   0.0078125
        k(  117) = (   0.2500000   0.4330127   0.1541453), wk =   0.0078125
        k(  118) = (   0.2500000   0.4330127   0.2312179), wk =   0.0078125
        k(  119) = (   0.2500000   0.4330127  -0.3082906), wk =   0.0078125
        k(  120) = (   0.2500000   0.4330127  -0.2312180), wk =   0.0078125
        k(  121) = (   0.2500000   0.4330127  -0.1541453), wk =   0.0078125
        k(  122) = (   0.2500000   0.4330127  -0.0770727), wk =   0.0078125
        k(  123) = (   0.2500000   0.5773502  -0.0000000), wk =   0.0078125
        k(  124) = (   0.2500000   0.5773502   0.0770726), wk =   0.0078125
        k(  125) = (   0.2500000   0.5773502   0.1541453), wk =   0.0078125
        k(  126) = (   0.2500000   0.5773502   0.2312179), wk =   0.0078125
        k(  127) = (   0.2500000   0.5773502  -0.3082906), wk =   0.0078125
        k(  128) = (   0.2500000   0.5773502  -0.2312180), wk =   0.0078125
        k(  129) = (   0.2500000   0.5773502  -0.1541453), wk =   0.0078125
        k(  130) = (   0.2500000   0.5773502  -0.0770727), wk =   0.0078125
        k(  131) = (   0.2500000  -0.4330127  -0.0000000), wk =   0.0078125
        k(  132) = (   0.2500000  -0.4330127   0.0770726), wk =   0.0078125
        k(  133) = (   0.2500000  -0.4330127   0.1541453), wk =   0.0078125
        k(  134) = (   0.2500000  -0.4330127   0.2312180), wk =   0.0078125
        k(  135) = (   0.2500000  -0.4330127  -0.3082906), wk =   0.0078125
        k(  136) = (   0.2500000  -0.4330127  -0.2312180), wk =   0.0078125
        k(  137) = (   0.2500000  -0.4330127  -0.1541453), wk =   0.0078125
        k(  138) = (   0.2500000  -0.4330127  -0.0770727), wk =   0.0078125
        k(  139) = (   0.2500000  -0.2886751  -0.0000000), wk =   0.0078125
        k(  140) = (   0.2500000  -0.2886751   0.0770726), wk =   0.0078125
        k(  141) = (   0.2500000  -0.2886751   0.1541453), wk =   0.0078125
        k(  142) = (   0.2500000  -0.2886751   0.2312179), wk =   0.0078125
        k(  143) = (   0.2500000  -0.2886751  -0.3082906), wk =   0.0078125
        k(  144) = (   0.2500000  -0.2886751  -0.2312180), wk =   0.0078125
        k(  145) = (   0.2500000  -0.2886751  -0.1541453), wk =   0.0078125
        k(  146) = (   0.2500000  -0.2886751  -0.0770727), wk =   0.0078125
        k(  147) = (   0.2500000  -0.1443376  -0.0000000), wk =   0.0078125
        k(  148) = (   0.2500000  -0.1443376   0.0770726), wk =   0.0078125
        k(  149) = (   0.2500000  -0.1443376   0.1541453), wk =   0.0078125
        k(  150) = (   0.2500000  -0.1443376   0.2312179), wk =   0.0078125
        k(  151) = (   0.2500000  -0.1443376  -0.3082906), wk =   0.0078125
        k(  152) = (   0.2500000  -0.1443376  -0.2312180), wk =   0.0078125
        k(  153) = (   0.2500000  -0.1443376  -0.1541453), wk =   0.0078125
        k(  154) = (   0.2500000  -0.1443376  -0.0770727), wk =   0.0078125
        k(  155) = (   0.2500000  -0.0000000  -0.0000000), wk =   0.0078125
        k(  156) = (   0.2500000  -0.0000000   0.0770726), wk =   0.0078125
        k(  157) = (   0.2500000  -0.0000000   0.1541453), wk =   0.0078125
        k(  158) = (   0.2500000  -0.0000000   0.2312179), wk =   0.0078125
        k(  159) = (   0.2500000  -0.0000000  -0.3082906), wk =   0.0078125
        k(  160) = (   0.2500000  -0.0000000  -0.2312180), wk =   0.0078125
        k(  161) = (   0.2500000  -0.0000000  -0.1541453), wk =   0.0078125
        k(  162) = (   0.2500000  -0.0000000  -0.0770727), wk =   0.0078125
        k(  163) = (   0.3750000   0.2165063  -0.0000000), wk =   0.0078125
        k(  164) = (   0.3750000   0.2165063   0.0770726), wk =   0.0078125
        k(  165) = (   0.3750000   0.2165063   0.1541453), wk =   0.0078125
        k(  166) = (   0.3750000   0.2165063   0.2312179), wk =   0.0078125
        k(  167) = (   0.3750000   0.2165063  -0.3082906), wk =   0.0078125
        k(  168) = (   0.3750000   0.2165063  -0.2312180), wk =   0.0078125
        k(  169) = (   0.3750000   0.2165063  -0.1541453), wk =   0.0078125
        k(  170) = (   0.3750000   0.2165063  -0.0770727), wk =   0.0078125
        k(  171) = (   0.3750000   0.3608439  -0.0000000), wk =   0.0078125
        k(  172) = (   0.3750000   0.3608439   0.0770726), wk =   0.0078125
        k(  173) = (   0.3750000   0.3608439   0.1541453), wk =   0.0078125
        k(  174) = (   0.3750000   0.3608439   0.2312179), wk =   0.0078125
        k(  175) = (   0.3750000   0.3608439  -0.3082906), wk =   0.0078125
        k(  176) = (   0.3750000   0.3608439  -0.2312180), wk =   0.0078125
        k(  177) = (   0.3750000   0.3608439  -0.1541453), wk =   0.0078125
        k(  178) = (   0.3750000   0.3608439  -0.0770727), wk =   0.0078125
        k(  179) = (   0.3750000   0.5051815  -0.0000000), wk =   0.0078125
        k(  180) = (   0.3750000   0.5051815   0.0770726), wk =   0.0078125
        k(  181) = (   0.3750000   0.5051815   0.1541453), wk =   0.0078125
        k(  182) = (   0.3750000   0.5051815   0.2312179), wk =   0.0078125
        k(  183) = (   0.3750000   0.5051815  -0.3082906), wk =   0.0078125
        k(  184) = (   0.3750000   0.5051815  -0.2312180), wk =   0.0078125
        k(  185) = (   0.3750000   0.5051815  -0.1541453), wk =   0.0078125
        k(  186) = (   0.3750000   0.5051815  -0.0770727), wk =   0.0078125
        k(  187) = (   0.3750000   0.6495190  -0.0000000), wk =   0.0078125
        k(  188) = (   0.3750000   0.6495190   0.0770726), wk =   0.0078125
        k(  189) = (   0.3750000   0.6495190   0.1541453), wk =   0.0078125
        k(  190) = (   0.3750000   0.6495190   0.2312179), wk =   0.0078125
        k(  191) = (   0.3750000   0.6495190  -0.3082906), wk =   0.0078125
        k(  192) = (   0.3750000   0.6495190  -0.2312180), wk =   0.0078125
        k(  193) = (   0.3750000   0.6495190  -0.1541453), wk =   0.0078125
        k(  194) = (   0.3750000   0.6495190  -0.0770727), wk =   0.0078125
        k(  195) = (   0.3750000  -0.3608439  -0.0000000), wk =   0.0078125
        k(  196) = (   0.3750000  -0.3608439   0.0770726), wk =   0.0078125
        k(  197) = (   0.3750000  -0.3608439   0.1541453), wk =   0.0078125
        k(  198) = (   0.3750000  -0.3608439   0.2312179), wk =   0.0078125
        k(  199) = (   0.3750000  -0.3608439  -0.3082906), wk =   0.0078125
        k(  200) = (   0.3750000  -0.3608439  -0.2312180), wk =   0.0078125
        k(  201) = (   0.3750000  -0.3608439  -0.1541453), wk =   0.0078125
        k(  202) = (   0.3750000  -0.3608439  -0.0770727), wk =   0.0078125
        k(  203) = (   0.3750000  -0.2165064  -0.0000000), wk =   0.0078125
        k(  204) = (   0.3750000  -0.2165064   0.0770726), wk =   0.0078125
        k(  205) = (   0.3750000  -0.2165064   0.1541453), wk =   0.0078125
        k(  206) = (   0.3750000  -0.2165064   0.2312179), wk =   0.0078125
        k(  207) = (   0.3750000  -0.2165064  -0.3082906), wk =   0.0078125
        k(  208) = (   0.3750000  -0.2165064  -0.2312180), wk =   0.0078125
        k(  209) = (   0.3750000  -0.2165064  -0.1541453), wk =   0.0078125
        k(  210) = (   0.3750000  -0.2165064  -0.0770727), wk =   0.0078125
        k(  211) = (   0.3750000  -0.0721688  -0.0000000), wk =   0.0078125
        k(  212) = (   0.3750000  -0.0721688   0.0770726), wk =   0.0078125
        k(  213) = (   0.3750000  -0.0721688   0.1541453), wk =   0.0078125
        k(  214) = (   0.3750000  -0.0721688   0.2312179), wk =   0.0078125
        k(  215) = (   0.3750000  -0.0721688  -0.3082906), wk =   0.0078125
        k(  216) = (   0.3750000  -0.0721688  -0.2312180), wk =   0.0078125
        k(  217) = (   0.3750000  -0.0721688  -0.1541453), wk =   0.0078125
        k(  218) = (   0.3750000  -0.0721688  -0.0770727), wk =   0.0078125
        k(  219) = (   0.3750000   0.0721688  -0.0000000), wk =   0.0078125
        k(  220) = (   0.3750000   0.0721688   0.0770726), wk =   0.0078125
        k(  221) = (   0.3750000   0.0721688   0.1541453), wk =   0.0078125
        k(  222) = (   0.3750000   0.0721688   0.2312179), wk =   0.0078125
        k(  223) = (   0.3750000   0.0721688  -0.3082906), wk =   0.0078125
        k(  224) = (   0.3750000   0.0721688  -0.2312180), wk =   0.0078125
        k(  225) = (   0.3750000   0.0721688  -0.1541453), wk =   0.0078125
        k(  226) = (   0.3750000   0.0721688  -0.0770727), wk =   0.0078125
        k(  227) = (  -0.5000000  -0.2886751   0.0000000), wk =   0.0039062
        k(  228) = (  -0.5000000  -0.2886751   0.0770727), wk =   0.0078125
        k(  229) = (  -0.5000000  -0.2886751   0.1541453), wk =   0.0078125
        k(  230) = (  -0.5000000  -0.2886751   0.2312180), wk =   0.0078125
        k(  231) = (  -0.5000000  -0.2886751  -0.3082906), wk =   0.0039062
        k(  232) = (  -0.5000000  -0.1443375   0.0000000), wk =   0.0078125
        k(  233) = (  -0.5000000  -0.1443375   0.0770727), wk =   0.0078125
        k(  234) = (  -0.5000000  -0.1443375   0.1541453), wk =   0.0078125
        k(  235) = (  -0.5000000  -0.1443375   0.2312180), wk =   0.0078125
        k(  236) = (  -0.5000000  -0.1443375  -0.3082906), wk =   0.0078125
        k(  237) = (  -0.5000000  -0.1443375  -0.2312179), wk =   0.0078125
        k(  238) = (  -0.5000000  -0.1443375  -0.1541453), wk =   0.0078125
        k(  239) = (  -0.5000000  -0.1443375  -0.0770726), wk =   0.0078125
        k(  240) = (  -0.5000000   0.0000000   0.0000000), wk =   0.0078125
        k(  241) = (  -0.5000000   0.0000000   0.0770727), wk =   0.0078125
        k(  242) = (  -0.5000000   0.0000000   0.1541453), wk =   0.0078125
        k(  243) = (  -0.5000000   0.0000000   0.2312180), wk =   0.0078125
        k(  244) = (  -0.5000000   0.0000000  -0.3082906), wk =   0.0078125
        k(  245) = (  -0.5000000   0.0000000  -0.2312179), wk =   0.0078125
        k(  246) = (  -0.5000000   0.0000000  -0.1541453), wk =   0.0078125
        k(  247) = (  -0.5000000   0.0000000  -0.0770726), wk =   0.0078125
        k(  248) = (  -0.5000000   0.1443376   0.0000000), wk =   0.0078125
        k(  249) = (  -0.5000000   0.1443376   0.0770727), wk =   0.0078125
        k(  250) = (  -0.5000000   0.1443376   0.1541453), wk =   0.0078125
        k(  251) = (  -0.5000000   0.1443376   0.2312180), wk =   0.0078125
        k(  252) = (  -0.5000000   0.1443376  -0.3082906), wk =   0.0078125
        k(  253) = (  -0.5000000   0.1443376  -0.2312179), wk =   0.0078125
        k(  254) = (  -0.5000000   0.1443376  -0.1541453), wk =   0.0078125
        k(  255) = (  -0.5000000   0.1443376  -0.0770726), wk =   0.0078125
        k(  256) = (  -0.5000000  -0.8660254   0.0000000), wk =   0.0039062
        k(  257) = (  -0.5000000  -0.8660254   0.0770727), wk =   0.0078125
        k(  258) = (  -0.5000000  -0.8660254   0.1541453), wk =   0.0078125
        k(  259) = (  -0.5000000  -0.8660254   0.2312180), wk =   0.0078125
        k(  260) = (  -0.5000000  -0.8660254  -0.3082906), wk =   0.0039062

                       cryst. coord.
        k(    1) = (   0.0000000   0.0000000   0.0000000), wk =   0.0039062
        k(    2) = (  -0.0000000   0.0000000   0.1250000), wk =   0.0078125
        k(    3) = (  -0.0000000   0.0000000   0.2500000), wk =   0.0078125
        k(    4) = (  -0.0000000   0.0000000   0.3750000), wk =   0.0078125
        k(    5) = (   0.0000000  -0.0000000  -0.5000000), wk =   0.0039062
        k(    6) = (  -0.0000000   0.1250000   0.0000000), wk =   0.0078125
        k(    7) = (  -0.0000000   0.1250000   0.1250000), wk =   0.0078125
        k(    8) = (  -0.0000000   0.1250000   0.2500000), wk =   0.0078125
        k(    9) = (  -0.0000000   0.1250000   0.3750000), wk =   0.0078125
        k(   10) = (  -0.0000000   0.1250000  -0.5000000), wk =   0.0078125
        k(   11) = (   0.0000000   0.1250000  -0.3750000), wk =   0.0078125
        k(   12) = (   0.0000000   0.1250000  -0.2500000), wk =   0.0078125
        k(   13) = (  -0.0000000   0.1250000  -0.1250000), wk =   0.0078125
        k(   14) = (  -0.0000000   0.2500000   0.0000000), wk =   0.0078125
        k(   15) = (  -0.0000000   0.2500000   0.1250000), wk =   0.0078125
        k(   16) = (  -0.0000000   0.2500000   0.2500000), wk =   0.0078125
        k(   17) = (  -0.0000000   0.2500000   0.3750000), wk =   0.0078125
        k(   18) = (   0.0000000   0.2500000  -0.5000000), wk =   0.0078125
        k(   19) = (   0.0000000   0.2500000  -0.3750000), wk =   0.0078125
        k(   20) = (  -0.0000000   0.2500000  -0.2500000), wk =   0.0078125
        k(   21) = (   0.0000000   0.2500000  -0.1250000), wk =   0.0078125
        k(   22) = (  -0.0000000   0.3750000   0.0000000), wk =   0.0078125
        k(   23) = (  -0.0000000   0.3750000   0.1250000), wk =   0.0078125
        k(   24) = (  -0.0000000   0.3750000   0.2500000), wk =   0.0078125
        k(   25) = (  -0.0000000   0.3750000   0.3750000), wk =   0.0078125
        k(   26) = (   0.0000000   0.3750000  -0.5000000), wk =   0.0078125
        k(   27) = (  -0.0000000   0.3750000  -0.3750000), wk =   0.0078125
        k(   28) = (  -0.0000000   0.3750000  -0.2500000), wk =   0.0078125
        k(   29) = (  -0.0000000   0.3750000  -0.1250000), wk =   0.0078125
        k(   30) = (   0.0000000  -0.5000000  -0.0000000), wk =   0.0039062
        k(   31) = (   0.0000000  -0.5000000   0.1250000), wk =   0.0078125
        k(   32) = (  -0.0000000  -0.5000000   0.2500000), wk =   0.0078125
        k(   33) = (  -0.0000000  -0.5000000   0.3750000), wk =   0.0078125
        k(   34) = (   0.0000000  -0.5000000  -0.5000000), wk =   0.0039062
        k(   35) = (   0.1250000   0.0000000  -0.0000000), wk =   0.0078125
        k(   36) = (   0.1250000   0.0000000   0.1250000), wk =   0.0078125
        k(   37) = (   0.1250000   0.0000000   0.2500000), wk =   0.0078125
        k(   38) = (   0.1250000   0.0000000   0.3750000), wk =   0.0078125
        k(   39) = (   0.1250000   0.0000000  -0.5000000), wk =   0.0078125
        k(   40) = (   0.1250000   0.0000000  -0.3750000), wk =   0.0078125
        k(   41) = (   0.1250000   0.0000000  -0.2500000), wk =   0.0078125
        k(   42) = (   0.1250000   0.0000000  -0.1250000), wk =   0.0078125
        k(   43) = (   0.1250000   0.1250000  -0.0000000), wk =   0.0078125
        k(   44) = (   0.1250000   0.1250000   0.1250000), wk =   0.0078125
        k(   45) = (   0.1250000   0.1250000   0.2500000), wk =   0.0078125
        k(   46) = (   0.1250000   0.1250000   0.3750000), wk =   0.0078125
        k(   47) = (   0.1250000   0.1250000  -0.5000000), wk =   0.0078125
        k(   48) = (   0.1250000   0.1250000  -0.3750000), wk =   0.0078125
        k(   49) = (   0.1250000   0.1250000  -0.2500000), wk =   0.0078125
        k(   50) = (   0.1250000   0.1250000  -0.1250000), wk =   0.0078125
        k(   51) = (   0.1250000   0.2500000  -0.0000000), wk =   0.0078125
        k(   52) = (   0.1250000   0.2500000   0.1250000), wk =   0.0078125
        k(   53) = (   0.1250000   0.2500000   0.2500000), wk =   0.0078125
        k(   54) = (   0.1250000   0.2500000   0.3750000), wk =   0.0078125
        k(   55) = (   0.1250000   0.2500000  -0.5000000), wk =   0.0078125
        k(   56) = (   0.1250000   0.2500000  -0.3750000), wk =   0.0078125
        k(   57) = (   0.1250000   0.2500000  -0.2500000), wk =   0.0078125
        k(   58) = (   0.1250000   0.2500000  -0.1250000), wk =   0.0078125
        k(   59) = (   0.1250000   0.3750000  -0.0000000), wk =   0.0078125
        k(   60) = (   0.1250000   0.3750000   0.1250000), wk =   0.0078125
        k(   61) = (   0.1250000   0.3750000   0.2500000), wk =   0.0078125
        k(   62) = (   0.1250000   0.3750000   0.3750000), wk =   0.0078125
        k(   63) = (   0.1250000   0.3750000  -0.5000000), wk =   0.0078125
        k(   64) = (   0.1250000   0.3750000  -0.3750000), wk =   0.0078125
        k(   65) = (   0.1250000   0.3750000  -0.2500000), wk =   0.0078125
        k(   66) = (   0.1250000   0.3750000  -0.1250000), wk =   0.0078125
        k(   67) = (   0.1250000  -0.5000000  -0.0000000), wk =   0.0078125
        k(   68) = (   0.1250000  -0.5000000   0.1250000), wk =   0.0078125
        k(   69) = (   0.1250000  -0.5000000   0.2500000), wk =   0.0078125
        k(   70) = (   0.1250000  -0.5000000   0.3750000), wk =   0.0078125
        k(   71) = (   0.1250000  -0.5000000  -0.5000000), wk =   0.0078125
        k(   72) = (   0.1250000  -0.5000000  -0.3750000), wk =   0.0078125
        k(   73) = (   0.1250000  -0.5000000  -0.2500000), wk =   0.0078125
        k(   74) = (   0.1250000  -0.5000000  -0.1250000), wk =   0.0078125
        k(   75) = (   0.1250000  -0.3750000  -0.0000000), wk =   0.0078125
        k(   76) = (   0.1250000  -0.3750000   0.1250000), wk =   0.0078125
        k(   77) = (   0.1250000  -0.3750000   0.2500000), wk =   0.0078125
        k(   78) = (   0.1250000  -0.3750000   0.3750000), wk =   0.0078125
        k(   79) = (   0.1250000  -0.3750000  -0.5000000), wk =   0.0078125
        k(   80) = (   0.1250000  -0.3750000  -0.3750000), wk =   0.0078125
        k(   81) = (   0.1250000  -0.3750000  -0.2500000), wk =   0.0078125
        k(   82) = (   0.1250000  -0.3750000  -0.1250000), wk =   0.0078125
        k(   83) = (   0.1250000  -0.2500000  -0.0000000), wk =   0.0078125
        k(   84) = (   0.1250000  -0.2500000   0.1250000), wk =   0.0078125
        k(   85) = (   0.1250000  -0.2500000   0.2500000), wk =   0.0078125
        k(   86) = (   0.1250000  -0.2500000   0.3750000), wk =   0.0078125
        k(   87) = (   0.1250000  -0.2500000  -0.5000000), wk =   0.0078125
        k(   88) = (   0.1250000  -0.2500000  -0.3750000), wk =   0.0078125
        k(   89) = (   0.1250000  -0.2500000  -0.2500000), wk =   0.0078125
        k(   90) = (   0.1250000  -0.2500000  -0.1250000), wk =   0.0078125
        k(   91) = (   0.1250000  -0.1250000  -0.0000000), wk =   0.0078125
        k(   92) = (   0.1250000  -0.1250000   0.1250000), wk =   0.0078125
        k(   93) = (   0.1250000  -0.1250000   0.2500000), wk =   0.0078125
        k(   94) = (   0.1250000  -0.1250000   0.3750000), wk =   0.0078125
        k(   95) = (   0.1250000  -0.1250000  -0.5000000), wk =   0.0078125
        k(   96) = (   0.1250000  -0.1250000  -0.3750000), wk =   0.0078125
        k(   97) = (   0.1250000  -0.1250000  -0.2500000), wk =   0.0078125
        k(   98) = (   0.1250000  -0.1250000  -0.1250000), wk =   0.0078125
        k(   99) = (   0.2500000   0.0000000  -0.0000000), wk =   0.0078125
        k(  100) = (   0.2500000   0.0000000   0.1250000), wk =   0.0078125
        k(  101) = (   0.2500000   0.0000000   0.2500000), wk =   0.0078125
        k(  102) = (   0.2500000   0.0000000   0.3750000), wk =   0.0078125
        k(  103) = (   0.2500000   0.0000000  -0.5000000), wk =   0.0078125
        k(  104) = (   0.2500000   0.0000000  -0.3750000), wk =   0.0078125
        k(  105) = (   0.2500000   0.0000000  -0.2500000), wk =   0.0078125
        k(  106) = (   0.2500000   0.0000000  -0.1250000), wk =   0.0078125
        k(  107) = (   0.2500000   0.1250000   0.0000000), wk =   0.0078125
        k(  108) = (   0.2500000   0.1250000   0.1250000), wk =   0.0078125
        k(  109) = (   0.2500000   0.1250000   0.2500000), wk =   0.0078125
        k(  110) = (   0.2500000   0.1250000   0.3750000), wk =   0.0078125
        k(  111) = (   0.2500000   0.1250000  -0.5000000), wk =   0.0078125
        k(  112) = (   0.2500000   0.1250000  -0.3750000), wk =   0.0078125
        k(  113) = (   0.2500000   0.1250000  -0.2500000), wk =   0.0078125
        k(  114) = (   0.2500000   0.1250000  -0.1250000), wk =   0.0078125
        k(  115) = (   0.2500000   0.2500000  -0.0000000), wk =   0.0078125
        k(  116) = (   0.2500000   0.2500000   0.1250000), wk =   0.0078125
        k(  117) = (   0.2500000   0.2500000   0.2500000), wk =   0.0078125
        k(  118) = (   0.2500000   0.2500000   0.3750000), wk =   0.0078125
        k(  119) = (   0.2500000   0.2500000  -0.5000000), wk =   0.0078125
        k(  120) = (   0.2500000   0.2500000  -0.3750000), wk =   0.0078125
        k(  121) = (   0.2500000   0.2500000  -0.2500000), wk =   0.0078125
        k(  122) = (   0.2500000   0.2500000  -0.1250000), wk =   0.0078125
        k(  123) = (   0.2500000   0.3750000   0.0000000), wk =   0.0078125
        k(  124) = (   0.2500000   0.3750000   0.1250000), wk =   0.0078125
        k(  125) = (   0.2500000   0.3750000   0.2500000), wk =   0.0078125
        k(  126) = (   0.2500000   0.3750000   0.3750000), wk =   0.0078125
        k(  127) = (   0.2500000   0.3750000  -0.5000000), wk =   0.0078125
        k(  128) = (   0.2500000   0.3750000  -0.3750000), wk =   0.0078125
        k(  129) = (   0.2500000   0.3750000  -0.2500000), wk =   0.0078125
        k(  130) = (   0.2500000   0.3750000  -0.1250000), wk =   0.0078125
        k(  131) = (   0.2500000  -0.5000000  -0.0000000), wk =   0.0078125
        k(  132) = (   0.2500000  -0.5000000   0.1250000), wk =   0.0078125
        k(  133) = (   0.2500000  -0.5000000   0.2500000), wk =   0.0078125
        k(  134) = (   0.2500000  -0.5000000   0.3750000), wk =   0.0078125
        k(  135) = (   0.2500000  -0.5000000  -0.5000000), wk =   0.0078125
        k(  136) = (   0.2500000  -0.5000000  -0.3750000), wk =   0.0078125
        k(  137) = (   0.2500000  -0.5000000  -0.2500000), wk =   0.0078125
        k(  138) = (   0.2500000  -0.5000000  -0.1250000), wk =   0.0078125
        k(  139) = (   0.2500000  -0.3750000  -0.0000000), wk =   0.0078125
        k(  140) = (   0.2500000  -0.3750000   0.1250000), wk =   0.0078125
        k(  141) = (   0.2500000  -0.3750000   0.2500000), wk =   0.0078125
        k(  142) = (   0.2500000  -0.3750000   0.3750000), wk =   0.0078125
        k(  143) = (   0.2500000  -0.3750000  -0.5000000), wk =   0.0078125
        k(  144) = (   0.2500000  -0.3750000  -0.3750000), wk =   0.0078125
        k(  145) = (   0.2500000  -0.3750000  -0.2500000), wk =   0.0078125
        k(  146) = (   0.2500000  -0.3750000  -0.1250000), wk =   0.0078125
        k(  147) = (   0.2500000  -0.2500000  -0.0000000), wk =   0.0078125
        k(  148) = (   0.2500000  -0.2500000   0.1250000), wk =   0.0078125
        k(  149) = (   0.2500000  -0.2500000   0.2500000), wk =   0.0078125
        k(  150) = (   0.2500000  -0.2500000   0.3750000), wk =   0.0078125
        k(  151) = (   0.2500000  -0.2500000  -0.5000000), wk =   0.0078125
        k(  152) = (   0.2500000  -0.2500000  -0.3750000), wk =   0.0078125
        k(  153) = (   0.2500000  -0.2500000  -0.2500000), wk =   0.0078125
        k(  154) = (   0.2500000  -0.2500000  -0.1250000), wk =   0.0078125
        k(  155) = (   0.2500000  -0.1250000  -0.0000000), wk =   0.0078125
        k(  156) = (   0.2500000  -0.1250000   0.1250000), wk =   0.0078125
        k(  157) = (   0.2500000  -0.1250000   0.2500000), wk =   0.0078125
        k(  158) = (   0.2500000  -0.1250000   0.3750000), wk =   0.0078125
        k(  159) = (   0.2500000  -0.1250000  -0.5000000), wk =   0.0078125
        k(  160) = (   0.2500000  -0.1250000  -0.3750000), wk =   0.0078125
        k(  161) = (   0.2500000  -0.1250000  -0.2500000), wk =   0.0078125
        k(  162) = (   0.2500000  -0.1250000  -0.1250000), wk =   0.0078125
        k(  163) = (   0.3750000   0.0000000  -0.0000000), wk =   0.0078125
        k(  164) = (   0.3750000   0.0000000   0.1250000), wk =   0.0078125
        k(  165) = (   0.3750000   0.0000000   0.2500000), wk =   0.0078125
        k(  166) = (   0.3750000   0.0000000   0.3750000), wk =   0.0078125
        k(  167) = (   0.3750000   0.0000000  -0.5000000), wk =   0.0078125
        k(  168) = (   0.3750000   0.0000000  -0.3750000), wk =   0.0078125
        k(  169) = (   0.3750000  -0.0000000  -0.2500000), wk =   0.0078125
        k(  170) = (   0.3750000   0.0000000  -0.1250000), wk =   0.0078125
        k(  171) = (   0.3750000   0.1250000  -0.0000000), wk =   0.0078125
        k(  172) = (   0.3750000   0.1250000   0.1250000), wk =   0.0078125
        k(  173) = (   0.3750000   0.1250000   0.2500000), wk =   0.0078125
        k(  174) = (   0.3750000   0.1250000   0.3750000), wk =   0.0078125
        k(  175) = (   0.3750000   0.1250000  -0.5000000), wk =   0.0078125
        k(  176) = (   0.3750000   0.1250000  -0.3750000), wk =   0.0078125
        k(  177) = (   0.3750000   0.1250000  -0.2500000), wk =   0.0078125
        k(  178) = (   0.3750000   0.1250000  -0.1250000), wk =   0.0078125
        k(  179) = (   0.3750000   0.2500000  -0.0000000), wk =   0.0078125
        k(  180) = (   0.3750000   0.2500000   0.1250000), wk =   0.0078125
        k(  181) = (   0.3750000   0.2500000   0.2500000), wk =   0.0078125
        k(  182) = (   0.3750000   0.2500000   0.3750000), wk =   0.0078125
        k(  183) = (   0.3750000   0.2500000  -0.5000000), wk =   0.0078125
        k(  184) = (   0.3750000   0.2500000  -0.3750000), wk =   0.0078125
        k(  185) = (   0.3750000   0.2500000  -0.2500000), wk =   0.0078125
        k(  186) = (   0.3750000   0.2500000  -0.1250000), wk =   0.0078125
        k(  187) = (   0.3750000   0.3750000  -0.0000000), wk =   0.0078125
        k(  188) = (   0.3750000   0.3750000   0.1250000), wk =   0.0078125
        k(  189) = (   0.3750000   0.3750000   0.2500000), wk =   0.0078125
        k(  190) = (   0.3750000   0.3750000   0.3750000), wk =   0.0078125
        k(  191) = (   0.3750000   0.3750000  -0.5000000), wk =   0.0078125
        k(  192) = (   0.3750000   0.3750000  -0.3750000), wk =   0.0078125
        k(  193) = (   0.3750000   0.3750000  -0.2500000), wk =   0.0078125
        k(  194) = (   0.3750000   0.3750000  -0.1250000), wk =   0.0078125
        k(  195) = (   0.3750000  -0.5000000  -0.0000000), wk =   0.0078125
        k(  196) = (   0.3750000  -0.5000000   0.1250000), wk =   0.0078125
        k(  197) = (   0.3750000  -0.5000000   0.2500000), wk =   0.0078125
        k(  198) = (   0.3750000  -0.5000000   0.3750000), wk =   0.0078125
        k(  199) = (   0.3750000  -0.5000000  -0.5000000), wk =   0.0078125
        k(  200) = (   0.3750000  -0.5000000  -0.3750000), wk =   0.0078125
        k(  201) = (   0.3750000  -0.5000000  -0.2500000), wk =   0.0078125
        k(  202) = (   0.3750000  -0.5000000  -0.1250000), wk =   0.0078125
        k(  203) = (   0.3750000  -0.3750000  -0.0000000), wk =   0.0078125
        k(  204) = (   0.3750000  -0.3750000   0.1250000), wk =   0.0078125
        k(  205) = (   0.3750000  -0.3750000   0.2500000), wk =   0.0078125
        k(  206) = (   0.3750000  -0.3750000   0.3750000), wk =   0.0078125
        k(  207) = (   0.3750000  -0.3750000  -0.5000000), wk =   0.0078125
        k(  208) = (   0.3750000  -0.3750000  -0.3750000), wk =   0.0078125
        k(  209) = (   0.3750000  -0.3750000  -0.2500000), wk =   0.0078125
        k(  210) = (   0.3750000  -0.3750000  -0.1250000), wk =   0.0078125
        k(  211) = (   0.3750000  -0.2500000  -0.0000000), wk =   0.0078125
        k(  212) = (   0.3750000  -0.2500000   0.1250000), wk =   0.0078125
        k(  213) = (   0.3750000  -0.2500000   0.2500000), wk =   0.0078125
        k(  214) = (   0.3750000  -0.2500000   0.3750000), wk =   0.0078125
        k(  215) = (   0.3750000  -0.2500000  -0.5000000), wk =   0.0078125
        k(  216) = (   0.3750000  -0.2500000  -0.3750000), wk =   0.0078125
        k(  217) = (   0.3750000  -0.2500000  -0.2500000), wk =   0.0078125
        k(  218) = (   0.3750000  -0.2500000  -0.1250000), wk =   0.0078125
        k(  219) = (   0.3750000  -0.1250000  -0.0000000), wk =   0.0078125
        k(  220) = (   0.3750000  -0.1250000   0.1250000), wk =   0.0078125
        k(  221) = (   0.3750000  -0.1250000   0.2500000), wk =   0.0078125
        k(  222) = (   0.3750000  -0.1250000   0.3750000), wk =   0.0078125
        k(  223) = (   0.3750000  -0.1250000  -0.5000000), wk =   0.0078125
        k(  224) = (   0.3750000  -0.1250000  -0.3750000), wk =   0.0078125
        k(  225) = (   0.3750000  -0.1250000  -0.2500000), wk =   0.0078125
        k(  226) = (   0.3750000  -0.1250000  -0.1250000), wk =   0.0078125
        k(  227) = (  -0.5000000  -0.0000000   0.0000000), wk =   0.0039062
        k(  228) = (  -0.5000000  -0.0000000   0.1250000), wk =   0.0078125
        k(  229) = (  -0.5000000  -0.0000000   0.2500000), wk =   0.0078125
        k(  230) = (  -0.5000000  -0.0000000   0.3750000), wk =   0.0078125
        k(  231) = (  -0.5000000  -0.0000000  -0.5000000), wk =   0.0039062
        k(  232) = (  -0.5000000   0.1250000  -0.0000000), wk =   0.0078125
        k(  233) = (  -0.5000000   0.1250000   0.1250000), wk =   0.0078125
        k(  234) = (  -0.5000000   0.1250000   0.2500000), wk =   0.0078125
        k(  235) = (  -0.5000000   0.1250000   0.3750000), wk =   0.0078125
        k(  236) = (  -0.5000000   0.1250000  -0.5000000), wk =   0.0078125
        k(  237) = (  -0.5000000   0.1250000  -0.3750000), wk =   0.0078125
        k(  238) = (  -0.5000000   0.1250000  -0.2500000), wk =   0.0078125
        k(  239) = (  -0.5000000   0.1250000  -0.1250000), wk =   0.0078125
        k(  240) = (  -0.5000000   0.2500000   0.0000000), wk =   0.0078125
        k(  241) = (  -0.5000000   0.2500000   0.1250000), wk =   0.0078125
        k(  242) = (  -0.5000000   0.2500000   0.2500000), wk =   0.0078125
        k(  243) = (  -0.5000000   0.2500000   0.3750000), wk =   0.0078125
        k(  244) = (  -0.5000000   0.2500000  -0.5000000), wk =   0.0078125
        k(  245) = (  -0.5000000   0.2500000  -0.3750000), wk =   0.0078125
        k(  246) = (  -0.5000000   0.2500000  -0.2500000), wk =   0.0078125
        k(  247) = (  -0.5000000   0.2500000  -0.1250000), wk =   0.0078125
        k(  248) = (  -0.5000000   0.3750000   0.0000000), wk =   0.0078125
        k(  249) = (  -0.5000000   0.3750000   0.1250000), wk =   0.0078125
        k(  250) = (  -0.5000000   0.3750000   0.2500000), wk =   0.0078125
        k(  251) = (  -0.5000000   0.3750000   0.3750000), wk =   0.0078125
        k(  252) = (  -0.5000000   0.3750000  -0.5000000), wk =   0.0078125
        k(  253) = (  -0.5000000   0.3750000  -0.3750000), wk =   0.0078125
        k(  254) = (  -0.5000000   0.3750000  -0.2500000), wk =   0.0078125
        k(  255) = (  -0.5000000   0.3750000  -0.1250000), wk =   0.0078125
        k(  256) = (  -0.5000000  -0.5000000   0.0000000), wk =   0.0039062
        k(  257) = (  -0.5000000  -0.5000000   0.1250000), wk =   0.0078125
        k(  258) = (  -0.5000000  -0.5000000   0.2500000), wk =   0.0078125
        k(  259) = (  -0.5000000  -0.5000000   0.3750000), wk =   0.0078125
        k(  260) = (  -0.5000000  -0.5000000  -0.5000000), wk =   0.0039062

     Dense  grid:    80363 G-vectors     FFT dimensions: (  48,  48,  80)

     Smooth grid:    31251 G-vectors     FFT dimensions: (  36,  36,  60)

     Dynamical RAM for                 wfc:       0.06 MB

     Dynamical RAM for     wfc (w. buffer):       3.93 MB

     Dynamical RAM for           str. fact:       0.15 MB

     Dynamical RAM for           local pot:       0.00 MB

     Dynamical RAM for          nlocal pot:       0.24 MB

     Dynamical RAM for                qrad:      10.22 MB

     Dynamical RAM for          rho,v,vnew:       0.49 MB

     Dynamical RAM for               rhoin:       0.16 MB

     Dynamical RAM for            rho*nmix:       1.23 MB

     Dynamical RAM for           G-vectors:       0.30 MB

     Dynamical RAM for          h,s,v(r/c):       0.05 MB

     Dynamical RAM for          <psi|beta>:       0.02 MB

     Dynamical RAM for                 psi:       0.24 MB

     Dynamical RAM for                hpsi:       0.24 MB

     Dynamical RAM for                spsi:       0.24 MB

     Dynamical RAM for      wfcinit/wfcrot:       0.14 MB

     Dynamical RAM for           addusdens:       4.02 MB

     Dynamical RAM for          addusforce:       4.18 MB

     Dynamical RAM for         addusstress:       4.25 MB

     Estimated static dynamical RAM per process >      17.40 MB

     Estimated max dynamical RAM per process >      21.65 MB

     Estimated total dynamical RAM >       1.35 GB

     Check: negative core charge=   -0.000003

     Initial potential from superposition of free atoms

     starting charge   31.39954, renormalised to   32.00000
     Starting wfcs are   18 randomized atomic wfcs

     total cpu time spent up to now is        3.4 secs

     Self-consistent Calculation

     iteration #  1     ecut=    80.00 Ry     beta= 0.50
     Davidson diagonalization with overlap
     ethr =  1.00E-02,  avg # of iterations =  2.0

     total cpu time spent up to now is        4.2 secs

     total energy              =    -314.88705917 Ry
     Harris-Foulkes estimate   =    -315.45871792 Ry
     estimated scf accuracy    <       0.90462186 Ry

     iteration #  2     ecut=    80.00 Ry     beta= 0.50
     Davidson diagonalization with overlap
     ethr =  2.83E-03,  avg # of iterations =  2.9

     total cpu time spent up to now is        5.1 secs

     total energy              =    -315.12889675 Ry
     Harris-Foulkes estimate   =    -315.24597401 Ry
     estimated scf accuracy    <       0.27095973 Ry

     iteration #  3     ecut=    80.00 Ry     beta= 0.50
     Davidson diagonalization with overlap
     ethr =  8.47E-04,  avg # of iterations =  2.0

     total cpu time spent up to now is        5.8 secs

     total energy              =    -315.17538001 Ry
     Harris-Foulkes estimate   =    -315.17830902 Ry
     estimated scf accuracy    <       0.00981087 Ry

     iteration #  4     ecut=    80.00 Ry     beta= 0.50
     Davidson diagonalization with overlap
     ethr =  3.07E-05,  avg # of iterations =  1.9

     total cpu time spent up to now is        6.5 secs

     total energy              =    -315.17601060 Ry
     Harris-Foulkes estimate   =    -315.17603531 Ry
     estimated scf accuracy    <       0.00051709 Ry

     iteration #  5     ecut=    80.00 Ry     beta= 0.50
     Davidson diagonalization with overlap
     ethr =  1.62E-06,  avg # of iterations =  2.0

     total cpu time spent up to now is        7.2 secs

     total energy              =    -315.17606741 Ry
     Harris-Foulkes estimate   =    -315.17606746 Ry
     estimated scf accuracy    <       0.00002102 Ry

     iteration #  6     ecut=    80.00 Ry     beta= 0.50
     Davidson diagonalization with overlap
     ethr =  6.57E-08,  avg # of iterations =  2.2

     total cpu time spent up to now is        8.0 secs

     End of self-consistent calculation

          k = 0.0000 0.0000 0.0000 (  3935 PWs)   bands (ev):

   -66.9368 -66.9336 -33.9404 -33.9111 -33.9111 -33.9049 -33.9049 -33.8969
   -11.5428 -10.8266   1.1374   4.0292   4.0292   4.2128   4.2468   4.2468

     occupation numbers 
     1.0000   1.0000   1.0000   1.0000   1.0000   1.0000   1.0000   1.0000
     1.0000   1.0000   1.0000   1.0000   1.0000   1.0000   1.0000   1.0000

          k =-0.0000-0.0000 0.0771 (  3917 PWs)   bands (ev):

   -66.9367 -66.9337 -33.9387 -33.9108 -33.9108 -33.9051 -33.9051 -33.8985
   -11.5173 -10.8559   1.2195   4.0052   4.0372   4.0372   4.2382   4.2382

     occupation numbers 
     1.0000   1.0000   1.0000   1.0000   1.0000   1.0000   1.0000   1.0000
     1.0000   1.0000   1.0000   1.0000   1.0000   1.0000   1.0000   1.0000

          k =-0.0000-0.0000 0.1541 (  3910 PWs)   bands (ev):

   -66.9363 -66.9340 -33.9341 -33.9102 -33.9102 -33.9058 -33.9058 -33.9033
   -11.4441 -10.9383   1.4603   3.5106   4.0602   4.0602   4.2140   4.2140

     occupation numbers 
     1.0000   1.0000   1.0000   1.0000   1.0000   1.0000   1.0000   1.0000
     1.0000   1.0000   1.0000   1.0000   1.0000   1.0000   1.0000   1.0000

          k =-0.0000-0.0000 0.2312 (  3874 PWs)   bands (ev):

   -66.9358 -66.9346 -33.9270 -33.9104 -33.9092 -33.9091 -33.9068 -33.9068
   -11.3326 -11.0591   1.8435   2.9188   4.0948   4.0948   4.1780   4.1780

     occupation numbers 
     1.0000   1.0000   1.0000   1.0000   1.0000   1.0000   1.0000   1.0000
     1.0000   1.0000   1.0000   1.0000   1.0000   1.0000   1.0000   1.0000

          k = 0.0000 0.0000-0.3083 (  3904 PWs)   bands (ev):

   -66.9352 -66.9352 -33.9187 -33.9187 -33.9080 -33.9080 -33.9080 -33.9080
   -11.1980 -11.1974   2.3423   2.3427   4.1358   4.1358   4.1364   4.1364

     occupation numbers 
     1.0000   1.0000   1.0000   1.0000   1.0000   1.0000   1.0000   1.0000
     1.0000   1.0000   1.0000   1.0000   1.0000   1.0000   1.0000   1.0000

          k = 0.0000 0.1443-0.0000 (  3925 PWs)   bands (ev):

   -66.9364 -66.9334 -33.9386 -33.9152 -33.9124 -33.9096 -33.9057 -33.8977
   -11.4585 -10.7891   1.3007   3.5616   3.7742   3.9263   4.1849   4.2351

     occupation numbers 
     1.0000   1.0000   1.0000   1.0000   1.0000   1.0000   1.0000   1.0000
     1.0000   1.0000   1.0000   1.0000   1.0000   1.0000   1.0000   1.0000

          k =-0.0000 0.1443 0.0771 (  3912 PWs)   bands (ev):

   -66.9363 -66.9335 -33.9372 -33.9148 -33.9121 -33.9102 -33.9059 -33.8990
   -11.4344 -10.8162   1.3699   3.5012   3.7265   3.9375   4.1537   4.2227

     occupation numbers 
     1.0000   1.0000   1.0000   1.0000   1.0000   1.0000   1.0000   1.0000
     1.0000   1.0000   1.0000   1.0000   1.0000   1.0000   1.0000   1.0000

          k =-0.0000 0.1443 0.1541 (  3909 PWs)   bands (ev):

   -66.9360 -66.9338 -33.9333 -33.9138 -33.9119 -33.9114 -33.9067 -33.9022
   -11.3655 -10.8926   1.5723   3.2055   3.7347   3.9696   4.0840   4.1879

     occupation numbers 
     1.0000   1.0000   1.0000   1.0000   1.0000   1.0000   1.0000   1.0000
     1.0000   1.0000   1.0000   1.0000   1.0000   1.0000   1.0000   1.0000

          k =-0.0000 0.1443 0.2312 (  3916 PWs)   bands (ev):

   -66.9355 -66.9343 -33.9276 -33.9156 -33.9119 -33.9103 -33.9077 -33.9062
   -11.2606 -11.0049   1.8925   2.7645   3.8056   3.9959   4.0183   4.1364

     occupation numbers 
     1.0000   1.0000   1.0000   1.0000   1.0000   1.0000   1.0000   1.0000
     1.0000   1.0000   1.0000   1.0000   1.0000   1.0000   1.0000   1.0000

          k = 0.0000 0.1443-0.3083 (  3906 PWs)   bands (ev):

   -66.9349 -66.9349 -33.9212 -33.9211 -33.9095 -33.9095 -33.9090 -33.9090
   -11.1346 -11.1340   2.3037   2.3040   3.8985   3.8990   4.0765   4.0771

     occupation numbers 
     1.0000   1.0000   1.0000   1.0000   1.0000   1.0000   1.0000   1.0000
     1.0000   1.0000   1.0000   1.0000   1.0000   1.0000   1.0000   1.0000

          k = 0.0000 0.1443-0.2312 (  3916 PWs)   bands (ev):

   -66.9355 -66.9343 -33.9276 -33.9156 -33.9119 -33.9103 -33.9077 -33.9062
   -11.2606 -11.0049   1.8925   2.7645   3.8056   3.9959   4.0183   4.1364

     occupation numbers 
     1.0000   1.0000   1.0000   1.0000   1.0000   1.0000   1.0000   1.0000
     1.0000   1.0000   1.0000   1.0000   1.0000   1.0000   1.0000   1.0000

          k = 0.0000 0.1443-0.1541 (  3909 PWs)   bands (ev):

   -66.9360 -66.9338 -33.9333 -33.9138 -33.9119 -33.9114 -33.9067 -33.9022
   -11.3655 -10.8926   1.5723   3.2055   3.7347   3.9696   4.0840   4.1879

     occupation numbers 
     1.0000   1.0000   1.0000   1.0000   1.0000   1.0000   1.0000   1.0000
     1.0000   1.0000   1.0000   1.0000   1.0000   1.0000   1.0000   1.0000

          k = 0.0000 0.1443-0.0771 (  3912 PWs)   bands (ev):

   -66.9363 -66.9335 -33.9372 -33.9148 -33.9121 -33.9102 -33.9059 -33.8990
   -11.4344 -10.8162   1.3699   3.5012   3.7265   3.9375   4.1537   4.2227

     occupation numbers 
     1.0000   1.0000   1.0000   1.0000   1.0000   1.0000   1.0000   1.0000
     1.0000   1.0000   1.0000   1.0000   1.0000   1.0000   1.0000   1.0000

          k = 0.0000 0.2887-0.0000 (  3915 PWs)   bands (ev):

   -66.9354 -66.9330 -33.9351 -33.9242 -33.9208 -33.9154 -33.9076 -33.9003
   -11.2404 -10.7050   1.7500   2.5443   3.0590   3.7223   4.0702   4.1710

     occupation numbers 
     1.0000   1.0000   1.0000   1.0000   1.0000   1.0000   1.0000   1.0000
     1.0000   1.0000   1.0000   1.0000   1.0000   1.0000   1.0000   1.0000

          k = 0.0000 0.2887 0.0771 (  3908 PWs)   bands (ev):

   -66.9353 -66.9331 -33.9350 -33.9232 -33.9212 -33.9151 -33.9079 -33.9010
   -11.2206 -10.7260   1.7565   2.5417   3.0581   3.7382   4.0541   4.1526

     occupation numbers 
     1.0000   1.0000   1.0000   1.0000   1.0000   1.0000   1.0000   1.0000
     1.0000   1.0000   1.0000   1.0000   1.0000   1.0000   1.0000   1.0000

          k =-0.0000 0.2887 0.1541 (  3916 PWs)   bands (ev):

   -66.9351 -66.9334 -33.9343 -33.9241 -33.9191 -33.9142 -33.9087 -33.9030
   -11.1641 -10.7855   1.7943   2.4506   3.1491   3.7839   3.9839   4.1009

     occupation numbers 
     1.0000   1.0000   1.0000   1.0000   1.0000   1.0000   1.0000   1.0000
     1.0000   1.0000   1.0000   1.0000   1.0000   1.0000   1.0000   1.0000

          k =-0.0000 0.2887 0.2312 (  3907 PWs)   bands (ev):

   -66.9347 -66.9337 -33.9326 -33.9270 -33.9148 -33.9130 -33.9100 -33.9061
   -11.0787 -10.8738   1.8907   2.2572   3.3627   3.8338   3.8537   4.0251

     occupation numbers 
     1.0000   1.0000   1.0000   1.0000   1.0000   1.0000   1.0000   1.0000
     1.0000   1.0000   1.0000   1.0000   1.0000   1.0000   1.0000   1.0000

          k = 0.0000 0.2887-0.3083 (  3900 PWs)   bands (ev):

   -66.9342 -66.9342 -33.9300 -33.9300 -33.9115 -33.9115 -33.9102 -33.9102
   -10.9771 -10.9765   2.0520   2.0520   3.6131   3.6131   3.9379   3.9385

     occupation numbers 
     1.0000   1.0000   1.0000   1.0000   1.0000   1.0000   1.0000   1.0000
     1.0000   1.0000   1.0000   1.0000   1.0000   1.0000   1.0000   1.0000

          k = 0.0000 0.2887-0.2312 (  3907 PWs)   bands (ev):

   -66.9347 -66.9337 -33.9326 -33.9270 -33.9148 -33.9130 -33.9100 -33.9061
   -11.0787 -10.8738   1.8907   2.2572   3.3627   3.8338   3.8537   4.0251

     occupation numbers 
     1.0000   1.0000   1.0000   1.0000   1.0000   1.0000   1.0000   1.0000
     1.0000   1.0000   1.0000   1.0000   1.0000   1.0000   1.0000   1.0000

          k = 0.0000 0.2887-0.1541 (  3916 PWs)   bands (ev):

   -66.9351 -66.9334 -33.9343 -33.9241 -33.9191 -33.9142 -33.9087 -33.9030
   -11.1641 -10.7855   1.7943   2.4506   3.1491   3.7839   3.9839   4.1009

     occupation numbers 
     1.0000   1.0000   1.0000   1.0000   1.0000   1.0000   1.0000   1.0000
     1.0000   1.0000   1.0000   1.0000   1.0000   1.0000   1.0000   1.0000

          k = 0.0000 0.2887-0.0771 (  3908 PWs)   bands (ev):

   -66.9353 -66.9331 -33.9350 -33.9232 -33.9212 -33.9151 -33.9079 -33.9010
   -11.2206 -10.7260   1.7565   2.5417   3.0581   3.7382   4.0541   4.1526

     occupation numbers 
     1.0000   1.0000   1.0000   1.0000   1.0000   1.0000   1.0000   1.0000
     1.0000   1.0000   1.0000   1.0000   1.0000   1.0000   1.0000   1.0000

          k = 0.0000 0.4330-0.0000 (  3915 PWs)   bands (ev):

   -66.9343 -66.9327 -33.9391 -33.9324 -33.9237 -33.9183 -33.9096 -33.9043
   -10.9874 -10.6435   1.7432   2.3372   2.4816   3.5465   3.8249   4.0899

     occupation numbers 
     1.0000   1.0000   1.0000   1.0000   1.0000   1.0000   1.0000   1.0000
     1.0000   1.0000   1.0000   1.0000   1.0000   1.0000   1.0000   1.0000

          k = 0.0000 0.4330 0.0771 (  3903 PWs)   bands (ev):

   -66.9342 -66.9328 -33.9398 -33.9333 -33.9220 -33.9180 -33.9099 -33.9044
   -10.9740 -10.6561   1.6815   2.2128   2.6565   3.5655   3.8530   4.0673

     occupation numbers 
     1.0000   1.0000   1.0000   1.0000   1.0000   1.0000   1.0000   1.0000
     1.0000   1.0000   1.0000   1.0000   1.0000   1.0000   1.0000   1.0000

          k = 0.0000 0.4330 0.1541 (  3905 PWs)   bands (ev):

   -66.9341 -66.9329 -33.9410 -33.9355 -33.9180 -33.9170 -33.9109 -33.9051
   -10.9358 -10.6924   1.5907   2.0026   2.9714   3.6201   3.8778   4.0037

     occupation numbers 
     1.0000   1.0000   1.0000   1.0000   1.0000   1.0000   1.0000   1.0000
     1.0000   1.0000   1.0000   1.0000   1.0000   1.0000   1.0000   1.0000

          k =-0.0000 0.4330 0.2312 (  3917 PWs)   bands (ev):

   -66.9338 -66.9332 -33.9413 -33.9381 -33.9156 -33.9135 -33.9123 -33.9067
   -10.8791 -10.7473   1.5657   1.7907   3.3128   3.7038   3.8078   3.9112

     occupation numbers 
     1.0000   1.0000   1.0000   1.0000   1.0000   1.0000   1.0000   1.0000
     1.0000   1.0000   1.0000   1.0000   1.0000   1.0000   1.0000   1.0000

          k = 0.0000 0.4330-0.3083 (  3922 PWs)   bands (ev):

   -66.9335 -66.9335 -33.9403 -33.9403 -33.9140 -33.9140 -33.9095 -33.9095
   -10.8132 -10.8126   1.6344   1.6346   3.6104   3.6107   3.8054   3.8059

     occupation numbers 
     1.0000   1.0000   1.0000   1.0000   1.0000   1.0000   1.0000   1.0000
     1.0000   1.0000   1.0000   1.0000   1.0000   1.0000   1.0000   1.0000

          k = 0.0000 0.4330-0.2312 (  3917 PWs)   bands (ev):

   -66.9338 -66.9332 -33.9413 -33.9381 -33.9156 -33.9135 -33.9123 -33.9067
   -10.8791 -10.7473   1.5658   1.7907   3.3128   3.7038   3.8078   3.9112

     occupation numbers 
     1.0000   1.0000   1.0000   1.0000   1.0000   1.0000   1.0000   1.0000
     1.0000   1.0000   1.0000   1.0000   1.0000   1.0000   1.0000   1.0000

          k = 0.0000 0.4330-0.1541 (  3905 PWs)   bands (ev):

   -66.9341 -66.9329 -33.9410 -33.9355 -33.9180 -33.9170 -33.9109 -33.9051
   -10.9358 -10.6924   1.5907   2.0026   2.9714   3.6201   3.8778   4.0037

     occupation numbers 
     1.0000   1.0000   1.0000   1.0000   1.0000   1.0000   1.0000   1.0000
     1.0000   1.0000   1.0000   1.0000   1.0000   1.0000   1.0000   1.0000

          k = 0.0000 0.4330-0.0771 (  3903 PWs)   bands (ev):

   -66.9342 -66.9328 -33.9398 -33.9333 -33.9220 -33.9180 -33.9099 -33.9044
   -10.9740 -10.6561   1.6815   2.2128   2.6565   3.5655   3.8530   4.0673

     occupation numbers 
     1.0000   1.0000   1.0000   1.0000   1.0000   1.0000   1.0000   1.0000
     1.0000   1.0000   1.0000   1.0000   1.0000   1.0000   1.0000   1.0000

          k =-0.0000-0.5774 0.0000 (  3904 PWs)   bands (ev):

   -66.9337 -66.9327 -33.9429 -33.9369 -33.9206 -33.9195 -33.9104 -33.9070
   -10.8558 -10.6407   1.4520   2.2190   2.7566   3.4789   3.5941   4.0543

     occupation numbers 
     1.0000   1.0000   1.0000   1.0000   1.0000   1.0000   1.0000   1.0000
     1.0000   1.0000   1.0000   1.0000   1.0000   1.0000   1.0000   1.0000

          k =-0.0000-0.5774 0.0771 (  3932 PWs)   bands (ev):

   -66.9337 -66.9327 -33.9436 -33.9378 -33.9192 -33.9192 -33.9108 -33.9068
   -10.8469 -10.6480   1.4172   2.1059   2.8593   3.4988   3.6659   4.0301

     occupation numbers 
     1.0000   1.0000   1.0000   1.0000   1.0000   1.0000   1.0000   1.0000
     1.0000   1.0000   1.0000   1.0000   1.0000   1.0000   1.0000   1.0000

          k =-0.0000-0.5774 0.1541 (  3904 PWs)   bands (ev):

   -66.9336 -66.9328 -33.9448 -33.9401 -33.9182 -33.9159 -33.9118 -33.9067
   -10.8217 -10.6694   1.3617   1.8627   3.1091   3.5564   3.7770   3.9625

     occupation numbers 
     1.0000   1.0000   1.0000   1.0000   1.0000   1.0000   1.0000   1.0000
     1.0000   1.0000   1.0000   1.0000   1.0000   1.0000   1.0000   1.0000

          k =-0.0000-0.5774 0.2312 (  3906 PWs)   bands (ev):

   -66.9334 -66.9330 -33.9453 -33.9427 -33.9167 -33.9132 -33.9122 -33.9073
   -10.7849 -10.7024   1.3577   1.6188   3.4035   3.6447   3.7883   3.8643

     occupation numbers 
     1.0000   1.0000   1.0000   1.0000   1.0000   1.0000   1.0000   1.0000
     1.0000   1.0000   1.0000   1.0000   1.0000   1.0000   1.0000   1.0000

          k = 0.0000-0.5774-0.3083 (  3900 PWs)   bands (ev):

   -66.9332 -66.9332 -33.9446 -33.9446 -33.9150 -33.9150 -33.9091 -33.9091
   -10.7432 -10.7426   1.4419   1.4421   3.6533   3.6536   3.7521   3.7527

     occupation numbers 
     1.0000   1.0000   1.0000   1.0000   1.0000   1.0000   1.0000   1.0000
     1.0000   1.0000   1.0000   1.0000   1.0000   1.0000   1.0000   1.0000

          k = 0.1250 0.0722-0.0000 (  3925 PWs)   bands (ev):

   -66.9364 -66.9334 -33.9386 -33.9152 -33.9123 -33.9096 -33.9057 -33.8977
   -11.4585 -10.7891   1.3007   3.5616   3.7742   3.9263   4.1849   4.2351

     occupation numbers 
     1.0000   1.0000   1.0000   1.0000   1.0000   1.0000   1.0000   1.0000
     1.0000   1.0000   1.0000   1.0000   1.0000   1.0000   1.0000   1.0000

          k = 0.1250 0.0722 0.0771 (  3912 PWs)   bands (ev):

   -66.9363 -66.9335 -33.9372 -33.9148 -33.9121 -33.9102 -33.9059 -33.8990
   -11.4344 -10.8162   1.3699   3.5012   3.7265   3.9375   4.1537   4.2227

     occupation numbers 
     1.0000   1.0000   1.0000   1.0000   1.0000   1.0000   1.0000   1.0000
     1.0000   1.0000   1.0000   1.0000   1.0000   1.0000   1.0000   1.0000

          k = 0.1250 0.0722 0.1541 (  3909 PWs)   bands (ev):

   -66.9360 -66.9338 -33.9333 -33.9138 -33.9119 -33.9114 -33.9067 -33.9022
   -11.3655 -10.8926   1.5723   3.2055   3.7347   3.9696   4.0840   4.1879

     occupation numbers 
     1.0000   1.0000   1.0000   1.0000   1.0000   1.0000   1.0000   1.0000
     1.0000   1.0000   1.0000   1.0000   1.0000   1.0000   1.0000   1.0000

          k = 0.1250 0.0722 0.2312 (  3916 PWs)   bands (ev):

   -66.9355 -66.9343 -33.9276 -33.9156 -33.9119 -33.9103 -33.9077 -33.9062
   -11.2606 -11.0049   1.8925   2.7645   3.8056   3.9959   4.0183   4.1364

     occupation numbers 
     1.0000   1.0000   1.0000   1.0000   1.0000   1.0000   1.0000   1.0000
     1.0000   1.0000   1.0000   1.0000   1.0000   1.0000   1.0000   1.0000

          k = 0.1250 0.0722-0.3083 (  3906 PWs)   bands (ev):

   -66.9349 -66.9349 -33.9212 -33.9211 -33.9095 -33.9095 -33.9090 -33.9090
   -11.1346 -11.1340   2.3037   2.3040   3.8985   3.8990   4.0765   4.0771

     occupation numbers 
     1.0000   1.0000   1.0000   1.0000   1.0000   1.0000   1.0000   1.0000
     1.0000   1.0000   1.0000   1.0000   1.0000   1.0000   1.0000   1.0000

          k = 0.1250 0.0722-0.2312 (  3916 PWs)   bands (ev):

   -66.9355 -66.9343 -33.9276 -33.9156 -33.9119 -33.9103 -33.9077 -33.9062
   -11.2606 -11.0049   1.8925   2.7645   3.8056   3.9959   4.0183   4.1364

     occupation numbers 
     1.0000   1.0000   1.0000   1.0000   1.0000   1.0000   1.0000   1.0000
     1.0000   1.0000   1.0000   1.0000   1.0000   1.0000   1.0000   1.0000

          k = 0.1250 0.0722-0.1541 (  3909 PWs)   bands (ev):

   -66.9360 -66.9338 -33.9333 -33.9138 -33.9119 -33.9114 -33.9067 -33.9022
   -11.3655 -10.8926   1.5723   3.2055   3.7347   3.9696   4.0840   4.1879

     occupation numbers 
     1.0000   1.0000   1.0000   1.0000   1.0000   1.0000   1.0000   1.0000
     1.0000   1.0000   1.0000   1.0000   1.0000   1.0000   1.0000   1.0000

          k = 0.1250 0.0722-0.0771 (  3912 PWs)   bands (ev):

   -66.9363 -66.9335 -33.9372 -33.9148 -33.9121 -33.9102 -33.9059 -33.8990
   -11.4344 -10.8162   1.3699   3.5012   3.7265   3.9375   4.1537   4.2227

     occupation numbers 
     1.0000   1.0000   1.0000   1.0000   1.0000   1.0000   1.0000   1.0000
     1.0000   1.0000   1.0000   1.0000   1.0000   1.0000   1.0000   1.0000

          k = 0.1250 0.2165-0.0000 (  3919 PWs)   bands (ev):

   -66.9357 -66.9331 -33.9358 -33.9209 -33.9186 -33.9137 -33.9077 -33.8995
   -11.3070 -10.7283   1.6079   2.8958   3.1823   3.8362   4.0970   4.1141

     occupation numbers 
     1.0000   1.0000   1.0000   1.0000   1.0000   1.0000   1.0000   1.0000
     1.0000   1.0000   1.0000   1.0000   1.0000   1.0000   1.0000   1.0000

          k = 0.1250 0.2165 0.0771 (  3917 PWs)   bands (ev):

   -66.9356 -66.9332 -33.9351 -33.9201 -33.9190 -33.9138 -33.9080 -33.9003
   -11.2859 -10.7512   1.6437   2.8398   3.2259   3.8009   4.0806   4.1149

     occupation numbers 
     1.0000   1.0000   1.0000   1.0000   1.0000   1.0000   1.0000   1.0000
     1.0000   1.0000   1.0000   1.0000   1.0000   1.0000   1.0000   1.0000

          k = 0.1250 0.2165 0.1541 (  3903 PWs)   bands (ev):

   -66.9353 -66.9335 -33.9332 -33.9206 -33.9177 -33.9136 -33.9088 -33.9025
   -11.2252 -10.8161   1.7515   2.6738   3.3454   3.7529   4.0365   4.0806

     occupation numbers 
     1.0000   1.0000   1.0000   1.0000   1.0000   1.0000   1.0000   1.0000
     1.0000   1.0000   1.0000   1.0000   1.0000   1.0000   1.0000   1.0000

          k = 0.1250 0.2165 0.2312 (  3904 PWs)   bands (ev):

   -66.9349 -66.9339 -33.9303 -33.9234 -33.9142 -33.9128 -33.9099 -33.9058
   -11.1335 -10.9121   1.9291   2.4292   3.5091   3.7291   3.9808   4.0001

     occupation numbers 
     1.0000   1.0000   1.0000   1.0000   1.0000   1.0000   1.0000   1.0000
     1.0000   1.0000   1.0000   1.0000   1.0000   1.0000   1.0000   1.0000

          k = 0.1250 0.2165-0.3083 (  3904 PWs)   bands (ev):

   -66.9344 -66.9344 -33.9269 -33.9269 -33.9118 -33.9118 -33.9096 -33.9096
   -11.0240 -11.0234   2.1645   2.1646   3.6615   3.6617   3.9494   3.9499

     occupation numbers 
     1.0000   1.0000   1.0000   1.0000   1.0000   1.0000   1.0000   1.0000
     1.0000   1.0000   1.0000   1.0000   1.0000   1.0000   1.0000   1.0000

          k = 0.1250 0.2165-0.2312 (  3904 PWs)   bands (ev):

   -66.9349 -66.9339 -33.9303 -33.9234 -33.9142 -33.9128 -33.9099 -33.9058
   -11.1335 -10.9121   1.9291   2.4292   3.5091   3.7291   3.9808   4.0001

     occupation numbers 
     1.0000   1.0000   1.0000   1.0000   1.0000   1.0000   1.0000   1.0000
     1.0000   1.0000   1.0000   1.0000   1.0000   1.0000   1.0000   1.0000

          k = 0.1250 0.2165-0.1541 (  3903 PWs)   bands (ev):

   -66.9353 -66.9335 -33.9332 -33.9206 -33.9177 -33.9136 -33.9088 -33.9025
   -11.2252 -10.8161   1.7515   2.6738   3.3454   3.7529   4.0365   4.0806

     occupation numbers 
     1.0000   1.0000   1.0000   1.0000   1.0000   1.0000   1.0000   1.0000
     1.0000   1.0000   1.0000   1.0000   1.0000   1.0000   1.0000   1.0000

          k = 0.1250 0.2165-0.0771 (  3917 PWs)   bands (ev):

   -66.9356 -66.9332 -33.9351 -33.9201 -33.9190 -33.9138 -33.9080 -33.9003
   -11.2859 -10.7512   1.6437   2.8398   3.2259   3.8009   4.0806   4.1149

     occupation numbers 
     1.0000   1.0000   1.0000   1.0000   1.0000   1.0000   1.0000   1.0000
     1.0000   1.0000   1.0000   1.0000   1.0000   1.0000   1.0000   1.0000

          k = 0.1250 0.3608-0.0000 (  3895 PWs)   bands (ev):

   -66.9346 -66.9328 -33.9353 -33.9288 -33.9244 -33.9183 -33.9107 -33.9029
   -11.0691 -10.6562   2.0839   2.1567   2.6700   3.5143   3.9231   3.9436

     occupation numbers 
     1.0000   1.0000   1.0000   1.0000   1.0000   1.0000   1.0000   1.0000
     1.0000   1.0000   1.0000   1.0000   1.0000   1.0000   1.0000   1.0000

          k = 0.1250 0.3608 0.0771 (  3897 PWs)   bands (ev):

   -66.9346 -66.9328 -33.9361 -33.9294 -33.9226 -33.9181 -33.9111 -33.9031
   -11.0534 -10.6718   1.9659   2.1797   2.7840   3.4917   3.8814   3.9931

     occupation numbers 
     1.0000   1.0000   1.0000   1.0000   1.0000   1.0000   1.0000   1.0000
     1.0000   1.0000   1.0000   1.0000   1.0000   1.0000   1.0000   1.0000

          k = 0.1250 0.3608 0.1541 (  3905 PWs)   bands (ev):

   -66.9344 -66.9331 -33.9372 -33.9312 -33.9189 -33.9172 -33.9119 -33.9040
   -11.0085 -10.7164   1.8475   2.0984   3.0378   3.4821   3.8108   4.0284

     occupation numbers 
     1.0000   1.0000   1.0000   1.0000   1.0000   1.0000   1.0000   1.0000
     1.0000   1.0000   1.0000   1.0000   1.0000   1.0000   1.0000   1.0000

          k = 0.1250 0.3608 0.2312 (  3915 PWs)   bands (ev):

   -66.9341 -66.9334 -33.9372 -33.9337 -33.9169 -33.9146 -33.9122 -33.9059
   -10.9414 -10.7832   1.8077   1.9663   3.2883   3.5135   3.7573   3.9789

     occupation numbers 
     1.0000   1.0000   1.0000   1.0000   1.0000   1.0000   1.0000   1.0000
     1.0000   1.0000   1.0000   1.0000   1.0000   1.0000   1.0000   1.0000

          k = 0.1250 0.3608-0.3083 (  3918 PWs)   bands (ev):

   -66.9337 -66.9337 -33.9359 -33.9359 -33.9154 -33.9154 -33.9090 -33.9090
   -10.8625 -10.8619   1.8541   1.8542   3.4548   3.4549   3.8481   3.8484

     occupation numbers 
     1.0000   1.0000   1.0000   1.0000   1.0000   1.0000   1.0000   1.0000
     1.0000   1.0000   1.0000   1.0000   1.0000   1.0000   1.0000   1.0000

          k = 0.1250 0.3608-0.2312 (  3915 PWs)   bands (ev):

   -66.9341 -66.9334 -33.9372 -33.9337 -33.9169 -33.9146 -33.9122 -33.9059
   -10.9414 -10.7832   1.8077   1.9663   3.2884   3.5134   3.7573   3.9789

     occupation numbers 
     1.0000   1.0000   1.0000   1.0000   1.0000   1.0000   1.0000   1.0000
     1.0000   1.0000   1.0000   1.0000   1.0000   1.0000   1.0000   1.0000

          k = 0.1250 0.3608-0.1541 (  3905 PWs)   bands (ev):

   -66.9344 -66.9331 -33.9372 -33.9312 -33.9189 -33.9172 -33.9119 -33.9040
   -11.0085 -10.7164   1.8475   2.0984   3.0379   3.4820   3.8108   4.0284

     occupation numbers 
     1.0000   1.0000   1.0000   1.0000   1.0000   1.0000   1.0000   1.0000
     1.0000   1.0000   1.0000   1.0000   1.0000   1.0000   1.0000   1.0000

          k = 0.1250 0.3608-0.0771 (  3897 PWs)   bands (ev):

   -66.9346 -66.9328 -33.9361 -33.9294 -33.9226 -33.9181 -33.9111 -33.9031
   -11.0534 -10.6718   1.9659   2.1797   2.7840   3.4917   3.8814   3.9931

     occupation numbers 
     1.0000   1.0000   1.0000   1.0000   1.0000   1.0000   1.0000   1.0000
     1.0000   1.0000   1.0000   1.0000   1.0000   1.0000   1.0000   1.0000

          k = 0.1250 0.5052-0.0000 (  3908 PWs)   bands (ev):

   -66.9338 -66.9327 -33.9404 -33.9350 -33.9224 -33.9197 -33.9128 -33.9069
   -10.8621 -10.6364   1.6194   2.3441   2.7174   3.2681   3.6432   3.8235

     occupation numbers 
     1.0000   1.0000   1.0000   1.0000   1.0000   1.0000   1.0000   1.0000
     1.0000   1.0000   1.0000   1.0000   1.0000   1.0000   1.0000   1.0000

          k = 0.1250 0.5052 0.0771 (  3905 PWs)   bands (ev):

   -66.9337 -66.9327 -33.9411 -33.9359 -33.9221 -33.9182 -33.9132 -33.9066
   -10.8528 -10.6442   1.5884   2.2119   2.8208   3.3048   3.6704   3.8381

     occupation numbers 
     1.0000   1.0000   1.0000   1.0000   1.0000   1.0000   1.0000   1.0000
     1.0000   1.0000   1.0000   1.0000   1.0000   1.0000   1.0000   1.0000

          k = 0.1250 0.5052 0.1541 (  3911 PWs)   bands (ev):

   -66.9336 -66.9328 -33.9424 -33.9382 -33.9212 -33.9152 -33.9140 -33.9063
   -10.8266 -10.6668   1.5351   1.9743   2.9804   3.4405   3.6266   3.9217

     occupation numbers 
     1.0000   1.0000   1.0000   1.0000   1.0000   1.0000   1.0000   1.0000
     1.0000   1.0000   1.0000   1.0000   1.0000   1.0000   1.0000   1.0000

          k = 0.1250 0.5052 0.2312 (  3911 PWs)   bands (ev):

   -66.9334 -66.9330 -33.9431 -33.9407 -33.9198 -33.9161 -33.9111 -33.9067
   -10.7882 -10.7016   1.5244   1.7510   3.1360   3.4501   3.7007   3.9591

     occupation numbers 
     1.0000   1.0000   1.0000   1.0000   1.0000   1.0000   1.0000   1.0000
     1.0000   1.0000   1.0000   1.0000   1.0000   1.0000   1.0000   1.0000

          k = 0.1250 0.5052-0.3083 (  3906 PWs)   bands (ev):

   -66.9332 -66.9332 -33.9425 -33.9425 -33.9180 -33.9180 -33.9083 -33.9083
   -10.7445 -10.7438   1.5940   1.5942   3.2975   3.2978   3.8775   3.8775

     occupation numbers 
     1.0000   1.0000   1.0000   1.0000   1.0000   1.0000   1.0000   1.0000
     1.0000   1.0000   1.0000   1.0000   1.0000   1.0000   1.0000   1.0000

          k = 0.1250 0.5052-0.2312 (  3911 PWs)   bands (ev):

   -66.9334 -66.9330 -33.9431 -33.9407 -33.9198 -33.9161 -33.9111 -33.9066
   -10.7882 -10.7016   1.5244   1.7510   3.1361   3.4501   3.7008   3.9591

     occupation numbers 
     1.0000   1.0000   1.0000   1.0000   1.0000   1.0000   1.0000   1.0000
     1.0000   1.0000   1.0000   1.0000   1.0000   1.0000   1.0000   1.0000

          k = 0.1250 0.5052-0.1541 (  3911 PWs)   bands (ev):

   -66.9336 -66.9328 -33.9424 -33.9382 -33.9212 -33.9152 -33.9140 -33.9063
   -10.8266 -10.6668   1.5351   1.9743   2.9805   3.4405   3.6266   3.9217

     occupation numbers 
     1.0000   1.0000   1.0000   1.0000   1.0000   1.0000   1.0000   1.0000
     1.0000   1.0000   1.0000   1.0000   1.0000   1.0000   1.0000   1.0000

          k = 0.1250 0.5052-0.0771 (  3905 PWs)   bands (ev):

   -66.9337 -66.9327 -33.9411 -33.9359 -33.9221 -33.9182 -33.9132 -33.9066
   -10.8528 -10.6442   1.5884   2.2119   2.8208   3.3048   3.6704   3.8381

     occupation numbers 
     1.0000   1.0000   1.0000   1.0000   1.0000   1.0000   1.0000   1.0000
     1.0000   1.0000   1.0000   1.0000   1.0000   1.0000   1.0000   1.0000

          k = 0.1250-0.5052-0.0000 (  3908 PWs)   bands (ev):

   -66.9338 -66.9327 -33.9404 -33.9350 -33.9224 -33.9197 -33.9128 -33.9069
   -10.8621 -10.6364   1.6194   2.3441   2.7174   3.2681   3.6432   3.8235

     occupation numbers 
     1.0000   1.0000   1.0000   1.0000   1.0000   1.0000   1.0000   1.0000
     1.0000   1.0000   1.0000   1.0000   1.0000   1.0000   1.0000   1.0000

          k = 0.1250-0.5052 0.0771 (  3905 PWs)   bands (ev):

   -66.9337 -66.9327 -33.9411 -33.9359 -33.9221 -33.9182 -33.9132 -33.9066
   -10.8528 -10.6442   1.5884   2.2119   2.8208   3.3048   3.6704   3.8381

     occupation numbers 
     1.0000   1.0000   1.0000   1.0000   1.0000   1.0000   1.0000   1.0000
     1.0000   1.0000   1.0000   1.0000   1.0000   1.0000   1.0000   1.0000

          k = 0.1250-0.5052 0.1541 (  3911 PWs)   bands (ev):

   -66.9336 -66.9328 -33.9424 -33.9382 -33.9212 -33.9152 -33.9140 -33.9063
   -10.8266 -10.6668   1.5351   1.9743   2.9805   3.4405   3.6266   3.9217

     occupation numbers 
     1.0000   1.0000   1.0000   1.0000   1.0000   1.0000   1.0000   1.0000
     1.0000   1.0000   1.0000   1.0000   1.0000   1.0000   1.0000   1.0000

          k = 0.1250-0.5052 0.2312 (  3911 PWs)   bands (ev):

   -66.9334 -66.9330 -33.9431 -33.9407 -33.9198 -33.9161 -33.9111 -33.9067
   -10.7882 -10.7016   1.5244   1.7510   3.1361   3.4501   3.7008   3.9591

     occupation numbers 
     1.0000   1.0000   1.0000   1.0000   1.0000   1.0000   1.0000   1.0000
     1.0000   1.0000   1.0000   1.0000   1.0000   1.0000   1.0000   1.0000

          k = 0.1250-0.5052-0.3083 (  3906 PWs)   bands (ev):

   -66.9332 -66.9332 -33.9425 -33.9425 -33.9180 -33.9180 -33.9083 -33.9083
   -10.7445 -10.7438   1.5940   1.5942   3.2975   3.2978   3.8775   3.8775

     occupation numbers 
     1.0000   1.0000   1.0000   1.0000   1.0000   1.0000   1.0000   1.0000
     1.0000   1.0000   1.0000   1.0000   1.0000   1.0000   1.0000   1.0000

          k = 0.1250-0.5052-0.2312 (  3911 PWs)   bands (ev):

   -66.9334 -66.9330 -33.9431 -33.9407 -33.9198 -33.9161 -33.9111 -33.9066
   -10.7882 -10.7016   1.5244   1.7510   3.1361   3.4501   3.7007   3.9591

     occupation numbers 
     1.0000   1.0000   1.0000   1.0000   1.0000   1.0000   1.0000   1.0000
     1.0000   1.0000   1.0000   1.0000   1.0000   1.0000   1.0000   1.0000

          k = 0.1250-0.5052-0.1541 (  3911 PWs)   bands (ev):

   -66.9336 -66.9328 -33.9424 -33.9382 -33.9212 -33.9152 -33.9140 -33.9063
   -10.8266 -10.6668   1.5351   1.9743   2.9804   3.4405   3.6266   3.9217

     occupation numbers 
     1.0000   1.0000   1.0000   1.0000   1.0000   1.0000   1.0000   1.0000
     1.0000   1.0000   1.0000   1.0000   1.0000   1.0000   1.0000   1.0000

          k = 0.1250-0.5052-0.0771 (  3905 PWs)   bands (ev):

   -66.9337 -66.9327 -33.9411 -33.9359 -33.9221 -33.9182 -33.9132 -33.9066
   -10.8528 -10.6442   1.5884   2.2119   2.8208   3.3048   3.6704   3.8381

     occupation numbers 
     1.0000   1.0000   1.0000   1.0000   1.0000   1.0000   1.0000   1.0000
     1.0000   1.0000   1.0000   1.0000   1.0000   1.0000   1.0000   1.0000

          k = 0.1250-0.3608-0.0000 (  3895 PWs)   bands (ev):

   -66.9346 -66.9328 -33.9353 -33.9288 -33.9244 -33.9183 -33.9107 -33.9029
   -11.0691 -10.6562   2.0839   2.1567   2.6700   3.5143   3.9231   3.9436

     occupation numbers 
     1.0000   1.0000   1.0000   1.0000   1.0000   1.0000   1.0000   1.0000
     1.0000   1.0000   1.0000   1.0000   1.0000   1.0000   1.0000   1.0000

          k = 0.1250-0.3608 0.0771 (  3897 PWs)   bands (ev):

   -66.9346 -66.9328 -33.9361 -33.9294 -33.9226 -33.9181 -33.9111 -33.9031
   -11.0534 -10.6718   1.9659   2.1797   2.7840   3.4916   3.8814   3.9931

     occupation numbers 
     1.0000   1.0000   1.0000   1.0000   1.0000   1.0000   1.0000   1.0000
     1.0000   1.0000   1.0000   1.0000   1.0000   1.0000   1.0000   1.0000

          k = 0.1250-0.3608 0.1541 (  3905 PWs)   bands (ev):

   -66.9344 -66.9331 -33.9372 -33.9312 -33.9189 -33.9172 -33.9119 -33.9040
   -11.0085 -10.7164   1.8475   2.0984   3.0379   3.4820   3.8108   4.0284

     occupation numbers 
     1.0000   1.0000   1.0000   1.0000   1.0000   1.0000   1.0000   1.0000
     1.0000   1.0000   1.0000   1.0000   1.0000   1.0000   1.0000   1.0000

          k = 0.1250-0.3608 0.2312 (  3915 PWs)   bands (ev):

   -66.9341 -66.9334 -33.9372 -33.9337 -33.9169 -33.9146 -33.9122 -33.9059
   -10.9414 -10.7832   1.8077   1.9663   3.2884   3.5134   3.7573   3.9789

     occupation numbers 
     1.0000   1.0000   1.0000   1.0000   1.0000   1.0000   1.0000   1.0000
     1.0000   1.0000   1.0000   1.0000   1.0000   1.0000   1.0000   1.0000

          k = 0.1250-0.3608-0.3083 (  3918 PWs)   bands (ev):

   -66.9337 -66.9337 -33.9359 -33.9359 -33.9154 -33.9154 -33.9090 -33.9090
   -10.8625 -10.8619   1.8541   1.8542   3.4548   3.4549   3.8481   3.8484

     occupation numbers 
     1.0000   1.0000   1.0000   1.0000   1.0000   1.0000   1.0000   1.0000
     1.0000   1.0000   1.0000   1.0000   1.0000   1.0000   1.0000   1.0000

          k = 0.1250-0.3608-0.2312 (  3915 PWs)   bands (ev):

[...]

          k =-0.5000-0.1443 0.0771 (  3905 PWs)   bands (ev):

   -66.9370 -66.9361 -33.9444 -33.9392 -33.9254 -33.9215 -33.9166 -33.9100
   -10.8540 -10.6456   1.5870   2.2102   2.8191   3.3031   3.6685   3.8363

     occupation numbers 
     1.0000   1.0000   1.0000   1.0000   1.0000   1.0000   1.0000   1.0000
     1.0000   1.0000   1.0000   1.0000   1.0000   1.0000   1.0000   1.0000

          k =-0.5000-0.1443 0.1541 (  3913 PWs)   bands (ev):

   -66.9369 -66.9362 -33.9457 -33.9415 -33.9245 -33.9186 -33.9174 -33.9096
   -10.8278 -10.6682   1.5337   1.9727   2.9788   3.4387   3.6248   3.9198

     occupation numbers 
     1.0000   1.0000   1.0000   1.0000   1.0000   1.0000   1.0000   1.0000
     1.0000   1.0000   1.0000   1.0000   1.0000   1.0000   1.0000   1.0000

          k =-0.5000-0.1443 0.2312 (  3911 PWs)   bands (ev):

   -66.9368 -66.9363 -33.9464 -33.9439 -33.9231 -33.9195 -33.9144 -33.9100
   -10.7894 -10.7029   1.5230   1.7495   3.1344   3.4484   3.6989   3.9571

     occupation numbers 
     1.0000   1.0000   1.0000   1.0000   1.0000   1.0000   1.0000   1.0000
     1.0000   1.0000   1.0000   1.0000   1.0000   1.0000   1.0000   1.0000

          k =-0.5000-0.1443-0.3082 (  3908 PWs)   bands (ev):

   -66.9365 -66.9365 -33.9457 -33.9457 -33.9213 -33.9213 -33.9116 -33.9116
   -10.7454 -10.7454   1.5926   1.5927   3.2960   3.2960   3.8756   3.8756

     occupation numbers 
     1.0000   1.0000   1.0000   1.0000   1.0000   1.0000   1.0000   1.0000
     1.0000   1.0000   1.0000   1.0000   1.0000   1.0000   1.0000   1.0000

          k =-0.5000-0.1443-0.2312 (  3911 PWs)   bands (ev):

   -66.9368 -66.9363 -33.9464 -33.9439 -33.9231 -33.9195 -33.9144 -33.9100
   -10.7894 -10.7029   1.5230   1.7495   3.1344   3.4484   3.6989   3.9571

     occupation numbers 
     1.0000   1.0000   1.0000   1.0000   1.0000   1.0000   1.0000   1.0000
     1.0000   1.0000   1.0000   1.0000   1.0000   1.0000   1.0000   1.0000

          k =-0.5000-0.1443-0.1541 (  3913 PWs)   bands (ev):

   -66.9369 -66.9362 -33.9457 -33.9415 -33.9245 -33.9186 -33.9174 -33.9096
   -10.8278 -10.6682   1.5337   1.9727   2.9788   3.4387   3.6248   3.9198

     occupation numbers 
     1.0000   1.0000   1.0000   1.0000   1.0000   1.0000   1.0000   1.0000
     1.0000   1.0000   1.0000   1.0000   1.0000   1.0000   1.0000   1.0000

          k =-0.5000-0.1443-0.0771 (  3905 PWs)   bands (ev):

   -66.9370 -66.9361 -33.9444 -33.9392 -33.9254 -33.9215 -33.9166 -33.9100
   -10.8540 -10.6456   1.5870   2.2102   2.8191   3.3031   3.6685   3.8363

     occupation numbers 
     1.0000   1.0000   1.0000   1.0000   1.0000   1.0000   1.0000   1.0000
     1.0000   1.0000   1.0000   1.0000   1.0000   1.0000   1.0000   1.0000

          k =-0.5000 0.0000-0.0000 (  3893 PWs)   bands (ev):

   -66.9371 -66.9360 -33.9395 -33.9376 -33.9273 -33.9233 -33.9192 -33.9102
   -10.8693 -10.6338   1.8635   2.4193   2.7112   3.0825   3.5021   3.6929

     occupation numbers 
     1.0000   1.0000   1.0000   1.0000   1.0000   1.0000   1.0000   1.0000
     1.0000   1.0000   1.0000   1.0000   1.0000   1.0000   1.0000   1.0000

          k =-0.5000 0.0000 0.0771 (  3894 PWs)   bands (ev):

   -66.9370 -66.9361 -33.9405 -33.9382 -33.9274 -33.9220 -33.9192 -33.9099
   -10.8597 -10.6420   1.8601   2.2197   2.9428   3.0034   3.4749   3.7856

     occupation numbers 
     1.0000   1.0000   1.0000   1.0000   1.0000   1.0000   1.0000   1.0000
     1.0000   1.0000   1.0000   1.0000   1.0000   1.0000   1.0000   1.0000

          k =-0.5000 0.0000 0.1541 (  3904 PWs)   bands (ev):

   -66.9369 -66.9362 -33.9423 -33.9398 -33.9271 -33.9214 -33.9174 -33.9094
   -10.8325 -10.6658   1.8424   1.9930   2.9007   3.1743   3.4844   3.9286

     occupation numbers 
     1.0000   1.0000   1.0000   1.0000   1.0000   1.0000   1.0000   1.0000
     1.0000   1.0000   1.0000   1.0000   1.0000   1.0000   1.0000   1.0000

          k =-0.5000 0.0000 0.2312 (  3906 PWs)   bands (ev):

   -66.9368 -66.9363 -33.9433 -33.9417 -33.9260 -33.9227 -33.9139 -33.9096
   -10.7926 -10.7023   1.8099   1.8505   2.8929   3.1134   3.7082   3.9862

     occupation numbers 
     1.0000   1.0000   1.0000   1.0000   1.0000   1.0000   1.0000   1.0000
     1.0000   1.0000   1.0000   1.0000   1.0000   1.0000   1.0000   1.0000

          k =-0.5000-0.0000-0.3082 (  3922 PWs)   bands (ev):

   -66.9365 -66.9365 -33.9431 -33.9431 -33.9244 -33.9244 -33.9111 -33.9111
   -10.7467 -10.7467   1.7975   1.7975   2.9815   2.9815   3.9095   3.9095

     occupation numbers 
     1.0000   1.0000   1.0000   1.0000   1.0000   1.0000   1.0000   1.0000
     1.0000   1.0000   1.0000   1.0000   1.0000   1.0000   1.0000   1.0000

          k =-0.5000-0.0000-0.2312 (  3906 PWs)   bands (ev):

   -66.9368 -66.9363 -33.9433 -33.9417 -33.9260 -33.9227 -33.9139 -33.9096
   -10.7926 -10.7023   1.8099   1.8505   2.8929   3.1134   3.7082   3.9862

     occupation numbers 
     1.0000   1.0000   1.0000   1.0000   1.0000   1.0000   1.0000   1.0000
     1.0000   1.0000   1.0000   1.0000   1.0000   1.0000   1.0000   1.0000

          k =-0.5000-0.0000-0.1541 (  3904 PWs)   bands (ev):

   -66.9369 -66.9362 -33.9423 -33.9398 -33.9271 -33.9214 -33.9174 -33.9094
   -10.8325 -10.6658   1.8424   1.9930   2.9007   3.1743   3.4844   3.9286

     occupation numbers 
     1.0000   1.0000   1.0000   1.0000   1.0000   1.0000   1.0000   1.0000
     1.0000   1.0000   1.0000   1.0000   1.0000   1.0000   1.0000   1.0000

          k =-0.5000 0.0000-0.0771 (  3894 PWs)   bands (ev):

   -66.9370 -66.9361 -33.9405 -33.9382 -33.9274 -33.9220 -33.9192 -33.9099
   -10.8597 -10.6420   1.8601   2.2197   2.9428   3.0034   3.4749   3.7856

     occupation numbers 
     1.0000   1.0000   1.0000   1.0000   1.0000   1.0000   1.0000   1.0000
     1.0000   1.0000   1.0000   1.0000   1.0000   1.0000   1.0000   1.0000

          k =-0.5000 0.1443 0.0000 (  3908 PWs)   bands (ev):

   -66.9371 -66.9360 -33.9437 -33.9383 -33.9257 -33.9230 -33.9162 -33.9102
   -10.8633 -10.6378   1.6179   2.3423   2.7157   3.2665   3.6414   3.8217

     occupation numbers 
     1.0000   1.0000   1.0000   1.0000   1.0000   1.0000   1.0000   1.0000
     1.0000   1.0000   1.0000   1.0000   1.0000   1.0000   1.0000   1.0000

          k =-0.5000 0.1443 0.0771 (  3905 PWs)   bands (ev):

   -66.9370 -66.9361 -33.9444 -33.9392 -33.9254 -33.9215 -33.9166 -33.9100
   -10.8540 -10.6456   1.5870   2.2102   2.8191   3.3031   3.6685   3.8363

     occupation numbers 
     1.0000   1.0000   1.0000   1.0000   1.0000   1.0000   1.0000   1.0000
     1.0000   1.0000   1.0000   1.0000   1.0000   1.0000   1.0000   1.0000

          k =-0.5000 0.1443 0.1541 (  3913 PWs)   bands (ev):

   -66.9369 -66.9362 -33.9457 -33.9415 -33.9245 -33.9186 -33.9174 -33.9096
   -10.8278 -10.6682   1.5337   1.9727   2.9788   3.4387   3.6248   3.9198

     occupation numbers 
     1.0000   1.0000   1.0000   1.0000   1.0000   1.0000   1.0000   1.0000
     1.0000   1.0000   1.0000   1.0000   1.0000   1.0000   1.0000   1.0000

          k =-0.5000 0.1443 0.2312 (  3911 PWs)   bands (ev):

   -66.9368 -66.9363 -33.9464 -33.9439 -33.9231 -33.9195 -33.9144 -33.9100
   -10.7894 -10.7029   1.5230   1.7495   3.1344   3.4484   3.6989   3.9571

     occupation numbers 
     1.0000   1.0000   1.0000   1.0000   1.0000   1.0000   1.0000   1.0000
     1.0000   1.0000   1.0000   1.0000   1.0000   1.0000   1.0000   1.0000

          k =-0.5000 0.1443-0.3082 (  3908 PWs)   bands (ev):

   -66.9365 -66.9365 -33.9457 -33.9457 -33.9213 -33.9213 -33.9116 -33.9116
   -10.7454 -10.7454   1.5926   1.5927   3.2960   3.2960   3.8756   3.8756

     occupation numbers 
     1.0000   1.0000   1.0000   1.0000   1.0000   1.0000   1.0000   1.0000
     1.0000   1.0000   1.0000   1.0000   1.0000   1.0000   1.0000   1.0000

          k =-0.5000 0.1443-0.2312 (  3911 PWs)   bands (ev):

   -66.9368 -66.9363 -33.9464 -33.9439 -33.9231 -33.9195 -33.9144 -33.9100
   -10.7894 -10.7029   1.5230   1.7495   3.1344   3.4484   3.6989   3.9571

     occupation numbers 
     1.0000   1.0000   1.0000   1.0000   1.0000   1.0000   1.0000   1.0000
     1.0000   1.0000   1.0000   1.0000   1.0000   1.0000   1.0000   1.0000

          k =-0.5000 0.1443-0.1541 (  3913 PWs)   bands (ev):

   -66.9369 -66.9362 -33.9457 -33.9415 -33.9245 -33.9186 -33.9174 -33.9096
   -10.8278 -10.6682   1.5337   1.9727   2.9788   3.4387   3.6248   3.9198

     occupation numbers 
     1.0000   1.0000   1.0000   1.0000   1.0000   1.0000   1.0000   1.0000
     1.0000   1.0000   1.0000   1.0000   1.0000   1.0000   1.0000   1.0000

          k =-0.5000 0.1443-0.0771 (  3905 PWs)   bands (ev):

   -66.9370 -66.9361 -33.9444 -33.9392 -33.9254 -33.9215 -33.9166 -33.9100
   -10.8540 -10.6456   1.5870   2.2102   2.8191   3.3031   3.6685   3.8363

     occupation numbers 
     1.0000   1.0000   1.0000   1.0000   1.0000   1.0000   1.0000   1.0000
     1.0000   1.0000   1.0000   1.0000   1.0000   1.0000   1.0000   1.0000

          k =-0.5000-0.8659-0.0000 (  3904 PWs)   bands (ev):

   -66.9371 -66.9360 -33.9462 -33.9402 -33.9239 -33.9228 -33.9138 -33.9103
   -10.8570 -10.6420   1.4505   2.2172   2.7549   3.4773   3.5922   4.0525

     occupation numbers 
     1.0000   1.0000   1.0000   1.0000   1.0000   1.0000   1.0000   1.0000
     1.0000   1.0000   1.0000   1.0000   1.0000   1.0000   1.0000   1.0000

          k =-0.5000-0.8659 0.0771 (  3932 PWs)   bands (ev):

   -66.9370 -66.9361 -33.9469 -33.9411 -33.9225 -33.9225 -33.9141 -33.9101
   -10.8481 -10.6494   1.4157   2.1042   2.8576   3.4973   3.6640   4.0284

     occupation numbers 
     1.0000   1.0000   1.0000   1.0000   1.0000   1.0000   1.0000   1.0000
     1.0000   1.0000   1.0000   1.0000   1.0000   1.0000   1.0000   1.0000

          k =-0.5000-0.8659 0.1541 (  3908 PWs)   bands (ev):

   -66.9369 -66.9362 -33.9481 -33.9434 -33.9215 -33.9192 -33.9151 -33.9100
   -10.8229 -10.6707   1.3602   1.8611   3.1073   3.5548   3.7750   3.9608

     occupation numbers 
     1.0000   1.0000   1.0000   1.0000   1.0000   1.0000   1.0000   1.0000
     1.0000   1.0000   1.0000   1.0000   1.0000   1.0000   1.0000   1.0000

          k =-0.5000-0.8659 0.2312 (  3906 PWs)   bands (ev):

   -66.9368 -66.9363 -33.9486 -33.9460 -33.9200 -33.9166 -33.9155 -33.9106
   -10.7862 -10.7037   1.3563   1.6173   3.4016   3.6431   3.7864   3.8626

     occupation numbers 
     1.0000   1.0000   1.0000   1.0000   1.0000   1.0000   1.0000   1.0000
     1.0000   1.0000   1.0000   1.0000   1.0000   1.0000   1.0000   1.0000

          k =-0.5000-0.8659-0.3082 (  3900 PWs)   bands (ev):

   -66.9365 -66.9365 -33.9479 -33.9479 -33.9183 -33.9183 -33.9124 -33.9124
   -10.7442 -10.7441   1.4406   1.4406   3.6515   3.6516   3.7508   3.7508

     occupation numbers 
     1.0000   1.0000   1.0000   1.0000   1.0000   1.0000   1.0000   1.0000
     1.0000   1.0000   1.0000   1.0000   1.0000   1.0000   1.0000   1.0000

     highest occupied level (ev):     4.2451

!    total energy              =    -315.17607138 Ry
     Harris-Foulkes estimate   =    -315.17607051 Ry
     estimated scf accuracy    <       0.00000089 Ry

     The total energy is the sum of the following terms:

     one-electron contribution =    -214.05595152 Ry
     hartree contribution      =     113.12005202 Ry
     xc contribution           =     -48.04310917 Ry
     ewald contribution        =    -166.19706270 Ry

     convergence has been achieved in   6 iterations

     Forces acting on atoms (cartesian axes, Ry/au):

     atom    1 type  2   force =    -0.00000040    0.00000054    0.01575399
     atom    2 type  2   force =    -0.00000006    0.00000044    0.01575502
     atom    3 type  1   force =     0.00000002   -0.00000011   -0.01575059
     atom    4 type  1   force =     0.00000044   -0.00000086   -0.01575843
     The non-local contrib.  to forces
     atom    1 type  2   force =    -0.00000018   -0.00000080    0.02573633
     atom    2 type  2   force =    -0.00000016    0.00000211    0.02573676
     atom    3 type  1   force =     0.00000026   -0.00000143   -0.02800765
     atom    4 type  1   force =     0.00000101   -0.00000051   -0.02800977
     The ionic contribution  to forces
     atom    1 type  2   force =    -0.00000726    0.00001809    0.13148198
     atom    2 type  2   force =    -0.00000075   -0.00000571    0.13148328
     atom    3 type  1   force =     0.00000118   -0.00000809   -0.13148377
     atom    4 type  1   force =     0.00000683   -0.00000429   -0.13148149
     The local contribution  to forces
     atom    1 type  2   force =     0.00000704   -0.00001672   -0.14106687
     atom    2 type  2   force =     0.00000080    0.00000413   -0.14107166
     atom    3 type  1   force =    -0.00000130    0.00000935    0.14370537
     atom    4 type  1   force =    -0.00000743    0.00000394    0.14371498
     The core correction contribution to forces
     atom    1 type  2   force =     0.00000001    0.00000000   -0.00033037
     atom    2 type  2   force =     0.00000000   -0.00000001   -0.00033038
     atom    3 type  1   force =     0.00000000    0.00000000    0.00000000
     atom    4 type  1   force =     0.00000000    0.00000000    0.00000000
     The Hubbard contrib.    to forces
     atom    1 type  2   force =     0.00000000    0.00000000    0.00000000
     atom    2 type  2   force =     0.00000000    0.00000000    0.00000000
     atom    3 type  1   force =     0.00000000    0.00000000    0.00000000
     atom    4 type  1   force =     0.00000000    0.00000000    0.00000000
     The SCF correction term to forces
     atom    1 type  2   force =     0.00000000    0.00000000    0.00000000
     atom    2 type  2   force =     0.00000000    0.00000000    0.00000000
     atom    3 type  1   force =     0.00000000    0.00000000    0.00000000
     atom    4 type  1   force =     0.00000000    0.00000000    0.00000000

     Total force =     0.000000     Total SCF correction =     0.000000


     Computing stress (Cartesian axis) and pressure

          total   stress  (Ry/bohr**3)                   (kbar)     P=   -3.30
  -0.00002326   0.00000000   0.00000000         -3.42      0.00      0.00
   0.00000000  -0.00002326   0.00000001          0.00     -3.42      0.00
   0.00000000   0.00000001  -0.00002068          0.00      0.00     -3.04

     kinetic stress (kbar)  18788.37      0.00      0.00
                                0.00  18788.37      0.00
                                0.00      0.00  18767.56

     local   stress (kbar)  -7577.79     -0.02     -0.02
                               -0.02  -7577.82      0.05
                               -0.02      0.05 -11751.90

     nonloc. stress (kbar)   5144.05      0.00      0.00
                                0.00   5144.05     -0.00
                                0.00     -0.00   5156.56

     hartree stress (kbar)  16571.18      0.01      0.01
                                0.01  16571.19     -0.02
                                0.01     -0.02  18291.73

     exc-cor stress (kbar)  -6673.90      0.00      0.00
                                0.00  -6673.90     -0.00
                                0.00     -0.00  -6672.17

     corecor stress (kbar)   -246.00     -0.00     -0.00
                               -0.00   -246.00      0.00
                               -0.00      0.00   -245.99

     ewald   stress (kbar) -26009.33      0.01      0.01
                                0.01 -26009.31     -0.03
                                0.01     -0.03 -23548.83

     hubbard stress (kbar)      0.00      0.00      0.00
                                0.00      0.00      0.00
                                0.00      0.00      0.00

     london  stress (kbar)      0.00      0.00      0.00
                                0.00      0.00      0.00
                                0.00      0.00      0.00

     DFT-D3  stress (kbar)      0.00      0.00      0.00
                                0.00      0.00      0.00
                                0.00      0.00      0.00

     XDM     stress (kbar)      0.00      0.00      0.00
                                0.00      0.00      0.00
                                0.00      0.00      0.00

     dft-nl  stress (kbar)      0.00      0.00      0.00
                                0.00      0.00      0.00
                                0.00      0.00      0.00

     TS-vdW  stress (kbar)      0.00      0.00      0.00
                                0.00      0.00      0.00
                                0.00      0.00      0.00



     Writing output data file ZnO.save/
 
     init_run     :      1.05s CPU      2.89s WALL (       2 calls)
     electrons    :     16.12s CPU     17.85s WALL (       5 calls)
     update_pot   :      0.41s CPU      0.42s WALL (       3 calls)
     forces       :      0.69s CPU      0.84s WALL (       5 calls)
     stress       :      1.35s CPU      1.43s WALL (       5 calls)

     Called by init_run:
     wfcinit      :      0.68s CPU      2.09s WALL (       2 calls)
     wfcinit:atom :      0.00s CPU      0.01s WALL (     130 calls)
     wfcinit:wfcr :      0.64s CPU      2.05s WALL (     130 calls)
     potinit      :      0.12s CPU      0.14s WALL (       2 calls)
     hinit0       :      0.22s CPU      0.45s WALL (       2 calls)

     Called by electrons:
     c_bands      :     13.43s CPU     14.84s WALL (      23 calls)
     sum_band     :      1.95s CPU      2.08s WALL (      23 calls)
     v_of_rho     :      0.71s CPU      0.73s WALL (      25 calls)
     v_h          :      0.01s CPU      0.01s WALL (      25 calls)
     v_xc         :      0.97s CPU      1.00s WALL (      35 calls)
     newd         :      0.12s CPU      0.17s WALL (      25 calls)
     mix_rho      :      0.02s CPU      0.04s WALL (      23 calls)

     Called by c_bands:
     init_us_2    :      0.29s CPU      0.34s WALL (    3770 calls)
     cegterg      :     12.12s CPU     12.91s WALL (    1495 calls)

     Called by sum_band:
     sum_band:bec :      0.01s CPU      0.02s WALL (    1495 calls)
     addusdens    :      0.12s CPU      0.13s WALL (      23 calls)

     Called by *egterg:
     h_psi        :      7.50s CPU      7.84s WALL (    4803 calls)
     s_psi        :      0.28s CPU      0.29s WALL (    4803 calls)
     g_psi        :      0.02s CPU      0.02s WALL (    3178 calls)
     cdiaghg      :      3.01s CPU      4.65s WALL (    4283 calls)
     cegterg:over :      0.92s CPU      1.08s WALL (    3178 calls)
     cegterg:upda :      0.43s CPU      0.44s WALL (    3178 calls)
     cegterg:last :      0.25s CPU      0.26s WALL (    1560 calls)
     cdiaghg:chol :      0.36s CPU      0.67s WALL (    4283 calls)
     cdiaghg:inve :      0.06s CPU      0.79s WALL (    4283 calls)
     cdiaghg:para :      0.27s CPU      0.30s WALL (    8566 calls)

     Called by h_psi:
     h_psi:pot    :      7.48s CPU      7.81s WALL (    4803 calls)
     h_psi:calbec :      0.47s CPU      0.51s WALL (    4803 calls)
     vloc_psi     :      6.70s CPU      6.99s WALL (    4803 calls)
     add_vuspsi   :      0.29s CPU      0.31s WALL (    4803 calls)

     General routines
     calbec       :      0.81s CPU      0.85s WALL (    7923 calls)
     fft          :      0.14s CPU      0.27s WALL (     446 calls)
     ffts         :      0.01s CPU      0.01s WALL (      48 calls)
     fftw         :      7.69s CPU      7.99s WALL (  149608 calls)
     interpolate  :      0.01s CPU      0.01s WALL (      25 calls)
 
     Parallel routines
     fft_scatt_xy :      1.13s CPU      1.18s WALL (  150102 calls)
     fft_scatt_yz :      3.87s CPU      4.04s WALL (  150102 calls)
 
     PWSCF        :     20.21s CPU     25.97s WALL

 
   This run was terminated on:  16: 0: 8  16Jun2022            

=------------------------------------------------------------------------------=
   JOB DONE.
=------------------------------------------------------------------------------=
