 ANIMSTEPS  17
 CRYSTAL 
 PRIMVEC 
  3.3020000000  0.0000000000  0.0000000000
 -1.6510000000  2.8596220000  0.0000000000
  0.0000010000  0.0000000000  5.0205990000
 PRIMCOORD   1
    4  1
 O    1.6510016493    0.9532063801   -0.0083643179   -0.0000009395    0.0000003822   -0.0001230864
 O    0.0000021493    1.9064156199    2.5019351821   -0.0000011681    0.0000002857   -0.0001208255
Mg    1.6509987444    0.9532063801    1.9849741442    0.0000011773   -0.0000001747    0.0001178966
Mg    0.0000025464    1.9064156199    4.4952736442    0.0000009303   -0.0000004932    0.0001260153
 PRIMCOORD   2
    4  1
 O    1.6509992699    0.9532040831    0.0594592475    0.0000003921    0.0000005298   -0.0001824729
 O    0.0000024222    1.9064175208    2.5696533944   -0.0000003764   -0.0000006447    0.0000705031
Mg    1.6510017517    0.9532074112    2.0576274178   -0.0000003912   -0.0000005207    0.0011863215
Mg    0.0000013277    1.9064149848    4.5585852369    0.0000003755    0.0000006357   -0.0010743517
 PRIMCOORD   3
    4  1
 O    1.6510007060    0.9532061025    0.1272912476   -0.0000000911   -0.0000001109   -0.0000475174
 O    0.0000009056    1.9064154347    2.6376559645    0.0000000877    0.0000001632    0.0000810137
Mg    1.6510012693    0.9532071871    2.1255226921    0.0000000655    0.0000000645    0.0000736334
Mg    0.0000015725    1.9064152759    4.6264463831   -0.0000000621   -0.0000001169   -0.0001071297
 PRIMCOORD   4
    4  1
 O    1.6510283565    0.9532306217    0.1948977460   -0.0000093121   -0.0000082039   -0.0000958481
 O   -0.0000272013    1.9063915897    2.7052805682    0.0000096083    0.0000083406    0.0000416039
Mg    1.6509957708    0.9532021070    2.1951282629    0.0000008334    0.0000007320   -0.0017348745
Mg    0.0000072104    1.9064196819    4.6922884437   -0.0000011296   -0.0000008687    0.0017891187
 PRIMCOORD   5
    4  1
 O    1.6509772737    0.9531886582    0.2635450055   -0.0000220979   -0.0000417912   -0.0006042147
 O    0.0000229975    1.9064321010    2.7737785858    0.0000218170    0.0000408468   -0.0007193932
Mg    1.6511075427    0.9533734595    2.2485619691    0.0000027805    0.0000096111    0.0006496416
Mg   -0.0001039919    1.9062497814    4.7703341333   -0.0000024996   -0.0000086667    0.0006739664
 PRIMCOORD   6
    4  1
 O    1.6512203095    0.9530313160    0.2350889283   -0.0002392668    0.0002108528    0.0190085219
 O   -0.0002187053    1.9065901136    2.7448471747    0.0002363510   -0.0002081654    0.0179711253
Mg    1.6513799328    0.9528483000    2.3395542974    0.0001527795   -0.0001315990   -0.0202394032
Mg   -0.0003778584    1.9067742702    4.8593216102   -0.0001498637    0.0001289117   -0.0167402441
 PRIMCOORD   7
    4  1
 O    1.6509970446    0.9532402436    0.1704170957    0.0000029153   -0.0000106598    0.0217337796
 O    0.0000060025    1.9063812683    2.6761402816   -0.0000029168    0.0000105373    0.0221157772
Mg    1.6509955123    0.9531908051    2.4087403374    0.0000065970    0.0000031286   -0.0236398895
Mg    0.0000051192    1.9064316829    4.9233973828   -0.0000065955   -0.0000030061   -0.0202096674
 PRIMCOORD   8
    4  1
 O    1.6510028231    0.9532374820    0.1035963395    0.0000082728   -0.0000029689    0.0128434710
 O   -0.0000075455    1.9063874073    2.6095258215   -0.0000019644   -0.0000000864    0.0147039571
Mg    1.6509862479    0.9531699237    2.4792457415    0.0000016833    0.0000083141   -0.0124375967
Mg    0.0000221532    1.9064491869    4.9862381162   -0.0000079917   -0.0000052588   -0.0151098314
 PRIMCOORD   9
    4  1
 O    1.6510505208    0.9532447878    0.0350727635   -0.0000654352   -0.0000284984    0.0004031547
 O    0.0000032782    1.9063505101    2.5438879615   -0.0000104992    0.0000671273   -0.0004134659
Mg    1.6509982175    0.9532485088    2.5416894417   -0.0000073887   -0.0000984423    0.0014766116
Mg   -0.0000483378    1.9064001932    5.0579020020    0.0000833231    0.0000598134   -0.0014663004
 PRIMCOORD  10
    4  1
 O    1.6510043815    0.9532281952   -0.0306543073   -0.0000036295    0.0000414925   -0.0140493868
 O   -0.0000138556    1.9064005058    2.4756245332    0.0000156261   -0.0000485600   -0.0135090925
Mg    1.6510142894    0.9530855378    2.6102843923   -0.0000156962    0.0000667383    0.0136906135
Mg   -0.0000011365    1.9065297611    5.1232436707    0.0000036995   -0.0000596708    0.0138678657
 PRIMCOORD  11
    4  1
 O    1.6509807511    0.9532698121   -0.0968689318    0.0000156715   -0.0000314661   -0.0232887669
 O    0.0000214270    1.9063513255    2.4080746813   -0.0000161790    0.0000318735   -0.0206052378
Mg    1.6509893117    0.9531977182    2.6808015361    0.0000037891   -0.0000029378    0.0226911413
Mg    0.0000121891    1.9064251440    5.1864016105   -0.0000032815    0.0000025304    0.0212028634
 PRIMCOORD  12
    4  1
 O    1.6512935672    0.9529526177   -0.1645801323   -0.0008184492    0.0008538283   -0.0195806705
 O   -0.0002938684    1.9066725266    2.3426156234    0.0008077656   -0.0008439057   -0.0173752144
Mg    1.6529163476    0.9511599770    2.7483678784   -0.0004359526    0.0004728947    0.0188903661
Mg   -0.0019123673    1.9084588787    5.2518874255    0.0004466362   -0.0004828172    0.0180655188
 PRIMCOORD  13
    4  1
 O    1.6509507633    0.9532805121   -0.1942366130    0.0000064882   -0.0000136787    0.0005616589
 O    0.0000501201    1.9063412096    2.3162288664   -0.0000063096    0.0000136577    0.0006172704
Mg    1.6510453456    0.9531537007    2.8409067426   -0.0000111642    0.0000174781   -0.0006903861
Mg   -0.0000426954    1.9064685775    5.3394467805    0.0000109857   -0.0000174571   -0.0004885432
 PRIMCOORD  14
    4  1
 O    1.6508245976    0.9521822534   -0.1264110232    0.0001368171    0.0008180289   -0.0000867482
 O    0.0001827370    1.9074709098    2.3838683525   -0.0001373883   -0.0008240148    0.0000420826
Mg    1.6507676651    0.9518109706    2.9048336322   -0.0000652949   -0.0003759188   -0.0002768068
Mg    0.0002282215    1.9077798662    5.4068348530    0.0000658661    0.0003819048    0.0003214724
 PRIMCOORD  15
    4  1
 O    1.6509817162    0.9531988900   -0.0586683890    0.0000012244    0.0000004146   -0.0000005658
 O    0.0000202450    1.9064229356    2.4516045197   -0.0000018253    0.0000000939   -0.0002002055
Mg    1.6510214394    0.9532156205    2.9622757673    0.0000003704   -0.0000043489   -0.0002606984
Mg   -0.0000204953    1.9064065538    5.4838670399    0.0000002306    0.0000038404    0.0004614697
 PRIMCOORD  16
    4  1
 O    1.6509998938    0.9532063046    0.0094944767    0.0000015565   -0.0000006519   -0.0000526231
 O    0.0000010236    1.9064161495    2.5196914922   -0.0000015323    0.0000005269    0.0001491098
Mg    1.6509957131    0.9532086113    3.0408800898    0.0000006233   -0.0000002008   -0.0006633181
Mg    0.0000059548    1.9064129346    5.5422432818   -0.0000006475    0.0000003257    0.0005668313
 PRIMCOORD  17
    4  1
 O    1.6510016664    0.9532063801    0.0771314624   -0.0000002890   -0.0000002410    0.0001278069
 O   -0.0000011356    1.9064156199    2.5874309624    0.0000000756    0.0000000257    0.0001271199
Mg    1.6509989673    0.9532063801    3.1044221239    0.0000001262   -0.0000008232   -0.0001510938
Mg    0.0000027693    1.9064156199    5.6147166033    0.0000000871    0.0000010385   -0.0001038329
