
     Program PWSCF v.6.4.1 starts on 15Jun2022 at 20:51:19 

     This program is part of the open-source Quantum ESPRESSO suite
     for quantum simulation of materials; please cite
         "P. Giannozzi et al., J. Phys.:Condens. Matter 21 395502 (2009);
         "P. Giannozzi et al., J. Phys.:Condens. Matter 29 465901 (2017);
          URL http://www.quantum-espresso.org", 
     in publications or presentations arising from this work. More details at
     http://www.quantum-espresso.org/quote

     Parallel version (MPI), running on    64 processors

     MPI processes distributed on     1 nodes
     K-points division:     npool     =       4
     R & G space division:  proc/nbgrp/npool/nimage =      16
     Waiting for input...
     Reading input from standard input
Warning: card &IONS ignored
Warning: card   UPSCALE           = 100.D0, ignored
Warning: card / ignored
Warning: card &CELL ignored
Warning: card   CELL_DYNAMICS     = 'BFGS' ignored
Warning: card   PRESS_CONV_THR    = 0.5D0 ignored
Warning: card   CELL_DOFREE = 'ALL' ignored
Warning: card / ignored

     Current dimensions of program PWSCF are:
     Max number of different atomic species (ntypx) = 10
     Max number of k-points (npk) =  40000
     Max angular momentum in pseudopotentials (lmaxx) =  3

     Subspace diagonalization in iterative solution of the eigenvalue problem:
     one sub-group per band group will be used
     scalapack distributed-memory algorithm (size of sub-group:  2*  2 procs)

--------------------------------------------------------------------------------
NOTICE: Bravais lattice has wrong number ( 7) of symmetries - symmetries are disabled
--------------------------------------------------------------------------------
 
     Parallelization info
     --------------------
     sticks:   dense  smooth     PW     G-vecs:    dense   smooth      PW
     Min         108      57     18                 4758     1847     322
     Max         109      58     19                 4761     1854     325
     Sum        1735     925    295                76139    29605    5169
 


     bravais-lattice index     =            0
     lattice parameter (alat)  =       6.4786  a.u.
     unit-cell volume          =     306.4643 (a.u.)^3
     number of atoms/cell      =            4
     number of atomic types    =            2
     number of electrons       =        32.00
     number of Kohn-Sham states=           16
     kinetic-energy cutoff     =      80.0000  Ry
     charge density cutoff     =     600.0000  Ry
     convergence threshold     =      1.0E-06
     mixing beta               =       0.5000
     number of iterations used =            8  plain     mixing
     Exchange-correlation      = SLA  PW   PSX  PSC ( 1  4 10  8 0 0)
     Using LIBXC version       =    4   3   4

     celldm(1)=   6.478561  celldm(2)=   0.000000  celldm(3)=   0.000000
     celldm(4)=   0.000000  celldm(5)=   0.000000  celldm(6)=   0.000000

     crystal axes: (cart. coord. in units of alat)
               a(1) = (   1.000000   0.000000   0.000000 )  
               a(2) = (  -0.500000   0.866026   0.000000 )  
               a(3) = (   0.000000   0.000001   1.301408 )  

     reciprocal axes: (cart. coord. in units 2 pi/alat)
               b(1) = (  1.000000  0.577350 -0.000000 )  
               b(2) = ( -0.000000  1.154700 -0.000001 )  
               b(3) = ( -0.000000 -0.000000  0.768398 )  


     PseudoPot. # 1 for Mg read from file:
     ./GBRV_PBEsol/mg_pbesol_v1.4.uspp.F.UPF
     MD5 check sum: 4059f37963cf5867752dbf5ab2400678
     Pseudo is Ultrasoft, Zval = 10.0
     Generated by new atomic code, or converted to UPF format
     Using radial grid of  821 points,  7 beta functions with: 
                l(1) =   0
                l(2) =   0
                l(3) =   0
                l(4) =   1
                l(5) =   1
                l(6) =   2
                l(7) =   2
     Q(r) pseudized with  8 coefficients,  rinner =    1.200   1.200   1.200
                                                       1.200   1.200

     PseudoPot. # 2 for O  read from file:
     ./GBRV_PBEsol/o_pbesol_v1.2.uspp.F.UPF
     MD5 check sum: 501638753501ef6325af9037351f7734
     Pseudo is Ultrasoft + core correction, Zval =  6.0
     Generated by new atomic code, or converted to UPF format
     Using radial grid of  737 points,  5 beta functions with: 
                l(1) =   0
                l(2) =   0
                l(3) =   1
                l(4) =   1
                l(5) =   2
     Q(r) pseudized with  8 coefficients,  rinner =    0.900   0.900   0.900
                                                       0.900   0.900

     atomic species   valence    mass     pseudopotential
        Mg            10.00    24.30500     Mg( 1.00)
        O              6.00    15.99900     O ( 1.00)

     No symmetry found


                                    s                        frac. trans.

      isym =  1     identity                                     

 cryst.   s( 1) = (     1          0          0      )
                  (     0          1          0      )
                  (     0          0          1      )

 cart.    s( 1) = (  1.0000000 -0.0000000 -0.0000000 )
                  ( -0.0000000  1.0000000  0.0000000 )
                  (  0.0000000 -0.0000000  1.0000000 )


   Cartesian axes

     site n.     atom                  positions (alat units)
         1           O   tau(   1) = (   0.5000002   0.2886755   0.0095601  )
         2           O   tau(   2) = (   0.0000002   0.5773498   0.6602641  )
         3           Mg  tau(   3) = (   0.5000001   0.2886751   0.5939030  )
         4           Mg  tau(   4) = (  -0.0000000   0.5773518   1.2446070  )

   Crystallographic axes

     site n.     atom                  positions (cryst. coord.)
         1           O   tau(   1) = (  0.6666670  0.3333337  0.0073459  )
         2           O   tau(   2) = (  0.3333329  0.6666657  0.5073458  )
         3           Mg  tau(   3) = (  0.6666664  0.3333329  0.4563540  )
         4           Mg  tau(   4) = (  0.3333336  0.6666677  0.9563539  )

     number of k points=   260
                       cart. coord. in units 2pi/alat
        k(    1) = (   0.0000000   0.0000000   0.0000000), wk =   0.0039062
        k(    2) = (  -0.0000000  -0.0000000   0.0960498), wk =   0.0078125
        k(    3) = (  -0.0000000  -0.0000001   0.1920996), wk =   0.0078125
        k(    4) = (  -0.0000000  -0.0000001   0.2881494), wk =   0.0078125
        k(    5) = (   0.0000000   0.0000001  -0.3841992), wk =   0.0039062
        k(    6) = (  -0.0000000   0.1443375  -0.0000001), wk =   0.0078125
        k(    7) = (  -0.0000000   0.1443375   0.0960497), wk =   0.0078125
        k(    8) = (  -0.0000000   0.1443375   0.1920995), wk =   0.0078125
        k(    9) = (  -0.0000000   0.1443375   0.2881494), wk =   0.0078125
        k(   10) = (   0.0000000   0.1443376  -0.3841993), wk =   0.0078125
        k(   11) = (   0.0000000   0.1443376  -0.2881495), wk =   0.0078125
        k(   12) = (   0.0000000   0.1443376  -0.1920997), wk =   0.0078125
        k(   13) = (  -0.0000000   0.1443376  -0.0960499), wk =   0.0078125
        k(   14) = (  -0.0000000   0.2886751  -0.0000001), wk =   0.0078125
        k(   15) = (  -0.0000000   0.2886751   0.0960497), wk =   0.0078125
        k(   16) = (  -0.0000000   0.2886750   0.1920995), wk =   0.0078125
        k(   17) = (  -0.0000000   0.2886750   0.2881493), wk =   0.0078125
        k(   18) = (   0.0000000   0.2886752  -0.3841993), wk =   0.0078125
        k(   19) = (  -0.0000000   0.2886752  -0.2881495), wk =   0.0078125
        k(   20) = (  -0.0000000   0.2886751  -0.1920997), wk =   0.0078125
        k(   21) = (  -0.0000000   0.2886751  -0.0960499), wk =   0.0078125
        k(   22) = (  -0.0000000   0.4330126  -0.0000002), wk =   0.0078125
        k(   23) = (  -0.0000000   0.4330126   0.0960496), wk =   0.0078125
        k(   24) = (  -0.0000000   0.4330126   0.1920994), wk =   0.0078125
        k(   25) = (  -0.0000001   0.4330126   0.2881492), wk =   0.0078125
        k(   26) = (  -0.0000000   0.4330127  -0.3841994), wk =   0.0078125
        k(   27) = (  -0.0000000   0.4330127  -0.2881496), wk =   0.0078125
        k(   28) = (  -0.0000000   0.4330127  -0.1920998), wk =   0.0078125
        k(   29) = (  -0.0000000   0.4330127  -0.0960500), wk =   0.0078125
        k(   30) = (   0.0000000  -0.5773502   0.0000003), wk =   0.0039062
        k(   31) = (   0.0000000  -0.5773502   0.0960501), wk =   0.0078125
        k(   32) = (   0.0000000  -0.5773502   0.1920999), wk =   0.0078125
        k(   33) = (   0.0000000  -0.5773503   0.2881497), wk =   0.0078125
        k(   34) = (   0.0000001  -0.5773501  -0.3841990), wk =   0.0039062
        k(   35) = (   0.1250000   0.0721688  -0.0000000), wk =   0.0078125
        k(   36) = (   0.1250000   0.0721687   0.0960498), wk =   0.0078125
        k(   37) = (   0.1250000   0.0721687   0.1920996), wk =   0.0078125
        k(   38) = (   0.1250000   0.0721687   0.2881494), wk =   0.0078125
        k(   39) = (   0.1250000   0.0721689  -0.3841993), wk =   0.0078125
        k(   40) = (   0.1250000   0.0721688  -0.2881495), wk =   0.0078125
        k(   41) = (   0.1250000   0.0721688  -0.1920997), wk =   0.0078125
        k(   42) = (   0.1250000   0.0721688  -0.0960498), wk =   0.0078125
        k(   43) = (   0.1250000   0.2165063  -0.0000001), wk =   0.0078125
        k(   44) = (   0.1250000   0.2165063   0.0960497), wk =   0.0078125
        k(   45) = (   0.1250000   0.2165063   0.1920995), wk =   0.0078125
        k(   46) = (   0.1250000   0.2165062   0.2881493), wk =   0.0078125
        k(   47) = (   0.1250000   0.2165064  -0.3841993), wk =   0.0078125
        k(   48) = (   0.1250000   0.2165064  -0.2881495), wk =   0.0078125
        k(   49) = (   0.1250000   0.2165064  -0.1920997), wk =   0.0078125
        k(   50) = (   0.1250000   0.2165063  -0.0960499), wk =   0.0078125
        k(   51) = (   0.1250000   0.3608439  -0.0000002), wk =   0.0078125
        k(   52) = (   0.1250000   0.3608438   0.0960496), wk =   0.0078125
        k(   53) = (   0.1250000   0.3608438   0.1920994), wk =   0.0078125
        k(   54) = (   0.1250000   0.3608438   0.2881492), wk =   0.0078125
        k(   55) = (   0.1250000   0.3608440  -0.3841994), wk =   0.0078125
        k(   56) = (   0.1250000   0.3608439  -0.2881496), wk =   0.0078125
        k(   57) = (   0.1250000   0.3608439  -0.1920998), wk =   0.0078125
        k(   58) = (   0.1250000   0.3608439  -0.0960500), wk =   0.0078125
        k(   59) = (   0.1250000   0.5051814  -0.0000002), wk =   0.0078125
        k(   60) = (   0.1250000   0.5051814   0.0960496), wk =   0.0078125
        k(   61) = (   0.1249999   0.5051813   0.1920994), wk =   0.0078125
        k(   62) = (   0.1249999   0.5051813   0.2881492), wk =   0.0078125
        k(   63) = (   0.1250000   0.5051815  -0.3841995), wk =   0.0078125
        k(   64) = (   0.1250000   0.5051815  -0.2881496), wk =   0.0078125
        k(   65) = (   0.1250000   0.5051814  -0.1920998), wk =   0.0078125
        k(   66) = (   0.1250000   0.5051814  -0.0960500), wk =   0.0078125
        k(   67) = (   0.1250000  -0.5051814   0.0000002), wk =   0.0078125
        k(   68) = (   0.1250000  -0.5051814   0.0960500), wk =   0.0078125
        k(   69) = (   0.1250000  -0.5051815   0.1920998), wk =   0.0078125
        k(   70) = (   0.1250000  -0.5051815   0.2881496), wk =   0.0078125
        k(   71) = (   0.1250001  -0.5051813  -0.3841990), wk =   0.0078125
        k(   72) = (   0.1250001  -0.5051813  -0.2881492), wk =   0.0078125
        k(   73) = (   0.1250001  -0.5051814  -0.1920994), wk =   0.0078125
        k(   74) = (   0.1250000  -0.5051814  -0.0960496), wk =   0.0078125
        k(   75) = (   0.1250000  -0.3608439   0.0000001), wk =   0.0078125
        k(   76) = (   0.1250000  -0.3608439   0.0960500), wk =   0.0078125
        k(   77) = (   0.1250000  -0.3608439   0.1920998), wk =   0.0078125
        k(   78) = (   0.1250000  -0.3608439   0.2881496), wk =   0.0078125
        k(   79) = (   0.1250001  -0.3608438  -0.3841991), wk =   0.0078125
        k(   80) = (   0.1250000  -0.3608438  -0.2881493), wk =   0.0078125
        k(   81) = (   0.1250000  -0.3608438  -0.1920995), wk =   0.0078125
        k(   82) = (   0.1250000  -0.3608438  -0.0960497), wk =   0.0078125
        k(   83) = (   0.1250000  -0.2165063   0.0000001), wk =   0.0078125
        k(   84) = (   0.1250000  -0.2165064   0.0960499), wk =   0.0078125
        k(   85) = (   0.1250000  -0.2165064   0.1920997), wk =   0.0078125
        k(   86) = (   0.1250000  -0.2165064   0.2881495), wk =   0.0078125
        k(   87) = (   0.1250000  -0.2165062  -0.3841991), wk =   0.0078125
        k(   88) = (   0.1250000  -0.2165062  -0.2881493), wk =   0.0078125
        k(   89) = (   0.1250000  -0.2165063  -0.1920995), wk =   0.0078125
        k(   90) = (   0.1250000  -0.2165063  -0.0960497), wk =   0.0078125
        k(   91) = (   0.1250000  -0.0721688   0.0000000), wk =   0.0078125
        k(   92) = (   0.1250000  -0.0721688   0.0960498), wk =   0.0078125
        k(   93) = (   0.1250000  -0.0721688   0.1920996), wk =   0.0078125
        k(   94) = (   0.1250000  -0.0721689   0.2881494), wk =   0.0078125
        k(   95) = (   0.1250000  -0.0721687  -0.3841992), wk =   0.0078125
        k(   96) = (   0.1250000  -0.0721687  -0.2881494), wk =   0.0078125
        k(   97) = (   0.1250000  -0.0721687  -0.1920996), wk =   0.0078125
        k(   98) = (   0.1250000  -0.0721688  -0.0960498), wk =   0.0078125
        k(   99) = (   0.2500000   0.1443375  -0.0000001), wk =   0.0078125
        k(  100) = (   0.2500000   0.1443375   0.0960497), wk =   0.0078125
        k(  101) = (   0.2500000   0.1443375   0.1920995), wk =   0.0078125
        k(  102) = (   0.2500000   0.1443374   0.2881493), wk =   0.0078125
        k(  103) = (   0.2500000   0.1443376  -0.3841993), wk =   0.0078125
        k(  104) = (   0.2500000   0.1443376  -0.2881495), wk =   0.0078125
        k(  105) = (   0.2500000   0.1443376  -0.1920997), wk =   0.0078125
        k(  106) = (   0.2500000   0.1443376  -0.0960499), wk =   0.0078125
        k(  107) = (   0.2500000   0.2886751  -0.0000001), wk =   0.0078125
        k(  108) = (   0.2500000   0.2886750   0.0960497), wk =   0.0078125
        k(  109) = (   0.2500000   0.2886750   0.1920995), wk =   0.0078125
        k(  110) = (   0.2500000   0.2886750   0.2881493), wk =   0.0078125
        k(  111) = (   0.2500000   0.2886752  -0.3841994), wk =   0.0078125
        k(  112) = (   0.2500000   0.2886751  -0.2881496), wk =   0.0078125
        k(  113) = (   0.2500000   0.2886751  -0.1920998), wk =   0.0078125
        k(  114) = (   0.2500000   0.2886751  -0.0960500), wk =   0.0078125
        k(  115) = (   0.2500000   0.4330126  -0.0000002), wk =   0.0078125
        k(  116) = (   0.2500000   0.4330126   0.0960496), wk =   0.0078125
        k(  117) = (   0.2500000   0.4330126   0.1920994), wk =   0.0078125
        k(  118) = (   0.2499999   0.4330125   0.2881492), wk =   0.0078125
        k(  119) = (   0.2500000   0.4330127  -0.3841994), wk =   0.0078125
        k(  120) = (   0.2500000   0.4330127  -0.2881496), wk =   0.0078125
        k(  121) = (   0.2500000   0.4330127  -0.1920998), wk =   0.0078125
        k(  122) = (   0.2500000   0.4330126  -0.0960500), wk =   0.0078125
        k(  123) = (   0.2500000   0.5773502  -0.0000003), wk =   0.0078125
        k(  124) = (   0.2500000   0.5773501   0.0960495), wk =   0.0078125
        k(  125) = (   0.2499999   0.5773501   0.1920993), wk =   0.0078125
        k(  126) = (   0.2499999   0.5773501   0.2881491), wk =   0.0078125
        k(  127) = (   0.2500000   0.5773503  -0.3841995), wk =   0.0078125
        k(  128) = (   0.2500000   0.5773502  -0.2881497), wk =   0.0078125
        k(  129) = (   0.2500000   0.5773502  -0.1920999), wk =   0.0078125
        k(  130) = (   0.2500000   0.5773502  -0.0960501), wk =   0.0078125
        k(  131) = (   0.2500000  -0.4330127   0.0000002), wk =   0.0078125
        k(  132) = (   0.2500000  -0.4330127   0.0960500), wk =   0.0078125
        k(  133) = (   0.2500000  -0.4330127   0.1920998), wk =   0.0078125
        k(  134) = (   0.2500000  -0.4330127   0.2881496), wk =   0.0078125
        k(  135) = (   0.2500001  -0.4330125  -0.3841991), wk =   0.0078125
        k(  136) = (   0.2500001  -0.4330126  -0.2881492), wk =   0.0078125
        k(  137) = (   0.2500000  -0.4330126  -0.1920994), wk =   0.0078125
        k(  138) = (   0.2500000  -0.4330126  -0.0960496), wk =   0.0078125
        k(  139) = (   0.2500000  -0.2886751   0.0000001), wk =   0.0078125
        k(  140) = (   0.2500000  -0.2886751   0.0960499), wk =   0.0078125
        k(  141) = (   0.2500000  -0.2886752   0.1920997), wk =   0.0078125
        k(  142) = (   0.2500000  -0.2886752   0.2881495), wk =   0.0078125
        k(  143) = (   0.2500000  -0.2886750  -0.3841991), wk =   0.0078125
        k(  144) = (   0.2500000  -0.2886750  -0.2881493), wk =   0.0078125
        k(  145) = (   0.2500000  -0.2886751  -0.1920995), wk =   0.0078125
        k(  146) = (   0.2500000  -0.2886751  -0.0960497), wk =   0.0078125
        k(  147) = (   0.2500000  -0.1443376   0.0000000), wk =   0.0078125
        k(  148) = (   0.2500000  -0.1443376   0.0960498), wk =   0.0078125
        k(  149) = (   0.2500000  -0.1443376   0.1920997), wk =   0.0078125
        k(  150) = (   0.2500000  -0.1443376   0.2881495), wk =   0.0078125
        k(  151) = (   0.2500000  -0.1443375  -0.3841992), wk =   0.0078125
        k(  152) = (   0.2500000  -0.1443375  -0.2881494), wk =   0.0078125
        k(  153) = (   0.2500000  -0.1443375  -0.1920996), wk =   0.0078125
        k(  154) = (   0.2500000  -0.1443375  -0.0960498), wk =   0.0078125
        k(  155) = (   0.2500000  -0.0000000  -0.0000000), wk =   0.0078125
        k(  156) = (   0.2500000  -0.0000000   0.0960498), wk =   0.0078125
        k(  157) = (   0.2500000  -0.0000001   0.1920996), wk =   0.0078125
        k(  158) = (   0.2500000  -0.0000001   0.2881494), wk =   0.0078125
        k(  159) = (   0.2500000   0.0000001  -0.3841992), wk =   0.0078125
        k(  160) = (   0.2500000   0.0000001  -0.2881494), wk =   0.0078125
        k(  161) = (   0.2500000   0.0000000  -0.1920996), wk =   0.0078125
        k(  162) = (   0.2500000   0.0000000  -0.0960498), wk =   0.0078125
        k(  163) = (   0.3750000   0.2165063  -0.0000001), wk =   0.0078125
        k(  164) = (   0.3750000   0.2165063   0.0960497), wk =   0.0078125
        k(  165) = (   0.3750000   0.2165062   0.1920995), wk =   0.0078125
        k(  166) = (   0.3750000   0.2165062   0.2881493), wk =   0.0078125
        k(  167) = (   0.3750000   0.2165064  -0.3841993), wk =   0.0078125
        k(  168) = (   0.3750000   0.2165064  -0.2881495), wk =   0.0078125
        k(  169) = (   0.3750000   0.2165063  -0.1920997), wk =   0.0078125
        k(  170) = (   0.3750000   0.2165063  -0.0960499), wk =   0.0078125
        k(  171) = (   0.3750000   0.3608438  -0.0000002), wk =   0.0078125
        k(  172) = (   0.3750000   0.3608438   0.0960496), wk =   0.0078125
        k(  173) = (   0.3750000   0.3608438   0.1920994), wk =   0.0078125
        k(  174) = (   0.3750000   0.3608438   0.2881492), wk =   0.0078125
        k(  175) = (   0.3750000   0.3608439  -0.3841994), wk =   0.0078125
        k(  176) = (   0.3750000   0.3608439  -0.2881496), wk =   0.0078125
        k(  177) = (   0.3750000   0.3608439  -0.1920998), wk =   0.0078125
        k(  178) = (   0.3750000   0.3608439  -0.0960500), wk =   0.0078125
        k(  179) = (   0.3750000   0.5051814  -0.0000003), wk =   0.0078125
        k(  180) = (   0.3750000   0.5051814   0.0960496), wk =   0.0078125
        k(  181) = (   0.3749999   0.5051813   0.1920994), wk =   0.0078125
        k(  182) = (   0.3749999   0.5051813   0.2881492), wk =   0.0078125
        k(  183) = (   0.3750000   0.5051815  -0.3841995), wk =   0.0078125
        k(  184) = (   0.3750000   0.5051815  -0.2881497), wk =   0.0078125
        k(  185) = (   0.3750000   0.5051814  -0.1920999), wk =   0.0078125
        k(  186) = (   0.3750000   0.5051814  -0.0960501), wk =   0.0078125
        k(  187) = (   0.3750000   0.6495189  -0.0000003), wk =   0.0078125
        k(  188) = (   0.3749999   0.6495189   0.0960495), wk =   0.0078125
        k(  189) = (   0.3749999   0.6495189   0.1920993), wk =   0.0078125
        k(  190) = (   0.3749999   0.6495188   0.2881491), wk =   0.0078125
        k(  191) = (   0.3750000   0.6495190  -0.3841995), wk =   0.0078125
        k(  192) = (   0.3750000   0.6495190  -0.2881497), wk =   0.0078125
        k(  193) = (   0.3750000   0.6495190  -0.1920999), wk =   0.0078125
        k(  194) = (   0.3750000   0.6495189  -0.0960501), wk =   0.0078125
        k(  195) = (   0.3750000  -0.3608439   0.0000001), wk =   0.0078125
        k(  196) = (   0.3750000  -0.3608439   0.0960499), wk =   0.0078125
        k(  197) = (   0.3750000  -0.3608439   0.1920997), wk =   0.0078125
        k(  198) = (   0.3750000  -0.3608440   0.2881495), wk =   0.0078125
        k(  199) = (   0.3750001  -0.3608438  -0.3841991), wk =   0.0078125
        k(  200) = (   0.3750000  -0.3608438  -0.2881493), wk =   0.0078125
        k(  201) = (   0.3750000  -0.3608438  -0.1920995), wk =   0.0078125
        k(  202) = (   0.3750000  -0.3608439  -0.0960497), wk =   0.0078125
        k(  203) = (   0.3750000  -0.2165063   0.0000001), wk =   0.0078125
        k(  204) = (   0.3750000  -0.2165064   0.0960499), wk =   0.0078125
        k(  205) = (   0.3750000  -0.2165064   0.1920997), wk =   0.0078125
        k(  206) = (   0.3750000  -0.2165064   0.2881495), wk =   0.0078125
        k(  207) = (   0.3750000  -0.2165062  -0.3841992), wk =   0.0078125
        k(  208) = (   0.3750000  -0.2165063  -0.2881494), wk =   0.0078125
        k(  209) = (   0.3750000  -0.2165063  -0.1920996), wk =   0.0078125
        k(  210) = (   0.3750000  -0.2165063  -0.0960497), wk =   0.0078125
        k(  211) = (   0.3750000  -0.0721688  -0.0000000), wk =   0.0078125
        k(  212) = (   0.3750000  -0.0721688   0.0960498), wk =   0.0078125
        k(  213) = (   0.3750000  -0.0721689   0.1920996), wk =   0.0078125
        k(  214) = (   0.3750000  -0.0721689   0.2881494), wk =   0.0078125
        k(  215) = (   0.3750000  -0.0721687  -0.3841992), wk =   0.0078125
        k(  216) = (   0.3750000  -0.0721687  -0.2881494), wk =   0.0078125
        k(  217) = (   0.3750000  -0.0721687  -0.1920996), wk =   0.0078125
        k(  218) = (   0.3750000  -0.0721688  -0.0960498), wk =   0.0078125
        k(  219) = (   0.3750000   0.0721687  -0.0000001), wk =   0.0078125
        k(  220) = (   0.3750000   0.0721687   0.0960497), wk =   0.0078125
        k(  221) = (   0.3750000   0.0721687   0.1920995), wk =   0.0078125
        k(  222) = (   0.3750000   0.0721687   0.2881493), wk =   0.0078125
        k(  223) = (   0.3750000   0.0721688  -0.3841993), wk =   0.0078125
        k(  224) = (   0.3750000   0.0721688  -0.2881495), wk =   0.0078125
        k(  225) = (   0.3750000   0.0721688  -0.1920997), wk =   0.0078125
        k(  226) = (   0.3750000   0.0721688  -0.0960499), wk =   0.0078125
        k(  227) = (  -0.5000000  -0.2886751   0.0000002), wk =   0.0039062
        k(  228) = (  -0.5000000  -0.2886751   0.0960500), wk =   0.0078125
        k(  229) = (  -0.5000000  -0.2886751   0.1920998), wk =   0.0078125
        k(  230) = (  -0.5000000  -0.2886751   0.2881496), wk =   0.0078125
        k(  231) = (  -0.5000000  -0.2886749  -0.3841990), wk =   0.0039062
        k(  232) = (  -0.5000000  -0.1443375   0.0000001), wk =   0.0078125
        k(  233) = (  -0.5000000  -0.1443375   0.0960499), wk =   0.0078125
        k(  234) = (  -0.5000000  -0.1443376   0.1920997), wk =   0.0078125
        k(  235) = (  -0.5000000  -0.1443376   0.2881495), wk =   0.0078125
        k(  236) = (  -0.5000000  -0.1443374  -0.3841991), wk =   0.0078125
        k(  237) = (  -0.5000000  -0.1443374  -0.2881493), wk =   0.0078125
        k(  238) = (  -0.5000000  -0.1443375  -0.1920995), wk =   0.0078125
        k(  239) = (  -0.5000000  -0.1443375  -0.0960497), wk =   0.0078125
        k(  240) = (  -0.5000000   0.0000000   0.0000000), wk =   0.0078125
        k(  241) = (  -0.5000000   0.0000000   0.0960499), wk =   0.0078125
        k(  242) = (  -0.5000000  -0.0000000   0.1920997), wk =   0.0078125
        k(  243) = (  -0.5000000  -0.0000000   0.2881495), wk =   0.0078125
        k(  244) = (  -0.5000000   0.0000001  -0.3841992), wk =   0.0078125
        k(  245) = (  -0.5000000   0.0000001  -0.2881494), wk =   0.0078125
        k(  246) = (  -0.5000000   0.0000001  -0.1920996), wk =   0.0078125
        k(  247) = (  -0.5000000   0.0000001  -0.0960498), wk =   0.0078125
        k(  248) = (  -0.5000000   0.1443376  -0.0000000), wk =   0.0078125
        k(  249) = (  -0.5000000   0.1443376   0.0960498), wk =   0.0078125
        k(  250) = (  -0.5000000   0.1443375   0.1920996), wk =   0.0078125
        k(  251) = (  -0.5000000   0.1443375   0.2881494), wk =   0.0078125
        k(  252) = (  -0.5000000   0.1443377  -0.3841992), wk =   0.0078125
        k(  253) = (  -0.5000000   0.1443377  -0.2881494), wk =   0.0078125
        k(  254) = (  -0.5000000   0.1443376  -0.1920996), wk =   0.0078125
        k(  255) = (  -0.5000000   0.1443376  -0.0960498), wk =   0.0078125
        k(  256) = (  -0.4999999  -0.8660252   0.0000004), wk =   0.0039062
        k(  257) = (  -0.4999999  -0.8660253   0.0960502), wk =   0.0078125
        k(  258) = (  -0.4999999  -0.8660253   0.1921000), wk =   0.0078125
        k(  259) = (  -0.5000000  -0.8660253   0.2881498), wk =   0.0078125
        k(  260) = (  -0.4999999  -0.8660251  -0.3841988), wk =   0.0039062

                       cryst. coord.
        k(    1) = (   0.0000000   0.0000000   0.0000000), wk =   0.0039062
        k(    2) = (   0.0000000  -0.0000000   0.1250000), wk =   0.0078125
        k(    3) = (   0.0000000  -0.0000000   0.2500000), wk =   0.0078125
        k(    4) = (   0.0000000   0.0000000   0.3750000), wk =   0.0078125
        k(    5) = (  -0.0000000   0.0000000  -0.5000000), wk =   0.0039062
        k(    6) = (  -0.0000000   0.1250000  -0.0000000), wk =   0.0078125
        k(    7) = (  -0.0000000   0.1250000   0.1250000), wk =   0.0078125
        k(    8) = (  -0.0000000   0.1250000   0.2500000), wk =   0.0078125
        k(    9) = (   0.0000000   0.1250000   0.3750000), wk =   0.0078125
        k(   10) = (  -0.0000000   0.1250000  -0.5000000), wk =   0.0078125
        k(   11) = (  -0.0000000   0.1250000  -0.3750000), wk =   0.0078125
        k(   12) = (  -0.0000000   0.1250000  -0.2500000), wk =   0.0078125
        k(   13) = (  -0.0000000   0.1250000  -0.1250000), wk =   0.0078125
        k(   14) = (  -0.0000000   0.2500000  -0.0000000), wk =   0.0078125
        k(   15) = (  -0.0000000   0.2500000   0.1250000), wk =   0.0078125
        k(   16) = (  -0.0000000   0.2500000   0.2500000), wk =   0.0078125
        k(   17) = (  -0.0000000   0.2500000   0.3750000), wk =   0.0078125
        k(   18) = (  -0.0000000   0.2500000  -0.5000000), wk =   0.0078125
        k(   19) = (  -0.0000000   0.2500000  -0.3750000), wk =   0.0078125
        k(   20) = (  -0.0000000   0.2500000  -0.2500000), wk =   0.0078125
        k(   21) = (  -0.0000000   0.2500000  -0.1250000), wk =   0.0078125
        k(   22) = (  -0.0000000   0.3750000  -0.0000000), wk =   0.0078125
        k(   23) = (  -0.0000000   0.3750000   0.1250000), wk =   0.0078125
        k(   24) = (  -0.0000000   0.3750000   0.2500000), wk =   0.0078125
        k(   25) = (  -0.0000000   0.3750000   0.3750000), wk =   0.0078125
        k(   26) = (  -0.0000000   0.3750000  -0.5000000), wk =   0.0078125
        k(   27) = (  -0.0000000   0.3750000  -0.3750000), wk =   0.0078125
        k(   28) = (  -0.0000000   0.3750000  -0.2500000), wk =   0.0078125
        k(   29) = (  -0.0000000   0.3750000  -0.1250000), wk =   0.0078125
        k(   30) = (   0.0000000  -0.5000000   0.0000000), wk =   0.0039062
        k(   31) = (   0.0000000  -0.5000000   0.1250000), wk =   0.0078125
        k(   32) = (   0.0000000  -0.5000000   0.2500000), wk =   0.0078125
        k(   33) = (   0.0000000  -0.5000000   0.3750000), wk =   0.0078125
        k(   34) = (   0.0000000  -0.5000000  -0.5000000), wk =   0.0039062
        k(   35) = (   0.1250000  -0.0000000  -0.0000000), wk =   0.0078125
        k(   36) = (   0.1250000  -0.0000000   0.1250000), wk =   0.0078125
        k(   37) = (   0.1250000  -0.0000000   0.2500000), wk =   0.0078125
        k(   38) = (   0.1250000  -0.0000000   0.3750000), wk =   0.0078125
        k(   39) = (   0.1250000  -0.0000000  -0.5000000), wk =   0.0078125
        k(   40) = (   0.1250000  -0.0000000  -0.3750000), wk =   0.0078125
        k(   41) = (   0.1250000  -0.0000000  -0.2500000), wk =   0.0078125
        k(   42) = (   0.1250000  -0.0000000  -0.1250000), wk =   0.0078125
        k(   43) = (   0.1250000   0.1250000  -0.0000000), wk =   0.0078125
        k(   44) = (   0.1250000   0.1250000   0.1250000), wk =   0.0078125
        k(   45) = (   0.1250000   0.1250000   0.2500000), wk =   0.0078125
        k(   46) = (   0.1250000   0.1250000   0.3750000), wk =   0.0078125
        k(   47) = (   0.1250000   0.1250000  -0.5000000), wk =   0.0078125
        k(   48) = (   0.1250000   0.1250000  -0.3750000), wk =   0.0078125
        k(   49) = (   0.1250000   0.1250000  -0.2500000), wk =   0.0078125
        k(   50) = (   0.1250000   0.1250000  -0.1250000), wk =   0.0078125
        k(   51) = (   0.1250000   0.2500000   0.0000000), wk =   0.0078125
        k(   52) = (   0.1250000   0.2500000   0.1250000), wk =   0.0078125
        k(   53) = (   0.1250000   0.2500000   0.2500000), wk =   0.0078125
        k(   54) = (   0.1250000   0.2500000   0.3750000), wk =   0.0078125
        k(   55) = (   0.1250000   0.2500000  -0.5000000), wk =   0.0078125
        k(   56) = (   0.1250000   0.2500000  -0.3750000), wk =   0.0078125
        k(   57) = (   0.1250000   0.2500000  -0.2500000), wk =   0.0078125
        k(   58) = (   0.1250000   0.2500000  -0.1250000), wk =   0.0078125
        k(   59) = (   0.1250000   0.3750000   0.0000000), wk =   0.0078125
        k(   60) = (   0.1250000   0.3750000   0.1250000), wk =   0.0078125
        k(   61) = (   0.1250000   0.3750000   0.2500000), wk =   0.0078125
        k(   62) = (   0.1250000   0.3750000   0.3750000), wk =   0.0078125
        k(   63) = (   0.1250000   0.3750000  -0.5000000), wk =   0.0078125
        k(   64) = (   0.1250000   0.3750000  -0.3750000), wk =   0.0078125
        k(   65) = (   0.1250000   0.3750000  -0.2500000), wk =   0.0078125
        k(   66) = (   0.1250000   0.3750000  -0.1250000), wk =   0.0078125
        k(   67) = (   0.1250000  -0.5000000   0.0000000), wk =   0.0078125
        k(   68) = (   0.1250000  -0.5000000   0.1250000), wk =   0.0078125
        k(   69) = (   0.1250000  -0.5000000   0.2500000), wk =   0.0078125
        k(   70) = (   0.1250000  -0.5000000   0.3750000), wk =   0.0078125
        k(   71) = (   0.1250000  -0.5000000  -0.5000000), wk =   0.0078125
        k(   72) = (   0.1250000  -0.5000000  -0.3750000), wk =   0.0078125
        k(   73) = (   0.1250000  -0.5000000  -0.2500000), wk =   0.0078125
        k(   74) = (   0.1250000  -0.5000000  -0.1250000), wk =   0.0078125
        k(   75) = (   0.1250000  -0.3750000   0.0000000), wk =   0.0078125
        k(   76) = (   0.1250000  -0.3750000   0.1250000), wk =   0.0078125
        k(   77) = (   0.1250000  -0.3750000   0.2500000), wk =   0.0078125
        k(   78) = (   0.1250000  -0.3750000   0.3750000), wk =   0.0078125
        k(   79) = (   0.1250000  -0.3750000  -0.5000000), wk =   0.0078125
        k(   80) = (   0.1250000  -0.3750000  -0.3750000), wk =   0.0078125
        k(   81) = (   0.1250000  -0.3750000  -0.2500000), wk =   0.0078125
        k(   82) = (   0.1250000  -0.3750000  -0.1250000), wk =   0.0078125
        k(   83) = (   0.1250000  -0.2500000   0.0000000), wk =   0.0078125
        k(   84) = (   0.1250000  -0.2500000   0.1250000), wk =   0.0078125
        k(   85) = (   0.1250000  -0.2500000   0.2500000), wk =   0.0078125
        k(   86) = (   0.1250000  -0.2500000   0.3750000), wk =   0.0078125
        k(   87) = (   0.1250000  -0.2500000  -0.5000000), wk =   0.0078125
        k(   88) = (   0.1250000  -0.2500000  -0.3750000), wk =   0.0078125
        k(   89) = (   0.1250000  -0.2500000  -0.2500000), wk =   0.0078125
        k(   90) = (   0.1250000  -0.2500000  -0.1250000), wk =   0.0078125
        k(   91) = (   0.1250000  -0.1250000  -0.0000000), wk =   0.0078125
        k(   92) = (   0.1250000  -0.1250000   0.1250000), wk =   0.0078125
        k(   93) = (   0.1250000  -0.1250000   0.2500000), wk =   0.0078125
        k(   94) = (   0.1250000  -0.1250000   0.3750000), wk =   0.0078125
        k(   95) = (   0.1250000  -0.1250000  -0.5000000), wk =   0.0078125
        k(   96) = (   0.1250000  -0.1250000  -0.3750000), wk =   0.0078125
        k(   97) = (   0.1250000  -0.1250000  -0.2500000), wk =   0.0078125
        k(   98) = (   0.1250000  -0.1250000  -0.1250000), wk =   0.0078125
        k(   99) = (   0.2500000  -0.0000000  -0.0000000), wk =   0.0078125
        k(  100) = (   0.2500000  -0.0000000   0.1250000), wk =   0.0078125
        k(  101) = (   0.2500000  -0.0000000   0.2500000), wk =   0.0078125
        k(  102) = (   0.2500000  -0.0000000   0.3750000), wk =   0.0078125
        k(  103) = (   0.2500000  -0.0000000  -0.5000000), wk =   0.0078125
        k(  104) = (   0.2500000  -0.0000000  -0.3750000), wk =   0.0078125
        k(  105) = (   0.2500000  -0.0000000  -0.2500000), wk =   0.0078125
        k(  106) = (   0.2500000  -0.0000000  -0.1250000), wk =   0.0078125
        k(  107) = (   0.2500000   0.1250000  -0.0000000), wk =   0.0078125
        k(  108) = (   0.2500000   0.1250000   0.1250000), wk =   0.0078125
        k(  109) = (   0.2500000   0.1250000   0.2500000), wk =   0.0078125
        k(  110) = (   0.2500000   0.1250000   0.3750000), wk =   0.0078125
        k(  111) = (   0.2500000   0.1250000  -0.5000000), wk =   0.0078125
        k(  112) = (   0.2500000   0.1250000  -0.3750000), wk =   0.0078125
        k(  113) = (   0.2500000   0.1250000  -0.2500000), wk =   0.0078125
        k(  114) = (   0.2500000   0.1250000  -0.1250000), wk =   0.0078125
        k(  115) = (   0.2500000   0.2500000  -0.0000000), wk =   0.0078125
        k(  116) = (   0.2500000   0.2500000   0.1250000), wk =   0.0078125
        k(  117) = (   0.2500000   0.2500000   0.2500000), wk =   0.0078125
        k(  118) = (   0.2500000   0.2500000   0.3750000), wk =   0.0078125
        k(  119) = (   0.2500000   0.2500000  -0.5000000), wk =   0.0078125
        k(  120) = (   0.2500000   0.2500000  -0.3750000), wk =   0.0078125
        k(  121) = (   0.2500000   0.2500000  -0.2500000), wk =   0.0078125
        k(  122) = (   0.2500000   0.2500000  -0.1250000), wk =   0.0078125
        k(  123) = (   0.2500000   0.3750000  -0.0000000), wk =   0.0078125
        k(  124) = (   0.2500000   0.3750000   0.1250000), wk =   0.0078125
        k(  125) = (   0.2500000   0.3750000   0.2500000), wk =   0.0078125
        k(  126) = (   0.2500000   0.3750000   0.3750000), wk =   0.0078125
        k(  127) = (   0.2500000   0.3750000  -0.5000000), wk =   0.0078125
        k(  128) = (   0.2500000   0.3750000  -0.3750000), wk =   0.0078125
        k(  129) = (   0.2500000   0.3750000  -0.2500000), wk =   0.0078125
        k(  130) = (   0.2500000   0.3750000  -0.1250000), wk =   0.0078125
        k(  131) = (   0.2500000  -0.5000000   0.0000000), wk =   0.0078125
        k(  132) = (   0.2500000  -0.5000000   0.1250000), wk =   0.0078125
        k(  133) = (   0.2500000  -0.5000000   0.2500000), wk =   0.0078125
        k(  134) = (   0.2500000  -0.5000000   0.3750000), wk =   0.0078125
        k(  135) = (   0.2500000  -0.5000000  -0.5000000), wk =   0.0078125
        k(  136) = (   0.2500000  -0.5000000  -0.3750000), wk =   0.0078125
        k(  137) = (   0.2500000  -0.5000000  -0.2500000), wk =   0.0078125
        k(  138) = (   0.2500000  -0.5000000  -0.1250000), wk =   0.0078125
        k(  139) = (   0.2500000  -0.3750000  -0.0000000), wk =   0.0078125
        k(  140) = (   0.2500000  -0.3750000   0.1250000), wk =   0.0078125
        k(  141) = (   0.2500000  -0.3750000   0.2500000), wk =   0.0078125
        k(  142) = (   0.2500000  -0.3750000   0.3750000), wk =   0.0078125
        k(  143) = (   0.2500000  -0.3750000  -0.5000000), wk =   0.0078125
        k(  144) = (   0.2500000  -0.3750000  -0.3750000), wk =   0.0078125
        k(  145) = (   0.2500000  -0.3750000  -0.2500000), wk =   0.0078125
        k(  146) = (   0.2500000  -0.3750000  -0.1250000), wk =   0.0078125
        k(  147) = (   0.2500000  -0.2500000  -0.0000000), wk =   0.0078125
        k(  148) = (   0.2500000  -0.2500000   0.1250000), wk =   0.0078125
        k(  149) = (   0.2500000  -0.2500000   0.2500000), wk =   0.0078125
        k(  150) = (   0.2500000  -0.2500000   0.3750000), wk =   0.0078125
        k(  151) = (   0.2500000  -0.2500000  -0.5000000), wk =   0.0078125
        k(  152) = (   0.2500000  -0.2500000  -0.3750000), wk =   0.0078125
        k(  153) = (   0.2500000  -0.2500000  -0.2500000), wk =   0.0078125
        k(  154) = (   0.2500000  -0.2500000  -0.1250000), wk =   0.0078125
        k(  155) = (   0.2500000  -0.1250000  -0.0000000), wk =   0.0078125
        k(  156) = (   0.2500000  -0.1250000   0.1250000), wk =   0.0078125
        k(  157) = (   0.2500000  -0.1250000   0.2500000), wk =   0.0078125
        k(  158) = (   0.2500000  -0.1250000   0.3750000), wk =   0.0078125
        k(  159) = (   0.2500000  -0.1250000  -0.5000000), wk =   0.0078125
        k(  160) = (   0.2500000  -0.1250000  -0.3750000), wk =   0.0078125
        k(  161) = (   0.2500000  -0.1250000  -0.2500000), wk =   0.0078125
        k(  162) = (   0.2500000  -0.1250000  -0.1250000), wk =   0.0078125
        k(  163) = (   0.3750000  -0.0000000  -0.0000000), wk =   0.0078125
        k(  164) = (   0.3750000  -0.0000000   0.1250000), wk =   0.0078125
        k(  165) = (   0.3750000  -0.0000000   0.2500000), wk =   0.0078125
        k(  166) = (   0.3750000  -0.0000000   0.3750000), wk =   0.0078125
        k(  167) = (   0.3750000  -0.0000000  -0.5000000), wk =   0.0078125
        k(  168) = (   0.3750000  -0.0000000  -0.3750000), wk =   0.0078125
        k(  169) = (   0.3750000  -0.0000000  -0.2500000), wk =   0.0078125
        k(  170) = (   0.3750000  -0.0000000  -0.1250000), wk =   0.0078125
        k(  171) = (   0.3750000   0.1250000   0.0000000), wk =   0.0078125
        k(  172) = (   0.3750000   0.1250000   0.1250000), wk =   0.0078125
        k(  173) = (   0.3750000   0.1250000   0.2500000), wk =   0.0078125
        k(  174) = (   0.3750000   0.1250000   0.3750000), wk =   0.0078125
        k(  175) = (   0.3750000   0.1250000  -0.5000000), wk =   0.0078125
        k(  176) = (   0.3750000   0.1250000  -0.3750000), wk =   0.0078125
        k(  177) = (   0.3750000   0.1250000  -0.2500000), wk =   0.0078125
        k(  178) = (   0.3750000   0.1250000  -0.1250000), wk =   0.0078125
        k(  179) = (   0.3750000   0.2500000  -0.0000000), wk =   0.0078125
        k(  180) = (   0.3750000   0.2500000   0.1250000), wk =   0.0078125
        k(  181) = (   0.3750000   0.2500000   0.2500000), wk =   0.0078125
        k(  182) = (   0.3750000   0.2500000   0.3750000), wk =   0.0078125
        k(  183) = (   0.3750000   0.2500000  -0.5000000), wk =   0.0078125
        k(  184) = (   0.3750000   0.2500000  -0.3750000), wk =   0.0078125
        k(  185) = (   0.3750000   0.2500000  -0.2500000), wk =   0.0078125
        k(  186) = (   0.3750000   0.2500000  -0.1250000), wk =   0.0078125
        k(  187) = (   0.3750000   0.3750000  -0.0000000), wk =   0.0078125
        k(  188) = (   0.3750000   0.3750000   0.1250000), wk =   0.0078125
        k(  189) = (   0.3750000   0.3750000   0.2500000), wk =   0.0078125
        k(  190) = (   0.3750000   0.3750000   0.3750000), wk =   0.0078125
        k(  191) = (   0.3750000   0.3750000  -0.5000000), wk =   0.0078125
        k(  192) = (   0.3750000   0.3750000  -0.3750000), wk =   0.0078125
        k(  193) = (   0.3750000   0.3750000  -0.2500000), wk =   0.0078125
        k(  194) = (   0.3750000   0.3750000  -0.1250000), wk =   0.0078125
        k(  195) = (   0.3750000  -0.5000000   0.0000000), wk =   0.0078125
        k(  196) = (   0.3750000  -0.5000000   0.1250000), wk =   0.0078125
        k(  197) = (   0.3750000  -0.5000000   0.2500000), wk =   0.0078125
        k(  198) = (   0.3750000  -0.5000000   0.3750000), wk =   0.0078125
        k(  199) = (   0.3750000  -0.5000000  -0.5000000), wk =   0.0078125
        k(  200) = (   0.3750000  -0.5000000  -0.3750000), wk =   0.0078125
        k(  201) = (   0.3750000  -0.5000000  -0.2500000), wk =   0.0078125
        k(  202) = (   0.3750000  -0.5000000  -0.1250000), wk =   0.0078125
        k(  203) = (   0.3750000  -0.3750000  -0.0000000), wk =   0.0078125
        k(  204) = (   0.3750000  -0.3750000   0.1250000), wk =   0.0078125
        k(  205) = (   0.3750000  -0.3750000   0.2500000), wk =   0.0078125
        k(  206) = (   0.3750000  -0.3750000   0.3750000), wk =   0.0078125
        k(  207) = (   0.3750000  -0.3750000  -0.5000000), wk =   0.0078125
        k(  208) = (   0.3750000  -0.3750000  -0.3750000), wk =   0.0078125
        k(  209) = (   0.3750000  -0.3750000  -0.2500000), wk =   0.0078125
        k(  210) = (   0.3750000  -0.3750000  -0.1250000), wk =   0.0078125
        k(  211) = (   0.3750000  -0.2500000   0.0000000), wk =   0.0078125
        k(  212) = (   0.3750000  -0.2500000   0.1250000), wk =   0.0078125
        k(  213) = (   0.3750000  -0.2500000   0.2500000), wk =   0.0078125
        k(  214) = (   0.3750000  -0.2500000   0.3750000), wk =   0.0078125
        k(  215) = (   0.3750000  -0.2500000  -0.5000000), wk =   0.0078125
        k(  216) = (   0.3750000  -0.2500000  -0.3750000), wk =   0.0078125
        k(  217) = (   0.3750000  -0.2500000  -0.2500000), wk =   0.0078125
        k(  218) = (   0.3750000  -0.2500000  -0.1250000), wk =   0.0078125
        k(  219) = (   0.3750000  -0.1250000  -0.0000000), wk =   0.0078125
        k(  220) = (   0.3750000  -0.1250000   0.1250000), wk =   0.0078125
        k(  221) = (   0.3750000  -0.1250000   0.2500000), wk =   0.0078125
        k(  222) = (   0.3750000  -0.1250000   0.3750000), wk =   0.0078125
        k(  223) = (   0.3750000  -0.1250000  -0.5000000), wk =   0.0078125
        k(  224) = (   0.3750000  -0.1250000  -0.3750000), wk =   0.0078125
        k(  225) = (   0.3750000  -0.1250000  -0.2500000), wk =   0.0078125
        k(  226) = (   0.3750000  -0.1250000  -0.1250000), wk =   0.0078125
        k(  227) = (  -0.5000000   0.0000000   0.0000000), wk =   0.0039062
        k(  228) = (  -0.5000000   0.0000000   0.1250000), wk =   0.0078125
        k(  229) = (  -0.5000000   0.0000000   0.2500000), wk =   0.0078125
        k(  230) = (  -0.5000000   0.0000000   0.3750000), wk =   0.0078125
        k(  231) = (  -0.5000000   0.0000000  -0.5000000), wk =   0.0039062
        k(  232) = (  -0.5000000   0.1250000   0.0000000), wk =   0.0078125
        k(  233) = (  -0.5000000   0.1250000   0.1250000), wk =   0.0078125
        k(  234) = (  -0.5000000   0.1250000   0.2500000), wk =   0.0078125
        k(  235) = (  -0.5000000   0.1250000   0.3750000), wk =   0.0078125
        k(  236) = (  -0.5000000   0.1250000  -0.5000000), wk =   0.0078125
        k(  237) = (  -0.5000000   0.1250000  -0.3750000), wk =   0.0078125
        k(  238) = (  -0.5000000   0.1250000  -0.2500000), wk =   0.0078125
        k(  239) = (  -0.5000000   0.1250000  -0.1250000), wk =   0.0078125
        k(  240) = (  -0.5000000   0.2500000   0.0000000), wk =   0.0078125
        k(  241) = (  -0.5000000   0.2500000   0.1250000), wk =   0.0078125
        k(  242) = (  -0.5000000   0.2500000   0.2500000), wk =   0.0078125
        k(  243) = (  -0.5000000   0.2500000   0.3750000), wk =   0.0078125
        k(  244) = (  -0.5000000   0.2500000  -0.5000000), wk =   0.0078125
        k(  245) = (  -0.5000000   0.2500000  -0.3750000), wk =   0.0078125
        k(  246) = (  -0.5000000   0.2500000  -0.2500000), wk =   0.0078125
        k(  247) = (  -0.5000000   0.2500000  -0.1250000), wk =   0.0078125
        k(  248) = (  -0.5000000   0.3750000   0.0000000), wk =   0.0078125
        k(  249) = (  -0.5000000   0.3750000   0.1250000), wk =   0.0078125
        k(  250) = (  -0.5000000   0.3750000   0.2500000), wk =   0.0078125
        k(  251) = (  -0.5000000   0.3750000   0.3750000), wk =   0.0078125
        k(  252) = (  -0.5000000   0.3750000  -0.5000000), wk =   0.0078125
        k(  253) = (  -0.5000000   0.3750000  -0.3750000), wk =   0.0078125
        k(  254) = (  -0.5000000   0.3750000  -0.2500000), wk =   0.0078125
        k(  255) = (  -0.5000000   0.3750000  -0.1250000), wk =   0.0078125
        k(  256) = (  -0.5000000  -0.5000000   0.0000000), wk =   0.0039062
        k(  257) = (  -0.5000000  -0.5000000   0.1250000), wk =   0.0078125
        k(  258) = (  -0.5000000  -0.5000000   0.2500000), wk =   0.0078125
        k(  259) = (  -0.5000000  -0.5000000   0.3750000), wk =   0.0078125
        k(  260) = (  -0.5000000  -0.5000000  -0.5000000), wk =   0.0039062

     Dense  grid:    76139 G-vectors     FFT dimensions: (  54,  54,  72)

     Smooth grid:    29605 G-vectors     FFT dimensions: (  40,  40,  50)

     Dynamical RAM for                 wfc:       0.06 MB

     Dynamical RAM for     wfc (w. buffer):       3.72 MB

     Dynamical RAM for           str. fact:       0.15 MB

     Dynamical RAM for           local pot:       0.00 MB

     Dynamical RAM for          nlocal pot:       0.23 MB

     Dynamical RAM for                qrad:       5.40 MB

     Dynamical RAM for          rho,v,vnew:       0.55 MB

     Dynamical RAM for               rhoin:       0.18 MB

     Dynamical RAM for            rho*nmix:       1.16 MB

     Dynamical RAM for           G-vectors:       0.29 MB

     Dynamical RAM for          h,s,v(r/c):       0.05 MB

     Dynamical RAM for          <psi|beta>:       0.02 MB

     Dynamical RAM for                 psi:       0.23 MB

     Dynamical RAM for                hpsi:       0.23 MB

     Dynamical RAM for                spsi:       0.23 MB

     Dynamical RAM for      wfcinit/wfcrot:       0.13 MB

     Dynamical RAM for           addusdens:       3.81 MB

     Dynamical RAM for          addusforce:       3.95 MB

     Dynamical RAM for         addusstress:       4.02 MB

     Estimated static dynamical RAM per process >      12.45 MB

     Estimated max dynamical RAM per process >      16.47 MB

     Estimated total dynamical RAM >       1.03 GB

     Check: negative core charge=   -0.000003

     Initial potential from superposition of free atoms

     starting charge   31.39954, renormalised to   32.00000
     Starting wfcs are   18 randomized atomic wfcs

     total cpu time spent up to now is        0.9 secs

     Self-consistent Calculation

     iteration #  1     ecut=    80.00 Ry     beta= 0.50
     Davidson diagonalization with overlap
     ethr =  1.00E-02,  avg # of iterations =  2.0

     total cpu time spent up to now is        1.6 secs

     total energy              =    -314.91285389 Ry
     Harris-Foulkes estimate   =    -315.45913958 Ry
     estimated scf accuracy    <       0.86142385 Ry

     iteration #  2     ecut=    80.00 Ry     beta= 0.50
     Davidson diagonalization with overlap
     ethr =  2.69E-03,  avg # of iterations =  2.7

     total cpu time spent up to now is        2.4 secs

     total energy              =    -315.14282947 Ry
     Harris-Foulkes estimate   =    -315.24498802 Ry
     estimated scf accuracy    <       0.23513833 Ry

     iteration #  3     ecut=    80.00 Ry     beta= 0.50
     Davidson diagonalization with overlap
     ethr =  7.35E-04,  avg # of iterations =  2.0

     total cpu time spent up to now is        3.1 secs

     total energy              =    -315.18252327 Ry
     Harris-Foulkes estimate   =    -315.18547918 Ry
     estimated scf accuracy    <       0.00923849 Ry

     iteration #  4     ecut=    80.00 Ry     beta= 0.50
     Davidson diagonalization with overlap
     ethr =  2.89E-05,  avg # of iterations =  1.9

     total cpu time spent up to now is        3.7 secs

     total energy              =    -315.18306553 Ry
     Harris-Foulkes estimate   =    -315.18311481 Ry
     estimated scf accuracy    <       0.00050635 Ry

     iteration #  5     ecut=    80.00 Ry     beta= 0.50
     Davidson diagonalization with overlap
     ethr =  1.58E-06,  avg # of iterations =  2.0

     total cpu time spent up to now is        4.4 secs

     total energy              =    -315.18312301 Ry
     Harris-Foulkes estimate   =    -315.18313207 Ry
     estimated scf accuracy    <       0.00003505 Ry

     iteration #  6     ecut=    80.00 Ry     beta= 0.50
     Davidson diagonalization with overlap
     ethr =  1.10E-07,  avg # of iterations =  2.5

     total cpu time spent up to now is        5.2 secs

     total energy              =    -315.18313205 Ry
     Harris-Foulkes estimate   =    -315.18313172 Ry
     estimated scf accuracy    <       0.00000194 Ry

     iteration #  7     ecut=    80.00 Ry     beta= 0.50
     Davidson diagonalization with overlap
     ethr =  6.07E-09,  avg # of iterations =  2.0

     total cpu time spent up to now is        5.9 secs

     End of self-consistent calculation

          k = 0.0000 0.0000 0.0000 (  3655 PWs)   bands (ev):

   -66.4134 -66.4043 -33.4371 -33.3889 -33.3889 -33.3711 -33.3701 -33.3701
   -11.1898  -9.9957   1.8360   3.9474   3.9474   4.6323   4.6323   5.4730

     occupation numbers 
     1.0000   1.0000   1.0000   1.0000   1.0000   1.0000   1.0000   1.0000
     1.0000   1.0000   1.0000   1.0000   1.0000   1.0000   1.0000   1.0000

          k =-0.0000-0.0000 0.0960 (  3672 PWs)   bands (ev):

   -66.4130 -66.4047 -33.4347 -33.3882 -33.3882 -33.3738 -33.3709 -33.3709
   -11.1458 -10.0424   1.9177   3.9718   3.9718   4.6044   4.6044   5.1788

     occupation numbers 
     1.0000   1.0000   1.0000   1.0000   1.0000   1.0000   1.0000   1.0000
     1.0000   1.0000   1.0000   1.0000   1.0000   1.0000   1.0000   1.0000

          k =-0.0000-0.0000 0.1921 (  3720 PWs)   bands (ev):

   -66.4120 -66.4057 -33.4279 -33.3862 -33.3862 -33.3813 -33.3729 -33.3729
   -11.0198 -10.1751   2.1629   4.0417   4.0417   4.5259   4.5259   4.5276

     occupation numbers 
     1.0000   1.0000   1.0000   1.0000   1.0000   1.0000   1.0000   1.0000
     1.0000   1.0000   1.0000   1.0000   1.0000   1.0000   1.0000   1.0000

          k =-0.0000-0.0000 0.2881 (  3708 PWs)   bands (ev):

   -66.4106 -66.4071 -33.4176 -33.3923 -33.3831 -33.3831 -33.3759 -33.3759
   -10.8295 -10.3722   2.5697   3.7990   4.1486   4.1486   4.4105   4.4106

     occupation numbers 
     1.0000   1.0000   1.0000   1.0000   1.0000   1.0000   1.0000   1.0000
     1.0000   1.0000   1.0000   1.0000   1.0000   1.0000   1.0000   1.0000

          k = 0.0000 0.0000-0.3842 (  3720 PWs)   bands (ev):

   -66.4089 -66.4088 -33.4051 -33.4051 -33.3795 -33.3795 -33.3795 -33.3795
   -10.6024 -10.6022   3.1253   3.1254   4.2777   4.2777   4.2779   4.2779

     occupation numbers 
     1.0000   1.0000   1.0000   1.0000   1.0000   1.0000   1.0000   1.0000
     1.0000   1.0000   1.0000   1.0000   1.0000   1.0000   1.0000   1.0000

          k =-0.0000 0.1443-0.0000 (  3690 PWs)   bands (ev):

   -66.4129 -66.4045 -33.4347 -33.3914 -33.3902 -33.3744 -33.3722 -33.3702
   -11.1094  -9.9916   1.9673   3.6532   3.8369   4.2373   4.6799   5.3680

     occupation numbers 
     1.0000   1.0000   1.0000   1.0000   1.0000   1.0000   1.0000   1.0000
     1.0000   1.0000   1.0000   1.0000   1.0000   1.0000   1.0000   1.0000

          k =-0.0000 0.1443 0.0960 (  3692 PWs)   bands (ev):

   -66.4126 -66.4048 -33.4329 -33.3904 -33.3894 -33.3790 -33.3710 -33.3707
   -11.0675 -10.0344   2.0194   3.6953   3.8660   4.1407   4.6445   5.2376

     occupation numbers 
     1.0000   1.0000   1.0000   1.0000   1.0000   1.0000   1.0000   1.0000
     1.0000   1.0000   1.0000   1.0000   1.0000   1.0000   1.0000   1.0000

          k =-0.0000 0.1443 0.1921 (  3701 PWs)   bands (ev):

   -66.4117 -66.4057 -33.4275 -33.3880 -33.3873 -33.3869 -33.3731 -33.3713
   -10.9477 -10.1562   2.1822   3.7012   3.9501   3.9699   4.5454   4.9544

     occupation numbers 
     1.0000   1.0000   1.0000   1.0000   1.0000   1.0000   1.0000   1.0000
     1.0000   1.0000   1.0000   1.0000   1.0000   1.0000   1.0000   1.0000

          k =-0.0000 0.1443 0.2881 (  3712 PWs)   bands (ev):

   -66.4103 -66.4071 -33.4192 -33.3978 -33.3840 -33.3831 -33.3764 -33.3742
   -10.7674 -10.3386   2.4653   3.3194   4.0794   4.1198   4.4012   4.6537

     occupation numbers 
     1.0000   1.0000   1.0000   1.0000   1.0000   1.0000   1.0000   1.0000
     1.0000   1.0000   1.0000   1.0000   1.0000   1.0000   1.0000   1.0000

          k = 0.0000 0.1443-0.3842 (  3720 PWs)   bands (ev):

   -66.4087 -66.4087 -33.4089 -33.4089 -33.3802 -33.3802 -33.3784 -33.3784
   -10.5536 -10.5534   2.8601   2.8601   4.2371   4.2373   4.3710   4.3711

     occupation numbers 
     1.0000   1.0000   1.0000   1.0000   1.0000   1.0000   1.0000   1.0000
     1.0000   1.0000   1.0000   1.0000   1.0000   1.0000   1.0000   1.0000

          k = 0.0000 0.1443-0.2881 (  3712 PWs)   bands (ev):

   -66.4103 -66.4071 -33.4192 -33.3978 -33.3840 -33.3831 -33.3764 -33.3742
   -10.7674 -10.3386   2.4652   3.3194   4.0794   4.1198   4.4012   4.6537

     occupation numbers 
     1.0000   1.0000   1.0000   1.0000   1.0000   1.0000   1.0000   1.0000
     1.0000   1.0000   1.0000   1.0000   1.0000   1.0000   1.0000   1.0000

          k = 0.0000 0.1443-0.1921 (  3701 PWs)   bands (ev):

   -66.4117 -66.4057 -33.4275 -33.3880 -33.3873 -33.3869 -33.3731 -33.3713
   -10.9477 -10.1562   2.1822   3.7012   3.9501   3.9699   4.5454   4.9544

     occupation numbers 
     1.0000   1.0000   1.0000   1.0000   1.0000   1.0000   1.0000   1.0000
     1.0000   1.0000   1.0000   1.0000   1.0000   1.0000   1.0000   1.0000

          k =-0.0000 0.1443-0.0960 (  3692 PWs)   bands (ev):

   -66.4126 -66.4048 -33.4329 -33.3904 -33.3894 -33.3790 -33.3710 -33.3707
   -11.0675 -10.0344   2.0194   3.6953   3.8660   4.1407   4.6445   5.2376

     occupation numbers 
     1.0000   1.0000   1.0000   1.0000   1.0000   1.0000   1.0000   1.0000
     1.0000   1.0000   1.0000   1.0000   1.0000   1.0000   1.0000   1.0000

          k =-0.0000 0.2887-0.0000 (  3694 PWs)   bands (ev):

   -66.4117 -66.4050 -33.4281 -33.3975 -33.3931 -33.3827 -33.3775 -33.3705
   -10.8964  -9.9976   2.3338   2.8767   3.6218   3.7283   4.7457   5.0564

     occupation numbers 
     1.0000   1.0000   1.0000   1.0000   1.0000   1.0000   1.0000   1.0000
     1.0000   1.0000   1.0000   1.0000   1.0000   1.0000   1.0000   1.0000

          k =-0.0000 0.2887 0.0960 (  3696 PWs)   bands (ev):

   -66.4115 -66.4053 -33.4280 -33.3954 -33.3923 -33.3888 -33.3739 -33.3714
   -10.8605 -10.0294   2.2388   2.9853   3.6590   3.6658   4.6961   5.0617

     occupation numbers 
     1.0000   1.0000   1.0000   1.0000   1.0000   1.0000   1.0000   1.0000
     1.0000   1.0000   1.0000   1.0000   1.0000   1.0000   1.0000   1.0000

          k =-0.0000 0.2887 0.1921 (  3700 PWs)   bands (ev):

   -66.4107 -66.4060 -33.4269 -33.3990 -33.3898 -33.3892 -33.3738 -33.3716
   -10.7589 -10.1212   2.1393   2.9294   3.7669   3.7676   4.5584   5.0074

     occupation numbers 
     1.0000   1.0000   1.0000   1.0000   1.0000   1.0000   1.0000   1.0000
     1.0000   1.0000   1.0000   1.0000   1.0000   1.0000   1.0000   1.0000

          k =-0.0000 0.2887 0.2881 (  3698 PWs)   bands (ev):

   -66.4097 -66.4071 -33.4235 -33.4088 -33.3861 -33.3825 -33.3775 -33.3725
   -10.6082 -10.2622   2.1653   2.6265   3.9344   4.1215   4.3616   4.8188

     occupation numbers 
     1.0000   1.0000   1.0000   1.0000   1.0000   1.0000   1.0000   1.0000
     1.0000   1.0000   1.0000   1.0000   1.0000   1.0000   1.0000   1.0000

          k = 0.0000 0.2887-0.3842 (  3706 PWs)   bands (ev):

   -66.4084 -66.4084 -33.4173 -33.4173 -33.3818 -33.3818 -33.3765 -33.3765
   -10.4333 -10.4331   2.3380   2.3380   4.1418   4.1420   4.5045   4.5045

     occupation numbers 
     1.0000   1.0000   1.0000   1.0000   1.0000   1.0000   1.0000   1.0000
     1.0000   1.0000   1.0000   1.0000   1.0000   1.0000   1.0000   1.0000

          k =-0.0000 0.2887-0.2881 (  3698 PWs)   bands (ev):

   -66.4097 -66.4071 -33.4235 -33.4088 -33.3861 -33.3825 -33.3775 -33.3725
   -10.6082 -10.2622   2.1653   2.6265   3.9344   4.1215   4.3616   4.8188

     occupation numbers 
     1.0000   1.0000   1.0000   1.0000   1.0000   1.0000   1.0000   1.0000
     1.0000   1.0000   1.0000   1.0000   1.0000   1.0000   1.0000   1.0000

          k =-0.0000 0.2887-0.1921 (  3700 PWs)   bands (ev):

   -66.4107 -66.4060 -33.4269 -33.3990 -33.3898 -33.3892 -33.3738 -33.3716
   -10.7589 -10.1212   2.1393   2.9294   3.7669   3.7676   4.5584   5.0074

     occupation numbers 
     1.0000   1.0000   1.0000   1.0000   1.0000   1.0000   1.0000   1.0000
     1.0000   1.0000   1.0000   1.0000   1.0000   1.0000   1.0000   1.0000

          k =-0.0000 0.2887-0.0960 (  3696 PWs)   bands (ev):

   -66.4115 -66.4053 -33.4280 -33.3954 -33.3923 -33.3888 -33.3739 -33.3714
   -10.8605 -10.0294   2.2388   2.9853   3.6590   3.6658   4.6961   5.0617

     occupation numbers 
     1.0000   1.0000   1.0000   1.0000   1.0000   1.0000   1.0000   1.0000
     1.0000   1.0000   1.0000   1.0000   1.0000   1.0000   1.0000   1.0000

          k =-0.0000 0.4330-0.0000 (  3706 PWs)   bands (ev):

   -66.4102 -66.4058 -33.4196 -33.4033 -33.3959 -33.3914 -33.3846 -33.3709
   -10.6334 -10.0485   2.1718   2.8639   3.3869   3.4446   4.5984   4.7772

     occupation numbers 
     1.0000   1.0000   1.0000   1.0000   1.0000   1.0000   1.0000   1.0000
     1.0000   1.0000   1.0000   1.0000   1.0000   1.0000   1.0000   1.0000

          k =-0.0000 0.4330 0.0960 (  3711 PWs)   bands (ev):

   -66.4101 -66.4060 -33.4229 -33.4005 -33.3968 -33.3950 -33.3791 -33.3719
   -10.6070 -10.0657   2.0350   2.8656   3.3969   3.4874   4.7162   4.7208

     occupation numbers 
     1.0000   1.0000   1.0000   1.0000   1.0000   1.0000   1.0000   1.0000
     1.0000   1.0000   1.0000   1.0000   1.0000   1.0000   1.0000   1.0000

          k =-0.0000 0.4330 0.1921 (  3705 PWs)   bands (ev):

   -66.4096 -66.4065 -33.4269 -33.4096 -33.3923 -33.3891 -33.3746 -33.3740
   -10.5332 -10.1172   1.8512   2.5445   3.6120   3.7380   4.5483   4.8702

     occupation numbers 
     1.0000   1.0000   1.0000   1.0000   1.0000   1.0000   1.0000   1.0000
     1.0000   1.0000   1.0000   1.0000   1.0000   1.0000   1.0000   1.0000

          k =-0.0000 0.4330 0.2881 (  3706 PWs)   bands (ev):

   -66.4089 -66.4072 -33.4280 -33.4187 -33.3882 -33.3809 -33.3786 -33.3726
   -10.4270 -10.2010   1.7902   2.1660   3.8066   4.1866   4.3111   4.8343

     occupation numbers 
     1.0000   1.0000   1.0000   1.0000   1.0000   1.0000   1.0000   1.0000
     1.0000   1.0000   1.0000   1.0000   1.0000   1.0000   1.0000   1.0000

          k =-0.0000 0.4330-0.3842 (  3714 PWs)   bands (ev):

   -66.4080 -66.4080 -33.4252 -33.4252 -33.3834 -33.3834 -33.3751 -33.3751
   -10.3095 -10.3093   1.8969   1.8969   4.0500   4.0502   4.5841   4.5841

     occupation numbers 
     1.0000   1.0000   1.0000   1.0000   1.0000   1.0000   1.0000   1.0000
     1.0000   1.0000   1.0000   1.0000   1.0000   1.0000   1.0000   1.0000

          k =-0.0000 0.4330-0.2881 (  3706 PWs)   bands (ev):

   -66.4089 -66.4072 -33.4280 -33.4187 -33.3882 -33.3809 -33.3786 -33.3726
   -10.4270 -10.2010   1.7902   2.1660   3.8066   4.1866   4.3111   4.8343

     occupation numbers 
     1.0000   1.0000   1.0000   1.0000   1.0000   1.0000   1.0000   1.0000
     1.0000   1.0000   1.0000   1.0000   1.0000   1.0000   1.0000   1.0000

          k =-0.0000 0.4330-0.1921 (  3705 PWs)   bands (ev):

   -66.4096 -66.4065 -33.4269 -33.4096 -33.3923 -33.3891 -33.3746 -33.3740
   -10.5332 -10.1172   1.8512   2.5445   3.6120   3.7380   4.5483   4.8702

     occupation numbers 
     1.0000   1.0000   1.0000   1.0000   1.0000   1.0000   1.0000   1.0000
     1.0000   1.0000   1.0000   1.0000   1.0000   1.0000   1.0000   1.0000

          k =-0.0000 0.4330-0.0960 (  3711 PWs)   bands (ev):

   -66.4101 -66.4060 -33.4229 -33.4005 -33.3968 -33.3950 -33.3791 -33.3719
   -10.6070 -10.0657   2.0350   2.8656   3.3969   3.4874   4.7162   4.7208

     occupation numbers 
     1.0000   1.0000   1.0000   1.0000   1.0000   1.0000   1.0000   1.0000
     1.0000   1.0000   1.0000   1.0000   1.0000   1.0000   1.0000   1.0000

          k = 0.0000-0.5774 0.0000 (  3698 PWs)   bands (ev):

   -66.4094 -66.4064 -33.4150 -33.4050 -33.3971 -33.3957 -33.3886 -33.3711
   -10.4845 -10.1080   1.9144   3.2168   3.2490   3.3782   4.2825   4.7844

     occupation numbers 
     1.0000   1.0000   1.0000   1.0000   1.0000   1.0000   1.0000   1.0000
     1.0000   1.0000   1.0000   1.0000   1.0000   1.0000   1.0000   1.0000

          k = 0.0000-0.5774 0.0961 (  3704 PWs)   bands (ev):

   -66.4093 -66.4065 -33.4207 -33.4037 -33.3981 -33.3961 -33.3821 -33.3721
   -10.4648 -10.1163   1.8201   2.9551   3.3925   3.4229   4.5036   4.7192

     occupation numbers 
     1.0000   1.0000   1.0000   1.0000   1.0000   1.0000   1.0000   1.0000
     1.0000   1.0000   1.0000   1.0000   1.0000   1.0000   1.0000   1.0000

          k = 0.0000-0.5774 0.1921 (  3708 PWs)   bands (ev):

   -66.4090 -66.4068 -33.4270 -33.4141 -33.3933 -33.3882 -33.3758 -33.3749
   -10.4107 -10.1426   1.6699   2.4543   3.5531   3.7857   4.5403   4.7731

     occupation numbers 
     1.0000   1.0000   1.0000   1.0000   1.0000   1.0000   1.0000   1.0000
     1.0000   1.0000   1.0000   1.0000   1.0000   1.0000   1.0000   1.0000

          k = 0.0000-0.5774 0.2881 (  3720 PWs)   bands (ev):

   -66.4085 -66.4073 -33.4298 -33.4228 -33.3890 -33.3799 -33.3791 -33.3731
   -10.3356 -10.1898   1.6173   2.0169   3.7570   4.2290   4.2886   4.8168

     occupation numbers 
     1.0000   1.0000   1.0000   1.0000   1.0000   1.0000   1.0000   1.0000
     1.0000   1.0000   1.0000   1.0000   1.0000   1.0000   1.0000   1.0000

          k = 0.0000-0.5774-0.3842 (  3712 PWs)   bands (ev):

   -66.4079 -66.4079 -33.4284 -33.4284 -33.3841 -33.3841 -33.3746 -33.3746
   -10.2570 -10.2568   1.7284   1.7285   4.0129   4.0131   4.6084   4.6085

     occupation numbers 
     1.0000   1.0000   1.0000   1.0000   1.0000   1.0000   1.0000   1.0000
     1.0000   1.0000   1.0000   1.0000   1.0000   1.0000   1.0000   1.0000

          k = 0.1250 0.0722-0.0000 (  3690 PWs)   bands (ev):

   -66.4129 -66.4045 -33.4347 -33.3914 -33.3902 -33.3744 -33.3722 -33.3702
   -11.1094  -9.9916   1.9673   3.6532   3.8369   4.2373   4.6799   5.3680

     occupation numbers 
     1.0000   1.0000   1.0000   1.0000   1.0000   1.0000   1.0000   1.0000
     1.0000   1.0000   1.0000   1.0000   1.0000   1.0000   1.0000   1.0000

          k = 0.1250 0.0722 0.0960 (  3692 PWs)   bands (ev):

   -66.4126 -66.4048 -33.4329 -33.3904 -33.3894 -33.3790 -33.3710 -33.3707
   -11.0675 -10.0344   2.0194   3.6953   3.8660   4.1407   4.6445   5.2376

     occupation numbers 
     1.0000   1.0000   1.0000   1.0000   1.0000   1.0000   1.0000   1.0000
     1.0000   1.0000   1.0000   1.0000   1.0000   1.0000   1.0000   1.0000

          k = 0.1250 0.0722 0.1921 (  3701 PWs)   bands (ev):

   -66.4117 -66.4057 -33.4275 -33.3880 -33.3873 -33.3869 -33.3731 -33.3713
   -10.9477 -10.1562   2.1822   3.7012   3.9501   3.9699   4.5454   4.9544

     occupation numbers 
     1.0000   1.0000   1.0000   1.0000   1.0000   1.0000   1.0000   1.0000
     1.0000   1.0000   1.0000   1.0000   1.0000   1.0000   1.0000   1.0000

          k = 0.1250 0.0722 0.2881 (  3712 PWs)   bands (ev):

   -66.4103 -66.4071 -33.4192 -33.3978 -33.3840 -33.3831 -33.3764 -33.3742
   -10.7674 -10.3386   2.4652   3.3194   4.0794   4.1198   4.4012   4.6537

     occupation numbers 
     1.0000   1.0000   1.0000   1.0000   1.0000   1.0000   1.0000   1.0000
     1.0000   1.0000   1.0000   1.0000   1.0000   1.0000   1.0000   1.0000

          k = 0.1250 0.0722-0.3842 (  3720 PWs)   bands (ev):

   -66.4087 -66.4087 -33.4089 -33.4089 -33.3802 -33.3802 -33.3784 -33.3784
   -10.5536 -10.5534   2.8601   2.8601   4.2371   4.2373   4.3710   4.3712

     occupation numbers 
     1.0000   1.0000   1.0000   1.0000   1.0000   1.0000   1.0000   1.0000
     1.0000   1.0000   1.0000   1.0000   1.0000   1.0000   1.0000   1.0000

          k = 0.1250 0.0722-0.2881 (  3712 PWs)   bands (ev):

   -66.4103 -66.4071 -33.4192 -33.3978 -33.3840 -33.3831 -33.3764 -33.3742
   -10.7674 -10.3386   2.4652   3.3194   4.0794   4.1198   4.4012   4.6537

     occupation numbers 
     1.0000   1.0000   1.0000   1.0000   1.0000   1.0000   1.0000   1.0000
     1.0000   1.0000   1.0000   1.0000   1.0000   1.0000   1.0000   1.0000

          k = 0.1250 0.0722-0.1921 (  3701 PWs)   bands (ev):

   -66.4117 -66.4057 -33.4275 -33.3880 -33.3873 -33.3869 -33.3731 -33.3713
   -10.9477 -10.1562   2.1822   3.7012   3.9501   3.9699   4.5454   4.9544

     occupation numbers 
     1.0000   1.0000   1.0000   1.0000   1.0000   1.0000   1.0000   1.0000
     1.0000   1.0000   1.0000   1.0000   1.0000   1.0000   1.0000   1.0000

          k = 0.1250 0.0722-0.0960 (  3692 PWs)   bands (ev):

   -66.4126 -66.4048 -33.4329 -33.3904 -33.3894 -33.3790 -33.3710 -33.3707
   -11.0675 -10.0344   2.0194   3.6953   3.8660   4.1407   4.6445   5.2376

     occupation numbers 
     1.0000   1.0000   1.0000   1.0000   1.0000   1.0000   1.0000   1.0000
     1.0000   1.0000   1.0000   1.0000   1.0000   1.0000   1.0000   1.0000

          k = 0.1250 0.2165-0.0000 (  3685 PWs)   bands (ev):

   -66.4121 -66.4048 -33.4302 -33.3949 -33.3932 -33.3799 -33.3757 -33.3708
   -10.9624  -9.9928   2.2177   3.2275   3.3991   4.0542   4.6638   5.1596

     occupation numbers 
     1.0000   1.0000   1.0000   1.0000   1.0000   1.0000   1.0000   1.0000
     1.0000   1.0000   1.0000   1.0000   1.0000   1.0000   1.0000   1.0000

          k = 0.1250 0.2165 0.0960 (  3697 PWs)   bands (ev):

   -66.4118 -66.4051 -33.4295 -33.3931 -33.3926 -33.3856 -33.3725 -33.3716
   -10.9246 -10.0280   2.1957   3.2078   3.5182   3.9704   4.6157   5.1411

     occupation numbers 
     1.0000   1.0000   1.0000   1.0000   1.0000   1.0000   1.0000   1.0000
     1.0000   1.0000   1.0000   1.0000   1.0000   1.0000   1.0000   1.0000

          k = 0.1250 0.2165 0.1921 (  3693 PWs)   bands (ev):

   -66.4110 -66.4059 -33.4270 -33.3959 -33.3893 -33.3884 -33.3740 -33.3710
   -10.8169 -10.1294   2.1908   3.0801   3.8090   3.8681   4.4826   5.0451

     occupation numbers 
     1.0000   1.0000   1.0000   1.0000   1.0000   1.0000   1.0000   1.0000
     1.0000   1.0000   1.0000   1.0000   1.0000   1.0000   1.0000   1.0000

          k = 0.1250 0.2165 0.2881 (  3698 PWs)   bands (ev):

   -66.4099 -66.4071 -33.4221 -33.4056 -33.3860 -33.3824 -33.3775 -33.3725
   -10.6565 -10.2837   2.2837   2.7995   3.9235   4.1675   4.2958   4.8357

     occupation numbers 
     1.0000   1.0000   1.0000   1.0000   1.0000   1.0000   1.0000   1.0000
     1.0000   1.0000   1.0000   1.0000   1.0000   1.0000   1.0000   1.0000

          k = 0.1250 0.2165-0.3842 (  3712 PWs)   bands (ev):

   -66.4085 -66.4085 -33.4148 -33.4148 -33.3818 -33.3818 -33.3766 -33.3766
   -10.4690 -10.4688   2.4984   2.4985   4.0893   4.0895   4.5303   4.5304

     occupation numbers 
     1.0000   1.0000   1.0000   1.0000   1.0000   1.0000   1.0000   1.0000
     1.0000   1.0000   1.0000   1.0000   1.0000   1.0000   1.0000   1.0000

          k = 0.1250 0.2165-0.2881 (  3698 PWs)   bands (ev):

   -66.4099 -66.4071 -33.4221 -33.4056 -33.3860 -33.3824 -33.3775 -33.3725
   -10.6565 -10.2837   2.2837   2.7995   3.9235   4.1675   4.2958   4.8357

     occupation numbers 
     1.0000   1.0000   1.0000   1.0000   1.0000   1.0000   1.0000   1.0000
     1.0000   1.0000   1.0000   1.0000   1.0000   1.0000   1.0000   1.0000

          k = 0.1250 0.2165-0.1921 (  3693 PWs)   bands (ev):

   -66.4110 -66.4059 -33.4270 -33.3959 -33.3893 -33.3884 -33.3740 -33.3710
   -10.8169 -10.1294   2.1908   3.0801   3.8090   3.8681   4.4826   5.0451

     occupation numbers 
     1.0000   1.0000   1.0000   1.0000   1.0000   1.0000   1.0000   1.0000
     1.0000   1.0000   1.0000   1.0000   1.0000   1.0000   1.0000   1.0000

          k = 0.1250 0.2165-0.0960 (  3697 PWs)   bands (ev):

   -66.4118 -66.4051 -33.4295 -33.3931 -33.3926 -33.3856 -33.3725 -33.3716
   -10.9246 -10.0280   2.1957   3.2078   3.5182   3.9704   4.6157   5.1411

     occupation numbers 
     1.0000   1.0000   1.0000   1.0000   1.0000   1.0000   1.0000   1.0000
     1.0000   1.0000   1.0000   1.0000   1.0000   1.0000   1.0000   1.0000

          k = 0.1250 0.3608-0.0000 (  3703 PWs)   bands (ev):

   -66.4107 -66.4055 -33.4224 -33.4003 -33.3969 -33.3878 -33.3820 -33.3717
   -10.7209 -10.0240   2.4728   2.6740   3.1933   3.7612   4.6389   4.7732

     occupation numbers 
     1.0000   1.0000   1.0000   1.0000   1.0000   1.0000   1.0000   1.0000
     1.0000   1.0000   1.0000   1.0000   1.0000   1.0000   1.0000   1.0000

          k = 0.1250 0.3608 0.0960 (  3706 PWs)   bands (ev):

   -66.4105 -66.4057 -33.4241 -33.3990 -33.3951 -33.3935 -33.3769 -33.3726
   -10.6910 -10.0463   2.3037   2.6622   3.4294   3.6484   4.5675   4.8708

     occupation numbers 
     1.0000   1.0000   1.0000   1.0000   1.0000   1.0000   1.0000   1.0000
     1.0000   1.0000   1.0000   1.0000   1.0000   1.0000   1.0000   1.0000

          k = 0.1250 0.3608 0.1921 (  3702 PWs)   bands (ev):

   -66.4100 -66.4063 -33.4264 -33.4064 -33.3930 -33.3881 -33.3754 -33.3725
   -10.6070 -10.1118   2.0947   2.5374   3.5355   3.8728   4.3822   4.9799

     occupation numbers 
     1.0000   1.0000   1.0000   1.0000   1.0000   1.0000   1.0000   1.0000
     1.0000   1.0000   1.0000   1.0000   1.0000   1.0000   1.0000   1.0000

          k = 0.1250 0.3608 0.2881 (  3705 PWs)   bands (ev):

   -66.4091 -66.4071 -33.4262 -33.4155 -33.3891 -33.3808 -33.3792 -33.3717
   -10.4847 -10.2157   2.0153   2.3008   3.6230   4.1108   4.3349   4.9328

     occupation numbers 
     1.0000   1.0000   1.0000   1.0000   1.0000   1.0000   1.0000   1.0000
     1.0000   1.0000   1.0000   1.0000   1.0000   1.0000   1.0000   1.0000

          k = 0.1250 0.3608-0.3842 (  3706 PWs)   bands (ev):

   -66.4081 -66.4081 -33.4224 -33.4224 -33.3843 -33.3843 -33.3745 -33.3745
   -10.3465 -10.3463   2.0939   2.0939   3.8443   3.8445   4.7021   4.7021

     occupation numbers 
     1.0000   1.0000   1.0000   1.0000   1.0000   1.0000   1.0000   1.0000
     1.0000   1.0000   1.0000   1.0000   1.0000   1.0000   1.0000   1.0000

          k = 0.1250 0.3608-0.2881 (  3705 PWs)   bands (ev):

   -66.4091 -66.4071 -33.4262 -33.4155 -33.3891 -33.3808 -33.3792 -33.3717
   -10.4847 -10.2157   2.0153   2.3008   3.6230   4.1108   4.3350   4.9328

     occupation numbers 
     1.0000   1.0000   1.0000   1.0000   1.0000   1.0000   1.0000   1.0000
     1.0000   1.0000   1.0000   1.0000   1.0000   1.0000   1.0000   1.0000

          k = 0.1250 0.3608-0.1921 (  3702 PWs)   bands (ev):

   -66.4100 -66.4063 -33.4264 -33.4064 -33.3930 -33.3881 -33.3754 -33.3725
   -10.6070 -10.1118   2.0947   2.5374   3.5356   3.8728   4.3822   4.9799

     occupation numbers 
     1.0000   1.0000   1.0000   1.0000   1.0000   1.0000   1.0000   1.0000
     1.0000   1.0000   1.0000   1.0000   1.0000   1.0000   1.0000   1.0000

          k = 0.1250 0.3608-0.0960 (  3706 PWs)   bands (ev):

   -66.4105 -66.4057 -33.4241 -33.3990 -33.3951 -33.3935 -33.3769 -33.3726
   -10.6910 -10.0463   2.3037   2.6622   3.4294   3.6484   4.5675   4.8708

     occupation numbers 
     1.0000   1.0000   1.0000   1.0000   1.0000   1.0000   1.0000   1.0000
     1.0000   1.0000   1.0000   1.0000   1.0000   1.0000   1.0000   1.0000

          k = 0.1250 0.5052-0.0000 (  3695 PWs)   bands (ev):

   -66.4094 -66.4064 -33.4147 -33.4044 -33.3977 -33.3951 -33.3883 -33.3723
   -10.4910 -10.1021   2.0170   3.1172   3.2627   3.4121   4.3225   4.6276

     occupation numbers 
     1.0000   1.0000   1.0000   1.0000   1.0000   1.0000   1.0000   1.0000
     1.0000   1.0000   1.0000   1.0000   1.0000   1.0000   1.0000   1.0000

          k = 0.1250 0.5052 0.0960 (  3702 PWs)   bands (ev):

   -66.4093 -66.4065 -33.4198 -33.4040 -33.3994 -33.3944 -33.3819 -33.3733
   -10.4709 -10.1109   1.9521   2.8693   3.2390   3.6025   4.4747   4.6047

     occupation numbers 
     1.0000   1.0000   1.0000   1.0000   1.0000   1.0000   1.0000   1.0000
     1.0000   1.0000   1.0000   1.0000   1.0000   1.0000   1.0000   1.0000

          k = 0.1250 0.5052 0.1921 (  3705 PWs)   bands (ev):

   -66.4090 -66.4068 -33.4259 -33.4138 -33.3959 -33.3860 -33.3770 -33.3746
   -10.4156 -10.1388   1.8246   2.4807   3.2053   4.0465   4.3034   4.8379

     occupation numbers 
     1.0000   1.0000   1.0000   1.0000   1.0000   1.0000   1.0000   1.0000
     1.0000   1.0000   1.0000   1.0000   1.0000   1.0000   1.0000   1.0000

          k = 0.1250 0.5052 0.2881 (  3712 PWs)   bands (ev):

   -66.4085 -66.4073 -33.4288 -33.4223 -33.3913 -33.3810 -33.3782 -33.3722
   -10.3388 -10.1882   1.7634   2.0998   3.3829   3.9945   4.4765   4.9313

     occupation numbers 
     1.0000   1.0000   1.0000   1.0000   1.0000   1.0000   1.0000   1.0000
     1.0000   1.0000   1.0000   1.0000   1.0000   1.0000   1.0000   1.0000

          k = 0.1250 0.5052-0.3842 (  3702 PWs)   bands (ev):

   -66.4079 -66.4079 -33.4276 -33.4276 -33.3861 -33.3861 -33.3733 -33.3733
   -10.2579 -10.2577   1.8487   1.8488   3.6681   3.6682   4.7959   4.7959

     occupation numbers 
     1.0000   1.0000   1.0000   1.0000   1.0000   1.0000   1.0000   1.0000
     1.0000   1.0000   1.0000   1.0000   1.0000   1.0000   1.0000   1.0000

          k = 0.1250 0.5052-0.2881 (  3712 PWs)   bands (ev):

   -66.4085 -66.4073 -33.4288 -33.4223 -33.3913 -33.3810 -33.3782 -33.3722
   -10.3388 -10.1882   1.7634   2.0998   3.3828   3.9945   4.4765   4.9313

     occupation numbers 
     1.0000   1.0000   1.0000   1.0000   1.0000   1.0000   1.0000   1.0000
     1.0000   1.0000   1.0000   1.0000   1.0000   1.0000   1.0000   1.0000

          k = 0.1250 0.5052-0.1921 (  3705 PWs)   bands (ev):

   -66.4090 -66.4068 -33.4259 -33.4138 -33.3959 -33.3860 -33.3770 -33.3746
   -10.4156 -10.1388   1.8246   2.4807   3.2053   4.0465   4.3034   4.8379

     occupation numbers 
     1.0000   1.0000   1.0000   1.0000   1.0000   1.0000   1.0000   1.0000
     1.0000   1.0000   1.0000   1.0000   1.0000   1.0000   1.0000   1.0000

          k = 0.1250 0.5052-0.0961 (  3702 PWs)   bands (ev):

   -66.4093 -66.4065 -33.4198 -33.4040 -33.3994 -33.3944 -33.3819 -33.3733
   -10.4709 -10.1109   1.9521   2.8693   3.2390   3.6025   4.4747   4.6047

     occupation numbers 
     1.0000   1.0000   1.0000   1.0000   1.0000   1.0000   1.0000   1.0000
     1.0000   1.0000   1.0000   1.0000   1.0000   1.0000   1.0000   1.0000

          k = 0.1250-0.5052 0.0000 (  3695 PWs)   bands (ev):

   -66.4094 -66.4064 -33.4147 -33.4044 -33.3977 -33.3951 -33.3883 -33.3723
   -10.4910 -10.1021   2.0170   3.1172   3.2627   3.4121   4.3225   4.6276

     occupation numbers 
     1.0000   1.0000   1.0000   1.0000   1.0000   1.0000   1.0000   1.0000
     1.0000   1.0000   1.0000   1.0000   1.0000   1.0000   1.0000   1.0000

          k = 0.1250-0.5052 0.0961 (  3702 PWs)   bands (ev):

   -66.4093 -66.4065 -33.4198 -33.4040 -33.3994 -33.3944 -33.3819 -33.3733
   -10.4709 -10.1109   1.9521   2.8693   3.2390   3.6025   4.4747   4.6047

     occupation numbers 
     1.0000   1.0000   1.0000   1.0000   1.0000   1.0000   1.0000   1.0000
     1.0000   1.0000   1.0000   1.0000   1.0000   1.0000   1.0000   1.0000

          k = 0.1250-0.5052 0.1921 (  3705 PWs)   bands (ev):

   -66.4090 -66.4068 -33.4259 -33.4138 -33.3959 -33.3860 -33.3770 -33.3746
   -10.4156 -10.1388   1.8246   2.4807   3.2053   4.0465   4.3034   4.8379

     occupation numbers 
     1.0000   1.0000   1.0000   1.0000   1.0000   1.0000   1.0000   1.0000
     1.0000   1.0000   1.0000   1.0000   1.0000   1.0000   1.0000   1.0000

          k = 0.1250-0.5052 0.2881 (  3712 PWs)   bands (ev):

   -66.4085 -66.4073 -33.4288 -33.4223 -33.3913 -33.3810 -33.3782 -33.3722
   -10.3388 -10.1882   1.7634   2.0998   3.3828   3.9945   4.4765   4.9313

     occupation numbers 
     1.0000   1.0000   1.0000   1.0000   1.0000   1.0000   1.0000   1.0000
     1.0000   1.0000   1.0000   1.0000   1.0000   1.0000   1.0000   1.0000

          k = 0.1250-0.5052-0.3842 (  3702 PWs)   bands (ev):

   -66.4079 -66.4079 -33.4276 -33.4276 -33.3861 -33.3861 -33.3733 -33.3733
   -10.2579 -10.2577   1.8487   1.8488   3.6681   3.6682   4.7959   4.7959

     occupation numbers 
     1.0000   1.0000   1.0000   1.0000   1.0000   1.0000   1.0000   1.0000
     1.0000   1.0000   1.0000   1.0000   1.0000   1.0000   1.0000   1.0000

          k = 0.1250-0.5052-0.2881 (  3712 PWs)   bands (ev):

   -66.4085 -66.4073 -33.4288 -33.4223 -33.3913 -33.3810 -33.3782 -33.3722
   -10.3388 -10.1882   1.7634   2.0998   3.3828   3.9945   4.4765   4.9313

     occupation numbers 
     1.0000   1.0000   1.0000   1.0000   1.0000   1.0000   1.0000   1.0000
     1.0000   1.0000   1.0000   1.0000   1.0000   1.0000   1.0000   1.0000

          k = 0.1250-0.5052-0.1921 (  3705 PWs)   bands (ev):

   -66.4090 -66.4068 -33.4259 -33.4138 -33.3959 -33.3860 -33.3770 -33.3746
   -10.4156 -10.1388   1.8246   2.4807   3.2053   4.0465   4.3034   4.8379

     occupation numbers 
     1.0000   1.0000   1.0000   1.0000   1.0000   1.0000   1.0000   1.0000
     1.0000   1.0000   1.0000   1.0000   1.0000   1.0000   1.0000   1.0000

          k = 0.1250-0.5052-0.0960 (  3702 PWs)   bands (ev):

   -66.4093 -66.4065 -33.4198 -33.4040 -33.3994 -33.3944 -33.3819 -33.3733
   -10.4709 -10.1109   1.9521   2.8693   3.2390   3.6025   4.4747   4.6047

     occupation numbers 
     1.0000   1.0000   1.0000   1.0000   1.0000   1.0000   1.0000   1.0000
     1.0000   1.0000   1.0000   1.0000   1.0000   1.0000   1.0000   1.0000

          k = 0.1250-0.3608 0.0000 (  3703 PWs)   bands (ev):

   -66.4107 -66.4055 -33.4224 -33.4003 -33.3969 -33.3878 -33.3820 -33.3717
   -10.7209 -10.0240   2.4728   2.6740   3.1933   3.7612   4.6389   4.7732

     occupation numbers 
     1.0000   1.0000   1.0000   1.0000   1.0000   1.0000   1.0000   1.0000
     1.0000   1.0000   1.0000   1.0000   1.0000   1.0000   1.0000   1.0000

          k = 0.1250-0.3608 0.0960 (  3706 PWs)   bands (ev):

   -66.4105 -66.4057 -33.4241 -33.3990 -33.3951 -33.3935 -33.3769 -33.3726
   -10.6910 -10.0463   2.3037   2.6622   3.4294   3.6484   4.5675   4.8708

     occupation numbers 
     1.0000   1.0000   1.0000   1.0000   1.0000   1.0000   1.0000   1.0000
     1.0000   1.0000   1.0000   1.0000   1.0000   1.0000   1.0000   1.0000

          k = 0.1250-0.3608 0.1921 (  3702 PWs)   bands (ev):

   -66.4100 -66.4063 -33.4264 -33.4064 -33.3930 -33.3881 -33.3754 -33.3725
   -10.6070 -10.1118   2.0947   2.5374   3.5355   3.8728   4.3822   4.9799

     occupation numbers 
     1.0000   1.0000   1.0000   1.0000   1.0000   1.0000   1.0000   1.0000
[...]
     1.0000   1.0000   1.0000   1.0000   1.0000   1.0000   1.0000   1.0000

          k =-0.5000-0.1443 0.0960 (  3702 PWs)   bands (ev):

   -66.4093 -66.4065 -33.4198 -33.4040 -33.3994 -33.3944 -33.3819 -33.3733
   -10.4709 -10.1109   1.9521   2.8693   3.2390   3.6025   4.4747   4.6047

     occupation numbers 
     1.0000   1.0000   1.0000   1.0000   1.0000   1.0000   1.0000   1.0000
     1.0000   1.0000   1.0000   1.0000   1.0000   1.0000   1.0000   1.0000

          k =-0.5000-0.1443 0.1921 (  3705 PWs)   bands (ev):

   -66.4090 -66.4068 -33.4259 -33.4138 -33.3959 -33.3860 -33.3770 -33.3746
   -10.4156 -10.1388   1.8246   2.4807   3.2053   4.0465   4.3034   4.8379

     occupation numbers 
     1.0000   1.0000   1.0000   1.0000   1.0000   1.0000   1.0000   1.0000
     1.0000   1.0000   1.0000   1.0000   1.0000   1.0000   1.0000   1.0000

          k =-0.5000-0.1443 0.2881 (  3712 PWs)   bands (ev):

   -66.4085 -66.4073 -33.4288 -33.4223 -33.3913 -33.3810 -33.3782 -33.3722
   -10.3388 -10.1882   1.7634   2.0998   3.3829   3.9945   4.4765   4.9313

     occupation numbers 
     1.0000   1.0000   1.0000   1.0000   1.0000   1.0000   1.0000   1.0000
     1.0000   1.0000   1.0000   1.0000   1.0000   1.0000   1.0000   1.0000

          k =-0.5000-0.1443-0.3842 (  3702 PWs)   bands (ev):

   -66.4079 -66.4079 -33.4276 -33.4276 -33.3861 -33.3861 -33.3733 -33.3733
   -10.2579 -10.2577   1.8487   1.8488   3.6681   3.6682   4.7959   4.7959

     occupation numbers 
     1.0000   1.0000   1.0000   1.0000   1.0000   1.0000   1.0000   1.0000
     1.0000   1.0000   1.0000   1.0000   1.0000   1.0000   1.0000   1.0000

          k =-0.5000-0.1443-0.2881 (  3712 PWs)   bands (ev):

   -66.4085 -66.4073 -33.4288 -33.4223 -33.3913 -33.3810 -33.3782 -33.3722
   -10.3388 -10.1882   1.7634   2.0998   3.3829   3.9945   4.4765   4.9313

     occupation numbers 
     1.0000   1.0000   1.0000   1.0000   1.0000   1.0000   1.0000   1.0000
     1.0000   1.0000   1.0000   1.0000   1.0000   1.0000   1.0000   1.0000

          k =-0.5000-0.1443-0.1921 (  3705 PWs)   bands (ev):

   -66.4090 -66.4068 -33.4259 -33.4138 -33.3959 -33.3860 -33.3770 -33.3746
   -10.4156 -10.1388   1.8246   2.4807   3.2053   4.0465   4.3034   4.8379

     occupation numbers 
     1.0000   1.0000   1.0000   1.0000   1.0000   1.0000   1.0000   1.0000
     1.0000   1.0000   1.0000   1.0000   1.0000   1.0000   1.0000   1.0000

          k =-0.5000-0.1443-0.0960 (  3702 PWs)   bands (ev):

   -66.4093 -66.4065 -33.4198 -33.4040 -33.3994 -33.3944 -33.3819 -33.3733
   -10.4709 -10.1109   1.9521   2.8693   3.2390   3.6025   4.4747   4.6047

     occupation numbers 
     1.0000   1.0000   1.0000   1.0000   1.0000   1.0000   1.0000   1.0000
     1.0000   1.0000   1.0000   1.0000   1.0000   1.0000   1.0000   1.0000

          k =-0.5000 0.0000 0.0000 (  3703 PWs)   bands (ev):

   -66.4094 -66.4064 -33.4144 -33.4033 -33.3990 -33.3943 -33.3879 -33.3737
   -10.4973 -10.0964   2.1524   2.9646   3.2214   3.5617   4.3642   4.4305

     occupation numbers 
     1.0000   1.0000   1.0000   1.0000   1.0000   1.0000   1.0000   1.0000
     1.0000   1.0000   1.0000   1.0000   1.0000   1.0000   1.0000   1.0000

          k =-0.5000 0.0000 0.0960 (  3698 PWs)   bands (ev):

   -66.4093 -66.4065 -33.4188 -33.4049 -33.3994 -33.3936 -33.3813 -33.3748
   -10.4768 -10.1057   2.1755   2.5953   3.3462   3.6453   4.3364   4.5744

     occupation numbers 
     1.0000   1.0000   1.0000   1.0000   1.0000   1.0000   1.0000   1.0000
     1.0000   1.0000   1.0000   1.0000   1.0000   1.0000   1.0000   1.0000

          k =-0.5000-0.0000 0.1921 (  3701 PWs)   bands (ev):

   -66.4090 -66.4068 -33.4247 -33.4136 -33.3976 -33.3848 -33.3778 -33.3748
   -10.4204 -10.1351   2.1915   2.2371   3.0878   4.0434   4.1996   4.8627

     occupation numbers 
     1.0000   1.0000   1.0000   1.0000   1.0000   1.0000   1.0000   1.0000
     1.0000   1.0000   1.0000   1.0000   1.0000   1.0000   1.0000   1.0000

          k =-0.5000-0.0000 0.2881 (  3703 PWs)   bands (ev):

   -66.4085 -66.4073 -33.4277 -33.4217 -33.3932 -33.3826 -33.3769 -33.3716
   -10.3418 -10.1867   2.0334   2.1006   3.1092   3.7197   4.6165   4.9932

     occupation numbers 
     1.0000   1.0000   1.0000   1.0000   1.0000   1.0000   1.0000   1.0000
     1.0000   1.0000   1.0000   1.0000   1.0000   1.0000   1.0000   1.0000

          k =-0.5000 0.0000-0.3842 (  3704 PWs)   bands (ev):

   -66.4079 -66.4079 -33.4267 -33.4267 -33.3879 -33.3879 -33.3724 -33.3724
   -10.2587 -10.2585   2.0015   2.0015   3.3683   3.3684   4.9064   4.9065

     occupation numbers 
     1.0000   1.0000   1.0000   1.0000   1.0000   1.0000   1.0000   1.0000
     1.0000   1.0000   1.0000   1.0000   1.0000   1.0000   1.0000   1.0000

          k =-0.5000 0.0000-0.2881 (  3703 PWs)   bands (ev):

   -66.4085 -66.4073 -33.4277 -33.4217 -33.3932 -33.3826 -33.3769 -33.3716
   -10.3418 -10.1867   2.0334   2.1006   3.1092   3.7197   4.6165   4.9932

     occupation numbers 
     1.0000   1.0000   1.0000   1.0000   1.0000   1.0000   1.0000   1.0000
     1.0000   1.0000   1.0000   1.0000   1.0000   1.0000   1.0000   1.0000

          k =-0.5000 0.0000-0.1921 (  3701 PWs)   bands (ev):

   -66.4090 -66.4068 -33.4247 -33.4136 -33.3976 -33.3848 -33.3778 -33.3748
   -10.4204 -10.1351   2.1915   2.2371   3.0878   4.0434   4.1996   4.8627

     occupation numbers 
     1.0000   1.0000   1.0000   1.0000   1.0000   1.0000   1.0000   1.0000
     1.0000   1.0000   1.0000   1.0000   1.0000   1.0000   1.0000   1.0000

          k =-0.5000 0.0000-0.0960 (  3698 PWs)   bands (ev):

   -66.4093 -66.4065 -33.4188 -33.4049 -33.3994 -33.3936 -33.3813 -33.3748
   -10.4768 -10.1057   2.1755   2.5953   3.3462   3.6453   4.3364   4.5744

     occupation numbers 
     1.0000   1.0000   1.0000   1.0000   1.0000   1.0000   1.0000   1.0000
     1.0000   1.0000   1.0000   1.0000   1.0000   1.0000   1.0000   1.0000

          k =-0.5000 0.1443-0.0000 (  3695 PWs)   bands (ev):

   -66.4094 -66.4064 -33.4147 -33.4044 -33.3977 -33.3951 -33.3883 -33.3723
   -10.4910 -10.1021   2.0170   3.1172   3.2627   3.4121   4.3225   4.6276

     occupation numbers 
     1.0000   1.0000   1.0000   1.0000   1.0000   1.0000   1.0000   1.0000
     1.0000   1.0000   1.0000   1.0000   1.0000   1.0000   1.0000   1.0000

          k =-0.5000 0.1443 0.0960 (  3702 PWs)   bands (ev):

   -66.4093 -66.4065 -33.4198 -33.4040 -33.3994 -33.3944 -33.3819 -33.3733
   -10.4709 -10.1109   1.9521   2.8693   3.2390   3.6025   4.4747   4.6047

     occupation numbers 
     1.0000   1.0000   1.0000   1.0000   1.0000   1.0000   1.0000   1.0000
     1.0000   1.0000   1.0000   1.0000   1.0000   1.0000   1.0000   1.0000

          k =-0.5000 0.1443 0.1921 (  3705 PWs)   bands (ev):

   -66.4090 -66.4068 -33.4259 -33.4138 -33.3959 -33.3860 -33.3770 -33.3746
   -10.4156 -10.1388   1.8246   2.4807   3.2053   4.0465   4.3034   4.8379

     occupation numbers 
     1.0000   1.0000   1.0000   1.0000   1.0000   1.0000   1.0000   1.0000
     1.0000   1.0000   1.0000   1.0000   1.0000   1.0000   1.0000   1.0000

          k =-0.5000 0.1443 0.2881 (  3712 PWs)   bands (ev):

   -66.4085 -66.4073 -33.4288 -33.4223 -33.3913 -33.3810 -33.3782 -33.3722
   -10.3388 -10.1882   1.7634   2.0998   3.3829   3.9945   4.4765   4.9313

     occupation numbers 
     1.0000   1.0000   1.0000   1.0000   1.0000   1.0000   1.0000   1.0000
     1.0000   1.0000   1.0000   1.0000   1.0000   1.0000   1.0000   1.0000

          k =-0.5000 0.1443-0.3842 (  3702 PWs)   bands (ev):

   -66.4079 -66.4079 -33.4276 -33.4276 -33.3861 -33.3861 -33.3733 -33.3733
   -10.2579 -10.2577   1.8487   1.8488   3.6681   3.6682   4.7959   4.7959

     occupation numbers 
     1.0000   1.0000   1.0000   1.0000   1.0000   1.0000   1.0000   1.0000
     1.0000   1.0000   1.0000   1.0000   1.0000   1.0000   1.0000   1.0000

          k =-0.5000 0.1443-0.2881 (  3712 PWs)   bands (ev):

   -66.4085 -66.4073 -33.4288 -33.4223 -33.3913 -33.3810 -33.3782 -33.3722
   -10.3388 -10.1882   1.7634   2.0998   3.3829   3.9945   4.4765   4.9313

     occupation numbers 
     1.0000   1.0000   1.0000   1.0000   1.0000   1.0000   1.0000   1.0000
     1.0000   1.0000   1.0000   1.0000   1.0000   1.0000   1.0000   1.0000

          k =-0.5000 0.1443-0.1921 (  3705 PWs)   bands (ev):

   -66.4090 -66.4068 -33.4259 -33.4138 -33.3959 -33.3860 -33.3770 -33.3746
   -10.4156 -10.1388   1.8246   2.4807   3.2053   4.0465   4.3034   4.8379

     occupation numbers 
     1.0000   1.0000   1.0000   1.0000   1.0000   1.0000   1.0000   1.0000
     1.0000   1.0000   1.0000   1.0000   1.0000   1.0000   1.0000   1.0000

          k =-0.5000 0.1443-0.0960 (  3702 PWs)   bands (ev):

   -66.4093 -66.4065 -33.4198 -33.4040 -33.3994 -33.3944 -33.3819 -33.3733
   -10.4709 -10.1109   1.9521   2.8693   3.2390   3.6025   4.4747   4.6047

     occupation numbers 
     1.0000   1.0000   1.0000   1.0000   1.0000   1.0000   1.0000   1.0000
     1.0000   1.0000   1.0000   1.0000   1.0000   1.0000   1.0000   1.0000

          k =-0.5000-0.8660 0.0000 (  3698 PWs)   bands (ev):

   -66.4094 -66.4064 -33.4150 -33.4050 -33.3971 -33.3957 -33.3886 -33.3711
   -10.4845 -10.1080   1.9144   3.2168   3.2489   3.3782   4.2825   4.7844

     occupation numbers 
     1.0000   1.0000   1.0000   1.0000   1.0000   1.0000   1.0000   1.0000
     1.0000   1.0000   1.0000   1.0000   1.0000   1.0000   1.0000   1.0000

          k =-0.5000-0.8660 0.0961 (  3704 PWs)   bands (ev):

   -66.4093 -66.4065 -33.4207 -33.4037 -33.3981 -33.3961 -33.3821 -33.3721
   -10.4648 -10.1163   1.8201   2.9551   3.3925   3.4229   4.5036   4.7192

     occupation numbers 
     1.0000   1.0000   1.0000   1.0000   1.0000   1.0000   1.0000   1.0000
     1.0000   1.0000   1.0000   1.0000   1.0000   1.0000   1.0000   1.0000

          k =-0.5000-0.8660 0.1921 (  3708 PWs)   bands (ev):

   -66.4090 -66.4068 -33.4270 -33.4141 -33.3933 -33.3882 -33.3758 -33.3749
   -10.4107 -10.1426   1.6699   2.4543   3.5531   3.7857   4.5403   4.7731

     occupation numbers 
     1.0000   1.0000   1.0000   1.0000   1.0000   1.0000   1.0000   1.0000
     1.0000   1.0000   1.0000   1.0000   1.0000   1.0000   1.0000   1.0000

          k =-0.5000-0.8660 0.2881 (  3720 PWs)   bands (ev):

   -66.4085 -66.4073 -33.4298 -33.4228 -33.3890 -33.3799 -33.3791 -33.3731
   -10.3356 -10.1898   1.6173   2.0169   3.7570   4.2290   4.2886   4.8168

     occupation numbers 
     1.0000   1.0000   1.0000   1.0000   1.0000   1.0000   1.0000   1.0000
     1.0000   1.0000   1.0000   1.0000   1.0000   1.0000   1.0000   1.0000

          k =-0.5000-0.8660-0.3842 (  3712 PWs)   bands (ev):

   -66.4079 -66.4079 -33.4284 -33.4284 -33.3841 -33.3841 -33.3746 -33.3746
   -10.2570 -10.2568   1.7284   1.7285   4.0129   4.0131   4.6084   4.6085

     occupation numbers 
     1.0000   1.0000   1.0000   1.0000   1.0000   1.0000   1.0000   1.0000
     1.0000   1.0000   1.0000   1.0000   1.0000   1.0000   1.0000   1.0000

     highest occupied level (ev):     5.4730

!    total energy              =    -315.18313246 Ry
     Harris-Foulkes estimate   =    -315.18313233 Ry
     estimated scf accuracy    <       0.00000012 Ry

     The total energy is the sum of the following terms:

     one-electron contribution =    -208.65737762 Ry
     hartree contribution      =     111.05829518 Ry
     xc contribution           =     -48.08308954 Ry
     ewald contribution        =    -169.50096048 Ry

     convergence has been achieved in   7 iterations

     Forces acting on atoms (cartesian axes, Ry/au):

     atom    1 type  2   force =    -0.00000013    0.00000012   -0.01491294
     atom    2 type  2   force =     0.00000064    0.00000086   -0.01491340
     atom    3 type  1   force =     0.00000016   -0.00000041    0.01491029
     atom    4 type  1   force =    -0.00000068   -0.00000057    0.01491605
     The non-local contrib.  to forces
     atom    1 type  2   force =    -0.00000030   -0.00000178    0.05811674
     atom    2 type  2   force =     0.00000004    0.00000304    0.05812123
     atom    3 type  1   force =     0.00000021   -0.00000239    0.16598736
     atom    4 type  1   force =     0.00000116   -0.00000006    0.16598593
     The ionic contribution  to forces
     atom    1 type  2   force =    -0.00000746    0.00001635   -1.09463714
     atom    2 type  2   force =    -0.00000319    0.00000144   -1.09463854
     atom    3 type  1   force =     0.00000368   -0.00001558    1.09463860
     atom    4 type  1   force =     0.00000697   -0.00000221    1.09463709
     The local contribution  to forces
     atom    1 type  2   force =     0.00000732   -0.00001445    1.02165693
     atom    2 type  2   force =     0.00000355   -0.00000385    1.02165273
     atom    3 type  1   force =    -0.00000458    0.00001748   -1.24583081
     atom    4 type  1   force =    -0.00000734    0.00000190   -1.24584531
     The core correction contribution to forces
     atom    1 type  2   force =     0.00000001    0.00000000    0.00009831
     atom    2 type  2   force =     0.00000001   -0.00000003    0.00009826
     atom    3 type  1   force =     0.00000000    0.00000000    0.00000000
     atom    4 type  1   force =     0.00000000    0.00000000    0.00000000
     The Hubbard contrib.    to forces
     atom    1 type  2   force =     0.00000000    0.00000000    0.00000000
     atom    2 type  2   force =     0.00000000    0.00000000    0.00000000
     atom    3 type  1   force =     0.00000000    0.00000000    0.00000000
     atom    4 type  1   force =     0.00000000    0.00000000    0.00000000
     The SCF correction term to forces
     atom    1 type  2   force =     0.00000000    0.00000000    0.00000000
     atom    2 type  2   force =     0.00000000    0.00000000    0.00000000
     atom    3 type  1   force =     0.00000000    0.00000000    0.00000000
     atom    4 type  1   force =     0.00000000    0.00000000    0.00000000

     Total force =     0.000000     Total SCF correction =     0.000000


     Computing stress (Cartesian axis) and pressure

          total   stress  (Ry/bohr**3)                   (kbar)     P=   -1.43
  -0.00000812  -0.00000000  -0.00000000         -1.20     -0.00     -0.00
  -0.00000000  -0.00000813  -0.00000000         -0.00     -1.20     -0.00
  -0.00000000  -0.00000000  -0.00001290         -0.00     -0.00     -1.90

     kinetic stress (kbar)  19835.33     -0.00     -0.00
                               -0.00  19835.33     -0.00
                               -0.00     -0.00  19882.39

     local   stress (kbar)  -5393.12     -0.02      0.01
                               -0.02  -5393.15     -0.04
                                0.01     -0.04 -15066.02

     nonloc. stress (kbar)   5435.65      0.00      0.00
                                0.00   5435.65      0.00
                                0.00      0.00   5406.91

     hartree stress (kbar)  16317.07      0.01     -0.00
                                0.01  16317.08      0.01
                               -0.00      0.01  20674.62

     exc-cor stress (kbar)  -7050.30      0.00     -0.00
                                0.00  -7050.30      0.00
                               -0.00      0.00  -7050.54

     corecor stress (kbar)   -259.71     -0.00      0.00
                               -0.00   -259.71      0.00
                                0.00      0.00   -259.81

     ewald   stress (kbar) -28886.12      0.01     -0.00
                                0.01 -28886.10      0.02
                               -0.00      0.02 -23589.44

     hubbard stress (kbar)      0.00      0.00      0.00
                                0.00      0.00      0.00
                                0.00      0.00      0.00

     london  stress (kbar)      0.00      0.00      0.00
                                0.00      0.00      0.00
                                0.00      0.00      0.00

     DFT-D3  stress (kbar)      0.00      0.00      0.00
                                0.00      0.00      0.00
                                0.00      0.00      0.00

     XDM     stress (kbar)      0.00      0.00      0.00
                                0.00      0.00      0.00
                                0.00      0.00      0.00

     dft-nl  stress (kbar)      0.00      0.00      0.00
                                0.00      0.00      0.00
                                0.00      0.00      0.00

     TS-vdW  stress (kbar)      0.00      0.00      0.00
                                0.00      0.00      0.00
                                0.00      0.00      0.00



     Writing output data file ZnO.save/
 
     init_run     :      0.35s CPU      0.55s WALL (       1 calls)
     electrons    :      4.65s CPU      5.02s WALL (       1 calls)
     forces       :      0.12s CPU      0.14s WALL (       1 calls)
     stress       :      0.24s CPU      0.25s WALL (       1 calls)

     Called by init_run:
     wfcinit      :      0.21s CPU      0.29s WALL (       1 calls)
     wfcinit:atom :      0.00s CPU      0.00s WALL (      65 calls)
     wfcinit:wfcr :      0.20s CPU      0.27s WALL (      65 calls)
     potinit      :      0.06s CPU      0.07s WALL (       1 calls)
     hinit0       :      0.07s CPU      0.14s WALL (       1 calls)

     Called by electrons:
     c_bands      :      3.80s CPU      4.11s WALL (       7 calls)
     sum_band     :      0.57s CPU      0.60s WALL (       7 calls)
     v_of_rho     :      0.24s CPU      0.26s WALL (       8 calls)
     v_h          :      0.00s CPU      0.00s WALL (       8 calls)
     v_xc         :      0.30s CPU      0.31s WALL (      10 calls)
     newd         :      0.04s CPU      0.05s WALL (       8 calls)
     mix_rho      :      0.01s CPU      0.02s WALL (       7 calls)

     Called by c_bands:
     init_us_2    :      0.07s CPU      0.08s WALL (    1105 calls)
     cegterg      :      3.45s CPU      3.63s WALL (     455 calls)

     Called by sum_band:
     sum_band:bec :      0.00s CPU      0.01s WALL (     455 calls)
     addusdens    :      0.03s CPU      0.04s WALL (       7 calls)

     Called by *egterg:
     h_psi        :      2.23s CPU      2.30s WALL (    1492 calls)
     s_psi        :      0.07s CPU      0.08s WALL (    1492 calls)
     g_psi        :      0.00s CPU      0.00s WALL (     972 calls)
     cdiaghg      :      0.79s CPU      0.93s WALL (    1427 calls)
     cegterg:over :      0.26s CPU      0.30s WALL (     972 calls)
     cegterg:upda :      0.11s CPU      0.12s WALL (     972 calls)
     cegterg:last :      0.06s CPU      0.06s WALL (     455 calls)
     cdiaghg:chol :      0.05s CPU      0.07s WALL (    1427 calls)
     cdiaghg:inve :      0.02s CPU      0.02s WALL (    1427 calls)
     cdiaghg:para :      0.08s CPU      0.09s WALL (    2854 calls)

     Called by h_psi:
     h_psi:pot    :      2.22s CPU      2.30s WALL (    1492 calls)
     h_psi:calbec :      0.13s CPU      0.14s WALL (    1492 calls)
     vloc_psi     :      2.02s CPU      2.08s WALL (    1492 calls)
     add_vuspsi   :      0.08s CPU      0.08s WALL (    1492 calls)

     General routines
     calbec       :      0.20s CPU      0.22s WALL (    2272 calls)
     fft          :      0.04s CPU      0.07s WALL (     127 calls)
     ffts         :      0.00s CPU      0.00s WALL (      15 calls)
     fftw         :      2.30s CPU      2.37s WALL (   44864 calls)
     interpolate  :      0.00s CPU      0.01s WALL (       8 calls)
 
     Parallel routines
     fft_scatt_xy :      0.37s CPU      0.38s WALL (   45006 calls)
     fft_scatt_yz :      1.16s CPU      1.21s WALL (   45006 calls)
 
     PWSCF        :      5.59s CPU      7.20s WALL

 
   This run was terminated on:  20:51:26  15Jun2022            

=------------------------------------------------------------------------------=
   JOB DONE.
=------------------------------------------------------------------------------=
