
     Program PWSCF v.6.4.1 starts on 15Jun2022 at 20:47:14 

     This program is part of the open-source Quantum ESPRESSO suite
     for quantum simulation of materials; please cite
         "P. Giannozzi et al., J. Phys.:Condens. Matter 21 395502 (2009);
         "P. Giannozzi et al., J. Phys.:Condens. Matter 29 465901 (2017);
          URL http://www.quantum-espresso.org", 
     in publications or presentations arising from this work. More details at
     http://www.quantum-espresso.org/quote

     Parallel version (MPI), running on    64 processors

     MPI processes distributed on     1 nodes
     K-points division:     npool     =       4
     R & G space division:  proc/nbgrp/npool/nimage =      16
     Waiting for input...
     Reading input from standard input
Warning: card &IONS ignored
Warning: card   UPSCALE           = 100.D0, ignored
Warning: card / ignored
Warning: card &CELL ignored
Warning: card   CELL_DYNAMICS     = 'BFGS' ignored
Warning: card   PRESS_CONV_THR    = 0.5D0 ignored
Warning: card   CELL_DOFREE = 'ALL' ignored
Warning: card / ignored

     Current dimensions of program PWSCF are:
     Max number of different atomic species (ntypx) = 10
     Max number of k-points (npk) =  40000
     Max angular momentum in pseudopotentials (lmaxx) =  3

     Subspace diagonalization in iterative solution of the eigenvalue problem:
     one sub-group per band group will be used
     scalapack distributed-memory algorithm (size of sub-group:  2*  2 procs)

--------------------------------------------------------------------------------
NOTICE: Bravais lattice has wrong number (10) of symmetries - symmetries are disabled
--------------------------------------------------------------------------------
 
     Parallelization info
     --------------------
     sticks:   dense  smooth     PW     G-vecs:    dense   smooth      PW
     Min         100      52     16                 4918     1914     330
     Max         101      53     18                 4923     1921     333
     Sum        1615     847    265                78751    30719    5311
 


     bravais-lattice index     =            0
     lattice parameter (alat)  =       6.2308  a.u.
     unit-cell volume          =     317.8414 (a.u.)^3
     number of atoms/cell      =            4
     number of atomic types    =            2
     number of electrons       =        52.00
     number of Kohn-Sham states=           26
     kinetic-energy cutoff     =      80.0000  Ry
     charge density cutoff     =     600.0000  Ry
     convergence threshold     =      1.0E-06
     mixing beta               =       0.5000
     number of iterations used =            8  plain     mixing
     Exchange-correlation      = SLA  PW   PSX  PSC ( 1  4 10  8 0 0)
     Using LIBXC version       =    4   3   4

     celldm(1)=   6.230809  celldm(2)=   0.000000  celldm(3)=   0.000000
     celldm(4)=   0.000000  celldm(5)=   0.000000  celldm(6)=   0.000000

     crystal axes: (cart. coord. in units of alat)
               a(1) = (   1.000000   0.000000   0.000000 )  
               a(2) = (  -0.500000   0.866025  -0.000000 )  
               a(3) = (   0.000000   0.000000   1.517213 )  

     reciprocal axes: (cart. coord. in units 2 pi/alat)
               b(1) = (  1.000000  0.577350 -0.000000 )  
               b(2) = ( -0.000001  1.154700 -0.000000 )  
               b(3) = ( -0.000000 -0.000000  0.659103 )  


     PseudoPot. # 1 for Zn read from file:
     ./GBRV_PBEsol/zn_pbesol_v1.uspp.F.UPF
     MD5 check sum: 7d8615e52efe7c1e2b1899de8658bae2
     Pseudo is Ultrasoft, Zval = 20.0
     Generated by new atomic code, or converted to UPF format
     Using radial grid of  943 points,  6 beta functions with: 
                l(1) =   0
                l(2) =   0
                l(3) =   1
                l(4) =   1
                l(5) =   2
                l(6) =   2
     Q(r) pseudized with  8 coefficients,  rinner =    1.100   1.100   1.100
                                                       1.100   1.100

     PseudoPot. # 2 for O  read from file:
     ./GBRV_PBEsol/o_pbesol_v1.2.uspp.F.UPF
     MD5 check sum: 501638753501ef6325af9037351f7734
     Pseudo is Ultrasoft + core correction, Zval =  6.0
     Generated by new atomic code, or converted to UPF format
     Using radial grid of  737 points,  5 beta functions with: 
                l(1) =   0
                l(2) =   0
                l(3) =   1
                l(4) =   1
                l(5) =   2
     Q(r) pseudized with  8 coefficients,  rinner =    0.900   0.900   0.900
                                                       0.900   0.900

     atomic species   valence    mass     pseudopotential
        Zn            20.00    65.38000     Zn( 1.00)
        O              6.00    15.99900     O ( 1.00)

     No symmetry found


                                    s                        frac. trans.

      isym =  1     identity                                     

 cryst.   s( 1) = (     1          0          0      )
                  (     0          1          0      )
                  (     0          0          1      )

 cart.    s( 1) = (  1.0000000 -0.0000000 -0.0000000 )
                  (  0.0000000  1.0000000  0.0000000 )
                  ( -0.0000000 -0.0000000  1.0000000 )


   Cartesian axes

     site n.     atom                  positions (alat units)
         1           O   tau(   1) = (   0.5000003   0.2886757   0.0111453  )
         2           O   tau(   2) = (   0.0000004   0.5773495   0.7697515  )
         3           Zn  tau(   3) = (   0.5000002   0.2886751   0.9047963  )
         4           Zn  tau(   4) = (   0.0000003   0.5773513   1.6634026  )

   Crystallographic axes

     site n.     atom                  positions (cryst. coord.)
         1           O   tau(   1) = (  0.6666670  0.3333337  0.0073459  )
         2           O   tau(   2) = (  0.3333329  0.6666657  0.5073458  )
         3           Zn  tau(   3) = (  0.6666664  0.3333329  0.5963542  )
         4           Zn  tau(   4) = (  0.3333336  0.6666677  1.0963542  )

     number of k points=   260
                       cart. coord. in units 2pi/alat
        k(    1) = (   0.0000000   0.0000000   0.0000000), wk =   0.0039062
        k(    2) = (  -0.0000000  -0.0000000   0.0823879), wk =   0.0078125
        k(    3) = (  -0.0000000  -0.0000000   0.1647758), wk =   0.0078125
        k(    4) = (  -0.0000000  -0.0000000   0.2471638), wk =   0.0078125
        k(    5) = (   0.0000001   0.0000000  -0.3295517), wk =   0.0039062
        k(    6) = (  -0.0000001   0.1443375  -0.0000000), wk =   0.0078125
        k(    7) = (  -0.0000001   0.1443375   0.0823879), wk =   0.0078125
        k(    8) = (  -0.0000001   0.1443375   0.1647758), wk =   0.0078125
        k(    9) = (  -0.0000001   0.1443375   0.2471637), wk =   0.0078125
        k(   10) = (  -0.0000000   0.1443376  -0.3295517), wk =   0.0078125
        k(   11) = (  -0.0000000   0.1443376  -0.2471638), wk =   0.0078125
        k(   12) = (  -0.0000000   0.1443376  -0.1647758), wk =   0.0078125
        k(   13) = (  -0.0000001   0.1443376  -0.0823879), wk =   0.0078125
        k(   14) = (  -0.0000001   0.2886751  -0.0000000), wk =   0.0078125
        k(   15) = (  -0.0000001   0.2886751   0.0823879), wk =   0.0078125
        k(   16) = (  -0.0000002   0.2886751   0.1647758), wk =   0.0078125
        k(   17) = (  -0.0000002   0.2886751   0.2471637), wk =   0.0078125
        k(   18) = (  -0.0000001   0.2886751  -0.3295517), wk =   0.0078125
        k(   19) = (  -0.0000001   0.2886751  -0.2471638), wk =   0.0078125
        k(   20) = (  -0.0000001   0.2886751  -0.1647758), wk =   0.0078125
        k(   21) = (  -0.0000001   0.2886751  -0.0823879), wk =   0.0078125
        k(   22) = (  -0.0000002   0.4330126  -0.0000000), wk =   0.0078125
        k(   23) = (  -0.0000002   0.4330126   0.0823879), wk =   0.0078125
        k(   24) = (  -0.0000002   0.4330126   0.1647758), wk =   0.0078125
        k(   25) = (  -0.0000002   0.4330126   0.2471637), wk =   0.0078125
        k(   26) = (  -0.0000001   0.4330127  -0.3295517), wk =   0.0078125
        k(   27) = (  -0.0000002   0.4330127  -0.2471638), wk =   0.0078125
        k(   28) = (  -0.0000002   0.4330127  -0.1647759), wk =   0.0078125
        k(   29) = (  -0.0000002   0.4330126  -0.0823879), wk =   0.0078125
        k(   30) = (   0.0000003  -0.5773502   0.0000000), wk =   0.0039062
        k(   31) = (   0.0000003  -0.5773502   0.0823879), wk =   0.0078125
        k(   32) = (   0.0000002  -0.5773502   0.1647759), wk =   0.0078125
        k(   33) = (   0.0000002  -0.5773502   0.2471638), wk =   0.0078125
        k(   34) = (   0.0000003  -0.5773502  -0.3295516), wk =   0.0039062
        k(   35) = (   0.1250000   0.0721687  -0.0000000), wk =   0.0078125
        k(   36) = (   0.1250000   0.0721687   0.0823879), wk =   0.0078125
        k(   37) = (   0.1249999   0.0721687   0.1647758), wk =   0.0078125
        k(   38) = (   0.1249999   0.0721687   0.2471637), wk =   0.0078125
        k(   39) = (   0.1250000   0.0721687  -0.3295517), wk =   0.0078125
        k(   40) = (   0.1250000   0.0721687  -0.2471638), wk =   0.0078125
        k(   41) = (   0.1250000   0.0721687  -0.1647759), wk =   0.0078125
        k(   42) = (   0.1250000   0.0721687  -0.0823879), wk =   0.0078125
        k(   43) = (   0.1249999   0.2165063  -0.0000000), wk =   0.0078125
        k(   44) = (   0.1249999   0.2165063   0.0823879), wk =   0.0078125
        k(   45) = (   0.1249999   0.2165062   0.1647758), wk =   0.0078125
        k(   46) = (   0.1249999   0.2165062   0.2471637), wk =   0.0078125
        k(   47) = (   0.1250000   0.2165063  -0.3295517), wk =   0.0078125
        k(   48) = (   0.1249999   0.2165063  -0.2471638), wk =   0.0078125
        k(   49) = (   0.1249999   0.2165063  -0.1647759), wk =   0.0078125
        k(   50) = (   0.1249999   0.2165063  -0.0823879), wk =   0.0078125
        k(   51) = (   0.1249998   0.3608438  -0.0000000), wk =   0.0078125
        k(   52) = (   0.1249998   0.3608438   0.0823879), wk =   0.0078125
        k(   53) = (   0.1249998   0.3608438   0.1647758), wk =   0.0078125
        k(   54) = (   0.1249998   0.3608438   0.2471637), wk =   0.0078125
        k(   55) = (   0.1249999   0.3608438  -0.3295517), wk =   0.0078125
        k(   56) = (   0.1249999   0.3608438  -0.2471638), wk =   0.0078125
        k(   57) = (   0.1249999   0.3608438  -0.1647759), wk =   0.0078125
        k(   58) = (   0.1249998   0.3608438  -0.0823879), wk =   0.0078125
        k(   59) = (   0.1249998   0.5051814  -0.0000000), wk =   0.0078125
        k(   60) = (   0.1249998   0.5051813   0.0823879), wk =   0.0078125
        k(   61) = (   0.1249997   0.5051813   0.1647758), wk =   0.0078125
        k(   62) = (   0.1249997   0.5051813   0.2471637), wk =   0.0078125
        k(   63) = (   0.1249998   0.5051814  -0.3295517), wk =   0.0078125
        k(   64) = (   0.1249998   0.5051814  -0.2471638), wk =   0.0078125
        k(   65) = (   0.1249998   0.5051814  -0.1647759), wk =   0.0078125
        k(   66) = (   0.1249998   0.5051814  -0.0823880), wk =   0.0078125
        k(   67) = (   0.1250002  -0.5051815   0.0000000), wk =   0.0078125
        k(   68) = (   0.1250002  -0.5051815   0.0823879), wk =   0.0078125
        k(   69) = (   0.1250002  -0.5051815   0.1647758), wk =   0.0078125
        k(   70) = (   0.1250002  -0.5051815   0.2471638), wk =   0.0078125
        k(   71) = (   0.1250003  -0.5051814  -0.3295517), wk =   0.0078125
        k(   72) = (   0.1250003  -0.5051814  -0.2471637), wk =   0.0078125
        k(   73) = (   0.1250003  -0.5051815  -0.1647758), wk =   0.0078125
        k(   74) = (   0.1250002  -0.5051815  -0.0823879), wk =   0.0078125
        k(   75) = (   0.1250002  -0.3608439   0.0000000), wk =   0.0078125
        k(   76) = (   0.1250002  -0.3608439   0.0823879), wk =   0.0078125
        k(   77) = (   0.1250001  -0.3608439   0.1647758), wk =   0.0078125
        k(   78) = (   0.1250001  -0.3608439   0.2471638), wk =   0.0078125
        k(   79) = (   0.1250002  -0.3608439  -0.3295517), wk =   0.0078125
        k(   80) = (   0.1250002  -0.3608439  -0.2471638), wk =   0.0078125
        k(   81) = (   0.1250002  -0.3608439  -0.1647758), wk =   0.0078125
        k(   82) = (   0.1250002  -0.3608439  -0.0823879), wk =   0.0078125
        k(   83) = (   0.1250001  -0.2165064  -0.0000000), wk =   0.0078125
        k(   84) = (   0.1250001  -0.2165064   0.0823879), wk =   0.0078125
        k(   85) = (   0.1250001  -0.2165064   0.1647758), wk =   0.0078125
        k(   86) = (   0.1250001  -0.2165064   0.2471638), wk =   0.0078125
        k(   87) = (   0.1250002  -0.2165063  -0.3295517), wk =   0.0078125
        k(   88) = (   0.1250001  -0.2165064  -0.2471638), wk =   0.0078125
        k(   89) = (   0.1250001  -0.2165064  -0.1647758), wk =   0.0078125
        k(   90) = (   0.1250001  -0.2165064  -0.0823879), wk =   0.0078125
        k(   91) = (   0.1250000  -0.0721688  -0.0000000), wk =   0.0078125
        k(   92) = (   0.1250000  -0.0721688   0.0823879), wk =   0.0078125
        k(   93) = (   0.1250000  -0.0721688   0.1647758), wk =   0.0078125
        k(   94) = (   0.1250000  -0.0721689   0.2471637), wk =   0.0078125
        k(   95) = (   0.1250001  -0.0721688  -0.3295517), wk =   0.0078125
        k(   96) = (   0.1250001  -0.0721688  -0.2471638), wk =   0.0078125
        k(   97) = (   0.1250001  -0.0721688  -0.1647758), wk =   0.0078125
        k(   98) = (   0.1250000  -0.0721688  -0.0823879), wk =   0.0078125
        k(   99) = (   0.2499999   0.1443374  -0.0000000), wk =   0.0078125
        k(  100) = (   0.2499999   0.1443374   0.0823879), wk =   0.0078125
        k(  101) = (   0.2499999   0.1443374   0.1647758), wk =   0.0078125
        k(  102) = (   0.2499999   0.1443374   0.2471637), wk =   0.0078125
        k(  103) = (   0.2500000   0.1443375  -0.3295517), wk =   0.0078125
        k(  104) = (   0.2500000   0.1443375  -0.2471638), wk =   0.0078125
        k(  105) = (   0.2500000   0.1443374  -0.1647759), wk =   0.0078125
        k(  106) = (   0.2499999   0.1443374  -0.0823880), wk =   0.0078125
        k(  107) = (   0.2499999   0.2886750  -0.0000000), wk =   0.0078125
        k(  108) = (   0.2499999   0.2886750   0.0823879), wk =   0.0078125
        k(  109) = (   0.2499998   0.2886750   0.1647758), wk =   0.0078125
        k(  110) = (   0.2499998   0.2886750   0.2471637), wk =   0.0078125
        k(  111) = (   0.2499999   0.2886750  -0.3295517), wk =   0.0078125
        k(  112) = (   0.2499999   0.2886750  -0.2471638), wk =   0.0078125
        k(  113) = (   0.2499999   0.2886750  -0.1647759), wk =   0.0078125
        k(  114) = (   0.2499999   0.2886750  -0.0823880), wk =   0.0078125
        k(  115) = (   0.2499998   0.4330125  -0.0000000), wk =   0.0078125
        k(  116) = (   0.2499998   0.4330125   0.0823879), wk =   0.0078125
        k(  117) = (   0.2499998   0.4330125   0.1647758), wk =   0.0078125
        k(  118) = (   0.2499998   0.4330125   0.2471637), wk =   0.0078125
        k(  119) = (   0.2499999   0.4330126  -0.3295517), wk =   0.0078125
        k(  120) = (   0.2499998   0.4330125  -0.2471638), wk =   0.0078125
        k(  121) = (   0.2499998   0.4330125  -0.1647759), wk =   0.0078125
        k(  122) = (   0.2499998   0.4330125  -0.0823880), wk =   0.0078125
        k(  123) = (   0.2499997   0.5773501  -0.0000001), wk =   0.0078125
        k(  124) = (   0.2499997   0.5773501   0.0823879), wk =   0.0078125
        k(  125) = (   0.2499997   0.5773501   0.1647758), wk =   0.0078125
        k(  126) = (   0.2499997   0.5773500   0.2471637), wk =   0.0078125
        k(  127) = (   0.2499998   0.5773501  -0.3295517), wk =   0.0078125
        k(  128) = (   0.2499998   0.5773501  -0.2471638), wk =   0.0078125
        k(  129) = (   0.2499998   0.5773501  -0.1647759), wk =   0.0078125
        k(  130) = (   0.2499997   0.5773501  -0.0823880), wk =   0.0078125
        k(  131) = (   0.2500002  -0.4330128  -0.0000000), wk =   0.0078125
        k(  132) = (   0.2500002  -0.4330128   0.0823879), wk =   0.0078125
        k(  133) = (   0.2500002  -0.4330128   0.1647758), wk =   0.0078125
        k(  134) = (   0.2500002  -0.4330128   0.2471637), wk =   0.0078125
        k(  135) = (   0.2500003  -0.4330127  -0.3295517), wk =   0.0078125
        k(  136) = (   0.2500002  -0.4330127  -0.2471638), wk =   0.0078125
        k(  137) = (   0.2500002  -0.4330127  -0.1647758), wk =   0.0078125
        k(  138) = (   0.2500002  -0.4330127  -0.0823879), wk =   0.0078125
        k(  139) = (   0.2500001  -0.2886752  -0.0000000), wk =   0.0078125
        k(  140) = (   0.2500001  -0.2886752   0.0823879), wk =   0.0078125
        k(  141) = (   0.2500001  -0.2886752   0.1647758), wk =   0.0078125
        k(  142) = (   0.2500001  -0.2886752   0.2471637), wk =   0.0078125
        k(  143) = (   0.2500002  -0.2886752  -0.3295517), wk =   0.0078125
        k(  144) = (   0.2500002  -0.2886752  -0.2471638), wk =   0.0078125
        k(  145) = (   0.2500002  -0.2886752  -0.1647759), wk =   0.0078125
        k(  146) = (   0.2500001  -0.2886752  -0.0823879), wk =   0.0078125
        k(  147) = (   0.2500001  -0.1443377  -0.0000000), wk =   0.0078125
        k(  148) = (   0.2500001  -0.1443377   0.0823879), wk =   0.0078125
        k(  149) = (   0.2500000  -0.1443377   0.1647758), wk =   0.0078125
        k(  150) = (   0.2500000  -0.1443377   0.2471637), wk =   0.0078125
        k(  151) = (   0.2500001  -0.1443376  -0.3295517), wk =   0.0078125
        k(  152) = (   0.2500001  -0.1443376  -0.2471638), wk =   0.0078125
        k(  153) = (   0.2500001  -0.1443376  -0.1647759), wk =   0.0078125
        k(  154) = (   0.2500001  -0.1443377  -0.0823879), wk =   0.0078125
        k(  155) = (   0.2500000  -0.0000001  -0.0000000), wk =   0.0078125
        k(  156) = (   0.2500000  -0.0000001   0.0823879), wk =   0.0078125
        k(  157) = (   0.2500000  -0.0000001   0.1647758), wk =   0.0078125
        k(  158) = (   0.2500000  -0.0000001   0.2471637), wk =   0.0078125
        k(  159) = (   0.2500001  -0.0000001  -0.3295517), wk =   0.0078125
        k(  160) = (   0.2500000  -0.0000001  -0.2471638), wk =   0.0078125
        k(  161) = (   0.2500000  -0.0000001  -0.1647759), wk =   0.0078125
        k(  162) = (   0.2500000  -0.0000001  -0.0823879), wk =   0.0078125
        k(  163) = (   0.3749999   0.2165061  -0.0000001), wk =   0.0078125
        k(  164) = (   0.3749999   0.2165061   0.0823879), wk =   0.0078125
        k(  165) = (   0.3749999   0.2165061   0.1647758), wk =   0.0078125
        k(  166) = (   0.3749999   0.2165061   0.2471637), wk =   0.0078125
        k(  167) = (   0.3750000   0.2165062  -0.3295517), wk =   0.0078125
        k(  168) = (   0.3749999   0.2165062  -0.2471638), wk =   0.0078125
        k(  169) = (   0.3749999   0.2165062  -0.1647759), wk =   0.0078125
        k(  170) = (   0.3749999   0.2165062  -0.0823880), wk =   0.0078125
        k(  171) = (   0.3749998   0.3608437  -0.0000001), wk =   0.0078125
        k(  172) = (   0.3749998   0.3608437   0.0823879), wk =   0.0078125
        k(  173) = (   0.3749998   0.3608437   0.1647758), wk =   0.0078125
        k(  174) = (   0.3749998   0.3608437   0.2471637), wk =   0.0078125
        k(  175) = (   0.3749999   0.3608437  -0.3295517), wk =   0.0078125
        k(  176) = (   0.3749999   0.3608437  -0.2471638), wk =   0.0078125
        k(  177) = (   0.3749999   0.3608437  -0.1647759), wk =   0.0078125
        k(  178) = (   0.3749998   0.3608437  -0.0823880), wk =   0.0078125
        k(  179) = (   0.3749998   0.5051812  -0.0000001), wk =   0.0078125
        k(  180) = (   0.3749998   0.5051812   0.0823879), wk =   0.0078125
        k(  181) = (   0.3749997   0.5051812   0.1647758), wk =   0.0078125
        k(  182) = (   0.3749997   0.5051812   0.2471637), wk =   0.0078125
        k(  183) = (   0.3749998   0.5051813  -0.3295517), wk =   0.0078125
        k(  184) = (   0.3749998   0.5051813  -0.2471638), wk =   0.0078125
        k(  185) = (   0.3749998   0.5051813  -0.1647759), wk =   0.0078125
        k(  186) = (   0.3749998   0.5051812  -0.0823880), wk =   0.0078125
        k(  187) = (   0.3749997   0.6495188  -0.0000001), wk =   0.0078125
        k(  188) = (   0.3749997   0.6495188   0.0823878), wk =   0.0078125
        k(  189) = (   0.3749997   0.6495188   0.1647758), wk =   0.0078125
        k(  190) = (   0.3749997   0.6495188   0.2471637), wk =   0.0078125
        k(  191) = (   0.3749998   0.6495188  -0.3295517), wk =   0.0078125
        k(  192) = (   0.3749997   0.6495188  -0.2471638), wk =   0.0078125
        k(  193) = (   0.3749997   0.6495188  -0.1647759), wk =   0.0078125
        k(  194) = (   0.3749997   0.6495188  -0.0823880), wk =   0.0078125
        k(  195) = (   0.3750002  -0.3608440  -0.0000000), wk =   0.0078125
        k(  196) = (   0.3750002  -0.3608440   0.0823879), wk =   0.0078125
        k(  197) = (   0.3750001  -0.3608441   0.1647758), wk =   0.0078125
        k(  198) = (   0.3750001  -0.3608441   0.2471637), wk =   0.0078125
        k(  199) = (   0.3750002  -0.3608440  -0.3295517), wk =   0.0078125
        k(  200) = (   0.3750002  -0.3608440  -0.2471638), wk =   0.0078125
        k(  201) = (   0.3750002  -0.3608440  -0.1647759), wk =   0.0078125
        k(  202) = (   0.3750002  -0.3608440  -0.0823879), wk =   0.0078125
        k(  203) = (   0.3750001  -0.2165065  -0.0000000), wk =   0.0078125
        k(  204) = (   0.3750001  -0.2165065   0.0823879), wk =   0.0078125
        k(  205) = (   0.3750001  -0.2165065   0.1647758), wk =   0.0078125
        k(  206) = (   0.3750001  -0.2165065   0.2471637), wk =   0.0078125
        k(  207) = (   0.3750002  -0.2165065  -0.3295517), wk =   0.0078125
        k(  208) = (   0.3750001  -0.2165065  -0.2471638), wk =   0.0078125
        k(  209) = (   0.3750001  -0.2165065  -0.1647759), wk =   0.0078125
        k(  210) = (   0.3750001  -0.2165065  -0.0823880), wk =   0.0078125
        k(  211) = (   0.3750000  -0.0721689  -0.0000000), wk =   0.0078125
        k(  212) = (   0.3750000  -0.0721690   0.0823879), wk =   0.0078125
        k(  213) = (   0.3750000  -0.0721690   0.1647758), wk =   0.0078125
        k(  214) = (   0.3750000  -0.0721690   0.2471637), wk =   0.0078125
        k(  215) = (   0.3750001  -0.0721689  -0.3295517), wk =   0.0078125
        k(  216) = (   0.3750001  -0.0721689  -0.2471638), wk =   0.0078125
        k(  217) = (   0.3750001  -0.0721689  -0.1647759), wk =   0.0078125
        k(  218) = (   0.3750000  -0.0721689  -0.0823880), wk =   0.0078125
        k(  219) = (   0.3750000   0.0721686  -0.0000000), wk =   0.0078125
        k(  220) = (   0.3750000   0.0721686   0.0823879), wk =   0.0078125
        k(  221) = (   0.3749999   0.0721686   0.1647758), wk =   0.0078125
        k(  222) = (   0.3749999   0.0721686   0.2471637), wk =   0.0078125
        k(  223) = (   0.3750000   0.0721686  -0.3295517), wk =   0.0078125
        k(  224) = (   0.3750000   0.0721686  -0.2471638), wk =   0.0078125
        k(  225) = (   0.3750000   0.0721686  -0.1647759), wk =   0.0078125
        k(  226) = (   0.3750000   0.0721686  -0.0823880), wk =   0.0078125
        k(  227) = (  -0.4999999  -0.2886749   0.0000001), wk =   0.0039062
        k(  228) = (  -0.4999999  -0.2886749   0.0823880), wk =   0.0078125
        k(  229) = (  -0.4999999  -0.2886749   0.1647759), wk =   0.0078125
        k(  230) = (  -0.4999999  -0.2886749   0.2471638), wk =   0.0078125
        k(  231) = (  -0.4999998  -0.2886748  -0.3295516), wk =   0.0039062
        k(  232) = (  -0.4999999  -0.1443373   0.0000001), wk =   0.0078125
        k(  233) = (  -0.4999999  -0.1443373   0.0823880), wk =   0.0078125
        k(  234) = (  -0.5000000  -0.1443373   0.1647759), wk =   0.0078125
        k(  235) = (  -0.5000000  -0.1443373   0.2471638), wk =   0.0078125
        k(  236) = (  -0.4999999  -0.1443373  -0.3295516), wk =   0.0078125
        k(  237) = (  -0.4999999  -0.1443373  -0.2471637), wk =   0.0078125
        k(  238) = (  -0.4999999  -0.1443373  -0.1647758), wk =   0.0078125
        k(  239) = (  -0.4999999  -0.1443373  -0.0823879), wk =   0.0078125
        k(  240) = (  -0.5000000   0.0000002   0.0000001), wk =   0.0078125
        k(  241) = (  -0.5000000   0.0000002   0.0823880), wk =   0.0078125
        k(  242) = (  -0.5000000   0.0000002   0.1647759), wk =   0.0078125
        k(  243) = (  -0.5000000   0.0000002   0.2471638), wk =   0.0078125
        k(  244) = (  -0.4999999   0.0000003  -0.3295516), wk =   0.0078125
        k(  245) = (  -0.5000000   0.0000003  -0.2471637), wk =   0.0078125
        k(  246) = (  -0.5000000   0.0000002  -0.1647758), wk =   0.0078125
        k(  247) = (  -0.5000000   0.0000002  -0.0823879), wk =   0.0078125
        k(  248) = (  -0.5000001   0.1443378   0.0000001), wk =   0.0078125
        k(  249) = (  -0.5000001   0.1443378   0.0823880), wk =   0.0078125
        k(  250) = (  -0.5000001   0.1443378   0.1647759), wk =   0.0078125
        k(  251) = (  -0.5000001   0.1443378   0.2471638), wk =   0.0078125
        k(  252) = (  -0.5000000   0.1443378  -0.3295516), wk =   0.0078125
        k(  253) = (  -0.5000000   0.1443378  -0.2471637), wk =   0.0078125
        k(  254) = (  -0.5000000   0.1443378  -0.1647758), wk =   0.0078125
        k(  255) = (  -0.5000001   0.1443378  -0.0823879), wk =   0.0078125
        k(  256) = (  -0.4999996  -0.8660250   0.0000001), wk =   0.0039062
        k(  257) = (  -0.4999996  -0.8660251   0.0823880), wk =   0.0078125
        k(  258) = (  -0.4999996  -0.8660251   0.1647759), wk =   0.0078125
        k(  259) = (  -0.4999996  -0.8660251   0.2471638), wk =   0.0078125
        k(  260) = (  -0.4999995  -0.8660250  -0.3295516), wk =   0.0039062

                       cryst. coord.
        k(    1) = (   0.0000000   0.0000000   0.0000000), wk =   0.0039062
        k(    2) = (   0.0000000  -0.0000000   0.1250000), wk =   0.0078125
        k(    3) = (   0.0000000  -0.0000000   0.2500000), wk =   0.0078125
        k(    4) = (  -0.0000000   0.0000000   0.3750000), wk =   0.0078125
        k(    5) = (  -0.0000000   0.0000000  -0.5000000), wk =   0.0039062
        k(    6) = (   0.0000000   0.1250000   0.0000000), wk =   0.0078125
        k(    7) = (  -0.0000000   0.1250000   0.1250000), wk =   0.0078125
        k(    8) = (   0.0000000   0.1250000   0.2500000), wk =   0.0078125
        k(    9) = (  -0.0000000   0.1250000   0.3750000), wk =   0.0078125
        k(   10) = (  -0.0000000   0.1250000  -0.5000000), wk =   0.0078125
        k(   11) = (   0.0000000   0.1250000  -0.3750000), wk =   0.0078125
        k(   12) = (  -0.0000000   0.1250000  -0.2500000), wk =   0.0078125
        k(   13) = (   0.0000000   0.1250000  -0.1250000), wk =   0.0078125
        k(   14) = (   0.0000000   0.2500000   0.0000000), wk =   0.0078125
        k(   15) = (   0.0000000   0.2500000   0.1250000), wk =   0.0078125
        k(   16) = (  -0.0000000   0.2500000   0.2500000), wk =   0.0078125
        k(   17) = (   0.0000000   0.2500000   0.3750000), wk =   0.0078125
        k(   18) = (  -0.0000000   0.2500000  -0.5000000), wk =   0.0078125
        k(   19) = (   0.0000000   0.2500000  -0.3750000), wk =   0.0078125
        k(   20) = (   0.0000000   0.2500000  -0.2500000), wk =   0.0078125
        k(   21) = (  -0.0000000   0.2500000  -0.1250000), wk =   0.0078125
        k(   22) = (   0.0000000   0.3750000   0.0000000), wk =   0.0078125
        k(   23) = (  -0.0000000   0.3750000   0.1250000), wk =   0.0078125
        k(   24) = (   0.0000000   0.3750000   0.2500000), wk =   0.0078125
        k(   25) = (   0.0000000   0.3750000   0.3750000), wk =   0.0078125
        k(   26) = (   0.0000000   0.3750000  -0.5000000), wk =   0.0078125
        k(   27) = (   0.0000000   0.3750000  -0.3750000), wk =   0.0078125
        k(   28) = (   0.0000000   0.3750000  -0.2500000), wk =   0.0078125
        k(   29) = (   0.0000000   0.3750000  -0.1250000), wk =   0.0078125
        k(   30) = (  -0.0000000  -0.5000000  -0.0000000), wk =   0.0039062
        k(   31) = (   0.0000000  -0.5000000   0.1250000), wk =   0.0078125
        k(   32) = (   0.0000000  -0.5000000   0.2500000), wk =   0.0078125
        k(   33) = (  -0.0000000  -0.5000000   0.3750000), wk =   0.0078125
        k(   34) = (   0.0000000  -0.5000000  -0.5000000), wk =   0.0039062
        k(   35) = (   0.1250000  -0.0000000   0.0000000), wk =   0.0078125
        k(   36) = (   0.1250000  -0.0000000   0.1250000), wk =   0.0078125
        k(   37) = (   0.1250000   0.0000000   0.2500000), wk =   0.0078125
        k(   38) = (   0.1250000   0.0000000   0.3750000), wk =   0.0078125
        k(   39) = (   0.1250000  -0.0000000  -0.5000000), wk =   0.0078125
        k(   40) = (   0.1250000  -0.0000000  -0.3750000), wk =   0.0078125
        k(   41) = (   0.1250000  -0.0000000  -0.2500000), wk =   0.0078125
        k(   42) = (   0.1250000  -0.0000000  -0.1250000), wk =   0.0078125
        k(   43) = (   0.1250000   0.1250000  -0.0000000), wk =   0.0078125
        k(   44) = (   0.1250000   0.1250000   0.1250000), wk =   0.0078125
        k(   45) = (   0.1250000   0.1250000   0.2500000), wk =   0.0078125
        k(   46) = (   0.1250000   0.1250000   0.3750000), wk =   0.0078125
        k(   47) = (   0.1250000   0.1250000  -0.5000000), wk =   0.0078125
        k(   48) = (   0.1250000   0.1250000  -0.3750000), wk =   0.0078125
        k(   49) = (   0.1250000   0.1250000  -0.2500000), wk =   0.0078125
        k(   50) = (   0.1250000   0.1250000  -0.1250000), wk =   0.0078125
        k(   51) = (   0.1250000   0.2500000   0.0000000), wk =   0.0078125
        k(   52) = (   0.1250000   0.2500000   0.1250000), wk =   0.0078125
        k(   53) = (   0.1250000   0.2500000   0.2500000), wk =   0.0078125
        k(   54) = (   0.1250000   0.2500000   0.3750000), wk =   0.0078125
        k(   55) = (   0.1250000   0.2500000  -0.5000000), wk =   0.0078125
        k(   56) = (   0.1250000   0.2500000  -0.3750000), wk =   0.0078125
        k(   57) = (   0.1250000   0.2500000  -0.2500000), wk =   0.0078125
        k(   58) = (   0.1250000   0.2500000  -0.1250000), wk =   0.0078125
        k(   59) = (   0.1250000   0.3750000   0.0000000), wk =   0.0078125
        k(   60) = (   0.1250000   0.3750000   0.1250000), wk =   0.0078125
        k(   61) = (   0.1250000   0.3750000   0.2500000), wk =   0.0078125
        k(   62) = (   0.1250000   0.3750000   0.3750000), wk =   0.0078125
        k(   63) = (   0.1250000   0.3750000  -0.5000000), wk =   0.0078125
        k(   64) = (   0.1250000   0.3750000  -0.3750000), wk =   0.0078125
        k(   65) = (   0.1250000   0.3750000  -0.2500000), wk =   0.0078125
        k(   66) = (   0.1250000   0.3750000  -0.1250000), wk =   0.0078125
        k(   67) = (   0.1250000  -0.5000000  -0.0000000), wk =   0.0078125
        k(   68) = (   0.1250000  -0.5000000   0.1250000), wk =   0.0078125
        k(   69) = (   0.1250000  -0.5000000   0.2500000), wk =   0.0078125
        k(   70) = (   0.1250000  -0.5000000   0.3750000), wk =   0.0078125
        k(   71) = (   0.1250000  -0.5000000  -0.5000000), wk =   0.0078125
        k(   72) = (   0.1250000  -0.5000000  -0.3750000), wk =   0.0078125
        k(   73) = (   0.1250000  -0.5000000  -0.2500000), wk =   0.0078125
        k(   74) = (   0.1250000  -0.5000000  -0.1250000), wk =   0.0078125
        k(   75) = (   0.1250000  -0.3750000  -0.0000000), wk =   0.0078125
        k(   76) = (   0.1250000  -0.3750000   0.1250000), wk =   0.0078125
        k(   77) = (   0.1250000  -0.3750000   0.2500000), wk =   0.0078125
        k(   78) = (   0.1250000  -0.3750000   0.3750000), wk =   0.0078125
        k(   79) = (   0.1250000  -0.3750000  -0.5000000), wk =   0.0078125
        k(   80) = (   0.1250000  -0.3750000  -0.3750000), wk =   0.0078125
        k(   81) = (   0.1250000  -0.3750000  -0.2500000), wk =   0.0078125
        k(   82) = (   0.1250000  -0.3750000  -0.1250000), wk =   0.0078125
        k(   83) = (   0.1250000  -0.2500000  -0.0000000), wk =   0.0078125
        k(   84) = (   0.1250000  -0.2500000   0.1250000), wk =   0.0078125
        k(   85) = (   0.1250000  -0.2500000   0.2500000), wk =   0.0078125
        k(   86) = (   0.1250000  -0.2500000   0.3750000), wk =   0.0078125
        k(   87) = (   0.1250000  -0.2500000  -0.5000000), wk =   0.0078125
        k(   88) = (   0.1250000  -0.2500000  -0.3750000), wk =   0.0078125
        k(   89) = (   0.1250000  -0.2500000  -0.2500000), wk =   0.0078125
        k(   90) = (   0.1250000  -0.2500000  -0.1250000), wk =   0.0078125
        k(   91) = (   0.1250000  -0.1250000  -0.0000000), wk =   0.0078125
        k(   92) = (   0.1250000  -0.1250000   0.1250000), wk =   0.0078125
        k(   93) = (   0.1250000  -0.1250000   0.2500000), wk =   0.0078125
        k(   94) = (   0.1250000  -0.1250000   0.3750000), wk =   0.0078125
        k(   95) = (   0.1250000  -0.1250000  -0.5000000), wk =   0.0078125
        k(   96) = (   0.1250000  -0.1250000  -0.3750000), wk =   0.0078125
        k(   97) = (   0.1250000  -0.1250000  -0.2500000), wk =   0.0078125
        k(   98) = (   0.1250000  -0.1250000  -0.1250000), wk =   0.0078125
        k(   99) = (   0.2500000  -0.0000000   0.0000000), wk =   0.0078125
        k(  100) = (   0.2500000  -0.0000000   0.1250000), wk =   0.0078125
        k(  101) = (   0.2500000  -0.0000000   0.2500000), wk =   0.0078125
        k(  102) = (   0.2500000  -0.0000000   0.3750000), wk =   0.0078125
        k(  103) = (   0.2500000  -0.0000000  -0.5000000), wk =   0.0078125
        k(  104) = (   0.2500000   0.0000000  -0.3750000), wk =   0.0078125
        k(  105) = (   0.2500000  -0.0000000  -0.2500000), wk =   0.0078125
        k(  106) = (   0.2500000   0.0000000  -0.1250000), wk =   0.0078125
        k(  107) = (   0.2500000   0.1250000   0.0000000), wk =   0.0078125
        k(  108) = (   0.2500000   0.1250000   0.1250000), wk =   0.0078125
        k(  109) = (   0.2500000   0.1250000   0.2500000), wk =   0.0078125
        k(  110) = (   0.2500000   0.1250000   0.3750000), wk =   0.0078125
        k(  111) = (   0.2500000   0.1250000  -0.5000000), wk =   0.0078125
        k(  112) = (   0.2500000   0.1250000  -0.3750000), wk =   0.0078125
        k(  113) = (   0.2500000   0.1250000  -0.2500000), wk =   0.0078125
        k(  114) = (   0.2500000   0.1250000  -0.1250000), wk =   0.0078125
        k(  115) = (   0.2500000   0.2500000  -0.0000000), wk =   0.0078125
        k(  116) = (   0.2500000   0.2500000   0.1250000), wk =   0.0078125
        k(  117) = (   0.2500000   0.2500000   0.2500000), wk =   0.0078125
        k(  118) = (   0.2500000   0.2500000   0.3750000), wk =   0.0078125
        k(  119) = (   0.2500000   0.2500000  -0.5000000), wk =   0.0078125
        k(  120) = (   0.2500000   0.2500000  -0.3750000), wk =   0.0078125
        k(  121) = (   0.2500000   0.2500000  -0.2500000), wk =   0.0078125
        k(  122) = (   0.2500000   0.2500000  -0.1250000), wk =   0.0078125
        k(  123) = (   0.2500000   0.3750000   0.0000000), wk =   0.0078125
        k(  124) = (   0.2500000   0.3750000   0.1250000), wk =   0.0078125
        k(  125) = (   0.2500000   0.3750000   0.2500000), wk =   0.0078125
        k(  126) = (   0.2500000   0.3750000   0.3750000), wk =   0.0078125
        k(  127) = (   0.2500000   0.3750000  -0.5000000), wk =   0.0078125
        k(  128) = (   0.2500000   0.3750000  -0.3750000), wk =   0.0078125
        k(  129) = (   0.2500000   0.3750000  -0.2500000), wk =   0.0078125
        k(  130) = (   0.2500000   0.3750000  -0.1250000), wk =   0.0078125
        k(  131) = (   0.2500000  -0.5000000  -0.0000000), wk =   0.0078125
        k(  132) = (   0.2500000  -0.5000000   0.1250000), wk =   0.0078125
        k(  133) = (   0.2500000  -0.5000000   0.2500000), wk =   0.0078125
        k(  134) = (   0.2500000  -0.5000000   0.3750000), wk =   0.0078125
        k(  135) = (   0.2500000  -0.5000000  -0.5000000), wk =   0.0078125
        k(  136) = (   0.2500000  -0.5000000  -0.3750000), wk =   0.0078125
        k(  137) = (   0.2500000  -0.5000000  -0.2500000), wk =   0.0078125
        k(  138) = (   0.2500000  -0.5000000  -0.1250000), wk =   0.0078125
        k(  139) = (   0.2500000  -0.3750000  -0.0000000), wk =   0.0078125
        k(  140) = (   0.2500000  -0.3750000   0.1250000), wk =   0.0078125
        k(  141) = (   0.2500000  -0.3750000   0.2500000), wk =   0.0078125
        k(  142) = (   0.2500000  -0.3750000   0.3750000), wk =   0.0078125
        k(  143) = (   0.2500000  -0.3750000  -0.5000000), wk =   0.0078125
        k(  144) = (   0.2500000  -0.3750000  -0.3750000), wk =   0.0078125
        k(  145) = (   0.2500000  -0.3750000  -0.2500000), wk =   0.0078125
        k(  146) = (   0.2500000  -0.3750000  -0.1250000), wk =   0.0078125
        k(  147) = (   0.2500000  -0.2500000  -0.0000000), wk =   0.0078125
        k(  148) = (   0.2500000  -0.2500000   0.1250000), wk =   0.0078125
        k(  149) = (   0.2500000  -0.2500000   0.2500000), wk =   0.0078125
        k(  150) = (   0.2500000  -0.2500000   0.3750000), wk =   0.0078125
        k(  151) = (   0.2500000  -0.2500000  -0.5000000), wk =   0.0078125
        k(  152) = (   0.2500000  -0.2500000  -0.3750000), wk =   0.0078125
        k(  153) = (   0.2500000  -0.2500000  -0.2500000), wk =   0.0078125
        k(  154) = (   0.2500000  -0.2500000  -0.1250000), wk =   0.0078125
        k(  155) = (   0.2500000  -0.1250000  -0.0000000), wk =   0.0078125
        k(  156) = (   0.2500000  -0.1250000   0.1250000), wk =   0.0078125
        k(  157) = (   0.2500000  -0.1250000   0.2500000), wk =   0.0078125
        k(  158) = (   0.2500000  -0.1250000   0.3750000), wk =   0.0078125
        k(  159) = (   0.2500000  -0.1250000  -0.5000000), wk =   0.0078125
        k(  160) = (   0.2500000  -0.1250000  -0.3750000), wk =   0.0078125
        k(  161) = (   0.2500000  -0.1250000  -0.2500000), wk =   0.0078125
        k(  162) = (   0.2500000  -0.1250000  -0.1250000), wk =   0.0078125
        k(  163) = (   0.3750000   0.0000000  -0.0000000), wk =   0.0078125
        k(  164) = (   0.3750000   0.0000000   0.1250000), wk =   0.0078125
        k(  165) = (   0.3750000   0.0000000   0.2500000), wk =   0.0078125
        k(  166) = (   0.3750000  -0.0000000   0.3750000), wk =   0.0078125
        k(  167) = (   0.3750000   0.0000000  -0.5000000), wk =   0.0078125
        k(  168) = (   0.3750000   0.0000000  -0.3750000), wk =   0.0078125
        k(  169) = (   0.3750000   0.0000000  -0.2500000), wk =   0.0078125
        k(  170) = (   0.3750000   0.0000000  -0.1250000), wk =   0.0078125
        k(  171) = (   0.3750000   0.1250000   0.0000000), wk =   0.0078125
        k(  172) = (   0.3750000   0.1250000   0.1250000), wk =   0.0078125
        k(  173) = (   0.3750000   0.1250000   0.2500000), wk =   0.0078125
        k(  174) = (   0.3750000   0.1250000   0.3750000), wk =   0.0078125
        k(  175) = (   0.3750000   0.1250000  -0.5000000), wk =   0.0078125
        k(  176) = (   0.3750000   0.1250000  -0.3750000), wk =   0.0078125
        k(  177) = (   0.3750000   0.1250000  -0.2500000), wk =   0.0078125
        k(  178) = (   0.3750000   0.1250000  -0.1250000), wk =   0.0078125
        k(  179) = (   0.3750000   0.2500000   0.0000000), wk =   0.0078125
        k(  180) = (   0.3750000   0.2500000   0.1250000), wk =   0.0078125
        k(  181) = (   0.3750000   0.2500000   0.2500000), wk =   0.0078125
        k(  182) = (   0.3750000   0.2500000   0.3750000), wk =   0.0078125
        k(  183) = (   0.3750000   0.2500000  -0.5000000), wk =   0.0078125
        k(  184) = (   0.3750000   0.2500000  -0.3750000), wk =   0.0078125
        k(  185) = (   0.3750000   0.2500000  -0.2500000), wk =   0.0078125
        k(  186) = (   0.3750000   0.2500000  -0.1250000), wk =   0.0078125
        k(  187) = (   0.3750000   0.3750000  -0.0000000), wk =   0.0078125
        k(  188) = (   0.3750000   0.3750000   0.1250000), wk =   0.0078125
        k(  189) = (   0.3750000   0.3750000   0.2500000), wk =   0.0078125
        k(  190) = (   0.3750000   0.3750000   0.3750000), wk =   0.0078125
        k(  191) = (   0.3750000   0.3750000  -0.5000000), wk =   0.0078125
        k(  192) = (   0.3750000   0.3750000  -0.3750000), wk =   0.0078125
        k(  193) = (   0.3750000   0.3750000  -0.2500000), wk =   0.0078125
        k(  194) = (   0.3750000   0.3750000  -0.1250000), wk =   0.0078125
        k(  195) = (   0.3750000  -0.5000000  -0.0000000), wk =   0.0078125
        k(  196) = (   0.3750000  -0.5000000   0.1250000), wk =   0.0078125
        k(  197) = (   0.3750000  -0.5000000   0.2500000), wk =   0.0078125
        k(  198) = (   0.3750000  -0.5000000   0.3750000), wk =   0.0078125
        k(  199) = (   0.3750000  -0.5000000  -0.5000000), wk =   0.0078125
        k(  200) = (   0.3750000  -0.5000000  -0.3750000), wk =   0.0078125
        k(  201) = (   0.3750000  -0.5000000  -0.2500000), wk =   0.0078125
        k(  202) = (   0.3750000  -0.5000000  -0.1250000), wk =   0.0078125
        k(  203) = (   0.3750000  -0.3750000  -0.0000000), wk =   0.0078125
        k(  204) = (   0.3750000  -0.3750000   0.1250000), wk =   0.0078125
        k(  205) = (   0.3750000  -0.3750000   0.2500000), wk =   0.0078125
        k(  206) = (   0.3750000  -0.3750000   0.3750000), wk =   0.0078125
        k(  207) = (   0.3750000  -0.3750000  -0.5000000), wk =   0.0078125
        k(  208) = (   0.3750000  -0.3750000  -0.3750000), wk =   0.0078125
        k(  209) = (   0.3750000  -0.3750000  -0.2500000), wk =   0.0078125
        k(  210) = (   0.3750000  -0.3750000  -0.1250000), wk =   0.0078125
        k(  211) = (   0.3750000  -0.2500000  -0.0000000), wk =   0.0078125
        k(  212) = (   0.3750000  -0.2500000   0.1250000), wk =   0.0078125
        k(  213) = (   0.3750000  -0.2500000   0.2500000), wk =   0.0078125
        k(  214) = (   0.3750000  -0.2500000   0.3750000), wk =   0.0078125
        k(  215) = (   0.3750000  -0.2500000  -0.5000000), wk =   0.0078125
        k(  216) = (   0.3750000  -0.2500000  -0.3750000), wk =   0.0078125
        k(  217) = (   0.3750000  -0.2500000  -0.2500000), wk =   0.0078125
        k(  218) = (   0.3750000  -0.2500000  -0.1250000), wk =   0.0078125
        k(  219) = (   0.3750000  -0.1250000  -0.0000000), wk =   0.0078125
        k(  220) = (   0.3750000  -0.1250000   0.1250000), wk =   0.0078125
        k(  221) = (   0.3750000  -0.1250000   0.2500000), wk =   0.0078125
        k(  222) = (   0.3750000  -0.1250000   0.3750000), wk =   0.0078125
        k(  223) = (   0.3750000  -0.1250000  -0.5000000), wk =   0.0078125
        k(  224) = (   0.3750000  -0.1250000  -0.3750000), wk =   0.0078125
        k(  225) = (   0.3750000  -0.1250000  -0.2500000), wk =   0.0078125
        k(  226) = (   0.3750000  -0.1250000  -0.1250000), wk =   0.0078125
        k(  227) = (  -0.5000000   0.0000000  -0.0000000), wk =   0.0039062
        k(  228) = (  -0.5000000   0.0000000   0.1250000), wk =   0.0078125
        k(  229) = (  -0.5000000  -0.0000000   0.2500000), wk =   0.0078125
        k(  230) = (  -0.5000000   0.0000000   0.3750000), wk =   0.0078125
        k(  231) = (  -0.5000000   0.0000000  -0.5000000), wk =   0.0039062
        k(  232) = (  -0.5000000   0.1250000   0.0000000), wk =   0.0078125
        k(  233) = (  -0.5000000   0.1250000   0.1250000), wk =   0.0078125
        k(  234) = (  -0.5000000   0.1250000   0.2500000), wk =   0.0078125
        k(  235) = (  -0.5000000   0.1250000   0.3750000), wk =   0.0078125
        k(  236) = (  -0.5000000   0.1250000  -0.5000000), wk =   0.0078125
        k(  237) = (  -0.5000000   0.1250000  -0.3750000), wk =   0.0078125
        k(  238) = (  -0.5000000   0.1250000  -0.2500000), wk =   0.0078125
        k(  239) = (  -0.5000000   0.1250000  -0.1250000), wk =   0.0078125
        k(  240) = (  -0.5000000   0.2500000   0.0000000), wk =   0.0078125
        k(  241) = (  -0.5000000   0.2500000   0.1250000), wk =   0.0078125
        k(  242) = (  -0.5000000   0.2500000   0.2500000), wk =   0.0078125
        k(  243) = (  -0.5000000   0.2500000   0.3750000), wk =   0.0078125
        k(  244) = (  -0.5000000   0.2500000  -0.5000000), wk =   0.0078125
        k(  245) = (  -0.5000000   0.2500000  -0.3750000), wk =   0.0078125
        k(  246) = (  -0.5000000   0.2500000  -0.2500000), wk =   0.0078125
        k(  247) = (  -0.5000000   0.2500000  -0.1250000), wk =   0.0078125
        k(  248) = (  -0.5000000   0.3750000   0.0000000), wk =   0.0078125
        k(  249) = (  -0.5000000   0.3750000   0.1250000), wk =   0.0078125
        k(  250) = (  -0.5000000   0.3750000   0.2500000), wk =   0.0078125
        k(  251) = (  -0.5000000   0.3750000   0.3750000), wk =   0.0078125
        k(  252) = (  -0.5000000   0.3750000  -0.5000000), wk =   0.0078125
        k(  253) = (  -0.5000000   0.3750000  -0.3750000), wk =   0.0078125
        k(  254) = (  -0.5000000   0.3750000  -0.2500000), wk =   0.0078125
        k(  255) = (  -0.5000000   0.3750000  -0.1250000), wk =   0.0078125
        k(  256) = (  -0.5000000  -0.5000000   0.0000000), wk =   0.0039062
        k(  257) = (  -0.5000000  -0.5000000   0.1250000), wk =   0.0078125
        k(  258) = (  -0.5000000  -0.5000000   0.2500000), wk =   0.0078125
        k(  259) = (  -0.5000000  -0.5000000   0.3750000), wk =   0.0078125
        k(  260) = (  -0.5000000  -0.5000000  -0.5000000), wk =   0.0039062

     Dense  grid:    78751 G-vectors     FFT dimensions: (  50,  50,  75)

     Smooth grid:    30719 G-vectors     FFT dimensions: (  36,  36,  54)

     Dynamical RAM for                 wfc:       0.10 MB

     Dynamical RAM for     wfc (w. buffer):       6.28 MB

     Dynamical RAM for           str. fact:       0.15 MB

     Dynamical RAM for           local pot:       0.00 MB

     Dynamical RAM for          nlocal pot:       0.23 MB

     Dynamical RAM for                qrad:       3.90 MB

     Dynamical RAM for          rho,v,vnew:       0.51 MB

     Dynamical RAM for               rhoin:       0.17 MB

     Dynamical RAM for            rho*nmix:       1.20 MB

     Dynamical RAM for           G-vectors:       0.30 MB

     Dynamical RAM for          h,s,v(r/c):       0.12 MB

     Dynamical RAM for          <psi|beta>:       0.02 MB

     Dynamical RAM for                 psi:       0.38 MB

     Dynamical RAM for                hpsi:       0.38 MB

     Dynamical RAM for                spsi:       0.38 MB

     Dynamical RAM for      wfcinit/wfcrot:       0.28 MB

     Dynamical RAM for           addusdens:       3.58 MB

     Dynamical RAM for          addusforce:       3.73 MB

     Dynamical RAM for         addusstress:       3.80 MB

     Estimated static dynamical RAM per process >      13.44 MB

     Estimated max dynamical RAM per process >      17.24 MB

     Estimated total dynamical RAM >       1.08 GB

     Check: negative core charge=   -0.000003

     Initial potential from superposition of free atoms

     starting charge   51.99974, renormalised to   52.00000
     Starting wfcs are   34 randomized atomic wfcs

     total cpu time spent up to now is        2.8 secs

     Self-consistent Calculation

     iteration #  1     ecut=    80.00 Ry     beta= 0.50
     Davidson diagonalization with overlap
     ethr =  1.00E-02,  avg # of iterations =  1.0

     total cpu time spent up to now is        3.7 secs

     total energy              =    -986.76319511 Ry
     Harris-Foulkes estimate   =    -987.28541124 Ry
     estimated scf accuracy    <       0.82149951 Ry

     iteration #  2     ecut=    80.00 Ry     beta= 0.50
     Davidson diagonalization with overlap
     ethr =  1.58E-03,  avg # of iterations =  3.0

     total cpu time spent up to now is        5.3 secs

     total energy              =    -987.00487167 Ry
     Harris-Foulkes estimate   =    -987.17392032 Ry
     estimated scf accuracy    <       0.39074084 Ry

     iteration #  3     ecut=    80.00 Ry     beta= 0.50
     Davidson diagonalization with overlap
     ethr =  7.51E-04,  avg # of iterations =  2.1

     total cpu time spent up to now is        6.5 secs

     total energy              =    -987.07512989 Ry
     Harris-Foulkes estimate   =    -987.07741941 Ry
     estimated scf accuracy    <       0.00686099 Ry

     iteration #  4     ecut=    80.00 Ry     beta= 0.50
     Davidson diagonalization with overlap
     ethr =  1.32E-05,  avg # of iterations =  2.0

     total cpu time spent up to now is        7.5 secs

     total energy              =    -987.07571620 Ry
     Harris-Foulkes estimate   =    -987.07616987 Ry
     estimated scf accuracy    <       0.00153898 Ry

     iteration #  5     ecut=    80.00 Ry     beta= 0.50
     Davidson diagonalization with overlap
     ethr =  2.96E-06,  avg # of iterations =  2.0

     total cpu time spent up to now is        8.6 secs

     total energy              =    -987.07587763 Ry
     Harris-Foulkes estimate   =    -987.07588741 Ry
     estimated scf accuracy    <       0.00001901 Ry

     iteration #  6     ecut=    80.00 Ry     beta= 0.50
     Davidson diagonalization with overlap
     ethr =  3.66E-08,  avg # of iterations =  2.0

     total cpu time spent up to now is        9.7 secs

     total energy              =    -987.07588072 Ry
     Harris-Foulkes estimate   =    -987.07587995 Ry
     estimated scf accuracy    <       0.00000367 Ry

     iteration #  7     ecut=    80.00 Ry     beta= 0.50
     Davidson diagonalization with overlap
     ethr =  7.05E-09,  avg # of iterations =  2.0

     total cpu time spent up to now is       10.6 secs

     End of self-consistent calculation

          k = 0.0000 0.0000 0.0000 (  3837 PWs)   bands (ev):

  -114.2969-114.2966 -68.6813 -68.6773 -68.6432 -68.6432 -68.6423 -68.6423
    -9.2182  -8.3663   2.9651   2.9651   3.0509   3.0509   3.3932   3.4748
     4.2337   4.2337   4.4860   4.4860   4.8573   8.0939   8.0939   8.5309
     8.8051   8.8051

     occupation numbers 
     1.0000   1.0000   1.0000   1.0000   1.0000   1.0000   1.0000   1.0000
     1.0000   1.0000   1.0000   1.0000   1.0000   1.0000   1.0000   1.0000
     1.0000   1.0000   1.0000   1.0000   1.0000   1.0000   1.0000   1.0000
     1.0000   1.0000

          k =-0.0000-0.0000 0.0824 (  3825 PWs)   bands (ev):

  -114.2969-114.2966 -68.6812 -68.6775 -68.6431 -68.6431 -68.6423 -68.6423
    -9.1873  -8.4002   2.9636   2.9636   3.0430   3.0430   3.2998   3.4309
     4.2480   4.2480   4.4812   4.4812   5.0571   8.1222   8.1222   8.2044
     8.7798   8.7798

     occupation numbers 
     1.0000   1.0000   1.0000   1.0000   1.0000   1.0000   1.0000   1.0000
     1.0000   1.0000   1.0000   1.0000   1.0000   1.0000   1.0000   1.0000
     1.0000   1.0000   1.0000   1.0000   1.0000   1.0000   1.0000   1.0000
     1.0000   1.0000

          k =-0.0000-0.0000 0.1648 (  3849 PWs)   bands (ev):

  -114.2969-114.2966 -68.6808 -68.6779 -68.6430 -68.6430 -68.6425 -68.6425
    -9.0986  -8.4961   2.9618   2.9618   3.0226   3.0226   3.1453   3.3175
     4.2866   4.2866   4.4652   4.4652   5.5154   7.6761   8.2026   8.2026
     8.7067   8.7067

     occupation numbers 
     1.0000   1.0000   1.0000   1.0000   1.0000   1.0000   1.0000   1.0000
     1.0000   1.0000   1.0000   1.0000   1.0000   1.0000   1.0000   1.0000
     1.0000   1.0000   1.0000   1.0000   1.0000   1.0000   1.0000   1.0000
     1.0000   1.0000

          k =-0.0000-0.0000 0.2472 (  3855 PWs)   bands (ev):

  -114.2969-114.2966 -68.6801 -68.6786 -68.6429 -68.6429 -68.6426 -68.6426
    -8.9640  -8.6379   2.9648   2.9648   2.9977   2.9977   3.0617   3.1818
     4.3386   4.3386   4.4354   4.4354   6.0603   7.1461   8.3217   8.3217
     8.5949   8.5949

     occupation numbers 
     1.0000   1.0000   1.0000   1.0000   1.0000   1.0000   1.0000   1.0000
     1.0000   1.0000   1.0000   1.0000   1.0000   1.0000   1.0000   1.0000
     1.0000   1.0000   1.0000   1.0000   1.0000   1.0000   1.0000   1.0000
     1.0000   1.0000

          k = 0.0000 0.0000-0.3296 (  3842 PWs)   bands (ev):

  -114.2969-114.2967 -68.6794 -68.6792 -68.6429 -68.6429 -68.6427 -68.6427
    -8.8025  -8.8024   2.9768   2.9768   2.9768   2.9768   3.0807   3.0808
     4.3914   4.3914   4.3916   4.3916   6.6113   6.6114   8.4598   8.4598
     8.4598   8.4598

     occupation numbers 
     1.0000   1.0000   1.0000   1.0000   1.0000   1.0000   1.0000   1.0000
     1.0000   1.0000   1.0000   1.0000   1.0000   1.0000   1.0000   1.0000
     1.0000   1.0000   1.0000   1.0000   1.0000   1.0000   1.0000   1.0000
     1.0000   1.0000

          k =-0.0000 0.1443-0.0000 (  3829 PWs)   bands (ev):

  -114.2969-114.2966 -68.6812 -68.6775 -68.6434 -68.6433 -68.6426 -68.6423
    -9.1309  -8.3334   2.8843   3.0345   3.0456   3.1295   3.4345   3.5141
     4.2002   4.2229   4.4956   4.6224   4.8488   7.5252   7.8552   7.9814
     8.4541   8.6559

     occupation numbers 
     1.0000   1.0000   1.0000   1.0000   1.0000   1.0000   1.0000   1.0000
     1.0000   1.0000   1.0000   1.0000   1.0000   1.0000   1.0000   1.0000
     1.0000   1.0000   1.0000   1.0000   1.0000   1.0000   1.0000   1.0000
     1.0000   1.0000

          k =-0.0000 0.1443 0.0824 (  3829 PWs)   bands (ev):

  -114.2969-114.2966 -68.6810 -68.6776 -68.6434 -68.6432 -68.6426 -68.6424
    -9.1016  -8.3646   2.8776   3.0166   3.0334   3.1211   3.3568   3.4713
     4.2213   4.2376   4.4894   4.5635   5.0983   7.5492   7.7999   7.8872
     8.5135   8.6273

     occupation numbers 
     1.0000   1.0000   1.0000   1.0000   1.0000   1.0000   1.0000   1.0000
     1.0000   1.0000   1.0000   1.0000   1.0000   1.0000   1.0000   1.0000
     1.0000   1.0000   1.0000   1.0000   1.0000   1.0000   1.0000   1.0000
     1.0000   1.0000

          k =-0.0000 0.1443 0.1648 (  3827 PWs)   bands (ev):

  -114.2969-114.2966 -68.6806 -68.6780 -68.6433 -68.6431 -68.6427 -68.6425
    -9.0176  -8.4532   2.8580   2.9345   3.0325   3.0995   3.2473   3.3698
     4.2746   4.2773   4.4698   4.5132   5.5750   7.3819   7.7247   7.9778
     8.4959   8.5448

     occupation numbers 
     1.0000   1.0000   1.0000   1.0000   1.0000   1.0000   1.0000   1.0000
     1.0000   1.0000   1.0000   1.0000   1.0000   1.0000   1.0000   1.0000
     1.0000   1.0000   1.0000   1.0000   1.0000   1.0000   1.0000   1.0000
     1.0000   1.0000

          k =-0.0000 0.1443 0.2472 (  3828 PWs)   bands (ev):

  -114.2969-114.2966 -68.6800 -68.6786 -68.6432 -68.6430 -68.6428 -68.6426
    -8.8905  -8.5850   2.8300   2.8543   3.0370   3.0731   3.1984   3.2658
     4.3313   4.3417   4.4354   4.4659   6.0946   7.0021   7.8977   8.1117
     8.3464   8.4189

     occupation numbers 
     1.0000   1.0000   1.0000   1.0000   1.0000   1.0000   1.0000   1.0000
     1.0000   1.0000   1.0000   1.0000   1.0000   1.0000   1.0000   1.0000
     1.0000   1.0000   1.0000   1.0000   1.0000   1.0000   1.0000   1.0000
     1.0000   1.0000

          k =-0.0000 0.1443-0.3296 (  3828 PWs)   bands (ev):

  -114.2969-114.2966 -68.6794 -68.6792 -68.6431 -68.6429 -68.6429 -68.6427
    -8.7388  -8.7387   2.8203   2.8203   3.0505   3.0506   3.2046   3.2047
     4.3873   4.3874   4.4083   4.4085   6.5763   6.5764   8.1246   8.1246
     8.2670   8.2670

     occupation numbers 
     1.0000   1.0000   1.0000   1.0000   1.0000   1.0000   1.0000   1.0000
     1.0000   1.0000   1.0000   1.0000   1.0000   1.0000   1.0000   1.0000
     1.0000   1.0000   1.0000   1.0000   1.0000   1.0000   1.0000   1.0000
     1.0000   1.0000

          k =-0.0000 0.1443-0.2472 (  3828 PWs)   bands (ev):

  -114.2969-114.2966 -68.6800 -68.6786 -68.6432 -68.6430 -68.6428 -68.6426
    -8.8905  -8.5850   2.8300   2.8542   3.0370   3.0731   3.1984   3.2657
     4.3313   4.3417   4.4354   4.4659   6.0946   7.0021   7.8977   8.1117
     8.3464   8.4189

     occupation numbers 
     1.0000   1.0000   1.0000   1.0000   1.0000   1.0000   1.0000   1.0000
     1.0000   1.0000   1.0000   1.0000   1.0000   1.0000   1.0000   1.0000
     1.0000   1.0000   1.0000   1.0000   1.0000   1.0000   1.0000   1.0000
     1.0000   1.0000

          k =-0.0000 0.1443-0.1648 (  3827 PWs)   bands (ev):

  -114.2969-114.2966 -68.6806 -68.6780 -68.6433 -68.6431 -68.6427 -68.6425
    -9.0176  -8.4532   2.8580   2.9345   3.0325   3.0995   3.2473   3.3698
     4.2746   4.2773   4.4698   4.5132   5.5750   7.3819   7.7247   7.9778
     8.4959   8.5448

     occupation numbers 
     1.0000   1.0000   1.0000   1.0000   1.0000   1.0000   1.0000   1.0000
     1.0000   1.0000   1.0000   1.0000   1.0000   1.0000   1.0000   1.0000
     1.0000   1.0000   1.0000   1.0000   1.0000   1.0000   1.0000   1.0000
     1.0000   1.0000

          k =-0.0000 0.1443-0.0824 (  3829 PWs)   bands (ev):

  -114.2969-114.2966 -68.6810 -68.6776 -68.6434 -68.6432 -68.6426 -68.6424
    -9.1016  -8.3646   2.8776   3.0166   3.0334   3.1211   3.3568   3.4713
     4.2213   4.2376   4.4894   4.5636   5.0983   7.5492   7.7999   7.8872
     8.5135   8.6273

     occupation numbers 
     1.0000   1.0000   1.0000   1.0000   1.0000   1.0000   1.0000   1.0000
     1.0000   1.0000   1.0000   1.0000   1.0000   1.0000   1.0000   1.0000
     1.0000   1.0000   1.0000   1.0000   1.0000   1.0000   1.0000   1.0000
     1.0000   1.0000

          k =-0.0000 0.2887-0.0000 (  3843 PWs)   bands (ev):

  -114.2969-114.2966 -68.6808 -68.6778 -68.6440 -68.6435 -68.6433 -68.6425
    -8.9042  -8.2630   2.7463   3.0364   3.2078   3.3387   3.5485   3.6495
     4.1322   4.2246   4.5136   4.7878   4.9990   6.3702   6.9827   7.2826
     8.2191   8.2759

     occupation numbers 
     1.0000   1.0000   1.0000   1.0000   1.0000   1.0000   1.0000   1.0000
     1.0000   1.0000   1.0000   1.0000   1.0000   1.0000   1.0000   1.0000
     1.0000   1.0000   1.0000   1.0000   1.0000   1.0000   1.0000   1.0000
     1.0000   1.0000

          k =-0.0000 0.2887 0.0824 (  3831 PWs)   bands (ev):

  -114.2969-114.2966 -68.6806 -68.6779 -68.6440 -68.6435 -68.6433 -68.6425
    -8.8796  -8.2869   2.7326   2.9858   3.2083   3.3290   3.4848   3.5884
     4.1748   4.2381   4.5046   4.6877   5.2632   6.4286   6.9166   7.3233
     8.2406   8.2591

     occupation numbers 
     1.0000   1.0000   1.0000   1.0000   1.0000   1.0000   1.0000   1.0000
     1.0000   1.0000   1.0000   1.0000   1.0000   1.0000   1.0000   1.0000
     1.0000   1.0000   1.0000   1.0000   1.0000   1.0000   1.0000   1.0000
     1.0000   1.0000

          k =-0.0000 0.2887 0.1648 (  3824 PWs)   bands (ev):

  -114.2968-114.2966 -68.6803 -68.6782 -68.6439 -68.6434 -68.6434 -68.6426
    -8.8095  -8.3552   2.6958   2.8557   3.2118   3.3038   3.3854   3.4790
     4.2645   4.2752   4.4782   4.6056   5.6581   6.5167   6.9006   7.4375
     8.1390   8.2663

     occupation numbers 
     1.0000   1.0000   1.0000   1.0000   1.0000   1.0000   1.0000   1.0000
     1.0000   1.0000   1.0000   1.0000   1.0000   1.0000   1.0000   1.0000
     1.0000   1.0000   1.0000   1.0000   1.0000   1.0000   1.0000   1.0000
     1.0000   1.0000

          k =-0.0000 0.2887 0.2472 (  3836 PWs)   bands (ev):

  -114.2968-114.2966 -68.6799 -68.6787 -68.6438 -68.6435 -68.6432 -68.6428
    -8.7046  -8.4584   2.6572   2.7259   3.2224   3.2719   3.3351   3.3869
     4.3272   4.3628   4.4366   4.5348   5.9699   6.3945   7.2542   7.6049
     7.9842   8.0934

     occupation numbers 
     1.0000   1.0000   1.0000   1.0000   1.0000   1.0000   1.0000   1.0000
     1.0000   1.0000   1.0000   1.0000   1.0000   1.0000   1.0000   1.0000
     1.0000   1.0000   1.0000   1.0000   1.0000   1.0000   1.0000   1.0000
     1.0000   1.0000

          k =-0.0000 0.2887-0.3296 (  3834 PWs)   bands (ev):

  -114.2968-114.2966 -68.6794 -68.6792 -68.6437 -68.6435 -68.6431 -68.6429
    -8.5812  -8.5811   2.6574   2.6574   3.2427   3.2428   3.3368   3.3369
     4.3839   4.3841   4.4548   4.4548   6.2003   6.2004   7.7233   7.7233
     7.7971   7.7971

     occupation numbers 
     1.0000   1.0000   1.0000   1.0000   1.0000   1.0000   1.0000   1.0000
     1.0000   1.0000   1.0000   1.0000   1.0000   1.0000   1.0000   1.0000
     1.0000   1.0000   1.0000   1.0000   1.0000   1.0000   1.0000   1.0000
     1.0000   1.0000

          k =-0.0000 0.2887-0.2472 (  3836 PWs)   bands (ev):

  -114.2968-114.2966 -68.6799 -68.6787 -68.6438 -68.6435 -68.6432 -68.6428
    -8.7046  -8.4584   2.6572   2.7259   3.2223   3.2719   3.3351   3.3869
     4.3272   4.3628   4.4366   4.5349   5.9699   6.3945   7.2542   7.6049
     7.9842   8.0934

     occupation numbers 
     1.0000   1.0000   1.0000   1.0000   1.0000   1.0000   1.0000   1.0000
     1.0000   1.0000   1.0000   1.0000   1.0000   1.0000   1.0000   1.0000
     1.0000   1.0000   1.0000   1.0000   1.0000   1.0000   1.0000   1.0000
     1.0000   1.0000

          k =-0.0000 0.2887-0.1648 (  3824 PWs)   bands (ev):

  -114.2968-114.2966 -68.6803 -68.6782 -68.6439 -68.6434 -68.6434 -68.6426
    -8.8095  -8.3552   2.6958   2.8557   3.2118   3.3038   3.3855   3.4790
     4.2644   4.2752   4.4782   4.6056   5.6581   6.5167   6.9006   7.4375
     8.1390   8.2663

     occupation numbers 
     1.0000   1.0000   1.0000   1.0000   1.0000   1.0000   1.0000   1.0000
     1.0000   1.0000   1.0000   1.0000   1.0000   1.0000   1.0000   1.0000
     1.0000   1.0000   1.0000   1.0000   1.0000   1.0000   1.0000   1.0000
     1.0000   1.0000

          k =-0.0000 0.2887-0.0824 (  3831 PWs)   bands (ev):

  -114.2969-114.2966 -68.6806 -68.6779 -68.6440 -68.6435 -68.6433 -68.6425
    -8.8796  -8.2869   2.7325   2.9858   3.2083   3.3290   3.4848   3.5884
     4.1748   4.2381   4.5046   4.6877   5.2632   6.4286   6.9166   7.3233
     8.2406   8.2591

     occupation numbers 
     1.0000   1.0000   1.0000   1.0000   1.0000   1.0000   1.0000   1.0000
     1.0000   1.0000   1.0000   1.0000   1.0000   1.0000   1.0000   1.0000
     1.0000   1.0000   1.0000   1.0000   1.0000   1.0000   1.0000   1.0000
     1.0000   1.0000

          k =-0.0000 0.4330-0.0000 (  3844 PWs)   bands (ev):

  -114.2968-114.2966 -68.6802 -68.6782 -68.6446 -68.6440 -68.6437 -68.6426
    -8.6381  -8.2218   2.7339   3.0038   3.3685   3.6008   3.6259   3.9900
     4.0955   4.2895   4.5287   4.7315   5.0682   5.6061   6.1467   6.6776
     7.8625   7.8661

     occupation numbers 
     1.0000   1.0000   1.0000   1.0000   1.0000   1.0000   1.0000   1.0000
     1.0000   1.0000   1.0000   1.0000   1.0000   1.0000   1.0000   1.0000
     1.0000   1.0000   1.0000   1.0000   1.0000   1.0000   1.0000   1.0000
     1.0000   1.0000

          k =-0.0000 0.4330 0.0824 (  3836 PWs)   bands (ev):

  -114.2968-114.2966 -68.6801 -68.6783 -68.6446 -68.6440 -68.6437 -68.6426
    -8.6207  -8.2357   2.7109   2.9501   3.3736   3.5723   3.5877   3.8585
     4.1920   4.2978   4.5171   4.7005   5.1331   5.6562   6.2513   6.7292
     7.8250   7.9311

     occupation numbers 
     1.0000   1.0000   1.0000   1.0000   1.0000   1.0000   1.0000   1.0000
     1.0000   1.0000   1.0000   1.0000   1.0000   1.0000   1.0000   1.0000
     1.0000   1.0000   1.0000   1.0000   1.0000   1.0000   1.0000   1.0000
     1.0000   1.0000

          k =-0.0000 0.4330 0.1648 (  3843 PWs)   bands (ev):

  -114.2968-114.2966 -68.6799 -68.6785 -68.6446 -68.6441 -68.6436 -68.6428
    -8.5716  -8.2763   2.6523   2.8132   3.3896   3.4917   3.5525   3.6891
     4.3094   4.3213   4.4862   4.6469   5.2360   5.6416   6.6573   6.8719
     7.7067   8.0366

     occupation numbers 
     1.0000   1.0000   1.0000   1.0000   1.0000   1.0000   1.0000   1.0000
     1.0000   1.0000   1.0000   1.0000   1.0000   1.0000   1.0000   1.0000
     1.0000   1.0000   1.0000   1.0000   1.0000   1.0000   1.0000   1.0000
     1.0000   1.0000

          k =-0.0000 0.4330 0.2472 (  3846 PWs)   bands (ev):

  -114.2968-114.2966 -68.6796 -68.6789 -68.6445 -68.6442 -68.6434 -68.6429
    -8.4998  -8.3396   2.5952   2.6707   3.4177   3.4605   3.5054   3.5615
     4.3568   4.4151   4.4445   4.5833   5.3397   5.5511   7.0760   7.2131
     7.5258   7.9936

     occupation numbers 
     1.0000   1.0000   1.0000   1.0000   1.0000   1.0000   1.0000   1.0000
     1.0000   1.0000   1.0000   1.0000   1.0000   1.0000   1.0000   1.0000
     1.0000   1.0000   1.0000   1.0000   1.0000   1.0000   1.0000   1.0000
     1.0000   1.0000

          k =-0.0000 0.4330-0.3296 (  3844 PWs)   bands (ev):

  -114.2968-114.2966 -68.6793 -68.6791 -68.6444 -68.6442 -68.6433 -68.6431
    -8.4180  -8.4179   2.5919   2.5919   3.4576   3.4577   3.4851   3.4852
     4.3994   4.3995   4.5064   4.5065   5.4455   5.4455   7.3055   7.3056
     7.7042   7.7043

     occupation numbers 
     1.0000   1.0000   1.0000   1.0000   1.0000   1.0000   1.0000   1.0000
     1.0000   1.0000   1.0000   1.0000   1.0000   1.0000   1.0000   1.0000
     1.0000   1.0000   1.0000   1.0000   1.0000   1.0000   1.0000   1.0000
     1.0000   1.0000

          k =-0.0000 0.4330-0.2472 (  3846 PWs)   bands (ev):

  -114.2968-114.2966 -68.6796 -68.6789 -68.6445 -68.6442 -68.6434 -68.6429
    -8.4998  -8.3396   2.5952   2.6708   3.4177   3.4605   3.5054   3.5615
     4.3567   4.4151   4.4445   4.5833   5.3397   5.5511   7.0760   7.2131
     7.5258   7.9936

     occupation numbers 
     1.0000   1.0000   1.0000   1.0000   1.0000   1.0000   1.0000   1.0000
     1.0000   1.0000   1.0000   1.0000   1.0000   1.0000   1.0000   1.0000
     1.0000   1.0000   1.0000   1.0000   1.0000   1.0000   1.0000   1.0000
     1.0000   1.0000

          k =-0.0000 0.4330-0.1648 (  3843 PWs)   bands (ev):

  -114.2968-114.2966 -68.6799 -68.6785 -68.6446 -68.6441 -68.6436 -68.6428
    -8.5716  -8.2763   2.6523   2.8133   3.3896   3.4917   3.5525   3.6890
     4.3093   4.3213   4.4862   4.6470   5.2361   5.6416   6.6573   6.8719
     7.7067   8.0366

     occupation numbers 
     1.0000   1.0000   1.0000   1.0000   1.0000   1.0000   1.0000   1.0000
     1.0000   1.0000   1.0000   1.0000   1.0000   1.0000   1.0000   1.0000
     1.0000   1.0000   1.0000   1.0000   1.0000   1.0000   1.0000   1.0000
     1.0000   1.0000

          k =-0.0000 0.4330-0.0824 (  3836 PWs)   bands (ev):

  -114.2968-114.2966 -68.6801 -68.6783 -68.6446 -68.6440 -68.6437 -68.6426
    -8.6207  -8.2357   2.7109   2.9502   3.3736   3.5723   3.5877   3.8585
     4.1919   4.2977   4.5171   4.7006   5.1331   5.6562   6.2512   6.7292
     7.8250   7.9311

     occupation numbers 
     1.0000   1.0000   1.0000   1.0000   1.0000   1.0000   1.0000   1.0000
     1.0000   1.0000   1.0000   1.0000   1.0000   1.0000   1.0000   1.0000
     1.0000   1.0000   1.0000   1.0000   1.0000   1.0000   1.0000   1.0000
     1.0000   1.0000

          k = 0.0000-0.5774 0.0000 (  3848 PWs)   bands (ev):

  -114.2968-114.2966 -68.6799 -68.6785 -68.6449 -68.6443 -68.6438 -68.6427
    -8.4979  -8.2315   2.8726   2.8869   3.4248   3.6634   3.7341   4.0836
     4.3391   4.3513   4.5346   4.5568   4.9058   5.1921   6.1218   6.3995
     7.6351   7.6845

     occupation numbers 
     1.0000   1.0000   1.0000   1.0000   1.0000   1.0000   1.0000   1.0000
     1.0000   1.0000   1.0000   1.0000   1.0000   1.0000   1.0000   1.0000
     1.0000   1.0000   1.0000   1.0000   1.0000   1.0000   1.0000   1.0000
     1.0000   1.0000

          k = 0.0000-0.5774 0.0824 (  3848 PWs)   bands (ev):

  -114.2968-114.2966 -68.6798 -68.6786 -68.6449 -68.6443 -68.6438 -68.6427
    -8.4856  -8.2392   2.8367   2.8413   3.4330   3.6186   3.7183   4.0017
     4.3557   4.3740   4.5214   4.5638   4.9291   5.1485   6.3287   6.4579
     7.6410   7.7200

     occupation numbers 
     1.0000   1.0000   1.0000   1.0000   1.0000   1.0000   1.0000   1.0000
     1.0000   1.0000   1.0000   1.0000   1.0000   1.0000   1.0000   1.0000
     1.0000   1.0000   1.0000   1.0000   1.0000   1.0000   1.0000   1.0000
     1.0000   1.0000

          k = 0.0000-0.5774 0.1648 (  3848 PWs)   bands (ev):

  -114.2968-114.2966 -68.6797 -68.6787 -68.6448 -68.6444 -68.6437 -68.6428
    -8.4512  -8.2621   2.7289   2.7443   3.4576   3.5585   3.6751   3.8387
     4.3688   4.4373   4.4893   4.5670   4.9726   5.0890   6.6173   6.7987
     7.5158   7.8835

     occupation numbers 
     1.0000   1.0000   1.0000   1.0000   1.0000   1.0000   1.0000   1.0000
     1.0000   1.0000   1.0000   1.0000   1.0000   1.0000   1.0000   1.0000
     1.0000   1.0000   1.0000   1.0000   1.0000   1.0000   1.0000   1.0000
     1.0000   1.0000

          k = 0.0000-0.5774 0.2472 (  3832 PWs)   bands (ev):

  -114.2968-114.2966 -68.6795 -68.6789 -68.6447 -68.6444 -68.6435 -68.6430
    -8.4023  -8.2997   2.6227   2.6417   3.4984   3.5495   3.6156   3.6928
     4.3896   4.4518   4.4917   4.5562   5.0082   5.0542   6.8410   7.3233
     7.3239   7.9343

     occupation numbers 
     1.0000   1.0000   1.0000   1.0000   1.0000   1.0000   1.0000   1.0000
     1.0000   1.0000   1.0000   1.0000   1.0000   1.0000   1.0000   1.0000
     1.0000   1.0000   1.0000   1.0000   1.0000   1.0000   1.0000   1.0000
     1.0000   1.0000

          k = 0.0000-0.5774-0.3296 (  3832 PWs)   bands (ev):

  -114.2968-114.2966 -68.6793 -68.6791 -68.6446 -68.6444 -68.6433 -68.6431
    -8.3486  -8.3486   2.5891   2.5892   3.5531   3.5532   3.5953   3.5954
     4.4176   4.4177   4.5310   4.5312   5.0324   5.0325   7.0887   7.0887
     7.7417   7.7417

     occupation numbers 
     1.0000   1.0000   1.0000   1.0000   1.0000   1.0000   1.0000   1.0000
     1.0000   1.0000   1.0000   1.0000   1.0000   1.0000   1.0000   1.0000
     1.0000   1.0000   1.0000   1.0000   1.0000   1.0000   1.0000   1.0000
     1.0000   1.0000

          k = 0.1250 0.0722-0.0000 (  3829 PWs)   bands (ev):

  -114.2969-114.2966 -68.6812 -68.6775 -68.6434 -68.6433 -68.6426 -68.6423
    -9.1309  -8.3334   2.8843   3.0345   3.0456   3.1295   3.4345   3.5141
     4.2002   4.2229   4.4956   4.6224   4.8488   7.5252   7.8552   7.9814
     8.4541   8.6559

     occupation numbers 
     1.0000   1.0000   1.0000   1.0000   1.0000   1.0000   1.0000   1.0000
     1.0000   1.0000   1.0000   1.0000   1.0000   1.0000   1.0000   1.0000
     1.0000   1.0000   1.0000   1.0000   1.0000   1.0000   1.0000   1.0000
     1.0000   1.0000

          k = 0.1250 0.0722 0.0824 (  3829 PWs)   bands (ev):

  -114.2969-114.2966 -68.6810 -68.6776 -68.6434 -68.6432 -68.6426 -68.6424
    -9.1016  -8.3646   2.8776   3.0166   3.0334   3.1211   3.3568   3.4713
     4.2213   4.2376   4.4894   4.5635   5.0983   7.5492   7.7999   7.8872
     8.5135   8.6273

     occupation numbers 
     1.0000   1.0000   1.0000   1.0000   1.0000   1.0000   1.0000   1.0000
     1.0000   1.0000   1.0000   1.0000   1.0000   1.0000   1.0000   1.0000
     1.0000   1.0000   1.0000   1.0000   1.0000   1.0000   1.0000   1.0000
     1.0000   1.0000

          k = 0.1250 0.0722 0.1648 (  3827 PWs)   bands (ev):

  -114.2969-114.2966 -68.6806 -68.6780 -68.6433 -68.6431 -68.6427 -68.6425
    -9.0176  -8.4532   2.8580   2.9345   3.0325   3.0995   3.2473   3.3698
     4.2746   4.2773   4.4698   4.5132   5.5750   7.3819   7.7247   7.9778
     8.4959   8.5448

     occupation numbers 
     1.0000   1.0000   1.0000   1.0000   1.0000   1.0000   1.0000   1.0000
     1.0000   1.0000   1.0000   1.0000   1.0000   1.0000   1.0000   1.0000
     1.0000   1.0000   1.0000   1.0000   1.0000   1.0000   1.0000   1.0000
     1.0000   1.0000

          k = 0.1250 0.0722 0.2472 (  3828 PWs)   bands (ev):

  -114.2969-114.2966 -68.6800 -68.6786 -68.6432 -68.6430 -68.6428 -68.6426
    -8.8905  -8.5850   2.8300   2.8542   3.0370   3.0731   3.1984   3.2657
     4.3313   4.3417   4.4354   4.4659   6.0946   7.0021   7.8977   8.1117
     8.3464   8.4189

     occupation numbers 
     1.0000   1.0000   1.0000   1.0000   1.0000   1.0000   1.0000   1.0000
     1.0000   1.0000   1.0000   1.0000   1.0000   1.0000   1.0000   1.0000
     1.0000   1.0000   1.0000   1.0000   1.0000   1.0000   1.0000   1.0000
     1.0000   1.0000

          k = 0.1250 0.0722-0.3296 (  3828 PWs)   bands (ev):

  -114.2969-114.2966 -68.6794 -68.6792 -68.6431 -68.6429 -68.6429 -68.6427
    -8.7388  -8.7387   2.8203   2.8203   3.0505   3.0506   3.2046   3.2047
     4.3873   4.3874   4.4084   4.4085   6.5763   6.5764   8.1246   8.1246
     8.2670   8.2670

     occupation numbers 
     1.0000   1.0000   1.0000   1.0000   1.0000   1.0000   1.0000   1.0000
     1.0000   1.0000   1.0000   1.0000   1.0000   1.0000   1.0000   1.0000
     1.0000   1.0000   1.0000   1.0000   1.0000   1.0000   1.0000   1.0000
     1.0000   1.0000

          k = 0.1250 0.0722-0.2472 (  3828 PWs)   bands (ev):

  -114.2969-114.2966 -68.6800 -68.6786 -68.6432 -68.6430 -68.6428 -68.6426
    -8.8905  -8.5850   2.8300   2.8543   3.0370   3.0731   3.1984   3.2658
     4.3313   4.3417   4.4354   4.4659   6.0946   7.0021   7.8977   8.1117
     8.3464   8.4189

     occupation numbers 
     1.0000   1.0000   1.0000   1.0000   1.0000   1.0000   1.0000   1.0000
     1.0000   1.0000   1.0000   1.0000   1.0000   1.0000   1.0000   1.0000
     1.0000   1.0000   1.0000   1.0000   1.0000   1.0000   1.0000   1.0000
     1.0000   1.0000

          k = 0.1250 0.0722-0.1648 (  3827 PWs)   bands (ev):

  -114.2969-114.2966 -68.6806 -68.6780 -68.6433 -68.6431 -68.6427 -68.6425
    -9.0176  -8.4532   2.8580   2.9345   3.0325   3.0995   3.2473   3.3698
     4.2746   4.2773   4.4698   4.5132   5.5750   7.3819   7.7247   7.9778
     8.4959   8.5448

     occupation numbers 
     1.0000   1.0000   1.0000   1.0000   1.0000   1.0000   1.0000   1.0000
     1.0000   1.0000   1.0000   1.0000   1.0000   1.0000   1.0000   1.0000
     1.0000   1.0000   1.0000   1.0000   1.0000   1.0000   1.0000   1.0000
     1.0000   1.0000

          k = 0.1250 0.0722-0.0824 (  3829 PWs)   bands (ev):

  -114.2969-114.2966 -68.6810 -68.6776 -68.6434 -68.6432 -68.6426 -68.6424
    -9.1016  -8.3646   2.8776   3.0166   3.0334   3.1211   3.3568   3.4713
     4.2213   4.2376   4.4894   4.5635   5.0983   7.5492   7.7999   7.8872
     8.5135   8.6273

     occupation numbers 
     1.0000   1.0000   1.0000   1.0000   1.0000   1.0000   1.0000   1.0000
     1.0000   1.0000   1.0000   1.0000   1.0000   1.0000   1.0000   1.0000
     1.0000   1.0000   1.0000   1.0000   1.0000   1.0000   1.0000   1.0000
     1.0000   1.0000

          k = 0.1250 0.2165-0.0000 (  3819 PWs)   bands (ev):

  -114.2969-114.2966 -68.6809 -68.6776 -68.6438 -68.6435 -68.6430 -68.6425
    -8.9736  -8.2818   2.8029   3.0567   3.1188   3.2551   3.5454   3.5830
     4.1584   4.2120   4.5076   4.7899   4.9103   6.8331   7.0552   7.4986
     8.3093   8.3196

     occupation numbers 
     1.0000   1.0000   1.0000   1.0000   1.0000   1.0000   1.0000   1.0000
     1.0000   1.0000   1.0000   1.0000   1.0000   1.0000   1.0000   1.0000
     1.0000   1.0000   1.0000   1.0000   1.0000   1.0000   1.0000   1.0000
     1.0000   1.0000

          k = 0.1250 0.2165 0.0824 (  3829 PWs)   bands (ev):

  -114.2969-114.2966 -68.6808 -68.6778 -68.6438 -68.6435 -68.6430 -68.6425
    -8.9475  -8.3080   2.7918   2.9976   3.1309   3.2442   3.4723   3.5384
     4.1918   4.2279   4.4994   4.6657   5.2117   6.8949   7.0082   7.4797
     8.2843   8.3509

     occupation numbers 
     1.0000   1.0000   1.0000   1.0000   1.0000   1.0000   1.0000   1.0000
     1.0000   1.0000   1.0000   1.0000   1.0000   1.0000   1.0000   1.0000
     1.0000   1.0000   1.0000   1.0000   1.0000   1.0000   1.0000   1.0000
     1.0000   1.0000

          k = 0.1250 0.2165 0.1648 (  3825 PWs)   bands (ev):

  -114.2969-114.2966 -68.6804 -68.6781 -68.6437 -68.6434 -68.6431 -68.6426
    -8.8728  -8.3828   2.7606   2.8694   3.1404   3.2160   3.3674   3.4436
     4.2685   4.2686   4.4750   4.5847   5.6614   6.8515   7.0911   7.5242
     8.1834   8.3510

     occupation numbers 
     1.0000   1.0000   1.0000   1.0000   1.0000   1.0000   1.0000   1.0000
     1.0000   1.0000   1.0000   1.0000   1.0000   1.0000   1.0000   1.0000
     1.0000   1.0000   1.0000   1.0000   1.0000   1.0000   1.0000   1.0000
     1.0000   1.0000

          k = 0.1250 0.2165 0.2472 (  3833 PWs)   bands (ev):

  -114.2968-114.2966 -68.6799 -68.6787 -68.6436 -68.6433 -68.6431 -68.6428
    -8.7606  -8.4952   2.7214   2.7536   3.1473   3.1833   3.3151   3.3589
     4.3234   4.3569   4.4355   4.5183   6.0671   6.6315   7.4245   7.6582
     8.0325   8.1797

     occupation numbers 
     1.0000   1.0000   1.0000   1.0000   1.0000   1.0000   1.0000   1.0000
     1.0000   1.0000   1.0000   1.0000   1.0000   1.0000   1.0000   1.0000
     1.0000   1.0000   1.0000   1.0000   1.0000   1.0000   1.0000   1.0000
     1.0000   1.0000

          k = 0.1250 0.2165-0.3296 (  3826 PWs)   bands (ev):

  -114.2968-114.2966 -68.6794 -68.6792 -68.6435 -68.6433 -68.6431 -68.6429
    -8.6280  -8.6279   2.7063   2.7064   3.1595   3.1595   3.3139   3.3140
     4.3808   4.3809   4.4444   4.4445   6.3788   6.3788   7.7793   7.7793
     7.8990   7.8990

     occupation numbers 
     1.0000   1.0000   1.0000   1.0000   1.0000   1.0000   1.0000   1.0000
     1.0000   1.0000   1.0000   1.0000   1.0000   1.0000   1.0000   1.0000
     1.0000   1.0000   1.0000   1.0000   1.0000   1.0000   1.0000   1.0000
     1.0000   1.0000

          k = 0.1250 0.2165-0.2472 (  3833 PWs)   bands (ev):

  -114.2968-114.2966 -68.6799 -68.6787 -68.6436 -68.6433 -68.6431 -68.6428
    -8.7606  -8.4952   2.7214   2.7536   3.1473   3.1833   3.3151   3.3589
     4.3234   4.3569   4.4355   4.5183   6.0671   6.6315   7.4245   7.6582
     8.0325   8.1797

     occupation numbers 
     1.0000   1.0000   1.0000   1.0000   1.0000   1.0000   1.0000   1.0000
     1.0000   1.0000   1.0000   1.0000   1.0000   1.0000   1.0000   1.0000
     1.0000   1.0000   1.0000   1.0000   1.0000   1.0000   1.0000   1.0000
     1.0000   1.0000

          k = 0.1250 0.2165-0.1648 (  3825 PWs)   bands (ev):

  -114.2969-114.2966 -68.6804 -68.6781 -68.6437 -68.6434 -68.6431 -68.6426
    -8.8728  -8.3828   2.7606   2.8694   3.1404   3.2160   3.3674   3.4436
     4.2685   4.2686   4.4750   4.5847   5.6614   6.8515   7.0911   7.5242
     8.1834   8.3510

     occupation numbers 
     1.0000   1.0000   1.0000   1.0000   1.0000   1.0000   1.0000   1.0000
     1.0000   1.0000   1.0000   1.0000   1.0000   1.0000   1.0000   1.0000
     1.0000   1.0000   1.0000   1.0000   1.0000   1.0000   1.0000   1.0000
     1.0000   1.0000

          k = 0.1250 0.2165-0.0824 (  3829 PWs)   bands (ev):

  -114.2969-114.2966 -68.6808 -68.6778 -68.6438 -68.6435 -68.6430 -68.6425
    -8.9475  -8.3080   2.7918   2.9976   3.1309   3.2442   3.4723   3.5384
     4.1918   4.2279   4.4994   4.6657   5.2117   6.8949   7.0082   7.4797
     8.2843   8.3509

     occupation numbers 
     1.0000   1.0000   1.0000   1.0000   1.0000   1.0000   1.0000   1.0000
     1.0000   1.0000   1.0000   1.0000   1.0000   1.0000   1.0000   1.0000
     1.0000   1.0000   1.0000   1.0000   1.0000   1.0000   1.0000   1.0000
     1.0000   1.0000

          k = 0.1250 0.3608-0.0000 (  3844 PWs)   bands (ev):

  -114.2968-114.2966 -68.6804 -68.6781 -68.6443 -68.6440 -68.6435 -68.6427
    -8.7244  -8.2278   2.7803   3.0782   3.2695   3.4457   3.6714   3.7858
     4.1263   4.2501   4.5235   4.7672   5.1899   5.9228   6.3556   6.6475
     7.8148   8.0046

     occupation numbers 
     1.0000   1.0000   1.0000   1.0000   1.0000   1.0000   1.0000   1.0000
     1.0000   1.0000   1.0000   1.0000   1.0000   1.0000   1.0000   1.0000
     1.0000   1.0000   1.0000   1.0000   1.0000   1.0000   1.0000   1.0000
     1.0000   1.0000

          k = 0.1250 0.3608 0.0824 (  3840 PWs)   bands (ev):

  -114.2968-114.2966 -68.6803 -68.6782 -68.6443 -68.6439 -68.6435 -68.6427
    -8.7044  -8.2451   2.7620   3.0181   3.2780   3.4274   3.6111   3.7070
     4.1815   4.2666   4.5131   4.7211   5.3243   6.0122   6.3719   6.6810
     7.7694   8.0679

     occupation numbers 
[...]

  -114.2968-114.2966 -68.6797 -68.6787 -68.6444 -68.6443 -68.6438 -68.6432
    -8.4605  -8.2582   2.9087   2.9980   3.3963   3.4338   3.5881   3.7368
     4.3104   4.3588   4.5189   4.7170   5.1689   5.5284   5.8647   6.7531
     7.0898   7.9035

     occupation numbers 
     1.0000   1.0000   1.0000   1.0000   1.0000   1.0000   1.0000   1.0000
     1.0000   1.0000   1.0000   1.0000   1.0000   1.0000   1.0000   1.0000
     1.0000   1.0000   1.0000   1.0000   1.0000   1.0000   1.0000   1.0000
     1.0000   1.0000

          k =-0.5000 0.0000 0.2472 (  3851 PWs)   bands (ev):

  -114.2968-114.2966 -68.6795 -68.6789 -68.6444 -68.6442 -68.6437 -68.6434
    -8.4087  -8.2989   2.8208   2.8591   3.3924   3.3975   3.5409   3.6429
     4.3601   4.3697   4.5472   4.6648   5.2697   5.4511   6.0988   6.6420
     7.4746   7.9925

     occupation numbers 
     1.0000   1.0000   1.0000   1.0000   1.0000   1.0000   1.0000   1.0000
     1.0000   1.0000   1.0000   1.0000   1.0000   1.0000   1.0000   1.0000
     1.0000   1.0000   1.0000   1.0000   1.0000   1.0000   1.0000   1.0000
     1.0000   1.0000

          k =-0.5000 0.0000-0.3296 (  3856 PWs)   bands (ev):

  -114.2968-114.2966 -68.6793 -68.6791 -68.6444 -68.6442 -68.6437 -68.6435
    -8.3516  -8.3515   2.7917   2.7917   3.3878   3.3879   3.5705   3.5706
     4.3726   4.3727   4.6045   4.6046   5.3629   5.3629   6.3765   6.3765
     7.8481   7.8481

     occupation numbers 
     1.0000   1.0000   1.0000   1.0000   1.0000   1.0000   1.0000   1.0000
     1.0000   1.0000   1.0000   1.0000   1.0000   1.0000   1.0000   1.0000
     1.0000   1.0000   1.0000   1.0000   1.0000   1.0000   1.0000   1.0000
     1.0000   1.0000

          k =-0.5000 0.0000-0.2472 (  3851 PWs)   bands (ev):

  -114.2968-114.2966 -68.6795 -68.6789 -68.6444 -68.6442 -68.6437 -68.6434
    -8.4087  -8.2989   2.8208   2.8591   3.3924   3.3975   3.5409   3.6429
     4.3601   4.3697   4.5472   4.6648   5.2697   5.4511   6.0988   6.6420
     7.4746   7.9925

     occupation numbers 
     1.0000   1.0000   1.0000   1.0000   1.0000   1.0000   1.0000   1.0000
     1.0000   1.0000   1.0000   1.0000   1.0000   1.0000   1.0000   1.0000
     1.0000   1.0000   1.0000   1.0000   1.0000   1.0000   1.0000   1.0000
     1.0000   1.0000

          k =-0.5000 0.0000-0.1648 (  3849 PWs)   bands (ev):

  -114.2968-114.2966 -68.6797 -68.6787 -68.6444 -68.6443 -68.6438 -68.6432
    -8.4605  -8.2582   2.9087   2.9980   3.3963   3.4338   3.5881   3.7368
     4.3104   4.3588   4.5189   4.7170   5.1689   5.5284   5.8647   6.7531
     7.0898   7.9035

     occupation numbers 
     1.0000   1.0000   1.0000   1.0000   1.0000   1.0000   1.0000   1.0000
     1.0000   1.0000   1.0000   1.0000   1.0000   1.0000   1.0000   1.0000
     1.0000   1.0000   1.0000   1.0000   1.0000   1.0000   1.0000   1.0000
     1.0000   1.0000

          k =-0.5000 0.0000-0.0824 (  3854 PWs)   bands (ev):

  -114.2968-114.2966 -68.6798 -68.6786 -68.6445 -68.6443 -68.6438 -68.6431
    -8.4967  -8.2330   2.9890   3.1150   3.4009   3.4900   3.7297   3.8323
     4.2270   4.3377   4.5257   4.7563   5.0627   5.5427   5.7565   6.4289
     7.1239   7.7161

     occupation numbers 
     1.0000   1.0000   1.0000   1.0000   1.0000   1.0000   1.0000   1.0000
     1.0000   1.0000   1.0000   1.0000   1.0000   1.0000   1.0000   1.0000
     1.0000   1.0000   1.0000   1.0000   1.0000   1.0000   1.0000   1.0000
     1.0000   1.0000

          k =-0.5000 0.1443 0.0000 (  3850 PWs)   bands (ev):

  -114.2968-114.2966 -68.6799 -68.6785 -68.6448 -68.6442 -68.6439 -68.6428
    -8.5039  -8.2280   2.9012   3.0690   3.3782   3.5817   3.7834   4.1104
     4.1509   4.3332   4.5356   4.6505   4.9481   5.4066   5.9000   6.3485
     7.4106   7.6468

     occupation numbers 
     1.0000   1.0000   1.0000   1.0000   1.0000   1.0000   1.0000   1.0000
     1.0000   1.0000   1.0000   1.0000   1.0000   1.0000   1.0000   1.0000
     1.0000   1.0000   1.0000   1.0000   1.0000   1.0000   1.0000   1.0000
     1.0000   1.0000

          k =-0.5000 0.1443 0.0824 (  3845 PWs)   bands (ev):

  -114.2968-114.2966 -68.6798 -68.6786 -68.6447 -68.6442 -68.6438 -68.6429
    -8.4912  -8.2360   2.8702   3.0154   3.3860   3.5534   3.7457   3.9538
     4.2547   4.3493   4.5256   4.6538   4.9727   5.3705   6.0062   6.5000
     7.3688   7.7290

     occupation numbers 
     1.0000   1.0000   1.0000   1.0000   1.0000   1.0000   1.0000   1.0000
     1.0000   1.0000   1.0000   1.0000   1.0000   1.0000   1.0000   1.0000
     1.0000   1.0000   1.0000   1.0000   1.0000   1.0000   1.0000   1.0000
     1.0000   1.0000

          k =-0.5000 0.1443 0.1648 (  3849 PWs)   bands (ev):

  -114.2968-114.2966 -68.6797 -68.6787 -68.6447 -68.6443 -68.6437 -68.6430
    -8.4559  -8.2601   2.7895   2.8802   3.4082   3.5137   3.6673   3.7774
     4.3383   4.3738   4.5122   4.6438   5.0305   5.3029   6.2204   6.9041
     7.2392   7.9001

     occupation numbers 
     1.0000   1.0000   1.0000   1.0000   1.0000   1.0000   1.0000   1.0000
     1.0000   1.0000   1.0000   1.0000   1.0000   1.0000   1.0000   1.0000
     1.0000   1.0000   1.0000   1.0000   1.0000   1.0000   1.0000   1.0000
     1.0000   1.0000

          k =-0.5000 0.1443 0.2472 (  3834 PWs)   bands (ev):

  -114.2968-114.2966 -68.6795 -68.6789 -68.6446 -68.6443 -68.6436 -68.6431
    -8.4055  -8.2993   2.7046   2.7444   3.4428   3.5098   3.5830   3.6524
     4.3751   4.3946   4.5276   4.6138   5.0987   5.2342   6.4741   6.9989
     7.4256   7.9727

     occupation numbers 
     1.0000   1.0000   1.0000   1.0000   1.0000   1.0000   1.0000   1.0000
     1.0000   1.0000   1.0000   1.0000   1.0000   1.0000   1.0000   1.0000
     1.0000   1.0000   1.0000   1.0000   1.0000   1.0000   1.0000   1.0000
     1.0000   1.0000

          k =-0.5000 0.1443-0.3296 (  3834 PWs)   bands (ev):

  -114.2968-114.2966 -68.6793 -68.6791 -68.6445 -68.6443 -68.6435 -68.6433
    -8.3501  -8.3500   2.6791   2.6791   3.4894   3.4895   3.5748   3.5749
     4.3913   4.3914   4.5709   4.5710   5.1671   5.1671   6.7449   6.7450
     7.8108   7.8109

     occupation numbers 
     1.0000   1.0000   1.0000   1.0000   1.0000   1.0000   1.0000   1.0000
     1.0000   1.0000   1.0000   1.0000   1.0000   1.0000   1.0000   1.0000
     1.0000   1.0000   1.0000   1.0000   1.0000   1.0000   1.0000   1.0000
     1.0000   1.0000

          k =-0.5000 0.1443-0.2472 (  3834 PWs)   bands (ev):

  -114.2968-114.2966 -68.6795 -68.6789 -68.6446 -68.6443 -68.6436 -68.6431
    -8.4055  -8.2993   2.7047   2.7443   3.4428   3.5098   3.5830   3.6524
     4.3752   4.3946   4.5277   4.6137   5.0987   5.2342   6.4741   6.9989
     7.4256   7.9727

     occupation numbers 
     1.0000   1.0000   1.0000   1.0000   1.0000   1.0000   1.0000   1.0000
     1.0000   1.0000   1.0000   1.0000   1.0000   1.0000   1.0000   1.0000
     1.0000   1.0000   1.0000   1.0000   1.0000   1.0000   1.0000   1.0000
     1.0000   1.0000

          k =-0.5000 0.1443-0.1648 (  3849 PWs)   bands (ev):

  -114.2968-114.2966 -68.6797 -68.6787 -68.6447 -68.6443 -68.6437 -68.6430
    -8.4559  -8.2601   2.7895   2.8802   3.4082   3.5137   3.6673   3.7774
     4.3383   4.3738   4.5122   4.6437   5.0305   5.3029   6.2204   6.9041
     7.2392   7.9001

     occupation numbers 
     1.0000   1.0000   1.0000   1.0000   1.0000   1.0000   1.0000   1.0000
     1.0000   1.0000   1.0000   1.0000   1.0000   1.0000   1.0000   1.0000
     1.0000   1.0000   1.0000   1.0000   1.0000   1.0000   1.0000   1.0000
     1.0000   1.0000

          k =-0.5000 0.1443-0.0824 (  3845 PWs)   bands (ev):

  -114.2968-114.2966 -68.6798 -68.6786 -68.6447 -68.6442 -68.6438 -68.6429
    -8.4912  -8.2360   2.8702   3.0154   3.3860   3.5534   3.7457   3.9538
     4.2548   4.3493   4.5256   4.6538   4.9727   5.3705   6.0062   6.5000
     7.3688   7.7290

     occupation numbers 
     1.0000   1.0000   1.0000   1.0000   1.0000   1.0000   1.0000   1.0000
     1.0000   1.0000   1.0000   1.0000   1.0000   1.0000   1.0000   1.0000
     1.0000   1.0000   1.0000   1.0000   1.0000   1.0000   1.0000   1.0000
     1.0000   1.0000

          k =-0.5000-0.8660 0.0000 (  3848 PWs)   bands (ev):

  -114.2968-114.2966 -68.6799 -68.6785 -68.6449 -68.6443 -68.6438 -68.6427
    -8.4979  -8.2315   2.8726   2.8869   3.4248   3.6635   3.7341   4.0836
     4.3391   4.3513   4.5346   4.5568   4.9058   5.1921   6.1218   6.3995
     7.6351   7.6845

     occupation numbers 
     1.0000   1.0000   1.0000   1.0000   1.0000   1.0000   1.0000   1.0000
     1.0000   1.0000   1.0000   1.0000   1.0000   1.0000   1.0000   1.0000
     1.0000   1.0000   1.0000   1.0000   1.0000   1.0000   1.0000   1.0000
     1.0000   1.0000

          k =-0.5000-0.8660 0.0824 (  3848 PWs)   bands (ev):

  -114.2968-114.2966 -68.6798 -68.6786 -68.6449 -68.6443 -68.6438 -68.6427
    -8.4856  -8.2392   2.8367   2.8413   3.4330   3.6186   3.7183   4.0017
     4.3557   4.3740   4.5214   4.5638   4.9291   5.1485   6.3287   6.4579
     7.6410   7.7200

     occupation numbers 
     1.0000   1.0000   1.0000   1.0000   1.0000   1.0000   1.0000   1.0000
     1.0000   1.0000   1.0000   1.0000   1.0000   1.0000   1.0000   1.0000
     1.0000   1.0000   1.0000   1.0000   1.0000   1.0000   1.0000   1.0000
     1.0000   1.0000

          k =-0.5000-0.8660 0.1648 (  3848 PWs)   bands (ev):

  -114.2968-114.2966 -68.6797 -68.6787 -68.6448 -68.6444 -68.6437 -68.6428
    -8.4512  -8.2621   2.7289   2.7443   3.4576   3.5585   3.6751   3.8387
     4.3688   4.4373   4.4893   4.5670   4.9726   5.0890   6.6173   6.7987
     7.5158   7.8835

     occupation numbers 
     1.0000   1.0000   1.0000   1.0000   1.0000   1.0000   1.0000   1.0000
     1.0000   1.0000   1.0000   1.0000   1.0000   1.0000   1.0000   1.0000
     1.0000   1.0000   1.0000   1.0000   1.0000   1.0000   1.0000   1.0000
     1.0000   1.0000

          k =-0.5000-0.8660 0.2472 (  3832 PWs)   bands (ev):

  -114.2968-114.2966 -68.6795 -68.6789 -68.6447 -68.6444 -68.6435 -68.6430
    -8.4023  -8.2997   2.6227   2.6417   3.4984   3.5495   3.6156   3.6928
     4.3896   4.4518   4.4917   4.5562   5.0082   5.0542   6.8410   7.3233
     7.3239   7.9343

     occupation numbers 
     1.0000   1.0000   1.0000   1.0000   1.0000   1.0000   1.0000   1.0000
     1.0000   1.0000   1.0000   1.0000   1.0000   1.0000   1.0000   1.0000
     1.0000   1.0000   1.0000   1.0000   1.0000   1.0000   1.0000   1.0000
     1.0000   1.0000

          k =-0.5000-0.8660-0.3296 (  3832 PWs)   bands (ev):

  -114.2968-114.2966 -68.6793 -68.6791 -68.6446 -68.6444 -68.6433 -68.6431
    -8.3486  -8.3486   2.5891   2.5892   3.5531   3.5532   3.5953   3.5954
     4.4176   4.4177   4.5310   4.5312   5.0324   5.0325   7.0887   7.0887
     7.7417   7.7417

     occupation numbers 
     1.0000   1.0000   1.0000   1.0000   1.0000   1.0000   1.0000   1.0000
     1.0000   1.0000   1.0000   1.0000   1.0000   1.0000   1.0000   1.0000
     1.0000   1.0000   1.0000   1.0000   1.0000   1.0000   1.0000   1.0000
     1.0000   1.0000

     highest occupied level (ev):     8.8051

!    total energy              =    -987.07588091 Ry
     Harris-Foulkes estimate   =    -987.07588094 Ry
     estimated scf accuracy    <       0.00000008 Ry

     The total energy is the sum of the following terms:

     one-electron contribution =    -802.42624478 Ry
     hartree contribution      =     422.71110572 Ry
     xc contribution           =     -98.07635809 Ry
     ewald contribution        =    -509.28438377 Ry

     convergence has been achieved in   7 iterations

     Forces acting on atoms (cartesian axes, Ry/au):

     atom    1 type  2   force =     0.00000012    0.00000032   -0.01234960
     atom    2 type  2   force =    -0.00000163    0.00000147   -0.01235736
     atom    3 type  1   force =     0.00000437   -0.00000338    0.01233510
     atom    4 type  1   force =    -0.00000285    0.00000159    0.01237186
     The non-local contrib.  to forces
     atom    1 type  2   force =    -0.00000037   -0.00000296   -0.01857165
     atom    2 type  2   force =     0.00000121   -0.00000000   -0.01857181
     atom    3 type  1   force =     0.00000348   -0.00000567   -0.06938156
     atom    4 type  1   force =    -0.00000144   -0.00000292   -0.06937170
     The ionic contribution  to forces
     atom    1 type  2   force =     0.00001432    0.00003863    0.33834031
     atom    2 type  2   force =    -0.00002686    0.00001566    0.33834258
     atom    3 type  1   force =     0.00003451   -0.00003173   -0.33833779
     atom    4 type  1   force =    -0.00002197   -0.00002257   -0.33834510
     The local contribution  to forces
     atom    1 type  2   force =    -0.00001506   -0.00003529   -0.33229992
     atom    2 type  2   force =     0.00002594   -0.00001496   -0.33228692
     atom    3 type  1   force =    -0.00003942    0.00003830    0.42018474
     atom    4 type  1   force =     0.00002455    0.00002388    0.42014932
     The core correction contribution to forces
     atom    1 type  2   force =    -0.00000001    0.00000001    0.00009457
     atom    2 type  2   force =     0.00000000   -0.00000001    0.00009489
     atom    3 type  1   force =     0.00000000    0.00000000    0.00000000
     atom    4 type  1   force =     0.00000000    0.00000000    0.00000000
     The Hubbard contrib.    to forces
     atom    1 type  2   force =     0.00000000    0.00000000    0.00000000
     atom    2 type  2   force =     0.00000000    0.00000000    0.00000000
     atom    3 type  1   force =     0.00000000    0.00000000    0.00000000
     atom    4 type  1   force =     0.00000000    0.00000000    0.00000000
     The SCF correction term to forces
     atom    1 type  2   force =     0.00000000    0.00000000    0.00000000
     atom    2 type  2   force =     0.00000000    0.00000000    0.00000000
     atom    3 type  1   force =     0.00000000    0.00000000    0.00000000
     atom    4 type  1   force =     0.00000000    0.00000000    0.00000000

     Total force =     0.000000     Total SCF correction =     0.000000


     Computing stress (Cartesian axis) and pressure

          total   stress  (Ry/bohr**3)                   (kbar)     P=   -4.12
  -0.00002672  -0.00000000  -0.00000001         -3.93     -0.00     -0.00
  -0.00000000  -0.00002673  -0.00000001         -0.00     -3.93     -0.00
  -0.00000001  -0.00000001  -0.00003058         -0.00     -0.00     -4.50

     kinetic stress (kbar)  33905.44     -0.00     -0.00
                               -0.00  33905.44      0.00
                               -0.00      0.00  34181.54

     local   stress (kbar)  -4542.77      0.01     -0.04
                                0.01  -4542.89      0.06
                               -0.04      0.06  -4418.82

     nonloc. stress (kbar)  -1659.35      0.00      0.00
                                0.00  -1659.35      0.00
                                0.00      0.00  -1772.95

     hartree stress (kbar)  64936.83     -0.01      0.02
                               -0.01  64936.88     -0.02
                                0.02     -0.02  65767.72

     exc-cor stress (kbar) -14195.38      0.00      0.00
                                0.00 -14195.38      0.00
                                0.00      0.00 -14199.95

     corecor stress (kbar)   -249.70      0.00      0.00
                                0.00   -249.70      0.00
                                0.00      0.00   -250.23

     ewald   stress (kbar) -78199.00     -0.01      0.02
                               -0.01 -78198.93     -0.04
                                0.02     -0.04 -79311.81

     hubbard stress (kbar)      0.00      0.00      0.00
                                0.00      0.00      0.00
                                0.00      0.00      0.00

     london  stress (kbar)      0.00      0.00      0.00
                                0.00      0.00      0.00
                                0.00      0.00      0.00

     DFT-D3  stress (kbar)      0.00      0.00      0.00
                                0.00      0.00      0.00
                                0.00      0.00      0.00

     XDM     stress (kbar)      0.00      0.00      0.00
                                0.00      0.00      0.00
                                0.00      0.00      0.00

     dft-nl  stress (kbar)      0.00      0.00      0.00
                                0.00      0.00      0.00
                                0.00      0.00      0.00

     TS-vdW  stress (kbar)      0.00      0.00      0.00
                                0.00      0.00      0.00
                                0.00      0.00      0.00



     Writing output data file ZnO.save/
 
     init_run     :      0.55s CPU      2.02s WALL (       1 calls)
     electrons    :      7.12s CPU      7.87s WALL (       1 calls)
     forces       :      0.15s CPU      0.24s WALL (       1 calls)
     stress       :      0.27s CPU      0.55s WALL (       1 calls)

     Called by init_run:
     wfcinit      :      0.41s CPU      1.47s WALL (       1 calls)
     wfcinit:atom :      0.00s CPU      0.00s WALL (      65 calls)
     wfcinit:wfcr :      0.39s CPU      1.45s WALL (      65 calls)
     potinit      :      0.06s CPU      0.12s WALL (       1 calls)
     hinit0       :      0.06s CPU      0.27s WALL (       1 calls)

     Called by electrons:
     c_bands      :      6.05s CPU      6.52s WALL (       7 calls)
     sum_band     :      0.82s CPU      0.99s WALL (       7 calls)
     v_of_rho     :      0.22s CPU      0.25s WALL (       8 calls)
     v_h          :      0.00s CPU      0.00s WALL (       8 calls)
     v_xc         :      0.27s CPU      0.28s WALL (      10 calls)
     newd         :      0.04s CPU      0.05s WALL (       8 calls)
     mix_rho      :      0.01s CPU      0.06s WALL (       7 calls)

     Called by c_bands:
     init_us_2    :      0.07s CPU      0.08s WALL (    1105 calls)
     cegterg      :      5.50s CPU      5.77s WALL (     455 calls)

     Called by sum_band:
     sum_band:bec :      0.01s CPU      0.03s WALL (     455 calls)
     addusdens    :      0.03s CPU      0.06s WALL (       7 calls)

     Called by *egterg:
     h_psi        :      3.42s CPU      3.56s WALL (    1450 calls)
     s_psi        :      0.11s CPU      0.12s WALL (    1450 calls)
     g_psi        :      0.01s CPU      0.01s WALL (     930 calls)
     cdiaghg      :      1.48s CPU      2.60s WALL (    1385 calls)
     cegterg:over :      0.35s CPU      0.39s WALL (     930 calls)
     cegterg:upda :      0.19s CPU      0.19s WALL (     930 calls)
     cegterg:last :      0.12s CPU      0.13s WALL (     455 calls)
     cdiaghg:chol :      0.10s CPU      0.42s WALL (    1385 calls)
     cdiaghg:inve :      0.02s CPU      0.07s WALL (    1385 calls)
     cdiaghg:para :      0.17s CPU      0.18s WALL (    2770 calls)

     Called by h_psi:
     h_psi:pot    :      3.41s CPU      3.55s WALL (    1450 calls)
     h_psi:calbec :      0.19s CPU      0.21s WALL (    1450 calls)
     vloc_psi     :      3.10s CPU      3.21s WALL (    1450 calls)
     add_vuspsi   :      0.11s CPU      0.12s WALL (    1450 calls)

     General routines
     calbec       :      0.31s CPU      0.33s WALL (    2230 calls)
     fft          :      0.04s CPU      0.11s WALL (     127 calls)
     ffts         :      0.00s CPU      0.01s WALL (      15 calls)
     fftw         :      3.54s CPU      3.68s WALL (   73834 calls)
     interpolate  :      0.00s CPU      0.01s WALL (       8 calls)
 
     Parallel routines
     fft_scatt_xy :      0.49s CPU      0.51s WALL (   73976 calls)
     fft_scatt_yz :      1.87s CPU      1.95s WALL (   73976 calls)
 
     PWSCF        :      8.38s CPU     12.51s WALL

 
   This run was terminated on:  20:47:26  15Jun2022            

=------------------------------------------------------------------------------=
   JOB DONE.
=------------------------------------------------------------------------------=
