
     Program PWSCF v.6.4.1 starts on 15Jul2022 at  1:57: 3 

     This program is part of the open-source Quantum ESPRESSO suite
     for quantum simulation of materials; please cite
         "P. Giannozzi et al., J. Phys.:Condens. Matter 21 395502 (2009);
         "P. Giannozzi et al., J. Phys.:Condens. Matter 29 465901 (2017);
          URL http://www.quantum-espresso.org", 
     in publications or presentations arising from this work. More details at
     http://www.quantum-espresso.org/quote

     Parallel version (MPI), running on   128 processors

     MPI processes distributed on     2 nodes
     K-points division:     npool     =       8
     R & G space division:  proc/nbgrp/npool/nimage =      16
     Waiting for input...
     Reading input from standard input
Warning: card &IONS ignored
Warning: card   UPSCALE           = 100.D0, ignored
Warning: card / ignored
Warning: card &CELL ignored
Warning: card   CELL_DYNAMICS     = 'BFGS' ignored
Warning: card   PRESS_CONV_THR    = 0.5D0 ignored
Warning: card   CELL_DOFREE = 'ALL' ignored
Warning: card / ignored

     Current dimensions of program PWSCF are:
     Max number of different atomic species (ntypx) = 10
     Max number of k-points (npk) =  40000
     Max angular momentum in pseudopotentials (lmaxx) =  3

     Subspace diagonalization in iterative solution of the eigenvalue problem:
     one sub-group per band group will be used
     scalapack distributed-memory algorithm (size of sub-group:  2*  2 procs)

 
     Parallelization info
     --------------------
     sticks:   dense  smooth     PW     G-vecs:    dense   smooth      PW
     Min         732     352     96                68310    22721    3265
     Max         733     353     97                68315    22724    3270
     Sum       11725    5643   1539              1092999   363553   52287
 


     bravais-lattice index     =            0
     lattice parameter (alat)  =      18.4447  a.u.
     unit-cell volume          =    5789.0670 (a.u.)^3
     number of atoms/cell      =           72
     number of atomic types    =            3
     number of electrons       =       776.00
     number of Kohn-Sham states=          466
     kinetic-energy cutoff     =      60.0000  Ry
     charge density cutoff     =     500.0000  Ry
     convergence threshold     =      1.0E-08
     mixing beta               =       0.5000
     number of iterations used =            8  plain     mixing
     Exchange-correlation      = SLA  PW   PSX  PSC ( 1  4 10  8 0 0)
     Using LIBXC version       =    4   3   4

     celldm(1)=  18.444651  celldm(2)=   0.000000  celldm(3)=   0.000000
     celldm(4)=   0.000000  celldm(5)=   0.000000  celldm(6)=   0.000000

     crystal axes: (cart. coord. in units of alat)
               a(1) = (   1.000000  -0.000668   0.000654 )  
               a(2) = (  -0.500577   0.867025  -0.000259 )  
               a(3) = (   0.000697   0.000083   1.064471 )  

     reciprocal axes: (cart. coord. in units 2 pi/alat)
               b(1) = (  1.000387  0.577573 -0.000700 )  
               b(2) = (  0.000771  1.153815 -0.000090 )  
               b(3) = ( -0.000614 -0.000074  0.939434 )  


     PseudoPot. # 1 for Zn read from file:
     ./GBRV_PBEsol/zn_pbesol_v1.uspp.F.UPF
     MD5 check sum: 7d8615e52efe7c1e2b1899de8658bae2
     Pseudo is Ultrasoft, Zval = 20.0
     Generated by new atomic code, or converted to UPF format
     Using radial grid of  943 points,  6 beta functions with: 
                l(1) =   0
                l(2) =   0
                l(3) =   1
                l(4) =   1
                l(5) =   2
                l(6) =   2
     Q(r) pseudized with  8 coefficients,  rinner =    1.100   1.100   1.100
                                                       1.100   1.100

     PseudoPot. # 2 for O  read from file:
     ./GBRV_PBEsol/o_pbesol_v1.2.uspp.F.UPF
     MD5 check sum: 501638753501ef6325af9037351f7734
     Pseudo is Ultrasoft + core correction, Zval =  6.0
     Generated by new atomic code, or converted to UPF format
     Using radial grid of  737 points,  5 beta functions with: 
                l(1) =   0
                l(2) =   0
                l(3) =   1
                l(4) =   1
                l(5) =   2
     Q(r) pseudized with  8 coefficients,  rinner =    0.900   0.900   0.900
                                                       0.900   0.900

     PseudoPot. # 3 for Mg read from file:
     ./GBRV_PBEsol/mg_pbesol_v1.4.uspp.F.UPF
     MD5 check sum: 4059f37963cf5867752dbf5ab2400678
     Pseudo is Ultrasoft, Zval = 10.0
     Generated by new atomic code, or converted to UPF format
     Using radial grid of  821 points,  7 beta functions with: 
                l(1) =   0
                l(2) =   0
                l(3) =   0
                l(4) =   1
                l(5) =   1
                l(6) =   2
                l(7) =   2
     Q(r) pseudized with  8 coefficients,  rinner =    1.200   1.200   1.200
                                                       1.200   1.200

     atomic species   valence    mass     pseudopotential
        Zn            20.00    65.38000     Zn( 1.00)
        O              6.00    15.99900     O ( 1.00)
        Mg            10.00    24.30500     Mg( 1.00)

     No symmetry found


                                    s                        frac. trans.

      isym =  1     identity                                     

 cryst.   s( 1) = (     1          0          0      )
                  (     0          1          0      )
                  (     0          0          1      )

 cart.    s( 1) = (  1.0000000 -0.0000000 -0.0000000 )
                  (  0.0000000  1.0000000 -0.0000000 )
                  ( -0.0000000  0.0000000  1.0000000 )


   Cartesian axes

     site n.     atom                  positions (alat units)
         1           Zn  tau(   1) = (   0.1647479   0.0954963   0.2085511  )
         2           Zn  tau(   2) = (   0.3321197   0.3844125   0.2060951  )
         3           Zn  tau(   3) = (   0.6690176   0.3847929   0.2058923  )
         4           Zn  tau(   4) = (   0.1677834   0.0960696   0.7405757  )
         5           Zn  tau(   5) = (   0.5011639   0.0961245   0.7380051  )
         6           Zn  tau(   6) = (   0.8320118   0.0962813   0.7362300  )
         7           Zn  tau(   7) = (  -0.0002203   0.3866914   0.7375309  )
         8           Zn  tau(   8) = (   0.6662707   0.3851745   0.7385494  )
         9           Zn  tau(   9) = (   0.1654240   0.6740292   0.7383025  )
        10           Zn  tau(  10) = (   0.5001903   0.6718868   0.7361787  )
        11           Zn  tau(  11) = (   0.3321118   0.1937678   0.4737127  )
        12           Zn  tau(  12) = (   0.6670801   0.1931068   0.4715051  )
        13           Zn  tau(  13) = (   0.1669814   0.4804715   0.4722229  )
        14           Zn  tau(  14) = (   0.4994429   0.4798945   0.4709077  )
        15           Zn  tau(  15) = (  -0.0022644   0.7689957   0.4709066  )
        16           Zn  tau(  16) = (  -0.0005711   0.1924310   1.0046010  )
        17           Zn  tau(  17) = (   0.3338696   0.1903217   1.0060387  )
        18           Zn  tau(  18) = (   0.1655852   0.4817903   1.0055937  )
        19           Zn  tau(  19) = (  -0.3345052   0.7696881   1.0042903  )
        20           Zn  tau(  20) = (   0.0006353   0.7715771   1.0061262  )
        21           Mg  tau(  21) = (   0.4982431   0.0972160   0.2098375  )
        22           Mg  tau(  22) = (   0.8354746   0.0954923   0.2084534  )
        23           Mg  tau(  23) = (   0.0020064   0.3827236   0.2073683  )
        24           Mg  tau(  24) = (  -0.1676163   0.6756800   0.2054846  )
        25           Mg  tau(  25) = (   0.1669151   0.6742817   0.2081849  )
        26           Mg  tau(  26) = (   0.4998603   0.6753368   0.2084361  )
        27           Mg  tau(  27) = (   0.3337097   0.3851514   0.7403073  )
        28           Mg  tau(  28) = (  -0.1652269   0.6751143   0.7389189  )
        29           Mg  tau(  29) = (   0.0022537   0.1933264   0.4757788  )
        30           Mg  tau(  30) = (  -0.1667173   0.4822435   0.4719653  )
        31           Mg  tau(  31) = (  -0.3316146   0.7718072   0.4741564  )
        32           Mg  tau(  32) = (   0.3312947   0.7692458   0.4740204  )
        33           Mg  tau(  33) = (   0.6674713   0.1920635   1.0061910  )
        34           Mg  tau(  34) = (  -0.1649024   0.4806158   1.0038330  )
        35           Mg  tau(  35) = (   0.5021431   0.4819983   1.0073377  )
        36           Mg  tau(  36) = (   0.3349101   0.7708439   1.0027184  )
        37           O   tau(  37) = (   0.1654948   0.0953183   0.0038548  )
        38           O   tau(  38) = (   0.5004197   0.0964949   0.0065291  )
        39           O   tau(  39) = (   0.8325406   0.0948075   0.0048777  )
        40           O   tau(  40) = (  -0.0005083   0.3844672   0.0046015  )
        41           O   tau(  41) = (   0.3332863   0.3847816   0.0014414  )
        42           O   tau(  42) = (   0.6677094   0.3845994   0.0018122  )
        43           O   tau(  43) = (  -0.1672928   0.6732395   0.0018692  )
        44           O   tau(  44) = (   0.1675626   0.6747968   0.0044206  )
        45           O   tau(  45) = (   0.4984015   0.6737236   0.0053264  )
        46           O   tau(  46) = (   0.1671078   0.0960561   0.5370620  )
        47           O   tau(  47) = (   0.5000733   0.0958909   0.5337075  )
        48           O   tau(  48) = (   0.8340675   0.0956546   0.5330240  )
        49           O   tau(  49) = (  -0.0007244   0.3856444   0.5336994  )
        50           O   tau(  50) = (   0.3334430   0.3855843   0.5375773  )
        51           O   tau(  51) = (   0.6666151   0.3850819   0.5349355  )
        52           O   tau(  52) = (  -0.1676946   0.6733724   0.5361371  )
        53           O   tau(  53) = (   0.1649151   0.6734183   0.5343582  )
        54           O   tau(  54) = (   0.5000389   0.6739346   0.5322153  )
        55           O   tau(  55) = (  -0.0001879   0.1925350   0.2728546  )
        56           O   tau(  56) = (   0.3316378   0.1928661   0.2702571  )
        57           O   tau(  57) = (   0.6673295   0.1917660   0.2673337  )
        58           O   tau(  58) = (  -0.1642495   0.4826852   0.2683160  )
        59           O   tau(  59) = (   0.1666586   0.4818205   0.2687558  )
        60           O   tau(  60) = (   0.5004489   0.4809851   0.2667267  )
        61           O   tau(  61) = (  -0.3332407   0.7700165   0.2712959  )
        62           O   tau(  62) = (  -0.0005939   0.7707316   0.2674394  )
        63           O   tau(  63) = (   0.3329674   0.7703709   0.2705018  )
        64           O   tau(  64) = (  -0.0003897   0.1930938   0.8000735  )
        65           O   tau(  65) = (   0.3345149   0.1924597   0.8021672  )
        66           O   tau(  66) = (   0.6669736   0.1925779   0.8028453  )
        67           O   tau(  67) = (  -0.1665936   0.4826752   0.8007581  )
        68           O   tau(  68) = (   0.1667574   0.4816381   0.8016197  )
        69           O   tau(  69) = (   0.4998342   0.4811111   0.8039179  )
        70           O   tau(  70) = (  -0.3334820   0.7697313   0.7998962  )
        71           O   tau(  71) = (   0.0004441   0.7714212   0.8021217  )
        72           O   tau(  72) = (   0.3336060   0.7701556   0.7992609  )

   Crystallographic axes

     site n.     atom                  positions (cryst. coord.)
         1           Zn  tau(   1) = (  0.2198218  0.1102933  0.1958119  )
         2           Zn  tau(   2) = (  0.5541304  0.4437783  0.1933804  )
         3           Zn  tau(   3) = (  0.8913784  0.4444770  0.1929829  )
         4           Zn  tau(   4) = (  0.2228172  0.1109093  0.6956122  )
         5           Zn  tau(   5) = (  0.5563602  0.1112299  0.6929925  )
         6           Zn  tau(   6) = (  0.8874280  0.1116661  0.6911218  )
         7           Zn  tau(   7) = (  0.2226061  0.4461037  0.6928334  )
         8           Zn  tau(   8) = (  0.8884781  0.4448673  0.6933810  )
         9           Zn  tau(   9) = (  0.5542726  0.7777659  0.6934353  )
        10           Zn  tau(  10) = (  0.8879326  0.7755523  0.6912347  )
        11           Zn  tau(  11) = (  0.4438239  0.2237856  0.4448037  )
        12           Zn  tau(  12) = (  0.7785415  0.2232814  0.4425242  )
        13           Zn  tau(  13) = (  0.4442231  0.5544613  0.4434843  )
        14           Zn  tau(  14) = (  0.7764809  0.5540520  0.4420447  )
        15           Zn  tau(  15) = (  0.4415566  0.8872343  0.4423303  )
        16           Zn  tau(  16) = (  0.1098686  0.2219388  0.9437429  )
        17           Zn  tau(  17) = (  0.4432195  0.2197629  0.9448883  )
        18           Zn  tau(  18) = (  0.4432148  0.5559339  0.9445520  )
        19           Zn  tau(  19) = (  0.1092139  0.8877291  0.9436134  )
        20           Zn  tau(  20) = (  0.4455738  0.8901669  0.9451321  )
        21           Mg  tau(  21) = (  0.5544384  0.1125346  0.1968154  )
        22           Mg  tau(  22) = (  0.8908058  0.1108060  0.1953081  )
        23           Mg  tau(  23) = (  0.2229130  0.4415750  0.1947794  )
        24           Mg  tau(  24) = (  0.2224298  0.7794617  0.1930922  )
        25           Mg  tau(  25) = (  0.5562811  0.7781061  0.1954236  )
        26           Mg  tau(  26) = (  0.8899644  0.7795801  0.1954550  )
        27           Mg  tau(  27) = (  0.5557739  0.4445841  0.6952367  )
        28           Mg  tau(  28) = (  0.2241201  0.7787629  0.6942173  )
        29           Mg  tau(  29) = (  0.1135819  0.2230218  0.4469473  )
        30           Mg  tau(  30) = (  0.1114190  0.5562486  0.4434471  )
        31           Mg  tau(  31) = (  0.1137006  0.8902241  0.4455853  )
        32           Mg  tau(  32) = (  0.7753871  0.8877798  0.4450507  )
        33           Mg  tau(  33) = (  0.7779562  0.2220299  0.9448264  )
        34           Mg  tau(  34) = (  0.1119222  0.5543241  0.9431010  )
        35           Mg  tau(  35) = (  0.7800218  0.5564333  0.9459837  )
        36           Mg  tau(  36) = (  0.7795569  0.8895790  0.9417255  )
        37           O   tau(  37) = (  0.2206094  0.1101069  0.0035126  )
        38           O   tau(  38) = (  0.5563417  0.1117226  0.0058192  )
        39           O   tau(  39) = (  0.8876175  0.1100319  0.0040639  )
        40           O   tau(  40) = (  0.2215463  0.4436030  0.0042947  )
        41           O   tau(  41) = (  0.5556538  0.4442235  0.0011209  )
        42           O   tau(  42) = (  0.8901008  0.4442711  0.0012639  )
        43           O   tau(  43) = (  0.2214864  0.7766644  0.0018088  )
        44           O   tau(  44) = (  0.5573690  0.7787192  0.0039999  )
        45           O   tau(  45) = (  0.8877154  0.7777360  0.0046478  )
        46           O   tau(  46) = (  0.2222760  0.1109115  0.5044248  )
        47           O   tau(  47) = (  0.5552773  0.1109780  0.5010691  )
        48           O   tau(  48) = (  0.8892648  0.1109630  0.5002218  )
        49           O   tau(  49) = (  0.2216398  0.4449136  0.5013475  )
        50           O   tau(  50) = (  0.5558990  0.4451015  0.5047853  )
        51           O   tau(  51) = (  0.8889116  0.4447790  0.5020989  )
        52           O   tau(  52) = (  0.2207873  0.7767693  0.5037188  )
        53           O   tau(  53) = (  0.5535535  0.7770790  0.5018433  )
        54           O   tau(  54) = (  0.8891066  0.7779333  0.4996244  )
        55           O   tau(  55) = (  0.1108241  0.2221250  0.2563148  )
        56           O   tau(  56) = (  0.4429713  0.2227632  0.2536709  )
        57           O   tau(  57) = (  0.7781595  0.2217529  0.2507185  )
        58           O   tau(  58) = (  0.1142853  0.5567785  0.2521304  )
        59           O   tau(  59) = (  0.4448217  0.5560359  0.2523404  )
        60           O   tau(  60) = (  0.7782601  0.5553296  0.2502293  )
        61           O   tau(  61) = (  0.1111815  0.8881749  0.2550123  )
        62           O   tau(  62) = (  0.4443728  0.8892569  0.2511850  )
        63           O   tau(  63) = (  0.7778526  0.8890976  0.2538572  )
        64           O   tau(  64) = (  0.1105761  0.2227222  0.7516025  )
        65           O   tau(  65) = (  0.4452426  0.2222486  0.7533639  )
        66           O   tau(  66) = (  0.7778977  0.2226413  0.7537967  )
        67           O   tau(  67) = (  0.1115619  0.5567172  0.7523264  )
        68           O   tau(  68) = (  0.4444423  0.5557776  0.7529311  )
        69           O   tau(  69) = (  0.7773420  0.5554261  0.7548856  )
        70           O   tau(  70) = (  0.1104056  0.8877981  0.7515978  )
        71           O   tau(  71) = (  0.4454353  0.8900052  0.7534833  )
        72           O   tau(  72) = (  0.7779971  0.8888022  0.7505913  )

     number of k points=    36  Marzari-Vanderbilt smearing, width (Ry)=  0.0010
                       cart. coord. in units 2pi/alat
        k(    1) = (   0.0000000   0.0000000   0.0000000), wk =   0.0312500
        k(    2) = (  -0.0001535  -0.0000185   0.2348586), wk =   0.0625000
        k(    3) = (   0.0003071   0.0000370  -0.4697172), wk =   0.0312500
        k(    4) = (   0.0001928   0.2884536  -0.0000225), wk =   0.0625000
        k(    5) = (   0.0000393   0.2884351   0.2348361), wk =   0.0625000
        k(    6) = (   0.0004998   0.2884907  -0.4697397), wk =   0.0625000
        k(    7) = (   0.0003463   0.2884722  -0.2348811), wk =   0.0625000
        k(    8) = (  -0.0003856  -0.5769073   0.0000450), wk =   0.0312500
        k(    9) = (  -0.0005391  -0.5769258   0.2349036), wk =   0.0625000
        k(   10) = (  -0.0000785  -0.5768702  -0.4696723), wk =   0.0312500
        k(   11) = (   0.2500967   0.1443934  -0.0001750), wk =   0.0625000
        k(   12) = (   0.2499432   0.1443748   0.2346837), wk =   0.0625000
        k(   13) = (   0.2504038   0.1444304  -0.4698922), wk =   0.0625000
        k(   14) = (   0.2502503   0.1444119  -0.2350336), wk =   0.0625000
        k(   15) = (   0.2502895   0.4328470  -0.0001974), wk =   0.0625000
        k(   16) = (   0.2501360   0.4328285   0.2346612), wk =   0.0625000
        k(   17) = (   0.2505966   0.4328840  -0.4699147), wk =   0.0625000
        k(   18) = (   0.2504430   0.4328655  -0.2350561), wk =   0.0625000
        k(   19) = (   0.2497111  -0.4325139  -0.0001300), wk =   0.0625000
        k(   20) = (   0.2495576  -0.4325325   0.2347286), wk =   0.0625000
        k(   21) = (   0.2500182  -0.4324769  -0.4698472), wk =   0.0625000
        k(   22) = (   0.2498647  -0.4324954  -0.2349886), wk =   0.0625000
        k(   23) = (   0.2499039  -0.1440603  -0.0001525), wk =   0.0625000
        k(   24) = (   0.2497504  -0.1440788   0.2347062), wk =   0.0625000
        k(   25) = (   0.2502110  -0.1440232  -0.4698697), wk =   0.0625000
        k(   26) = (   0.2500575  -0.1440418  -0.2350111), wk =   0.0625000
        k(   27) = (  -0.5001934  -0.2887867   0.0003499), wk =   0.0312500
        k(   28) = (  -0.5003470  -0.2888052   0.2352085), wk =   0.0625000
        k(   29) = (  -0.4998864  -0.2887497  -0.4693673), wk =   0.0312500
        k(   30) = (  -0.5000007  -0.0003331   0.0003274), wk =   0.0625000
        k(   31) = (  -0.5001542  -0.0003516   0.2351860), wk =   0.0625000
        k(   32) = (  -0.4996936  -0.0002960  -0.4693898), wk =   0.0625000
        k(   33) = (  -0.4998471  -0.0003145  -0.2345312), wk =   0.0625000
        k(   34) = (  -0.5005790  -0.8656940   0.0003949), wk =   0.0312500
        k(   35) = (  -0.5007326  -0.8657125   0.2352535), wk =   0.0625000
        k(   36) = (  -0.5002720  -0.8656570  -0.4693223), wk =   0.0312500

                       cryst. coord.
        k(    1) = (   0.0000000   0.0000000   0.0000000), wk =   0.0312500
        k(    2) = (  -0.0000000   0.0000000   0.2500000), wk =   0.0625000
        k(    3) = (   0.0000000  -0.0000000  -0.5000000), wk =   0.0312500
        k(    4) = (   0.0000000   0.2500000  -0.0000000), wk =   0.0625000
        k(    5) = (   0.0000000   0.2500000   0.2500000), wk =   0.0625000
        k(    6) = (   0.0000000   0.2500000  -0.5000000), wk =   0.0625000
        k(    7) = (   0.0000000   0.2500000  -0.2500000), wk =   0.0625000
        k(    8) = (  -0.0000000  -0.5000000   0.0000000), wk =   0.0312500
        k(    9) = (  -0.0000000  -0.5000000   0.2500000), wk =   0.0625000
        k(   10) = (  -0.0000000  -0.5000000  -0.5000000), wk =   0.0312500
        k(   11) = (   0.2500000  -0.0000000  -0.0000000), wk =   0.0625000
        k(   12) = (   0.2500000  -0.0000000   0.2500000), wk =   0.0625000
        k(   13) = (   0.2500000  -0.0000000  -0.5000000), wk =   0.0625000
        k(   14) = (   0.2500000   0.0000000  -0.2500000), wk =   0.0625000
        k(   15) = (   0.2500000   0.2500000   0.0000000), wk =   0.0625000
        k(   16) = (   0.2500000   0.2500000   0.2500000), wk =   0.0625000
        k(   17) = (   0.2500000   0.2500000  -0.5000000), wk =   0.0625000
        k(   18) = (   0.2500000   0.2500000  -0.2500000), wk =   0.0625000
        k(   19) = (   0.2500000  -0.5000000  -0.0000000), wk =   0.0625000
        k(   20) = (   0.2500000  -0.5000000   0.2500000), wk =   0.0625000
        k(   21) = (   0.2500000  -0.5000000  -0.5000000), wk =   0.0625000
        k(   22) = (   0.2500000  -0.5000000  -0.2500000), wk =   0.0625000
        k(   23) = (   0.2500000  -0.2500000  -0.0000000), wk =   0.0625000
        k(   24) = (   0.2500000  -0.2500000   0.2500000), wk =   0.0625000
        k(   25) = (   0.2500000  -0.2500000  -0.5000000), wk =   0.0625000
        k(   26) = (   0.2500000  -0.2500000  -0.2500000), wk =   0.0625000
        k(   27) = (  -0.5000000   0.0000000   0.0000000), wk =   0.0312500
        k(   28) = (  -0.5000000   0.0000000   0.2500000), wk =   0.0625000
        k(   29) = (  -0.5000000   0.0000000  -0.5000000), wk =   0.0312500
        k(   30) = (  -0.5000000   0.2500000  -0.0000000), wk =   0.0625000
        k(   31) = (  -0.5000000   0.2500000   0.2500000), wk =   0.0625000
        k(   32) = (  -0.5000000   0.2500000  -0.5000000), wk =   0.0625000
        k(   33) = (  -0.5000000   0.2500000  -0.2500000), wk =   0.0625000
        k(   34) = (  -0.5000000  -0.5000000  -0.0000000), wk =   0.0312500
        k(   35) = (  -0.5000000  -0.5000000   0.2500000), wk =   0.0625000
        k(   36) = (  -0.5000000  -0.5000000  -0.5000000), wk =   0.0312500

     Dense  grid:  1092999 G-vectors     FFT dimensions: ( 135, 135, 144)

     Smooth grid:   363553 G-vectors     FFT dimensions: (  96,  96, 100)

     Dynamical RAM for                 wfc:      20.19 MB

     Dynamical RAM for     wfc (w. buffer):     121.12 MB

     Dynamical RAM for           str. fact:       3.13 MB

     Dynamical RAM for           local pot:       0.00 MB

     Dynamical RAM for          nlocal pot:      49.04 MB

     Dynamical RAM for                qrad:      21.05 MB

     Dynamical RAM for          rho,v,vnew:       6.88 MB

     Dynamical RAM for               rhoin:       2.29 MB

     Dynamical RAM for            rho*nmix:      16.68 MB

     Dynamical RAM for           G-vectors:       4.08 MB

     Dynamical RAM for          h,s,v(r/c):      39.76 MB

     Dynamical RAM for          <psi|beta>:       8.05 MB

     Dynamical RAM for                 psi:      80.75 MB

     Dynamical RAM for                hpsi:      80.75 MB

     Dynamical RAM for                spsi:      80.75 MB

     Dynamical RAM for      wfcinit/wfcrot:      47.30 MB

     Dynamical RAM for           addusdens:      32.31 MB

     Estimated static dynamical RAM per process >     234.70 MB

     Estimated max dynamical RAM per process >     524.75 MB

     Estimated total dynamical RAM >      65.59 GB

     Check: negative core charge=   -0.000002

     Initial potential from superposition of free atoms

     starting charge  771.19370, renormalised to  776.00000
     Starting wfcs are  484 randomized atomic wfcs

     total cpu time spent up to now is       19.7 secs

     Self-consistent Calculation

     iteration #  1     ecut=    60.00 Ry     beta= 0.50
     Davidson diagonalization with overlap
     ethr =  1.00E-02,  avg # of iterations =  4.7

     total cpu time spent up to now is       87.0 secs

     total energy              =  -12379.40727622 Ry
     Harris-Foulkes estimate   =  -12398.52789998 Ry
     estimated scf accuracy    <      27.86311350 Ry

     iteration #  2     ecut=    60.00 Ry     beta= 0.50
     Davidson diagonalization with overlap
     ethr =  3.59E-03,  avg # of iterations =  3.2

     total cpu time spent up to now is      162.7 secs

     total energy              =  -12386.11624384 Ry
     Harris-Foulkes estimate   =  -12398.29284370 Ry
     estimated scf accuracy    <      30.41620073 Ry

     iteration #  3     ecut=    60.00 Ry     beta= 0.50
     Davidson diagonalization with overlap
     ethr =  3.59E-03,  avg # of iterations =  3.1

     total cpu time spent up to now is      228.5 secs

     total energy              =  -12391.99652035 Ry
     Harris-Foulkes estimate   =  -12392.78459587 Ry
     estimated scf accuracy    <       2.32209751 Ry

     iteration #  4     ecut=    60.00 Ry     beta= 0.50
     Davidson diagonalization with overlap
     ethr =  2.99E-04,  avg # of iterations =  4.4

     total cpu time spent up to now is      291.2 secs

     total energy              =  -12392.19649381 Ry
     Harris-Foulkes estimate   =  -12392.27902855 Ry
     estimated scf accuracy    <       0.21896694 Ry

     iteration #  5     ecut=    60.00 Ry     beta= 0.50
     Davidson diagonalization with overlap
     ethr =  2.82E-05,  avg # of iterations =  5.1

     total cpu time spent up to now is      380.6 secs

     total energy              =  -12392.21782243 Ry
     Harris-Foulkes estimate   =  -12392.24481756 Ry
     estimated scf accuracy    <       0.06505702 Ry

     iteration #  6     ecut=    60.00 Ry     beta= 0.50
     Davidson diagonalization with overlap
     ethr =  8.38E-06,  avg # of iterations =  3.5

     total cpu time spent up to now is      451.3 secs

     total energy              =  -12392.22987878 Ry
     Harris-Foulkes estimate   =  -12392.23244449 Ry
     estimated scf accuracy    <       0.00994194 Ry

     iteration #  7     ecut=    60.00 Ry     beta= 0.50
     Davidson diagonalization with overlap
     ethr =  1.28E-06,  avg # of iterations =  2.8

     total cpu time spent up to now is      506.2 secs

     total energy              =  -12392.23121726 Ry
     Harris-Foulkes estimate   =  -12392.23155861 Ry
     estimated scf accuracy    <       0.00118601 Ry

     iteration #  8     ecut=    60.00 Ry     beta= 0.50
     Davidson diagonalization with overlap
     ethr =  1.53E-07,  avg # of iterations =  2.0

     total cpu time spent up to now is      558.6 secs

     total energy              =  -12392.23141995 Ry
     Harris-Foulkes estimate   =  -12392.23146578 Ry
     estimated scf accuracy    <       0.00013393 Ry

     iteration #  9     ecut=    60.00 Ry     beta= 0.50
     Davidson diagonalization with overlap
     ethr =  1.73E-08,  avg # of iterations =  2.0

     total cpu time spent up to now is      609.9 secs

     total energy              =  -12392.23145019 Ry
     Harris-Foulkes estimate   =  -12392.23145187 Ry
     estimated scf accuracy    <       0.00002329 Ry

     iteration # 10     ecut=    60.00 Ry     beta= 0.50
     Davidson diagonalization with overlap
     ethr =  3.00E-09,  avg # of iterations =  2.0

     total cpu time spent up to now is      656.5 secs

     total energy              =  -12392.23145437 Ry
     Harris-Foulkes estimate   =  -12392.23145442 Ry
     estimated scf accuracy    <       0.00000340 Ry

     iteration # 11     ecut=    60.00 Ry     beta= 0.50
     Davidson diagonalization with overlap
     ethr =  4.38E-10,  avg # of iterations =  2.0

     total cpu time spent up to now is      708.9 secs

     total energy              =  -12392.23145500 Ry
     Harris-Foulkes estimate   =  -12392.23145502 Ry
     estimated scf accuracy    <       0.00000038 Ry

     iteration # 12     ecut=    60.00 Ry     beta= 0.50
     Davidson diagonalization with overlap
     ethr =  4.87E-11,  avg # of iterations =  2.0

     total cpu time spent up to now is      759.7 secs

     total energy              =  -12392.23145508 Ry
     Harris-Foulkes estimate   =  -12392.23145508 Ry
     estimated scf accuracy    <       0.00000006 Ry

     iteration # 13     ecut=    60.00 Ry     beta= 0.50
     Davidson diagonalization with overlap
     ethr =  8.17E-12,  avg # of iterations =  2.0

     total cpu time spent up to now is      809.0 secs

     total energy              =  -12392.23145510 Ry
     Harris-Foulkes estimate   =  -12392.23145510 Ry
     estimated scf accuracy    <       0.00000001 Ry

     iteration # 14     ecut=    60.00 Ry     beta= 0.50
     Davidson diagonalization with overlap
     ethr =  1.55E-12,  avg # of iterations =  2.0

     total cpu time spent up to now is      857.1 secs

     End of self-consistent calculation

          k = 0.0000 0.0000 0.0000 ( 45465 PWs)   bands (ev):

  -115.8093-115.8054-115.8024-115.8015-115.8000-115.8000-115.7994-115.7989
  -115.7977-115.7971-115.7964-115.7955-115.7932-115.7887-115.7880-115.7860
  -115.7841-115.7787-115.7766-115.7641 -70.1702 -70.1658 -70.1649 -70.1621
   -70.1614 -70.1609 -70.1609 -70.1596 -70.1594 -70.1592 -70.1589 -70.1583
   -70.1580 -70.1577 -70.1569 -70.1567 -70.1566 -70.1565 -70.1564 -70.1563
   -70.1562 -70.1560 -70.1558 -70.1542 -70.1535 -70.1532 -70.1532 -70.1530
   -70.1529 -70.1520 -70.1508 -70.1504 -70.1494 -70.1494 -70.1489 -70.1488
   -70.1485 -70.1474 -70.1471 -70.1459 -70.1453 -70.1444 -70.1441 -70.1440
   -70.1432 -70.1419 -70.1406 -70.1399 -70.1397 -70.1396 -70.1381 -70.1373
   -70.1373 -70.1363 -70.1329 -70.1280 -70.1269 -70.1251 -70.1210 -70.1147
   -65.2811 -65.2708 -65.2572 -65.2545 -65.2411 -65.2340 -65.2312 -65.2278
   -65.2244 -65.2190 -65.2163 -65.2101 -65.2069 -65.2066 -65.1965 -65.1881
   -32.2710 -32.2649 -32.2643 -32.2622 -32.2574 -32.2548 -32.2466 -32.2451
   -32.2438 -32.2418 -32.2406 -32.2368 -32.2329 -32.2287 -32.2282 -32.2256
   -32.2235 -32.2225 -32.2221 -32.2205 -32.2170 -32.2161 -32.2146 -32.2114
   -32.2100 -32.2094 -32.2082 -32.2074 -32.2072 -32.2048 -32.2022 -32.2017
   -32.2001 -32.1994 -32.1974 -32.1955 -32.1948 -32.1942 -32.1915 -32.1914
   -32.1873 -32.1867 -32.1863 -32.1813 -32.1768 -32.1756 -32.1708 -32.1677
   -10.3673 -10.0597 -10.0165  -9.9461  -9.9248  -9.8928  -9.8594  -9.8552
    -9.7987  -9.7702  -9.7269  -9.7035  -9.6868  -9.6688  -9.6551  -9.6144
    -9.6115  -9.5798  -9.5649  -9.5524  -9.5414  -9.5108  -9.4929  -9.4780
    -9.4637  -9.4354  -9.4193  -9.3865  -9.3614  -9.3141  -9.2893  -9.2775
    -9.2495  -9.2167  -9.2042  -9.0670   1.4169   1.4525   1.4769   1.4827
     1.5064   1.5241   1.5492   1.5597   1.5832   1.6024   1.6282   1.6378
     1.7003   1.7136   1.7336   1.7437   1.7533   1.7718   1.7816   1.7993
     1.8163   1.8369   1.8518   1.8789   1.8886   1.9070   1.9180   1.9325
     1.9369   1.9520   1.9570   1.9707   1.9787   2.0092   2.0122   2.0219
     2.0298   2.0464   2.0595   2.0684   2.0715   2.0926   2.1102   2.1122
     2.1279   2.1366   2.1580   2.1824   2.2016   2.2262   2.2550   2.2805
     2.2994   2.3153   2.3385   2.3476   2.3634   2.3760   2.3843   2.4133
     2.4262   2.4444   2.4665   2.4783   2.4902   2.4981   2.5092   2.5260
     2.5418   2.5672   2.5721   2.5869   2.5963   2.6197   2.6340   2.6419
     2.6735   2.6954   2.7093   2.7181   2.7268   2.7417   2.7642   2.7767
     2.7904   2.7994   2.8125   2.8227   2.8415   2.8534   2.8671   2.8874
     2.8952   2.9021   2.9156   2.9276   2.9392   2.9457   2.9784   2.9871
     2.9963   3.1082   3.2123   3.2447   3.2988   3.3170   3.3348   3.3995
     3.4172   3.4328   3.4669   3.4903   3.5394   3.5596   3.6033   3.6229
     3.6686   3.6962   3.7348   3.7774   3.8114   3.8559   3.9434   3.9761
     4.0034   4.0136   4.0452   4.0836   4.1023   4.1599   4.1791   4.2244
     4.2519   4.2705   4.3001   4.3965   4.4387   4.4504   4.4696   4.5415
     4.6199   4.6668   4.7393   4.7709   4.8085   4.9366   4.9845   5.1087
     5.1404   5.1568   5.1626   5.1919   5.2479   5.2571   5.2866   5.3252
     5.3402   5.3585   5.3730   5.4027   5.4162   5.4938   5.5417   5.5692
     5.5986   5.6157   5.6382   5.6545   5.6755   5.6919   5.7139   5.7522
     5.7710   5.7942   5.8152   5.8365   5.8542   5.8897   5.9249   5.9335
     5.9447   5.9810   6.0018   6.0150   6.0504   6.0708   6.0828   6.1112
     6.1630   6.1949   6.2302   6.2607   6.2835   6.2998   6.3273   6.3381
     6.3561   6.3644   6.3924   6.4542   6.5077   6.5889   6.6051   6.6243
     6.6767   6.8786   6.9129   6.9322   8.6574  11.1016  11.1400  11.7310
    11.7835  11.8497  11.9325  12.0239  12.1960  12.6044  12.6797  12.7023
    12.7253  12.7784  12.8050  12.8589  12.8790  12.9453  13.0273  13.1172
    13.1724  13.4871  14.5488  14.5567  14.7161  14.7609  14.7905  14.8206
    14.8553  14.8788  14.8875  14.9521  14.9567  14.9872  15.0382  15.0560
    15.0770  15.1104  15.1760  15.1927  15.2427  15.3159  15.3806  15.4641
    15.4977  15.5642  15.6429  15.6745  15.6929  15.7912  15.8571  15.9689
    15.9780  16.0218  16.0552  16.0896  16.0965  16.2314  16.2983  16.5183
    16.5433  16.7696  16.9678  17.0013  17.0599  17.2096  17.2544  17.3112
    17.3619  17.3787  17.5620  17.6306  17.7474  17.9718  18.0084  18.0607
    18.1039  18.2471

     occupation numbers 
     1.0000   1.0000   1.0000   1.0000   1.0000   1.0000   1.0000   1.0000
     1.0000   1.0000   1.0000   1.0000   1.0000   1.0000   1.0000   1.0000
     1.0000   1.0000   1.0000   1.0000   1.0000   1.0000   1.0000   1.0000
     1.0000   1.0000   1.0000   1.0000   1.0000   1.0000   1.0000   1.0000
     1.0000   1.0000   1.0000   1.0000   1.0000   1.0000   1.0000   1.0000
     1.0000   1.0000   1.0000   1.0000   1.0000   1.0000   1.0000   1.0000
     1.0000   1.0000   1.0000   1.0000   1.0000   1.0000   1.0000   1.0000
     1.0000   1.0000   1.0000   1.0000   1.0000   1.0000   1.0000   1.0000
     1.0000   1.0000   1.0000   1.0000   1.0000   1.0000   1.0000   1.0000
     1.0000   1.0000   1.0000   1.0000   1.0000   1.0000   1.0000   1.0000
     1.0000   1.0000   1.0000   1.0000   1.0000   1.0000   1.0000   1.0000
     1.0000   1.0000   1.0000   1.0000   1.0000   1.0000   1.0000   1.0000
     1.0000   1.0000   1.0000   1.0000   1.0000   1.0000   1.0000   1.0000
     1.0000   1.0000   1.0000   1.0000   1.0000   1.0000   1.0000   1.0000
     1.0000   1.0000   1.0000   1.0000   1.0000   1.0000   1.0000   1.0000
     1.0000   1.0000   1.0000   1.0000   1.0000   1.0000   1.0000   1.0000
     1.0000   1.0000   1.0000   1.0000   1.0000   1.0000   1.0000   1.0000
     1.0000   1.0000   1.0000   1.0000   1.0000   1.0000   1.0000   1.0000
     1.0000   1.0000   1.0000   1.0000   1.0000   1.0000   1.0000   1.0000
     1.0000   1.0000   1.0000   1.0000   1.0000   1.0000   1.0000   1.0000
     1.0000   1.0000   1.0000   1.0000   1.0000   1.0000   1.0000   1.0000
     1.0000   1.0000   1.0000   1.0000   1.0000   1.0000   1.0000   1.0000
     1.0000   1.0000   1.0000   1.0000   1.0000   1.0000   1.0000   1.0000
     1.0000   1.0000   1.0000   1.0000   1.0000   1.0000   1.0000   1.0000
     1.0000   1.0000   1.0000   1.0000   1.0000   1.0000   1.0000   1.0000
     1.0000   1.0000   1.0000   1.0000   1.0000   1.0000   1.0000   1.0000
     1.0000   1.0000   1.0000   1.0000   1.0000   1.0000   1.0000   1.0000
     1.0000   1.0000   1.0000   1.0000   1.0000   1.0000   1.0000   1.0000
     1.0000   1.0000   1.0000   1.0000   1.0000   1.0000   1.0000   1.0000
     1.0000   1.0000   1.0000   1.0000   1.0000   1.0000   1.0000   1.0000
     1.0000   1.0000   1.0000   1.0000   1.0000   1.0000   1.0000   1.0000
     1.0000   1.0000   1.0000   1.0000   1.0000   1.0000   1.0000   1.0000
     1.0000   1.0000   1.0000   1.0000   1.0000   1.0000   1.0000   1.0000
     1.0000   1.0000   1.0000   1.0000   1.0000   1.0000   1.0000   1.0000
     1.0000   1.0000   1.0000   1.0000   1.0000   1.0000   1.0000   1.0000
     1.0000   1.0000   1.0000   1.0000   1.0000   1.0000   1.0000   1.0000
     1.0000   1.0000   1.0000   1.0000   1.0000   1.0000   1.0000   1.0000
     1.0000   1.0000   1.0000   1.0000   1.0000   1.0000   1.0000   1.0000
     1.0000   1.0000   1.0000   1.0000   1.0000   1.0000   1.0000   1.0000
     1.0000   1.0000   1.0000   1.0000   1.0000   1.0000   1.0000   1.0000
     1.0000   1.0000   1.0000   1.0000   1.0000   1.0000   1.0000   1.0000
     1.0000   1.0000   1.0000   1.0000   1.0000   1.0000   1.0000   1.0000
     1.0000   1.0000   1.0000   1.0000   1.0000   1.0000   1.0000   1.0000
     1.0000   1.0000   1.0000   1.0000   1.0000   1.0000   1.0000   1.0000
     1.0000   1.0000   1.0000   1.0000   1.0000   1.0000   1.0000   1.0000
     1.0000   1.0000   1.0000   1.0000   1.0000   1.0000   1.0000   1.0000
     1.0000   1.0000   1.0000   1.0000   1.0000   1.0000   1.0000   1.0000
     1.0000   1.0000   1.0000   1.0000   1.0000   1.0000   1.0000   1.0000
     1.0000   1.0000   1.0000   1.0000   0.0000   0.0000   0.0000   0.0000
     0.0000   0.0000   0.0000   0.0000   0.0000   0.0000   0.0000   0.0000
     0.0000   0.0000   0.0000   0.0000   0.0000   0.0000   0.0000   0.0000
     0.0000   0.0000   0.0000   0.0000   0.0000   0.0000   0.0000   0.0000
     0.0000   0.0000   0.0000   0.0000   0.0000   0.0000   0.0000   0.0000
     0.0000   0.0000   0.0000   0.0000   0.0000   0.0000   0.0000   0.0000
     0.0000   0.0000   0.0000   0.0000   0.0000   0.0000   0.0000   0.0000
     0.0000   0.0000   0.0000   0.0000   0.0000   0.0000   0.0000   0.0000
     0.0000   0.0000   0.0000   0.0000   0.0000   0.0000   0.0000   0.0000
     0.0000   0.0000   0.0000   0.0000   0.0000   0.0000   0.0000   0.0000
     0.0000   0.0000

          k =-0.0002-0.0000 0.2349 ( 45407 PWs)   bands (ev):

  -115.8093-115.8054-115.8024-115.8015-115.8000-115.8000-115.7994-115.7989
  -115.7977-115.7971-115.7964-115.7955-115.7932-115.7887-115.7880-115.7860
  -115.7841-115.7787-115.7766-115.7641 -70.1702 -70.1658 -70.1649 -70.1621
   -70.1614 -70.1609 -70.1608 -70.1596 -70.1594 -70.1592 -70.1589 -70.1583
   -70.1580 -70.1577 -70.1569 -70.1567 -70.1566 -70.1565 -70.1564 -70.1563
   -70.1562 -70.1560 -70.1558 -70.1542 -70.1535 -70.1532 -70.1532 -70.1530
   -70.1529 -70.1520 -70.1508 -70.1504 -70.1494 -70.1494 -70.1489 -70.1488
   -70.1485 -70.1474 -70.1471 -70.1459 -70.1453 -70.1444 -70.1441 -70.1440
   -70.1432 -70.1419 -70.1406 -70.1399 -70.1397 -70.1396 -70.1381 -70.1373
   -70.1373 -70.1363 -70.1329 -70.1280 -70.1269 -70.1251 -70.1210 -70.1147
   -65.2811 -65.2708 -65.2572 -65.2545 -65.2411 -65.2340 -65.2312 -65.2278
   -65.2244 -65.2190 -65.2163 -65.2101 -65.2069 -65.2066 -65.1965 -65.1881
   -32.2710 -32.2649 -32.2643 -32.2622 -32.2574 -32.2548 -32.2466 -32.2451
   -32.2438 -32.2419 -32.2406 -32.2368 -32.2329 -32.2287 -32.2282 -32.2256
   -32.2235 -32.2225 -32.2221 -32.2205 -32.2170 -32.2160 -32.2146 -32.2114
   -32.2100 -32.2094 -32.2082 -32.2074 -32.2072 -32.2048 -32.2022 -32.2017
   -32.2001 -32.1994 -32.1974 -32.1955 -32.1948 -32.1942 -32.1915 -32.1914
   -32.1873 -32.1867 -32.1863 -32.1813 -32.1768 -32.1756 -32.1708 -32.1677
   -10.3463 -10.1409  -9.9728  -9.9402  -9.9129  -9.8831  -9.8609  -9.8276
    -9.7986  -9.7794  -9.7492  -9.7324  -9.7072  -9.6632  -9.6446  -9.6107
    -9.6030  -9.5866  -9.5765  -9.5450  -9.5381  -9.4947  -9.4860  -9.4686
    -9.4527  -9.4376  -9.4186  -9.3868  -9.3627  -9.3179  -9.2898  -9.2792
    -9.2526  -9.2199  -9.2076  -9.0682   1.4221   1.4693   1.4821   1.4955
     1.5120   1.5380   1.5602   1.5728   1.5932   1.6123   1.6339   1.6548
     1.7051   1.7179   1.7379   1.7492   1.7626   1.7757   1.7856   1.8017
     1.8193   1.8443   1.8498   1.8756   1.8882   1.8964   1.9122   1.9216
     1.9429   1.9508   1.9626   1.9667   1.9772   1.9976   2.0097   2.0173
     2.0348   2.0464   2.0509   2.0700   2.0826   2.0964   2.1027   2.1103
     2.1256   2.1376   2.1478   2.1753   2.1949   2.2251   2.2435   2.2659
     2.2909   2.2972   2.3240   2.3301   2.3488   2.3559   2.3694   2.3880
     2.4072   2.4216   2.4357   2.4637   2.4716   2.4798   2.5007   2.5099
     2.5308   2.5346   2.5544   2.5750   2.5949   2.6027   2.6226   2.6438
     2.6623   2.6811   2.6986   2.7138   2.7315   2.7499   2.7532   2.7743
     2.7956   2.8003   2.8185   2.8213   2.8456   2.8542   2.8733   2.8857
     2.9002   2.9034   2.9162   2.9280   2.9354   2.9551   2.9754   2.9919
     3.0430   3.1216   3.2103   3.2875   3.3095   3.3406   3.3643   3.3935
     3.4318   3.4503   3.4871   3.5188   3.5496   3.5801   3.6208   3.6440
     3.6798   3.6979   3.7461   3.7921   3.8602   3.8778   3.9462   3.9748
     4.0055   4.0447   4.0680   4.1072   4.1203   4.1496   4.1767   4.2180
     4.2313   4.2728   4.2982   4.3351   4.3650   4.4030   4.5690   4.6317
     4.7013   4.7515   4.7615   4.8078   4.8809   4.9210   5.0221   5.0791
     5.1186   5.1578   5.1821   5.2006   5.2192   5.2447   5.2669   5.2849
     5.2964   5.3099   5.3326   5.3595   5.3818   5.3983   5.4310   5.4680
     5.4867   5.5411   5.5897   5.6071   5.6468   5.6707   5.6936   5.7050
     5.7589   5.7823   5.8017   5.8505   5.9085   5.9335   5.9522   5.9672
     5.9734   6.0154   6.0363   6.0630   6.0753   6.1101   6.1431   6.1675
     6.1845   6.2180   6.2567   6.2809   6.3038   6.3182   6.3454   6.3630
     6.3741   6.3981   6.4150   6.4503   6.4820   6.5302   6.5785   6.6589
     6.6964   6.7148   6.9034   6.9229   8.9593  10.3881  11.6597  11.7527
    11.8046  11.8848  11.9559  12.0624  12.1984  12.2433  12.3515  12.4002
    12.4909  12.5594  12.7406  13.0709  13.2660  13.3514  13.3888  13.4274
    13.5315  13.6147  14.3649  14.4244  14.4987  14.5144  14.5758  14.6157
    14.6396  14.6603  14.8318  14.8417  14.9313  14.9414  15.0337  15.0612
    15.0729  15.2249  15.2678  15.3508  15.4084  15.4510  15.4716  15.5429
    15.5742  15.6305  15.6687  15.6766  15.8099  15.8808  15.9218  15.9497
    16.0084  16.0331  16.0594  16.1629  16.1783  16.2959  16.3863  16.4286
    16.6019  16.7345  16.8172  16.9217  17.0349  17.1002  17.1550  17.2186
    17.2588  17.3336  17.4091  17.6119  17.7295  17.7953  17.8779  17.9807
    18.1173  18.1786

     occupation numbers 
     1.0000   1.0000   1.0000   1.0000   1.0000   1.0000   1.0000   1.0000
     1.0000   1.0000   1.0000   1.0000   1.0000   1.0000   1.0000   1.0000
     1.0000   1.0000   1.0000   1.0000   1.0000   1.0000   1.0000   1.0000
     1.0000   1.0000   1.0000   1.0000   1.0000   1.0000   1.0000   1.0000
     1.0000   1.0000   1.0000   1.0000   1.0000   1.0000   1.0000   1.0000
     1.0000   1.0000   1.0000   1.0000   1.0000   1.0000   1.0000   1.0000
     1.0000   1.0000   1.0000   1.0000   1.0000   1.0000   1.0000   1.0000
     1.0000   1.0000   1.0000   1.0000   1.0000   1.0000   1.0000   1.0000
     1.0000   1.0000   1.0000   1.0000   1.0000   1.0000   1.0000   1.0000
     1.0000   1.0000   1.0000   1.0000   1.0000   1.0000   1.0000   1.0000
     1.0000   1.0000   1.0000   1.0000   1.0000   1.0000   1.0000   1.0000
     1.0000   1.0000   1.0000   1.0000   1.0000   1.0000   1.0000   1.0000
     1.0000   1.0000   1.0000   1.0000   1.0000   1.0000   1.0000   1.0000
     1.0000   1.0000   1.0000   1.0000   1.0000   1.0000   1.0000   1.0000
     1.0000   1.0000   1.0000   1.0000   1.0000   1.0000   1.0000   1.0000
     1.0000   1.0000   1.0000   1.0000   1.0000   1.0000   1.0000   1.0000
     1.0000   1.0000   1.0000   1.0000   1.0000   1.0000   1.0000   1.0000
     1.0000   1.0000   1.0000   1.0000   1.0000   1.0000   1.0000   1.0000
     1.0000   1.0000   1.0000   1.0000   1.0000   1.0000   1.0000   1.0000
     1.0000   1.0000   1.0000   1.0000   1.0000   1.0000   1.0000   1.0000
     1.0000   1.0000   1.0000   1.0000   1.0000   1.0000   1.0000   1.0000
     1.0000   1.0000   1.0000   1.0000   1.0000   1.0000   1.0000   1.0000
     1.0000   1.0000   1.0000   1.0000   1.0000   1.0000   1.0000   1.0000
     1.0000   1.0000   1.0000   1.0000   1.0000   1.0000   1.0000   1.0000
     1.0000   1.0000   1.0000   1.0000   1.0000   1.0000   1.0000   1.0000
     1.0000   1.0000   1.0000   1.0000   1.0000   1.0000   1.0000   1.0000
     1.0000   1.0000   1.0000   1.0000   1.0000   1.0000   1.0000   1.0000
     1.0000   1.0000   1.0000   1.0000   1.0000   1.0000   1.0000   1.0000
     1.0000   1.0000   1.0000   1.0000   1.0000   1.0000   1.0000   1.0000
     1.0000   1.0000   1.0000   1.0000   1.0000   1.0000   1.0000   1.0000
     1.0000   1.0000   1.0000   1.0000   1.0000   1.0000   1.0000   1.0000
     1.0000   1.0000   1.0000   1.0000   1.0000   1.0000   1.0000   1.0000
     1.0000   1.0000   1.0000   1.0000   1.0000   1.0000   1.0000   1.0000
     1.0000   1.0000   1.0000   1.0000   1.0000   1.0000   1.0000   1.0000
     1.0000   1.0000   1.0000   1.0000   1.0000   1.0000   1.0000   1.0000
     1.0000   1.0000   1.0000   1.0000   1.0000   1.0000   1.0000   1.0000
     1.0000   1.0000   1.0000   1.0000   1.0000   1.0000   1.0000   1.0000
     1.0000   1.0000   1.0000   1.0000   1.0000   1.0000   1.0000   1.0000
     1.0000   1.0000   1.0000   1.0000   1.0000   1.0000   1.0000   1.0000
     1.0000   1.0000   1.0000   1.0000   1.0000   1.0000   1.0000   1.0000
     1.0000   1.0000   1.0000   1.0000   1.0000   1.0000   1.0000   1.0000
     1.0000   1.0000   1.0000   1.0000   1.0000   1.0000   1.0000   1.0000
     1.0000   1.0000   1.0000   1.0000   1.0000   1.0000   1.0000   1.0000
     1.0000   1.0000   1.0000   1.0000   1.0000   1.0000   1.0000   1.0000
     1.0000   1.0000   1.0000   1.0000   1.0000   1.0000   1.0000   1.0000
     1.0000   1.0000   1.0000   1.0000   1.0000   1.0000   1.0000   1.0000
     1.0000   1.0000   1.0000   1.0000   1.0000   1.0000   1.0000   1.0000
     1.0000   1.0000   1.0000   1.0000   1.0000   1.0000   1.0000   1.0000
     1.0000   1.0000   1.0000   1.0000   0.0000   0.0000   0.0000   0.0000
     0.0000   0.0000   0.0000   0.0000   0.0000   0.0000   0.0000   0.0000
     0.0000   0.0000   0.0000   0.0000   0.0000   0.0000   0.0000   0.0000
     0.0000   0.0000   0.0000   0.0000   0.0000   0.0000   0.0000   0.0000
     0.0000   0.0000   0.0000   0.0000   0.0000   0.0000   0.0000   0.0000
     0.0000   0.0000   0.0000   0.0000   0.0000   0.0000   0.0000   0.0000
     0.0000   0.0000   0.0000   0.0000   0.0000   0.0000   0.0000   0.0000
     0.0000   0.0000   0.0000   0.0000   0.0000   0.0000   0.0000   0.0000
     0.0000   0.0000   0.0000   0.0000   0.0000   0.0000   0.0000   0.0000
     0.0000   0.0000   0.0000   0.0000   0.0000   0.0000   0.0000   0.0000
     0.0000   0.0000

          k = 0.0003 0.0000-0.4697 ( 45480 PWs)   bands (ev):

  -115.8093-115.8054-115.8024-115.8015-115.8000-115.8000-115.7994-115.7989
  -115.7977-115.7971-115.7964-115.7955-115.7932-115.7887-115.7880-115.7860
  -115.7841-115.7787-115.7766-115.7641 -70.1702 -70.1658 -70.1649 -70.1621
   -70.1614 -70.1609 -70.1608 -70.1596 -70.1594 -70.1592 -70.1589 -70.1583
   -70.1580 -70.1577 -70.1569 -70.1567 -70.1566 -70.1565 -70.1564 -70.1563
   -70.1562 -70.1560 -70.1558 -70.1542 -70.1535 -70.1532 -70.1532 -70.1530
   -70.1529 -70.1520 -70.1508 -70.1504 -70.1494 -70.1494 -70.1489 -70.1488
   -70.1485 -70.1474 -70.1471 -70.1459 -70.1453 -70.1444 -70.1441 -70.1440
   -70.1432 -70.1419 -70.1406 -70.1399 -70.1397 -70.1396 -70.1381 -70.1373
   -70.1373 -70.1363 -70.1329 -70.1280 -70.1269 -70.1251 -70.1210 -70.1147
   -65.2811 -65.2708 -65.2572 -65.2545 -65.2411 -65.2340 -65.2312 -65.2278
   -65.2244 -65.2190 -65.2163 -65.2101 -65.2069 -65.2066 -65.1965 -65.1881
   -32.2710 -32.2649 -32.2643 -32.2622 -32.2574 -32.2548 -32.2466 -32.2451
   -32.2438 -32.2419 -32.2406 -32.2368 -32.2329 -32.2287 -32.2283 -32.2256
   -32.2235 -32.2225 -32.2220 -32.2206 -32.2170 -32.2160 -32.2147 -32.2114
   -32.2100 -32.2094 -32.2082 -32.2074 -32.2072 -32.2048 -32.2022 -32.2017
   -32.2001 -32.1994 -32.1974 -32.1955 -32.1948 -32.1942 -32.1915 -32.1914
   -32.1873 -32.1867 -32.1863 -32.1813 -32.1768 -32.1756 -32.1708 -32.1677
   -10.3127 -10.2055  -9.9551  -9.9269  -9.9013  -9.8735  -9.8581  -9.8383
    -9.7921  -9.7795  -9.7696  -9.7467  -9.6940  -9.6752  -9.6592  -9.6087
    -9.6043  -9.5865  -9.5787  -9.5420  -9.5299  -9.4857  -9.4629  -9.4595
    -9.4578  -9.4393  -9.4161  -9.3846  -9.3661  -9.3215  -9.2902  -9.2811
    -9.2556  -9.2234  -9.2112  -9.0694   1.4269   1.4806   1.4885   1.5066
     1.5218   1.5605   1.5699   1.5880   1.5976   1.6149   1.6559   1.6741
     1.7103   1.7346   1.7438   1.7607   1.7653   1.7688   1.7957   1.8154
     1.8231   1.8320   1.8493   1.8679   1.8846   1.8897   1.9037   1.9137
     1.9300   1.9494   1.9600   1.9667   1.9713   1.9936   2.0106   2.0151
     2.0389   2.0444   2.0597   2.0744   2.0875   2.0953   2.1027   2.1141
     2.1311   2.1433   2.1556   2.1640   2.1807   2.1956   2.2204   2.2420
     2.2524   2.2849   2.3011   2.3151   2.3252   2.3410   2.3571   2.3646
     2.3778   2.4034   2.4286   2.4439   2.4587   2.4710   2.4799   2.5034
     2.5186   2.5287   2.5352   2.5724   2.5883   2.5937   2.6094   2.6308
     2.6607   2.6787   2.6938   2.7116   2.7334   2.7420   2.7559   2.7794
     2.7968   2.8021   2.8137   2.8221   2.8530   2.8644   2.8775   2.8828
     2.8999   2.9099   2.9165   2.9236   2.9423   2.9621   2.9797   2.9884
     3.0936   3.1442   3.2329   3.2992   3.3305   3.3553   3.3614   3.3955
     3.4512   3.4875   3.5230   3.5493   3.5694   3.5974   3.6261   3.6494
     3.6644   3.7150   3.7351   3.7647   3.8250   3.8628   3.8986   3.9592
     4.0225   4.0470   4.0723   4.0864   4.1324   4.1890   4.2273   4.2613
     4.2669   4.3446   4.3536   4.4110   4.4370   4.5007   4.5907   4.7096
     4.7327   4.7734   4.8025   4.8412   4.8700   4.9017   4.9171   4.9417
     4.9656   5.0278   5.0539   5.1133   5.1523   5.1871   5.2458   5.2948
     5.3254   5.3496   5.3637   5.3895   5.4253   5.4555   5.4853   5.4977
     5.5221   5.5327   5.5503   5.5792   5.5859   5.6167   5.6423   5.6464
     5.6532   5.6977   5.7718   5.8782   5.9135   5.9402   5.9788   5.9998
     6.0088   6.0412   6.0598   6.0779   6.1062   6.1485   6.1688   6.1988
     6.2352   6.2387   6.2582   6.3010   6.3307   6.3467   6.3504   6.3877
     6.3992   6.4171   6.4344   6.4476   6.4592   6.4802   6.5128   6.5546
     6.7167   6.7436   6.8918   6.9117   9.5053   9.7427  11.7473  11.8103
    11.8790  11.9152  11.9823  12.0362  12.1102  12.1376  12.2189  12.2501
    12.3974  12.5778  12.6334  12.9074  13.8019  13.8320  13.8650  13.8815
    13.9111  13.9521  13.9841  14.0011  14.0485  14.1011  14.1419  14.2176
    14.6672  14.6707  14.7756  14.7816  14.9280  14.9360  15.0247  15.0647
    15.0779  15.2653  15.3566  15.4105  15.4346  15.4630  15.5449  15.6211
    15.6444  15.6853  15.7775  15.8544  15.8820  15.9092  15.9449  15.9560
    15.9899  16.0353  16.0986  16.2706  16.3256  16.3619  16.4073  16.4343
    16.5280  16.6335  16.7736  16.8106  16.9365  16.9887  17.0743  17.1115
    17.1674  17.2563  17.4013  17.5826  17.7293  17.7985  17.8302  17.8921
    18.0105  18.1126

     occupation numbers 
     1.0000   1.0000   1.0000   1.0000   1.0000   1.0000   1.0000   1.0000
     1.0000   1.0000   1.0000   1.0000   1.0000   1.0000   1.0000   1.0000
     1.0000   1.0000   1.0000   1.0000   1.0000   1.0000   1.0000   1.0000
     1.0000   1.0000   1.0000   1.0000   1.0000   1.0000   1.0000   1.0000
     1.0000   1.0000   1.0000   1.0000   1.0000   1.0000   1.0000   1.0000
     1.0000   1.0000   1.0000   1.0000   1.0000   1.0000   1.0000   1.0000
     1.0000   1.0000   1.0000   1.0000   1.0000   1.0000   1.0000   1.0000
     1.0000   1.0000   1.0000   1.0000   1.0000   1.0000   1.0000   1.0000
     1.0000   1.0000   1.0000   1.0000   1.0000   1.0000   1.0000   1.0000
     1.0000   1.0000   1.0000   1.0000   1.0000   1.0000   1.0000   1.0000
     1.0000   1.0000   1.0000   1.0000   1.0000   1.0000   1.0000   1.0000
     1.0000   1.0000   1.0000   1.0000   1.0000   1.0000   1.0000   1.0000
     1.0000   1.0000   1.0000   1.0000   1.0000   1.0000   1.0000   1.0000
     1.0000   1.0000   1.0000   1.0000   1.0000   1.0000   1.0000   1.0000
     1.0000   1.0000   1.0000   1.0000   1.0000   1.0000   1.0000   1.0000
     1.0000   1.0000   1.0000   1.0000   1.0000   1.0000   1.0000   1.0000
     1.0000   1.0000   1.0000   1.0000   1.0000   1.0000   1.0000   1.0000
     1.0000   1.0000   1.0000   1.0000   1.0000   1.0000   1.0000   1.0000
     1.0000   1.0000   1.0000   1.0000   1.0000   1.0000   1.0000   1.0000
     1.0000   1.0000   1.0000   1.0000   1.0000   1.0000   1.0000   1.0000
     1.0000   1.0000   1.0000   1.0000   1.0000   1.0000   1.0000   1.0000
     1.0000   1.0000   1.0000   1.0000   1.0000   1.0000   1.0000   1.0000
     1.0000   1.0000   1.0000   1.0000   1.0000   1.0000   1.0000   1.0000
     1.0000   1.0000   1.0000   1.0000   1.0000   1.0000   1.0000   1.0000
     1.0000   1.0000   1.0000   1.0000   1.0000   1.0000   1.0000   1.0000
     1.0000   1.0000   1.0000   1.0000   1.0000   1.0000   1.0000   1.0000
     1.0000   1.0000   1.0000   1.0000   1.0000   1.0000   1.0000   1.0000
     1.0000   1.0000   1.0000   1.0000   1.0000   1.0000   1.0000   1.0000
     1.0000   1.0000   1.0000   1.0000   1.0000   1.0000   1.0000   1.0000
     1.0000   1.0000   1.0000   1.0000   1.0000   1.0000   1.0000   1.0000
     1.0000   1.0000   1.0000   1.0000   1.0000   1.0000   1.0000   1.0000
     1.0000   1.0000   1.0000   1.0000   1.0000   1.0000   1.0000   1.0000
     1.0000   1.0000   1.0000   1.0000   1.0000   1.0000   1.0000   1.0000
     1.0000   1.0000   1.0000   1.0000   1.0000   1.0000   1.0000   1.0000
     1.0000   1.0000   1.0000   1.0000   1.0000   1.0000   1.0000   1.0000
     1.0000   1.0000   1.0000   1.0000   1.0000   1.0000   1.0000   1.0000
     1.0000   1.0000   1.0000   1.0000   1.0000   1.0000   1.0000   1.0000
     1.0000   1.0000   1.0000   1.0000   1.0000   1.0000   1.0000   1.0000
     1.0000   1.0000   1.0000   1.0000   1.0000   1.0000   1.0000   1.0000
     1.0000   1.0000   1.0000   1.0000   1.0000   1.0000   1.0000   1.0000
     1.0000   1.0000   1.0000   1.0000   1.0000   1.0000   1.0000   1.0000
     1.0000   1.0000   1.0000   1.0000   1.0000   1.0000   1.0000   1.0000
     1.0000   1.0000   1.0000   1.0000   1.0000   1.0000   1.0000   1.0000
     1.0000   1.0000   1.0000   1.0000   1.0000   1.0000   1.0000   1.0000
     1.0000   1.0000   1.0000   1.0000   1.0000   1.0000   1.0000   1.0000
     1.0000   1.0000   1.0000   1.0000   1.0000   1.0000   1.0000   1.0000
     1.0000   1.0000   1.0000   1.0000   1.0000   1.0000   1.0000   1.0000
     1.0000   1.0000   1.0000   1.0000   1.0000   1.0000   1.0000   1.0000
     1.0000   1.0000   1.0000   1.0000   0.0000   0.0000   0.0000   0.0000
     0.0000   0.0000   0.0000   0.0000   0.0000   0.0000   0.0000   0.0000
     0.0000   0.0000   0.0000   0.0000   0.0000   0.0000   0.0000   0.0000
     0.0000   0.0000   0.0000   0.0000   0.0000   0.0000   0.0000   0.0000
     0.0000   0.0000   0.0000   0.0000   0.0000   0.0000   0.0000   0.0000
     0.0000   0.0000   0.0000   0.0000   0.0000   0.0000   0.0000   0.0000
     0.0000   0.0000   0.0000   0.0000   0.0000   0.0000   0.0000   0.0000
     0.0000   0.0000   0.0000   0.0000   0.0000   0.0000   0.0000   0.0000
     0.0000   0.0000   0.0000   0.0000   0.0000   0.0000   0.0000   0.0000
     0.0000   0.0000   0.0000   0.0000   0.0000   0.0000   0.0000   0.0000
     0.0000   0.0000

          k = 0.0002 0.2885-0.0000 ( 45436 PWs)   bands (ev):

  -115.8093-115.8054-115.8024-115.8015-115.8000-115.8000-115.7994-115.7989
  -115.7977-115.7971-115.7964-115.7955-115.7932-115.7887-115.7880-115.7860
  -115.7841-115.7787-115.7766-115.7641 -70.1702 -70.1658 -70.1649 -70.1621
   -70.1614 -70.1609 -70.1608 -70.1596 -70.1594 -70.1592 -70.1589 -70.1583
   -70.1580 -70.1577 -70.1569 -70.1567 -70.1566 -70.1564 -70.1564 -70.1563
   -70.1562 -70.1560 -70.1558 -70.1542 -70.1535 -70.1532 -70.1532 -70.1530
   -70.1529 -70.1520 -70.1508 -70.1504 -70.1494 -70.1494 -70.1489 -70.1488
   -70.1485 -70.1474 -70.1471 -70.1459 -70.1453 -70.1444 -70.1441 -70.1440
   -70.1432 -70.1419 -70.1406 -70.1399 -70.1397 -70.1396 -70.1381 -70.1373
   -70.1373 -70.1363 -70.1329 -70.1280 -70.1269 -70.1251 -70.1210 -70.1147
   -65.2811 -65.2708 -65.2572 -65.2545 -65.2411 -65.2340 -65.2312 -65.2278
   -65.2244 -65.2190 -65.2163 -65.2101 -65.2069 -65.2066 -65.1965 -65.1881
   -32.2710 -32.2649 -32.2643 -32.2622 -32.2574 -32.2548 -32.2466 -32.2451
   -32.2441 -32.2419 -32.2406 -32.2368 -32.2329 -32.2287 -32.2281 -32.2256
   -32.2235 -32.2223 -32.2221 -32.2207 -32.2171 -32.2160 -32.2146 -32.2110
   -32.2103 -32.2093 -32.2082 -32.2075 -32.2071 -32.2050 -32.2024 -32.2018
   -32.1996 -32.1990 -32.1974 -32.1957 -32.1949 -32.1942 -32.1915 -32.1913
   -32.1875 -32.1868 -32.1864 -32.1808 -32.1769 -32.1755 -32.1708 -32.1682
   -10.3325 -10.0766 -10.0534  -9.9952  -9.9221  -9.9052  -9.8206  -9.8161
    -9.7914  -9.7599  -9.7475  -9.7193  -9.6862  -9.6731  -9.6483  -9.6258
    -9.6005  -9.5892  -9.5636  -9.5540  -9.5352  -9.5046  -9.4824  -9.4766
    -9.4568  -9.4301  -9.4206  -9.3983  -9.3516  -9.3117  -9.2925  -9.2782
    -9.2522  -9.2372  -9.1853  -9.0672   1.4357   1.4632   1.4934   1.5066
     1.5290   1.5372   1.5551   1.5731   1.5976   1.6179   1.6428   1.6616
     1.6967   1.7088   1.7287   1.7338   1.7634   1.7726   1.7820   1.8035
     1.8108   1.8368   1.8600   1.8654   1.8752   1.8909   1.9085   1.9147
     1.9350   1.9450   1.9527   1.9634   1.9737   1.9970   2.0119   2.0185
     2.0332   2.0486   2.0538   2.0696   2.0805   2.0907   2.1111   2.1156
     2.1347   2.1450   2.1534   2.1732   2.1744   2.2137   2.2231   2.2515
     2.2724   2.2973   2.3096   2.3290   2.3445   2.3503   2.3725   2.3974
     2.4197   2.4336   2.4417   2.4655   2.4775   2.4959   2.5084   2.5347
     2.5378   2.5535   2.5755   2.5895   2.6014   2.6070   2.6283   2.6389
     2.6590   2.6690   2.6850   2.7051   2.7327   2.7405   2.7716   2.7791
     2.7933   2.8066   2.8159   2.8281   2.8377   2.8555   2.8715   2.8807
     2.8954   2.9098   2.9157   2.9311   2.9387   2.9517   2.9692   2.9848
     3.0083   3.0872   3.1318   3.2008   3.2498   3.2856   3.3196   3.3398
     3.3604   3.4141   3.4373   3.4749   3.4931   3.5396   3.6070   3.6282
     3.6860   3.7048   3.7799   3.8156   3.8434   3.8948   3.9603   3.9930
     4.0562   4.1083   4.1295   4.1729   4.1877   4.2662   4.2872   4.3489
     4.3722   4.4089   4.4489   4.4960   4.5230   4.5600   4.5986   4.6138
     4.6415   4.6879   4.7378   4.7518   4.8361   4.8588   4.9183   4.9662
     5.0308   5.0642   5.1283   5.1907   5.2565   5.2949   5.3114   5.3493
     5.3885   5.4134   5.4295   5.4456   5.4812   5.5049   5.5348   5.5429
     5.5730   5.5806   5.6182   5.6241   5.6423   5.6941   5.7094   5.7216
     5.7482   5.7580   5.8053   5.8095   5.8308   5.8647   5.9033   5.9262
     5.9617   5.9859   5.9962   6.0134   6.0314   6.0529   6.0663   6.0841
     6.1038   6.1345   6.1522   6.1828   6.2038   6.2450   6.2654   6.2973
     6.3433   6.3915   6.4434   6.4664   6.4689   6.5244   6.5471   6.5689
     6.6344   6.6501   6.8513   6.8850   9.0862  10.9062  11.2590  11.3256
    11.5722  11.7122  12.3100  12.3485  12.4148  12.5699  12.6830  12.7109
    12.7663  12.8400  12.9292  13.0273  13.0677  13.1360  13.1940  13.3055
    13.3399  13.6856  14.1997  14.2874  14.3466  14.3962  14.4334  14.4889
    14.5683  14.5964  14.6652  14.7317  14.7814  14.8128  14.8761  14.9883
    15.0487  15.1386  15.1802  15.2128  15.3093  15.3428  15.3948  15.4868
    15.5300  15.6623  15.7617  15.8412  15.9033  15.9900  16.0737  16.1133
    16.1939  16.2239  16.2911  16.3580  16.4651  16.4804  16.5107  16.6097
    16.6945  16.8521  16.9102  17.0466  17.2229  17.2407  17.2890  17.3854
    17.4279  17.5290  17.5812  17.6527  17.7662  17.9313  17.9568  18.0332
    18.0965  18.1655

     occupation numbers 
     1.0000   1.0000   1.0000   1.0000   1.0000   1.0000   1.0000   1.0000
     1.0000   1.0000   1.0000   1.0000   1.0000   1.0000   1.0000   1.0000
     1.0000   1.0000   1.0000   1.0000   1.0000   1.0000   1.0000   1.0000
     1.0000   1.0000   1.0000   1.0000   1.0000   1.0000   1.0000   1.0000
     1.0000   1.0000   1.0000   1.0000   1.0000   1.0000   1.0000   1.0000
     1.0000   1.0000   1.0000   1.0000   1.0000   1.0000   1.0000   1.0000
     1.0000   1.0000   1.0000   1.0000   1.0000   1.0000   1.0000   1.0000
     1.0000   1.0000   1.0000   1.0000   1.0000   1.0000   1.0000   1.0000
     1.0000   1.0000   1.0000   1.0000   1.0000   1.0000   1.0000   1.0000
     1.0000   1.0000   1.0000   1.0000   1.0000   1.0000   1.0000   1.0000
     1.0000   1.0000   1.0000   1.0000   1.0000   1.0000   1.0000   1.0000
     1.0000   1.0000   1.0000   1.0000   1.0000   1.0000   1.0000   1.0000
     1.0000   1.0000   1.0000   1.0000   1.0000   1.0000   1.0000   1.0000
     1.0000   1.0000   1.0000   1.0000   1.0000   1.0000   1.0000   1.0000
     1.0000   1.0000   1.0000   1.0000   1.0000   1.0000   1.0000   1.0000
     1.0000   1.0000   1.0000   1.0000   1.0000   1.0000   1.0000   1.0000
     1.0000   1.0000   1.0000   1.0000   1.0000   1.0000   1.0000   1.0000
     1.0000   1.0000   1.0000   1.0000   1.0000   1.0000   1.0000   1.0000
     1.0000   1.0000   1.0000   1.0000   1.0000   1.0000   1.0000   1.0000
     1.0000   1.0000   1.0000   1.0000   1.0000   1.0000   1.0000   1.0000
     1.0000   1.0000   1.0000   1.0000   1.0000   1.0000   1.0000   1.0000
     1.0000   1.0000   1.0000   1.0000   1.0000   1.0000   1.0000   1.0000
     1.0000   1.0000   1.0000   1.0000   1.0000   1.0000   1.0000   1.0000
     1.0000   1.0000   1.0000   1.0000   1.0000   1.0000   1.0000   1.0000
     1.0000   1.0000   1.0000   1.0000   1.0000   1.0000   1.0000   1.0000
     1.0000   1.0000   1.0000   1.0000   1.0000   1.0000   1.0000   1.0000
     1.0000   1.0000   1.0000   1.0000   1.0000   1.0000   1.0000   1.0000
     1.0000   1.0000   1.0000   1.0000   1.0000   1.0000   1.0000   1.0000
     1.0000   1.0000   1.0000   1.0000   1.0000   1.0000   1.0000   1.0000
     1.0000   1.0000   1.0000   1.0000   1.0000   1.0000   1.0000   1.0000
     1.0000   1.0000   1.0000   1.0000   1.0000   1.0000   1.0000   1.0000
     1.0000   1.0000   1.0000   1.0000   1.0000   1.0000   1.0000   1.0000
     1.0000   1.0000   1.0000   1.0000   1.0000   1.0000   1.0000   1.0000
     1.0000   1.0000   1.0000   1.0000   1.0000   1.0000   1.0000   1.0000
     1.0000   1.0000   1.0000   1.0000   1.0000   1.0000   1.0000   1.0000
     1.0000   1.0000   1.0000   1.0000   1.0000   1.0000   1.0000   1.0000
     1.0000   1.0000   1.0000   1.0000   1.0000   1.0000   1.0000   1.0000
     1.0000   1.0000   1.0000   1.0000   1.0000   1.0000   1.0000   1.0000
     1.0000   1.0000   1.0000   1.0000   1.0000   1.0000   1.0000   1.0000
     1.0000   1.0000   1.0000   1.0000   1.0000   1.0000   1.0000   1.0000
     1.0000   1.0000   1.0000   1.0000   1.0000   1.0000   1.0000   1.0000
     1.0000   1.0000   1.0000   1.0000   1.0000   1.0000   1.0000   1.0000
     1.0000   1.0000   1.0000   1.0000   1.0000   1.0000   1.0000   1.0000
     1.0000   1.0000   1.0000   1.0000   1.0000   1.0000   1.0000   1.0000
     1.0000   1.0000   1.0000   1.0000   1.0000   1.0000   1.0000   1.0000
     1.0000   1.0000   1.0000   1.0000   1.0000   1.0000   1.0000   1.0000
     1.0000   1.0000   1.0000   1.0000   1.0000   1.0000   1.0000   1.0000
     1.0000   1.0000   1.0000   1.0000   1.0000   1.0000   1.0000   1.0000
     1.0000   1.0000   1.0000   1.0000   0.0000   0.0000   0.0000   0.0000
     0.0000   0.0000   0.0000   0.0000   0.0000   0.0000   0.0000   0.0000
     0.0000   0.0000   0.0000   0.0000   0.0000   0.0000   0.0000   0.0000
     0.0000   0.0000   0.0000   0.0000   0.0000   0.0000   0.0000   0.0000
     0.0000   0.0000   0.0000   0.0000   0.0000   0.0000   0.0000   0.0000
     0.0000   0.0000   0.0000   0.0000   0.0000   0.0000   0.0000   0.0000
     0.0000   0.0000   0.0000   0.0000   0.0000   0.0000   0.0000   0.0000
     0.0000   0.0000   0.0000   0.0000   0.0000   0.0000   0.0000   0.0000
     0.0000   0.0000   0.0000   0.0000   0.0000   0.0000   0.0000   0.0000
     0.0000   0.0000   0.0000   0.0000   0.0000   0.0000   0.0000   0.0000
     0.0000   0.0000

          k = 0.0000 0.2884 0.2348 ( 45419 PWs)   bands (ev):

  -115.8093-115.8054-115.8024-115.8015-115.8000-115.8000-115.7994-115.7989
  -115.7977-115.7971-115.7964-115.7955-115.7932-115.7887-115.7880-115.7860
  -115.7841-115.7787-115.7766-115.7641 -70.1702 -70.1658 -70.1649 -70.1621
   -70.1614 -70.1609 -70.1608 -70.1596 -70.1594 -70.1592 -70.1589 -70.1583
   -70.1580 -70.1577 -70.1569 -70.1567 -70.1566 -70.1564 -70.1564 -70.1563
   -70.1562 -70.1560 -70.1558 -70.1542 -70.1535 -70.1532 -70.1532 -70.1530
   -70.1529 -70.1520 -70.1508 -70.1504 -70.1494 -70.1494 -70.1489 -70.1488
   -70.1485 -70.1474 -70.1471 -70.1459 -70.1453 -70.1444 -70.1441 -70.1440
   -70.1432 -70.1419 -70.1406 -70.1399 -70.1397 -70.1396 -70.1381 -70.1373
   -70.1373 -70.1363 -70.1329 -70.1280 -70.1269 -70.1251 -70.1210 -70.1147
   -65.2811 -65.2708 -65.2572 -65.2545 -65.2411 -65.2340 -65.2312 -65.2278
   -65.2244 -65.2190 -65.2163 -65.2101 -65.2069 -65.2066 -65.1965 -65.1881
   -32.2710 -32.2649 -32.2643 -32.2622 -32.2574 -32.2548 -32.2466 -32.2451
   -32.2441 -32.2419 -32.2406 -32.2368 -32.2329 -32.2287 -32.2282 -32.2256
   -32.2235 -32.2223 -32.2221 -32.2207 -32.2170 -32.2160 -32.2146 -32.2110
   -32.2103 -32.2093 -32.2082 -32.2075 -32.2071 -32.2050 -32.2024 -32.2018
   -32.1996 -32.1991 -32.1974 -32.1957 -32.1949 -32.1942 -32.1915 -32.1913
   -32.1875 -32.1868 -32.1864 -32.1808 -32.1769 -32.1755 -32.1708 -32.1682
   -10.3122 -10.1231 -10.0477  -9.9876  -9.9345  -9.8744  -9.8510  -9.8004
    -9.7976  -9.7611  -9.7431  -9.7198  -9.6955  -9.6654  -9.6544  -9.6148
    -9.6006  -9.5902  -9.5610  -9.5428  -9.5340  -9.5012  -9.4806  -9.4771
    -9.4528  -9.4284  -9.4243  -9.3939  -9.3516  -9.3147  -9.2916  -9.2816
    -9.2565  -9.2403  -9.1867  -9.0683   1.4450   1.4847   1.5019   1.5191
     1.5341   1.5536   1.5657   1.5793   1.6117   1.6221   1.6528   1.6718
     1.7022   1.7184   1.7359   1.7411   1.7686   1.7739   1.7832   1.7998
     1.8104   1.8453   1.8580   1.8656   1.8791   1.8851   1.9016   1.9161
     1.9240   1.9429   1.9515   1.9667   1.9785   1.9824   2.0060   2.0230
     2.0366   2.0476   2.0574   2.0775   2.0807   2.0885   2.1000   2.1124
     2.1284   2.1377   2.1519   2.1597   2.1666   2.2083   2.2222   2.2419
     2.2503   2.2682   2.2945   2.3170   2.3228   2.3362   2.3525   2.3825
     2.3918   2.4099   2.4267   2.4489   2.4516   2.4817   2.4909   2.5099
     2.5295   2.5417   2.5506   2.5658   2.5894   2.5992   2.6166   2.6421
     2.6579   2.6706   2.6899   2.7003   2.7235   2.7427   2.7643   2.7718
     2.7929   2.8084   2.8177   2.8424   2.8502   2.8638   2.8739   2.8820
     2.8990   2.9023   2.9185   2.9265   2.9367   2.9607   2.9780   2.9955
     3.0507   3.1288   3.1571   3.2319   3.2737   3.2858   3.3224   3.3578
     3.3904   3.4162   3.4592   3.4815   3.5186   3.5670   3.6043   3.6234
     3.7107   3.7318   3.7958   3.8401   3.8643   3.9069   3.9285   4.0047
     4.0525   4.0987   4.1402   4.1789   4.1945   4.2532   4.2708   4.2998
     4.3481   4.3920   4.4364   4.4663   4.5004   4.5374   4.5927   4.6464
     4.7294   4.7741   4.8596   4.8921   4.9125   4.9478   4.9768   5.0077
     5.0741   5.0913   5.1415   5.1553   5.1800   5.2108   5.2344   5.2771
     5.3060   5.3420   5.3580   5.3741   5.4076   5.4415   5.4577   5.4942
     5.5246   5.5348   5.5730   5.6018   5.6290   5.6626   5.6670   5.7257
     5.7410   5.7587   5.8029   5.8219   5.8487   5.8715   5.9203   5.9342
     5.9517   5.9969   6.0127   6.0392   6.0529   6.0814   6.0918   6.1067
     6.1315   6.1669   6.1855   6.2417   6.2543   6.2691   6.2840   6.3299
     6.3590   6.3907   6.4140   6.4376   6.4755   6.4949   6.5285   6.5740
     6.6473   6.6754   6.8231   6.8730   9.3177  10.5941  11.0167  11.4833
    11.6970  11.8217  12.0199  12.2269  12.2758  12.4724  12.6000  12.6965
    12.7896  12.8692  13.0043  13.1325  13.2280  13.4005  13.4669  13.5498
    13.5945  13.7088  14.1116  14.2063  14.2989  14.3242  14.3891  14.4477
    14.4802  14.5196  14.5424  14.5767  14.6131  14.6812  14.7077  14.7467
    15.0757  15.1852  15.2779  15.3388  15.4259  15.4994  15.5625  15.6189
    15.6442  15.6684  15.7263  15.8373  15.8607  15.9591  16.0402  16.1635
    16.2342  16.2749  16.3356  16.3600  16.4375  16.4835  16.5896  16.6395
    16.6970  16.8068  16.9239  17.0135  17.1367  17.1465  17.2363  17.2861
    17.3165  17.4233  17.5090  17.6268  17.6764  17.8001  17.9406  17.9873
    18.0768  18.1640

     occupation numbers 
     1.0000   1.0000   1.0000   1.0000   1.0000   1.0000   1.0000   1.0000
     1.0000   1.0000   1.0000   1.0000   1.0000   1.0000   1.0000   1.0000
     1.0000   1.0000   1.0000   1.0000   1.0000   1.0000   1.0000   1.0000
     1.0000   1.0000   1.0000   1.0000   1.0000   1.0000   1.0000   1.0000
     1.0000   1.0000   1.0000   1.0000   1.0000   1.0000   1.0000   1.0000
     1.0000   1.0000   1.0000   1.0000   1.0000   1.0000   1.0000   1.0000
     1.0000   1.0000   1.0000   1.0000   1.0000   1.0000   1.0000   1.0000
     1.0000   1.0000   1.0000   1.0000   1.0000   1.0000   1.0000   1.0000
     1.0000   1.0000   1.0000   1.0000   1.0000   1.0000   1.0000   1.0000
     1.0000   1.0000   1.0000   1.0000   1.0000   1.0000   1.0000   1.0000
     1.0000   1.0000   1.0000   1.0000   1.0000   1.0000   1.0000   1.0000
     1.0000   1.0000   1.0000   1.0000   1.0000   1.0000   1.0000   1.0000
     1.0000   1.0000   1.0000   1.0000   1.0000   1.0000   1.0000   1.0000
     1.0000   1.0000   1.0000   1.0000   1.0000   1.0000   1.0000   1.0000
     1.0000   1.0000   1.0000   1.0000   1.0000   1.0000   1.0000   1.0000
     1.0000   1.0000   1.0000   1.0000   1.0000   1.0000   1.0000   1.0000
     1.0000   1.0000   1.0000   1.0000   1.0000   1.0000   1.0000   1.0000
     1.0000   1.0000   1.0000   1.0000   1.0000   1.0000   1.0000   1.0000
     1.0000   1.0000   1.0000   1.0000   1.0000   1.0000   1.0000   1.0000
     1.0000   1.0000   1.0000   1.0000   1.0000   1.0000   1.0000   1.0000
     1.0000   1.0000   1.0000   1.0000   1.0000   1.0000   1.0000   1.0000
     1.0000   1.0000   1.0000   1.0000   1.0000   1.0000   1.0000   1.0000
     1.0000   1.0000   1.0000   1.0000   1.0000   1.0000   1.0000   1.0000
     1.0000   1.0000   1.0000   1.0000   1.0000   1.0000   1.0000   1.0000
     1.0000   1.0000   1.0000   1.0000   1.0000   1.0000   1.0000   1.0000
     1.0000   1.0000   1.0000   1.0000   1.0000   1.0000   1.0000   1.0000
     1.0000   1.0000   1.0000   1.0000   1.0000   1.0000   1.0000   1.0000
     1.0000   1.0000   1.0000   1.0000   1.0000   1.0000   1.0000   1.0000
     1.0000   1.0000   1.0000   1.0000   1.0000   1.0000   1.0000   1.0000
     1.0000   1.0000   1.0000   1.0000   1.0000   1.0000   1.0000   1.0000
     1.0000   1.0000   1.0000   1.0000   1.0000   1.0000   1.0000   1.0000
     1.0000   1.0000   1.0000   1.0000   1.0000   1.0000   1.0000   1.0000
     1.0000   1.0000   1.0000   1.0000   1.0000   1.0000   1.0000   1.0000
     1.0000   1.0000   1.0000   1.0000   1.0000   1.0000   1.0000   1.0000
     1.0000   1.0000   1.0000   1.0000   1.0000   1.0000   1.0000   1.0000
     1.0000   1.0000   1.0000   1.0000   1.0000   1.0000   1.0000   1.0000
     1.0000   1.0000   1.0000   1.0000   1.0000   1.0000   1.0000   1.0000
     1.0000   1.0000   1.0000   1.0000   1.0000   1.0000   1.0000   1.0000
     1.0000   1.0000   1.0000   1.0000   1.0000   1.0000   1.0000   1.0000
     1.0000   1.0000   1.0000   1.0000   1.0000   1.0000   1.0000   1.0000
     1.0000   1.0000   1.0000   1.0000   1.0000   1.0000   1.0000   1.0000
     1.0000   1.0000   1.0000   1.0000   1.0000   1.0000   1.0000   1.0000
     1.0000   1.0000   1.0000   1.0000   1.0000   1.0000   1.0000   1.0000
     1.0000   1.0000   1.0000   1.0000   1.0000   1.0000   1.0000   1.0000
     1.0000   1.0000   1.0000   1.0000   1.0000   1.0000   1.0000   1.0000
     1.0000   1.0000   1.0000   1.0000   1.0000   1.0000   1.0000   1.0000
     1.0000   1.0000   1.0000   1.0000   1.0000   1.0000   1.0000   1.0000
     1.0000   1.0000   1.0000   1.0000   1.0000   1.0000   1.0000   1.0000
     1.0000   1.0000   1.0000   1.0000   0.0000   0.0000   0.0000   0.0000
     0.0000   0.0000   0.0000   0.0000   0.0000   0.0000   0.0000   0.0000
     0.0000   0.0000   0.0000   0.0000   0.0000   0.0000   0.0000   0.0000
     0.0000   0.0000   0.0000   0.0000   0.0000   0.0000   0.0000   0.0000
     0.0000   0.0000   0.0000   0.0000   0.0000   0.0000   0.0000   0.0000
     0.0000   0.0000   0.0000   0.0000   0.0000   0.0000   0.0000   0.0000
     0.0000   0.0000   0.0000   0.0000   0.0000   0.0000   0.0000   0.0000
     0.0000   0.0000   0.0000   0.0000   0.0000   0.0000   0.0000   0.0000
     0.0000   0.0000   0.0000   0.0000   0.0000   0.0000   0.0000   0.0000
     0.0000   0.0000   0.0000   0.0000   0.0000   0.0000   0.0000   0.0000
     0.0000   0.0000

          k = 0.0005 0.2885-0.4697 ( 45430 PWs)   bands (ev):

  -115.8093-115.8054-115.8024-115.8015-115.8000-115.8000-115.7994-115.7989
  -115.7977-115.7971-115.7964-115.7955-115.7932-115.7887-115.7880-115.7860
  -115.7841-115.7787-115.7766-115.7641 -70.1702 -70.1658 -70.1649 -70.1621
   -70.1614 -70.1609 -70.1608 -70.1596 -70.1594 -70.1592 -70.1589 -70.1583
   -70.1580 -70.1577 -70.1569 -70.1567 -70.1566 -70.1564 -70.1564 -70.1563
   -70.1562 -70.1560 -70.1558 -70.1542 -70.1535 -70.1532 -70.1532 -70.1530
   -70.1529 -70.1520 -70.1508 -70.1504 -70.1494 -70.1494 -70.1489 -70.1488
   -70.1485 -70.1474 -70.1471 -70.1459 -70.1453 -70.1444 -70.1441 -70.1440
   -70.1432 -70.1419 -70.1406 -70.1399 -70.1397 -70.1396 -70.1381 -70.1373
   -70.1373 -70.1363 -70.1329 -70.1280 -70.1269 -70.1251 -70.1210 -70.1147
   -65.2811 -65.2708 -65.2572 -65.2545 -65.2411 -65.2340 -65.2312 -65.2278
   -65.2244 -65.2190 -65.2163 -65.2101 -65.2069 -65.2066 -65.1965 -65.1881
   -32.2710 -32.2649 -32.2643 -32.2622 -32.2574 -32.2548 -32.2466 -32.2451
   -32.2441 -32.2420 -32.2406 -32.2368 -32.2329 -32.2287 -32.2282 -32.2256
   -32.2235 -32.2223 -32.2220 -32.2207 -32.2170 -32.2159 -32.2146 -32.2110
   -32.2103 -32.2094 -32.2082 -32.2075 -32.2071 -32.2050 -32.2024 -32.2018
   -32.1996 -32.1990 -32.1974 -32.1957 -32.1949 -32.1942 -32.1915 -32.1913
   -32.1875 -32.1868 -32.1864 -32.1808 -32.1769 -32.1755 -32.1708 -32.1682
   -10.2798 -10.1793 -10.0337  -9.9710  -9.9386  -9.9013  -9.8574  -9.7965
    -9.7862  -9.7593  -9.7481  -9.7135  -9.6952  -9.6638  -9.6438  -9.6138
    -9.6086  -9.5927  -9.5700  -9.5358  -9.5250  -9.4964  -9.4823  -9.4622
    -9.4492  -9.4406  -9.4188  -9.3872  -9.3540  -9.3192  -9.2947  -9.2826
    -9.2608  -9.2421  -9.1883  -9.0695   1.4554   1.4971   1.5154   1.5308
     1.5446   1.5702   1.5781   1.5968   1.6221   1.6279   1.6649   1.6746
     1.7121   1.7325   1.7363   1.7508   1.7623   1.7747   1.7980   1.8083
     1.8215   1.8310   1.8586   1.8639   1.8736   1.8811   1.8935   1.9063
     1.9157   1.9412   1.9534   1.9664   1.9732   1.9893   2.0108   2.0164
     2.0392   2.0455   2.0526   2.0719   2.0803   2.0888   2.0990   2.1164
     2.1280   2.1360   2.1518   2.1571   2.1663   2.1866   2.2071   2.2168
     2.2339   2.2422   2.2679   2.2860   2.3077   2.3127   2.3453   2.3620
     2.3687   2.3891   2.3951   2.4160   2.4424   2.4586   2.4748   2.5046
     2.5195   2.5420   2.5492   2.5629   2.5774   2.5861   2.6070   2.6284
     2.6478   2.6676   2.6935   2.7139   2.7336   2.7488   2.7727   2.7808
     2.7907   2.8111   2.8238   2.8386   2.8517   2.8629   2.8767   2.8943
     2.8999   2.9090   2.9149   2.9253   2.9438   2.9485   2.9906   3.0039
     3.0908   3.1320   3.1832   3.2433   3.2693   3.3191   3.3489   3.3703
     3.4133   3.4415   3.4735   3.5166   3.5508   3.5832   3.5994   3.6261
     3.6913   3.7652   3.7962   3.8216   3.8610   3.9110   3.9585   3.9951
     4.0321   4.0776   4.1017   4.1592   4.1997   4.2263   4.2626   4.2964
     4.3424   4.3940   4.4517   4.5549   4.5985   4.6343   4.6674   4.7423
     4.8005   4.8170   4.8729   4.9005   4.9278   4.9514   4.9775   5.0207
     5.0421   5.0734   5.0928   5.1407   5.1607   5.2010   5.2095   5.2343
     5.2583   5.2770   5.3124   5.3242   5.3503   5.3718   5.3984   5.4281
     5.4497   5.5101   5.5407   5.5583   5.5808   5.6290   5.6786   5.7031
     5.7483   5.7632   5.8231   5.8323   5.8725   5.8988   5.9110   5.9449
     5.9809   6.0025   6.0272   6.0433   6.0597   6.0922   6.1272   6.1408
     6.1729   6.1742   6.2183   6.2272   6.2604   6.2757   6.3055   6.3411
     6.3572   6.3936   6.4018   6.4288   6.4775   6.5051   6.5244   6.5523
     6.6891   6.7040   6.7931   6.8604   9.7775  10.0029  11.1967  11.3735
    11.6742  11.8092  11.8779  12.0523  12.3781  12.4708  12.5707  12.6563
    12.7512  12.8801  12.9434  13.1384  13.6468  13.7660  13.8312  13.8734
    13.9208  13.9526  13.9836  14.0030  14.0522  14.1065  14.1512  14.2061
    14.2386  14.3679  14.4203  14.4513  14.5747  14.6136  14.6463  14.6835
    15.2412  15.2765  15.3366  15.4389  15.4708  15.5290  15.5991  15.6691
    15.6988  15.7512  15.8023  15.8614  15.8821  15.9222  16.0510  16.0687
    16.1585  16.2829  16.3402  16.4327  16.5065  16.5873  16.6217  16.6929
    16.7361  16.7942  16.8527  16.9120  17.0065  17.0871  17.1661  17.2216
    17.2668  17.3653  17.4233  17.6009  17.6704  17.7990  17.8841  17.9588
    18.0447  18.0570

     occupation numbers 
     1.0000   1.0000   1.0000   1.0000   1.0000   1.0000   1.0000   1.0000
     1.0000   1.0000   1.0000   1.0000   1.0000   1.0000   1.0000   1.0000
     1.0000   1.0000   1.0000   1.0000   1.0000   1.0000   1.0000   1.0000
     1.0000   1.0000   1.0000   1.0000   1.0000   1.0000   1.0000   1.0000
     1.0000   1.0000   1.0000   1.0000   1.0000   1.0000   1.0000   1.0000
     1.0000   1.0000   1.0000   1.0000   1.0000   1.0000   1.0000   1.0000
     1.0000   1.0000   1.0000   1.0000   1.0000   1.0000   1.0000   1.0000
     1.0000   1.0000   1.0000   1.0000   1.0000   1.0000   1.0000   1.0000
     1.0000   1.0000   1.0000   1.0000   1.0000   1.0000   1.0000   1.0000
     1.0000   1.0000   1.0000   1.0000   1.0000   1.0000   1.0000   1.0000
     1.0000   1.0000   1.0000   1.0000   1.0000   1.0000   1.0000   1.0000
     1.0000   1.0000   1.0000   1.0000   1.0000   1.0000   1.0000   1.0000
     1.0000   1.0000   1.0000   1.0000   1.0000   1.0000   1.0000   1.0000
     1.0000   1.0000   1.0000   1.0000   1.0000   1.0000   1.0000   1.0000
     1.0000   1.0000   1.0000   1.0000   1.0000   1.0000   1.0000   1.0000
     1.0000   1.0000   1.0000   1.0000   1.0000   1.0000   1.0000   1.0000
     1.0000   1.0000   1.0000   1.0000   1.0000   1.0000   1.0000   1.0000
     1.0000   1.0000   1.0000   1.0000   1.0000   1.0000   1.0000   1.0000
     1.0000   1.0000   1.0000   1.0000   1.0000   1.0000   1.0000   1.0000
     1.0000   1.0000   1.0000   1.0000   1.0000   1.0000   1.0000   1.0000
     1.0000   1.0000   1.0000   1.0000   1.0000   1.0000   1.0000   1.0000
     1.0000   1.0000   1.0000   1.0000   1.0000   1.0000   1.0000   1.0000
     1.0000   1.0000   1.0000   1.0000   1.0000   1.0000   1.0000   1.0000
     1.0000   1.0000   1.0000   1.0000   1.0000   1.0000   1.0000   1.0000
     1.0000   1.0000   1.0000   1.0000   1.0000   1.0000   1.0000   1.0000
     1.0000   1.0000   1.0000   1.0000   1.0000   1.0000   1.0000   1.0000
     1.0000   1.0000   1.0000   1.0000   1.0000   1.0000   1.0000   1.0000
     1.0000   1.0000   1.0000   1.0000   1.0000   1.0000   1.0000   1.0000
[...]
    -9.7739  -9.7391  -9.7146  -9.7021  -9.6901  -9.6631  -9.6534  -9.6310
    -9.6053  -9.5821  -9.5645  -9.5355  -9.5215  -9.5055  -9.4879  -9.4705
    -9.4671  -9.4325  -9.4213  -9.3936  -9.3416  -9.3028  -9.2932  -9.2850
    -9.2710  -9.2459  -9.1778  -9.0677   1.4679   1.5067   1.5272   1.5491
     1.5581   1.5636   1.5988   1.6111   1.6172   1.6446   1.6587   1.6703
     1.6915   1.6999   1.7193   1.7320   1.7483   1.7599   1.7883   1.8051
     1.8144   1.8231   1.8494   1.8647   1.8838   1.8926   1.9049   1.9222
     1.9376   1.9421   1.9494   1.9663   1.9821   1.9889   2.0087   2.0161
     2.0275   2.0380   2.0479   2.0567   2.0656   2.0787   2.0969   2.1006
     2.1132   2.1249   2.1373   2.1525   2.1722   2.1864   2.1959   2.2084
     2.2215   2.2332   2.2532   2.2965   2.3003   2.3374   2.3485   2.3688
     2.3822   2.4063   2.4202   2.4327   2.4442   2.4673   2.4927   2.5099
     2.5197   2.5371   2.5542   2.5676   2.5976   2.6152   2.6338   2.6485
     2.6606   2.6677   2.6880   2.7129   2.7202   2.7384   2.7562   2.7729
     2.7858   2.7906   2.8128   2.8323   2.8469   2.8583   2.8614   2.8861
     2.8928   2.9073   2.9211   2.9433   2.9548   2.9617   2.9815   2.9967
     3.0363   3.0927   3.1339   3.1873   3.1935   3.2673   3.3072   3.3573
     3.3641   3.3734   3.4255   3.4614   3.5377   3.5553   3.5936   3.6314
     3.6851   3.7296   3.7783   3.8326   3.8830   3.9269   3.9970   4.0308
     4.0836   4.1344   4.1868   4.2490   4.3314   4.3795   4.4055   4.4766
     4.5140   4.5484   4.5810   4.6018   4.6197   4.6458   4.6897   4.7191
     4.7536   4.7871   4.8096   4.8402   4.8483   4.8783   4.9238   4.9347
     4.9884   5.0692   5.1609   5.1647   5.2060   5.2411   5.2719   5.2854
     5.3220   5.3483   5.3783   5.3908   5.4111   5.4441   5.4588   5.5025
     5.5108   5.5438   5.5530   5.5709   5.6304   5.6527   5.6918   5.7119
     5.7244   5.7567   5.7834   5.8110   5.8275   5.8355   5.8803   5.9001
     5.9325   5.9445   5.9663   5.9903   6.0106   6.0173   6.0547   6.0740
     6.0964   6.1120   6.1445   6.1743   6.1846   6.2122   6.2376   6.2696
     6.2851   6.3443   6.3608   6.3801   6.4082   6.4678   6.5141   6.5547
     6.6874   6.7370   6.7545   6.7793  10.0468  10.1435  11.0505  11.2149
    11.4975  11.6376  12.1020  12.3001  12.5037  12.6181  12.9004  13.1347
    13.1775  13.2187  13.2632  13.3400  13.4201  13.4434  13.4634  13.5565
    13.6650  13.6987  13.7505  13.8923  13.9470  13.9794  14.0142  14.0595
    14.1113  14.1703  14.5031  14.5460  14.5692  14.5938  14.6865  14.7709
    14.9090  15.2237  15.2546  15.2902  15.3993  15.5468  15.5829  15.6016
    15.6410  15.7051  15.7633  15.8810  15.9461  16.0149  16.1486  16.2024
    16.3083  16.3803  16.5181  16.6062  16.6482  16.7914  16.8381  16.9368
    16.9458  16.9789  17.0654  17.1133  17.1766  17.2145  17.2847  17.3055
    17.4327  17.5178  17.6839  17.7291  17.8150  17.9085  17.9687  18.0650
    18.1086  18.1742

     occupation numbers 
     1.0000   1.0000   1.0000   1.0000   1.0000   1.0000   1.0000   1.0000
     1.0000   1.0000   1.0000   1.0000   1.0000   1.0000   1.0000   1.0000
     1.0000   1.0000   1.0000   1.0000   1.0000   1.0000   1.0000   1.0000
     1.0000   1.0000   1.0000   1.0000   1.0000   1.0000   1.0000   1.0000
     1.0000   1.0000   1.0000   1.0000   1.0000   1.0000   1.0000   1.0000
     1.0000   1.0000   1.0000   1.0000   1.0000   1.0000   1.0000   1.0000
     1.0000   1.0000   1.0000   1.0000   1.0000   1.0000   1.0000   1.0000
     1.0000   1.0000   1.0000   1.0000   1.0000   1.0000   1.0000   1.0000
     1.0000   1.0000   1.0000   1.0000   1.0000   1.0000   1.0000   1.0000
     1.0000   1.0000   1.0000   1.0000   1.0000   1.0000   1.0000   1.0000
     1.0000   1.0000   1.0000   1.0000   1.0000   1.0000   1.0000   1.0000
     1.0000   1.0000   1.0000   1.0000   1.0000   1.0000   1.0000   1.0000
     1.0000   1.0000   1.0000   1.0000   1.0000   1.0000   1.0000   1.0000
     1.0000   1.0000   1.0000   1.0000   1.0000   1.0000   1.0000   1.0000
     1.0000   1.0000   1.0000   1.0000   1.0000   1.0000   1.0000   1.0000
     1.0000   1.0000   1.0000   1.0000   1.0000   1.0000   1.0000   1.0000
     1.0000   1.0000   1.0000   1.0000   1.0000   1.0000   1.0000   1.0000
     1.0000   1.0000   1.0000   1.0000   1.0000   1.0000   1.0000   1.0000
     1.0000   1.0000   1.0000   1.0000   1.0000   1.0000   1.0000   1.0000
     1.0000   1.0000   1.0000   1.0000   1.0000   1.0000   1.0000   1.0000
     1.0000   1.0000   1.0000   1.0000   1.0000   1.0000   1.0000   1.0000
     1.0000   1.0000   1.0000   1.0000   1.0000   1.0000   1.0000   1.0000
     1.0000   1.0000   1.0000   1.0000   1.0000   1.0000   1.0000   1.0000
     1.0000   1.0000   1.0000   1.0000   1.0000   1.0000   1.0000   1.0000
     1.0000   1.0000   1.0000   1.0000   1.0000   1.0000   1.0000   1.0000
     1.0000   1.0000   1.0000   1.0000   1.0000   1.0000   1.0000   1.0000
     1.0000   1.0000   1.0000   1.0000   1.0000   1.0000   1.0000   1.0000
     1.0000   1.0000   1.0000   1.0000   1.0000   1.0000   1.0000   1.0000
     1.0000   1.0000   1.0000   1.0000   1.0000   1.0000   1.0000   1.0000
     1.0000   1.0000   1.0000   1.0000   1.0000   1.0000   1.0000   1.0000
     1.0000   1.0000   1.0000   1.0000   1.0000   1.0000   1.0000   1.0000
     1.0000   1.0000   1.0000   1.0000   1.0000   1.0000   1.0000   1.0000
     1.0000   1.0000   1.0000   1.0000   1.0000   1.0000   1.0000   1.0000
     1.0000   1.0000   1.0000   1.0000   1.0000   1.0000   1.0000   1.0000
     1.0000   1.0000   1.0000   1.0000   1.0000   1.0000   1.0000   1.0000
     1.0000   1.0000   1.0000   1.0000   1.0000   1.0000   1.0000   1.0000
     1.0000   1.0000   1.0000   1.0000   1.0000   1.0000   1.0000   1.0000
     1.0000   1.0000   1.0000   1.0000   1.0000   1.0000   1.0000   1.0000
     1.0000   1.0000   1.0000   1.0000   1.0000   1.0000   1.0000   1.0000
     1.0000   1.0000   1.0000   1.0000   1.0000   1.0000   1.0000   1.0000
     1.0000   1.0000   1.0000   1.0000   1.0000   1.0000   1.0000   1.0000
     1.0000   1.0000   1.0000   1.0000   1.0000   1.0000   1.0000   1.0000
     1.0000   1.0000   1.0000   1.0000   1.0000   1.0000   1.0000   1.0000
     1.0000   1.0000   1.0000   1.0000   1.0000   1.0000   1.0000   1.0000
     1.0000   1.0000   1.0000   1.0000   1.0000   1.0000   1.0000   1.0000
     1.0000   1.0000   1.0000   1.0000   1.0000   1.0000   1.0000   1.0000
     1.0000   1.0000   1.0000   1.0000   1.0000   1.0000   1.0000   1.0000
     1.0000   1.0000   1.0000   1.0000   1.0000   1.0000   1.0000   1.0000
     1.0000   1.0000   1.0000   1.0000   0.0000   0.0000   0.0000   0.0000
     0.0000   0.0000   0.0000   0.0000   0.0000   0.0000   0.0000   0.0000
     0.0000   0.0000   0.0000   0.0000   0.0000   0.0000   0.0000   0.0000
     0.0000   0.0000   0.0000   0.0000   0.0000   0.0000   0.0000   0.0000
     0.0000   0.0000   0.0000   0.0000   0.0000   0.0000   0.0000   0.0000
     0.0000   0.0000   0.0000   0.0000   0.0000   0.0000   0.0000   0.0000
     0.0000   0.0000   0.0000   0.0000   0.0000   0.0000   0.0000   0.0000
     0.0000   0.0000   0.0000   0.0000   0.0000   0.0000   0.0000   0.0000
     0.0000   0.0000   0.0000   0.0000   0.0000   0.0000   0.0000   0.0000
     0.0000   0.0000   0.0000   0.0000   0.0000   0.0000   0.0000   0.0000
     0.0000   0.0000

          k =-0.5003-0.8657-0.4693 ( 45394 PWs)   bands (ev):

  -115.8093-115.8054-115.8024-115.8015-115.8000-115.8000-115.7994-115.7989
  -115.7977-115.7971-115.7964-115.7955-115.7932-115.7887-115.7880-115.7860
  -115.7841-115.7787-115.7766-115.7641 -70.1702 -70.1658 -70.1649 -70.1621
   -70.1614 -70.1609 -70.1608 -70.1596 -70.1594 -70.1592 -70.1589 -70.1583
   -70.1580 -70.1577 -70.1569 -70.1567 -70.1566 -70.1564 -70.1564 -70.1563
   -70.1562 -70.1560 -70.1558 -70.1542 -70.1535 -70.1532 -70.1532 -70.1530
   -70.1529 -70.1520 -70.1508 -70.1504 -70.1494 -70.1494 -70.1489 -70.1488
   -70.1485 -70.1474 -70.1471 -70.1459 -70.1453 -70.1444 -70.1441 -70.1440
   -70.1432 -70.1419 -70.1406 -70.1399 -70.1397 -70.1396 -70.1381 -70.1373
   -70.1373 -70.1363 -70.1329 -70.1280 -70.1269 -70.1251 -70.1210 -70.1147
   -65.2811 -65.2708 -65.2572 -65.2545 -65.2411 -65.2340 -65.2312 -65.2278
   -65.2244 -65.2190 -65.2163 -65.2101 -65.2069 -65.2066 -65.1965 -65.1881
   -32.2710 -32.2649 -32.2643 -32.2622 -32.2574 -32.2548 -32.2466 -32.2451
   -32.2443 -32.2420 -32.2405 -32.2368 -32.2329 -32.2286 -32.2283 -32.2256
   -32.2233 -32.2225 -32.2220 -32.2208 -32.2171 -32.2160 -32.2145 -32.2105
   -32.2100 -32.2094 -32.2082 -32.2074 -32.2071 -32.2049 -32.2026 -32.2018
   -32.1992 -32.1985 -32.1975 -32.1959 -32.1948 -32.1942 -32.1916 -32.1906
   -32.1877 -32.1869 -32.1865 -32.1813 -32.1771 -32.1762 -32.1708 -32.1677
   -10.1926 -10.1835 -10.1243  -9.9947  -9.9591  -9.9193  -9.8808  -9.8126
    -9.7584  -9.7289  -9.7144  -9.6988  -9.6658  -9.6578  -9.6554  -9.6377
    -9.5939  -9.5814  -9.5642  -9.5414  -9.5201  -9.5143  -9.4841  -9.4730
    -9.4584  -9.4362  -9.4199  -9.3858  -9.3461  -9.3065  -9.2908  -9.2877
    -9.2758  -9.2490  -9.1786  -9.0686   1.4859   1.5357   1.5429   1.5621
     1.5762   1.5818   1.6028   1.6073   1.6191   1.6547   1.6679   1.6851
     1.6901   1.6979   1.7302   1.7462   1.7498   1.7773   1.7884   1.8083
     1.8190   1.8261   1.8419   1.8626   1.8777   1.8852   1.8943   1.9172
     1.9268   1.9403   1.9512   1.9646   1.9796   1.9929   2.0104   2.0209
     2.0347   2.0390   2.0453   2.0496   2.0607   2.0684   2.0758   2.0851
     2.1019   2.1191   2.1334   2.1472   2.1682   2.1831   2.1901   2.1952
     2.2159   2.2263   2.2389   2.2549   2.2888   2.3036   2.3188   2.3509
     2.3650   2.3788   2.3975   2.4240   2.4377   2.4458   2.4852   2.4991
     2.5099   2.5249   2.5451   2.5632   2.5949   2.6102   2.6205   2.6503
     2.6606   2.6680   2.6866   2.7035   2.7171   2.7340   2.7598   2.7749
     2.8008   2.8125   2.8249   2.8326   2.8372   2.8536   2.8665   2.8846
     2.8960   2.9022   2.9176   2.9449   2.9524   2.9703   2.9851   3.0030
     3.0575   3.1104   3.1428   3.2112   3.2355   3.3144   3.3316   3.3432
     3.3761   3.4155   3.4768   3.5144   3.5416   3.6023   3.6137   3.6538
     3.6839   3.7150   3.7771   3.7972   3.8740   3.8938   3.9622   4.0076
     4.0272   4.0737   4.1486   4.2205   4.3149   4.4014   4.4684   4.5314
     4.5411   4.5584   4.5914   4.6078   4.6488   4.6745   4.7233   4.7453
     4.7839   4.8717   4.8936   4.9181   4.9432   4.9865   5.0007   5.0136
     5.0394   5.0854   5.1174   5.1183   5.1609   5.1811   5.2024   5.2136
     5.2205   5.2751   5.2887   5.3114   5.3569   5.3649   5.4188   5.4507
     5.4843   5.4916   5.5173   5.5726   5.6171   5.6344   5.6725   5.7048
     5.7093   5.7365   5.7537   5.7879   5.8039   5.8498   5.8821   5.9048
     5.9294   5.9729   5.9776   6.0101   6.0184   6.0538   6.0751   6.0858
     6.1111   6.1219   6.1355   6.1625   6.1879   6.2079   6.2333   6.2545
     6.3112   6.3420   6.3902   6.3964   6.4630   6.5181   6.5850   6.6354
     6.6657   6.6898   6.7120   6.7729  10.3826  10.4312  10.5362  10.7809
    11.6359  11.7275  11.8009  12.0651  12.8335  12.9652  13.0439  13.0643
    13.1741  13.1931  13.2738  13.3248  13.3464  13.5121  13.5546  13.6372
    13.7017  13.7739  13.7974  13.8387  13.9984  14.0726  14.1225  14.1523
    14.2258  14.2696  14.2798  14.3338  14.3503  14.3822  14.4169  14.4204
    15.1921  15.2816  15.3853  15.4021  15.4443  15.4950  15.5857  15.6579
    15.7148  15.7763  15.8531  15.8612  15.9304  16.0016  16.0529  16.1574
    16.2728  16.3736  16.4955  16.5777  16.6331  16.7635  16.7978  16.9441
    17.0112  17.0433  17.0636  17.0761  17.1316  17.1659  17.2193  17.2473
    17.3792  17.4675  17.6504  17.7055  17.8085  17.8599  17.9134  18.1609
    18.2275  18.2492

     occupation numbers 
     1.0000   1.0000   1.0000   1.0000   1.0000   1.0000   1.0000   1.0000
     1.0000   1.0000   1.0000   1.0000   1.0000   1.0000   1.0000   1.0000
     1.0000   1.0000   1.0000   1.0000   1.0000   1.0000   1.0000   1.0000
     1.0000   1.0000   1.0000   1.0000   1.0000   1.0000   1.0000   1.0000
     1.0000   1.0000   1.0000   1.0000   1.0000   1.0000   1.0000   1.0000
     1.0000   1.0000   1.0000   1.0000   1.0000   1.0000   1.0000   1.0000
     1.0000   1.0000   1.0000   1.0000   1.0000   1.0000   1.0000   1.0000
     1.0000   1.0000   1.0000   1.0000   1.0000   1.0000   1.0000   1.0000
     1.0000   1.0000   1.0000   1.0000   1.0000   1.0000   1.0000   1.0000
     1.0000   1.0000   1.0000   1.0000   1.0000   1.0000   1.0000   1.0000
     1.0000   1.0000   1.0000   1.0000   1.0000   1.0000   1.0000   1.0000
     1.0000   1.0000   1.0000   1.0000   1.0000   1.0000   1.0000   1.0000
     1.0000   1.0000   1.0000   1.0000   1.0000   1.0000   1.0000   1.0000
     1.0000   1.0000   1.0000   1.0000   1.0000   1.0000   1.0000   1.0000
     1.0000   1.0000   1.0000   1.0000   1.0000   1.0000   1.0000   1.0000
     1.0000   1.0000   1.0000   1.0000   1.0000   1.0000   1.0000   1.0000
     1.0000   1.0000   1.0000   1.0000   1.0000   1.0000   1.0000   1.0000
     1.0000   1.0000   1.0000   1.0000   1.0000   1.0000   1.0000   1.0000
     1.0000   1.0000   1.0000   1.0000   1.0000   1.0000   1.0000   1.0000
     1.0000   1.0000   1.0000   1.0000   1.0000   1.0000   1.0000   1.0000
     1.0000   1.0000   1.0000   1.0000   1.0000   1.0000   1.0000   1.0000
     1.0000   1.0000   1.0000   1.0000   1.0000   1.0000   1.0000   1.0000
     1.0000   1.0000   1.0000   1.0000   1.0000   1.0000   1.0000   1.0000
     1.0000   1.0000   1.0000   1.0000   1.0000   1.0000   1.0000   1.0000
     1.0000   1.0000   1.0000   1.0000   1.0000   1.0000   1.0000   1.0000
     1.0000   1.0000   1.0000   1.0000   1.0000   1.0000   1.0000   1.0000
     1.0000   1.0000   1.0000   1.0000   1.0000   1.0000   1.0000   1.0000
     1.0000   1.0000   1.0000   1.0000   1.0000   1.0000   1.0000   1.0000
     1.0000   1.0000   1.0000   1.0000   1.0000   1.0000   1.0000   1.0000
     1.0000   1.0000   1.0000   1.0000   1.0000   1.0000   1.0000   1.0000
     1.0000   1.0000   1.0000   1.0000   1.0000   1.0000   1.0000   1.0000
     1.0000   1.0000   1.0000   1.0000   1.0000   1.0000   1.0000   1.0000
     1.0000   1.0000   1.0000   1.0000   1.0000   1.0000   1.0000   1.0000
     1.0000   1.0000   1.0000   1.0000   1.0000   1.0000   1.0000   1.0000
     1.0000   1.0000   1.0000   1.0000   1.0000   1.0000   1.0000   1.0000
     1.0000   1.0000   1.0000   1.0000   1.0000   1.0000   1.0000   1.0000
     1.0000   1.0000   1.0000   1.0000   1.0000   1.0000   1.0000   1.0000
     1.0000   1.0000   1.0000   1.0000   1.0000   1.0000   1.0000   1.0000
     1.0000   1.0000   1.0000   1.0000   1.0000   1.0000   1.0000   1.0000
     1.0000   1.0000   1.0000   1.0000   1.0000   1.0000   1.0000   1.0000
     1.0000   1.0000   1.0000   1.0000   1.0000   1.0000   1.0000   1.0000
     1.0000   1.0000   1.0000   1.0000   1.0000   1.0000   1.0000   1.0000
     1.0000   1.0000   1.0000   1.0000   1.0000   1.0000   1.0000   1.0000
     1.0000   1.0000   1.0000   1.0000   1.0000   1.0000   1.0000   1.0000
     1.0000   1.0000   1.0000   1.0000   1.0000   1.0000   1.0000   1.0000
     1.0000   1.0000   1.0000   1.0000   1.0000   1.0000   1.0000   1.0000
     1.0000   1.0000   1.0000   1.0000   1.0000   1.0000   1.0000   1.0000
     1.0000   1.0000   1.0000   1.0000   1.0000   1.0000   1.0000   1.0000
     1.0000   1.0000   1.0000   1.0000   0.0000   0.0000   0.0000   0.0000
     0.0000   0.0000   0.0000   0.0000   0.0000   0.0000   0.0000   0.0000
     0.0000   0.0000   0.0000   0.0000   0.0000   0.0000   0.0000   0.0000
     0.0000   0.0000   0.0000   0.0000   0.0000   0.0000   0.0000   0.0000
     0.0000   0.0000   0.0000   0.0000   0.0000   0.0000   0.0000   0.0000
     0.0000   0.0000   0.0000   0.0000   0.0000   0.0000   0.0000   0.0000
     0.0000   0.0000   0.0000   0.0000   0.0000   0.0000   0.0000   0.0000
     0.0000   0.0000   0.0000   0.0000   0.0000   0.0000   0.0000   0.0000
     0.0000   0.0000   0.0000   0.0000   0.0000   0.0000   0.0000   0.0000
     0.0000   0.0000   0.0000   0.0000   0.0000   0.0000   0.0000   0.0000
     0.0000   0.0000

     the Fermi energy is     7.8433 ev

!    total energy              =  -12392.23145510 Ry
     Harris-Foulkes estimate   =  -12392.23145510 Ry
     estimated scf accuracy    <          1.6E-09 Ry

     The total energy is the sum of the following terms:

     one-electron contribution =  -10441.50309674 Ry
     hartree contribution      =    5472.00997944 Ry
     xc contribution           =   -1365.03030575 Ry
     ewald contribution        =   -6057.70803205 Ry
     smearing contrib. (-TS)   =       0.00000000 Ry

     convergence has been achieved in  14 iterations

     Writing output data file ZnO.save/
 
     init_run     :     15.75s CPU     18.16s WALL (       1 calls)
     electrons    :    816.33s CPU    837.51s WALL (       1 calls)

     Called by init_run:
     wfcinit      :     13.27s CPU     14.61s WALL (       1 calls)
     wfcinit:atom :      0.10s CPU      0.14s WALL (       5 calls)
     wfcinit:wfcr :     12.72s CPU     13.98s WALL (       5 calls)
     potinit      :      1.13s CPU      1.38s WALL (       1 calls)
     hinit0       :      0.87s CPU      1.42s WALL (       1 calls)

     Called by electrons:
     c_bands      :    748.61s CPU    767.36s WALL (      14 calls)
     sum_band     :     58.83s CPU     60.30s WALL (      14 calls)
     v_of_rho     :      7.11s CPU      7.66s WALL (      15 calls)
     v_h          :      0.18s CPU      0.23s WALL (      15 calls)
     v_xc         :      6.93s CPU      7.41s WALL (      15 calls)
     newd         :      1.45s CPU      1.57s WALL (      15 calls)
     mix_rho      :      0.42s CPU      0.76s WALL (      14 calls)

     Called by c_bands:
     init_us_2    :      5.49s CPU      5.59s WALL (     145 calls)
     cegterg      :    692.94s CPU    710.95s WALL (      70 calls)

     Called by sum_band:
     sum_band:bec :      0.28s CPU      0.29s WALL (      70 calls)
     addusdens    :      1.42s CPU      1.56s WALL (      14 calls)

     Called by *egterg:
     h_psi        :    261.32s CPU    266.96s WALL (     274 calls)
     s_psi        :     67.83s CPU     68.26s WALL (     274 calls)
     g_psi        :      0.96s CPU      0.98s WALL (     199 calls)
     cdiaghg      :    208.67s CPU    216.00s WALL (     269 calls)
     cegterg:over :     71.22s CPU     73.17s WALL (     199 calls)
     cegterg:upda :     46.16s CPU     46.99s WALL (     199 calls)
     cegterg:last :     25.84s CPU     26.01s WALL (      70 calls)
     cdiaghg:chol :      9.77s CPU     10.26s WALL (     269 calls)
     cdiaghg:inve :      3.14s CPU      3.19s WALL (     269 calls)
     cdiaghg:para :     51.29s CPU     55.96s WALL (     538 calls)

     Called by h_psi:
     h_psi:pot    :    259.45s CPU    263.72s WALL (     274 calls)
     h_psi:calbec :     69.81s CPU     72.11s WALL (     274 calls)
     vloc_psi     :    121.42s CPU    122.73s WALL (     274 calls)
     add_vuspsi   :     68.21s CPU     68.87s WALL (     274 calls)

     General routines
     calbec       :     97.35s CPU    100.53s WALL (     344 calls)
     fft          :      1.49s CPU      2.20s WALL (     193 calls)
     ffts         :      0.07s CPU      0.08s WALL (      29 calls)
     fftw         :    139.09s CPU    140.55s WALL (  194964 calls)
     interpolate  :      0.18s CPU      0.24s WALL (      15 calls)
 
     Parallel routines
     fft_scatt_xy :     23.13s CPU     23.40s WALL (  195186 calls)
     fft_scatt_yz :     36.79s CPU     37.74s WALL (  195186 calls)
 
     PWSCF        :  13m53.56s CPU  14m26.55s WALL

 
   This run was terminated on:   2:11:29  15Jul2022            

=------------------------------------------------------------------------------=
   JOB DONE.
=------------------------------------------------------------------------------=
