
     Program PWSCF v.6.4.1 starts on 15Jun2022 at 20:53:21 

     This program is part of the open-source Quantum ESPRESSO suite
     for quantum simulation of materials; please cite
         "P. Giannozzi et al., J. Phys.:Condens. Matter 21 395502 (2009);
         "P. Giannozzi et al., J. Phys.:Condens. Matter 29 465901 (2017);
          URL http://www.quantum-espresso.org", 
     in publications or presentations arising from this work. More details at
     http://www.quantum-espresso.org/quote

     Parallel version (MPI), running on    64 processors

     MPI processes distributed on     1 nodes
     K-points division:     npool     =       4
     R & G space division:  proc/nbgrp/npool/nimage =      16
     Waiting for input...
     Reading input from standard input
Warning: card &IONS ignored
Warning: card   UPSCALE           = 100.D0, ignored
Warning: card / ignored
Warning: card &CELL ignored
Warning: card   CELL_DYNAMICS     = 'BFGS' ignored
Warning: card   PRESS_CONV_THR    = 0.5D0 ignored
Warning: card   CELL_DOFREE = 'ALL' ignored
Warning: card / ignored

     Current dimensions of program PWSCF are:
     Max number of different atomic species (ntypx) = 10
     Max number of k-points (npk) =  40000
     Max angular momentum in pseudopotentials (lmaxx) =  3

     Subspace diagonalization in iterative solution of the eigenvalue problem:
     one sub-group per band group will be used
     scalapack distributed-memory algorithm (size of sub-group:  2*  2 procs)

 
     Parallelization info
     --------------------
     sticks:   dense  smooth     PW     G-vecs:    dense   smooth      PW
     Min         103      55     17                 4877     1895     336
     Max         104      56     19                 4884     1898     339
     Sum        1663     889    283                78101    30339    5399
 


     bravais-lattice index     =            0
     lattice parameter (alat)  =       6.3508  a.u.
     unit-cell volume          =     314.6261 (a.u.)^3
     number of atoms/cell      =            4
     number of atomic types    =            2
     number of electrons       =        32.00
     number of Kohn-Sham states=           16
     kinetic-energy cutoff     =      80.0000  Ry
     charge density cutoff     =     600.0000  Ry
     convergence threshold     =      1.0E-06
     mixing beta               =       0.5000
     number of iterations used =            8  plain     mixing
     Exchange-correlation      = SLA  PW   PSX  PSC ( 1  4 10  8 0 0)
     Using LIBXC version       =    4   3   4

     celldm(1)=   6.350768  celldm(2)=   0.000000  celldm(3)=   0.000000
     celldm(4)=   0.000000  celldm(5)=   0.000000  celldm(6)=   0.000000

     crystal axes: (cart. coord. in units of alat)
               a(1) = (   1.000000   0.000000   0.000000 )  
               a(2) = (  -0.500000   0.866025  -0.000000 )  
               a(3) = (   0.000000  -0.000000   1.418356 )  

     reciprocal axes: (cart. coord. in units 2 pi/alat)
               b(1) = (  1.000000  0.577350 -0.000000 )  
               b(2) = ( -0.000000  1.154701  0.000000 )  
               b(3) = ( -0.000000 -0.000000  0.705042 )  


     PseudoPot. # 1 for Mg read from file:
     ./GBRV_PBEsol/mg_pbesol_v1.4.uspp.F.UPF
     MD5 check sum: 4059f37963cf5867752dbf5ab2400678
     Pseudo is Ultrasoft, Zval = 10.0
     Generated by new atomic code, or converted to UPF format
     Using radial grid of  821 points,  7 beta functions with: 
                l(1) =   0
                l(2) =   0
                l(3) =   0
                l(4) =   1
                l(5) =   1
                l(6) =   2
                l(7) =   2
     Q(r) pseudized with  8 coefficients,  rinner =    1.200   1.200   1.200
                                                       1.200   1.200

     PseudoPot. # 2 for O  read from file:
     ./GBRV_PBEsol/o_pbesol_v1.2.uspp.F.UPF
     MD5 check sum: 501638753501ef6325af9037351f7734
     Pseudo is Ultrasoft + core correction, Zval =  6.0
     Generated by new atomic code, or converted to UPF format
     Using radial grid of  737 points,  5 beta functions with: 
                l(1) =   0
                l(2) =   0
                l(3) =   1
                l(4) =   1
                l(5) =   2
     Q(r) pseudized with  8 coefficients,  rinner =    0.900   0.900   0.900
                                                       0.900   0.900

     atomic species   valence    mass     pseudopotential
        Mg            10.00    24.30500     Mg( 1.00)
        O              6.00    15.99900     O ( 1.00)

     No symmetry found


                                    s                        frac. trans.

      isym =  1     identity                                     

 cryst.   s( 1) = (     1          0          0      )
                  (     0          1          0      )
                  (     0          0          1      )

 cart.    s( 1) = (  1.0000000 -0.0000000 -0.0000000 )
                  ( -0.0000000  1.0000000  0.0000000 )
                  (  0.0000000  0.0000000  1.0000000 )


   Cartesian axes

     site n.     atom                  positions (alat units)
         1           O   tau(   1) = (   0.5000002   0.2886755   0.0104191  )
         2           O   tau(   2) = (   0.0000002   0.5773494   0.7195969  )
         3           Mg  tau(   3) = (   0.5000002   0.2886748   0.8316588  )
         4           Mg  tau(   4) = (   0.0000001   0.5773511   1.5408366  )

   Crystallographic axes

     site n.     atom                  positions (cryst. coord.)
         1           O   tau(   1) = (  0.6666670  0.3333337  0.0073459  )
         2           O   tau(   2) = (  0.3333329  0.6666657  0.5073458  )
         3           Mg  tau(   3) = (  0.6666664  0.3333329  0.5863540  )
         4           Mg  tau(   4) = (  0.3333337  0.6666677  1.0863539  )

     number of k points=   260
                       cart. coord. in units 2pi/alat
        k(    1) = (   0.0000000   0.0000000   0.0000000), wk =   0.0039062
        k(    2) = (  -0.0000000  -0.0000000   0.0881302), wk =   0.0078125
        k(    3) = (  -0.0000000  -0.0000000   0.1762604), wk =   0.0078125
        k(    4) = (  -0.0000000  -0.0000000   0.2643906), wk =   0.0078125
        k(    5) = (   0.0000001   0.0000000  -0.3525208), wk =   0.0039062
        k(    6) = (  -0.0000000   0.1443376   0.0000000), wk =   0.0078125
        k(    7) = (  -0.0000000   0.1443376   0.0881302), wk =   0.0078125
        k(    8) = (  -0.0000000   0.1443376   0.1762604), wk =   0.0078125
        k(    9) = (  -0.0000000   0.1443376   0.2643906), wk =   0.0078125
        k(   10) = (   0.0000000   0.1443376  -0.3525208), wk =   0.0078125
        k(   11) = (   0.0000000   0.1443376  -0.2643906), wk =   0.0078125
        k(   12) = (   0.0000000   0.1443376  -0.1762604), wk =   0.0078125
        k(   13) = (   0.0000000   0.1443376  -0.0881302), wk =   0.0078125
        k(   14) = (  -0.0000000   0.2886751   0.0000000), wk =   0.0078125
        k(   15) = (  -0.0000000   0.2886751   0.0881302), wk =   0.0078125
        k(   16) = (  -0.0000000   0.2886751   0.1762604), wk =   0.0078125
        k(   17) = (  -0.0000001   0.2886751   0.2643906), wk =   0.0078125
        k(   18) = (   0.0000000   0.2886751  -0.3525208), wk =   0.0078125
        k(   19) = (   0.0000000   0.2886751  -0.2643906), wk =   0.0078125
        k(   20) = (   0.0000000   0.2886751  -0.1762604), wk =   0.0078125
        k(   21) = (   0.0000000   0.2886751  -0.0881302), wk =   0.0078125
        k(   22) = (  -0.0000000   0.4330127   0.0000000), wk =   0.0078125
        k(   23) = (  -0.0000000   0.4330127   0.0881302), wk =   0.0078125
        k(   24) = (  -0.0000000   0.4330127   0.1762604), wk =   0.0078125
        k(   25) = (  -0.0000001   0.4330127   0.2643906), wk =   0.0078125
        k(   26) = (   0.0000000   0.4330127  -0.3525208), wk =   0.0078125
        k(   27) = (   0.0000000   0.4330127  -0.2643906), wk =   0.0078125
        k(   28) = (   0.0000000   0.4330127  -0.1762604), wk =   0.0078125
        k(   29) = (  -0.0000000   0.4330127  -0.0881302), wk =   0.0078125
        k(   30) = (   0.0000000  -0.5773503  -0.0000000), wk =   0.0039062
        k(   31) = (   0.0000000  -0.5773503   0.0881302), wk =   0.0078125
        k(   32) = (  -0.0000000  -0.5773503   0.1762604), wk =   0.0078125
        k(   33) = (  -0.0000000  -0.5773503   0.2643906), wk =   0.0078125
        k(   34) = (   0.0000001  -0.5773503  -0.3525208), wk =   0.0039062
        k(   35) = (   0.1250000   0.0721688  -0.0000000), wk =   0.0078125
        k(   36) = (   0.1250000   0.0721688   0.0881302), wk =   0.0078125
        k(   37) = (   0.1250000   0.0721688   0.1762604), wk =   0.0078125
        k(   38) = (   0.1250000   0.0721688   0.2643906), wk =   0.0078125
        k(   39) = (   0.1250001   0.0721688  -0.3525208), wk =   0.0078125
        k(   40) = (   0.1250000   0.0721688  -0.2643906), wk =   0.0078125
        k(   41) = (   0.1250000   0.0721688  -0.1762604), wk =   0.0078125
        k(   42) = (   0.1250000   0.0721688  -0.0881302), wk =   0.0078125
        k(   43) = (   0.1250000   0.2165064  -0.0000000), wk =   0.0078125
        k(   44) = (   0.1250000   0.2165063   0.0881302), wk =   0.0078125
        k(   45) = (   0.1250000   0.2165063   0.1762604), wk =   0.0078125
        k(   46) = (   0.1250000   0.2165063   0.2643906), wk =   0.0078125
        k(   47) = (   0.1250000   0.2165064  -0.3525208), wk =   0.0078125
        k(   48) = (   0.1250000   0.2165064  -0.2643906), wk =   0.0078125
        k(   49) = (   0.1250000   0.2165064  -0.1762604), wk =   0.0078125
        k(   50) = (   0.1250000   0.2165064  -0.0881302), wk =   0.0078125
        k(   51) = (   0.1250000   0.3608439  -0.0000000), wk =   0.0078125
        k(   52) = (   0.1250000   0.3608439   0.0881302), wk =   0.0078125
        k(   53) = (   0.1250000   0.3608439   0.1762604), wk =   0.0078125
        k(   54) = (   0.1249999   0.3608439   0.2643906), wk =   0.0078125
        k(   55) = (   0.1250000   0.3608439  -0.3525208), wk =   0.0078125
        k(   56) = (   0.1250000   0.3608439  -0.2643906), wk =   0.0078125
        k(   57) = (   0.1250000   0.3608439  -0.1762604), wk =   0.0078125
        k(   58) = (   0.1250000   0.3608439  -0.0881302), wk =   0.0078125
        k(   59) = (   0.1250000   0.5051815  -0.0000000), wk =   0.0078125
        k(   60) = (   0.1250000   0.5051815   0.0881302), wk =   0.0078125
        k(   61) = (   0.1250000   0.5051815   0.1762604), wk =   0.0078125
        k(   62) = (   0.1249999   0.5051815   0.2643906), wk =   0.0078125
        k(   63) = (   0.1250000   0.5051815  -0.3525208), wk =   0.0078125
        k(   64) = (   0.1250000   0.5051815  -0.2643906), wk =   0.0078125
        k(   65) = (   0.1250000   0.5051815  -0.1762604), wk =   0.0078125
        k(   66) = (   0.1250000   0.5051815  -0.0881302), wk =   0.0078125
        k(   67) = (   0.1250000  -0.5051815  -0.0000000), wk =   0.0078125
        k(   68) = (   0.1250000  -0.5051815   0.0881302), wk =   0.0078125
        k(   69) = (   0.1250000  -0.5051815   0.1762604), wk =   0.0078125
        k(   70) = (   0.1250000  -0.5051815   0.2643906), wk =   0.0078125
        k(   71) = (   0.1250001  -0.5051815  -0.3525208), wk =   0.0078125
        k(   72) = (   0.1250001  -0.5051815  -0.2643906), wk =   0.0078125
        k(   73) = (   0.1250000  -0.5051815  -0.1762604), wk =   0.0078125
        k(   74) = (   0.1250000  -0.5051815  -0.0881302), wk =   0.0078125
        k(   75) = (   0.1250000  -0.3608439  -0.0000000), wk =   0.0078125
        k(   76) = (   0.1250000  -0.3608439   0.0881302), wk =   0.0078125
        k(   77) = (   0.1250000  -0.3608439   0.1762604), wk =   0.0078125
        k(   78) = (   0.1250000  -0.3608439   0.2643906), wk =   0.0078125
        k(   79) = (   0.1250001  -0.3608439  -0.3525208), wk =   0.0078125
        k(   80) = (   0.1250001  -0.3608439  -0.2643906), wk =   0.0078125
        k(   81) = (   0.1250000  -0.3608439  -0.1762604), wk =   0.0078125
        k(   82) = (   0.1250000  -0.3608439  -0.0881302), wk =   0.0078125
        k(   83) = (   0.1250000  -0.2165064  -0.0000000), wk =   0.0078125
        k(   84) = (   0.1250000  -0.2165064   0.0881302), wk =   0.0078125
        k(   85) = (   0.1250000  -0.2165064   0.1762604), wk =   0.0078125
        k(   86) = (   0.1250000  -0.2165064   0.2643906), wk =   0.0078125
        k(   87) = (   0.1250001  -0.2165064  -0.3525208), wk =   0.0078125
        k(   88) = (   0.1250000  -0.2165064  -0.2643906), wk =   0.0078125
        k(   89) = (   0.1250000  -0.2165064  -0.1762604), wk =   0.0078125
        k(   90) = (   0.1250000  -0.2165064  -0.0881302), wk =   0.0078125
        k(   91) = (   0.1250000  -0.0721688  -0.0000000), wk =   0.0078125
        k(   92) = (   0.1250000  -0.0721688   0.0881302), wk =   0.0078125
        k(   93) = (   0.1250000  -0.0721688   0.1762604), wk =   0.0078125
        k(   94) = (   0.1250000  -0.0721688   0.2643906), wk =   0.0078125
        k(   95) = (   0.1250001  -0.0721688  -0.3525208), wk =   0.0078125
        k(   96) = (   0.1250000  -0.0721688  -0.2643906), wk =   0.0078125
        k(   97) = (   0.1250000  -0.0721688  -0.1762604), wk =   0.0078125
        k(   98) = (   0.1250000  -0.0721688  -0.0881302), wk =   0.0078125
        k(   99) = (   0.2500000   0.1443376  -0.0000000), wk =   0.0078125
        k(  100) = (   0.2500000   0.1443376   0.0881302), wk =   0.0078125
        k(  101) = (   0.2500000   0.1443376   0.1762604), wk =   0.0078125
        k(  102) = (   0.2500000   0.1443376   0.2643906), wk =   0.0078125
        k(  103) = (   0.2500000   0.1443376  -0.3525209), wk =   0.0078125
        k(  104) = (   0.2500000   0.1443376  -0.2643907), wk =   0.0078125
        k(  105) = (   0.2500000   0.1443376  -0.1762605), wk =   0.0078125
        k(  106) = (   0.2500000   0.1443376  -0.0881303), wk =   0.0078125
        k(  107) = (   0.2500000   0.2886751  -0.0000000), wk =   0.0078125
        k(  108) = (   0.2500000   0.2886751   0.0881302), wk =   0.0078125
        k(  109) = (   0.2500000   0.2886751   0.1762604), wk =   0.0078125
        k(  110) = (   0.2499999   0.2886751   0.2643906), wk =   0.0078125
        k(  111) = (   0.2500000   0.2886751  -0.3525209), wk =   0.0078125
        k(  112) = (   0.2500000   0.2886751  -0.2643907), wk =   0.0078125
        k(  113) = (   0.2500000   0.2886751  -0.1762605), wk =   0.0078125
        k(  114) = (   0.2500000   0.2886751  -0.0881302), wk =   0.0078125
        k(  115) = (   0.2500000   0.4330127  -0.0000000), wk =   0.0078125
        k(  116) = (   0.2500000   0.4330127   0.0881302), wk =   0.0078125
        k(  117) = (   0.2500000   0.4330127   0.1762604), wk =   0.0078125
        k(  118) = (   0.2499999   0.4330127   0.2643906), wk =   0.0078125
        k(  119) = (   0.2500000   0.4330127  -0.3525209), wk =   0.0078125
        k(  120) = (   0.2500000   0.4330127  -0.2643907), wk =   0.0078125
        k(  121) = (   0.2500000   0.4330127  -0.1762605), wk =   0.0078125
        k(  122) = (   0.2500000   0.4330127  -0.0881302), wk =   0.0078125
        k(  123) = (   0.2500000   0.5773503  -0.0000000), wk =   0.0078125
        k(  124) = (   0.2500000   0.5773503   0.0881302), wk =   0.0078125
        k(  125) = (   0.2500000   0.5773503   0.1762604), wk =   0.0078125
        k(  126) = (   0.2499999   0.5773503   0.2643906), wk =   0.0078125
        k(  127) = (   0.2500000   0.5773503  -0.3525209), wk =   0.0078125
        k(  128) = (   0.2500000   0.5773503  -0.2643907), wk =   0.0078125
        k(  129) = (   0.2500000   0.5773503  -0.1762605), wk =   0.0078125
        k(  130) = (   0.2500000   0.5773503  -0.0881302), wk =   0.0078125
        k(  131) = (   0.2500000  -0.4330127  -0.0000001), wk =   0.0078125
        k(  132) = (   0.2500000  -0.4330127   0.0881302), wk =   0.0078125
        k(  133) = (   0.2500000  -0.4330127   0.1762604), wk =   0.0078125
        k(  134) = (   0.2500000  -0.4330127   0.2643906), wk =   0.0078125
        k(  135) = (   0.2500001  -0.4330127  -0.3525209), wk =   0.0078125
        k(  136) = (   0.2500001  -0.4330127  -0.2643907), wk =   0.0078125
        k(  137) = (   0.2500000  -0.4330127  -0.1762605), wk =   0.0078125
        k(  138) = (   0.2500000  -0.4330127  -0.0881303), wk =   0.0078125
        k(  139) = (   0.2500000  -0.2886751  -0.0000001), wk =   0.0078125
        k(  140) = (   0.2500000  -0.2886752   0.0881302), wk =   0.0078125
        k(  141) = (   0.2500000  -0.2886752   0.1762604), wk =   0.0078125
        k(  142) = (   0.2500000  -0.2886752   0.2643906), wk =   0.0078125
        k(  143) = (   0.2500001  -0.2886751  -0.3525209), wk =   0.0078125
        k(  144) = (   0.2500001  -0.2886751  -0.2643907), wk =   0.0078125
        k(  145) = (   0.2500000  -0.2886751  -0.1762605), wk =   0.0078125
        k(  146) = (   0.2500000  -0.2886751  -0.0881303), wk =   0.0078125
        k(  147) = (   0.2500000  -0.1443376  -0.0000000), wk =   0.0078125
        k(  148) = (   0.2500000  -0.1443376   0.0881302), wk =   0.0078125
        k(  149) = (   0.2500000  -0.1443376   0.1762604), wk =   0.0078125
        k(  150) = (   0.2500000  -0.1443376   0.2643906), wk =   0.0078125
        k(  151) = (   0.2500001  -0.1443376  -0.3525209), wk =   0.0078125
        k(  152) = (   0.2500000  -0.1443376  -0.2643907), wk =   0.0078125
        k(  153) = (   0.2500000  -0.1443376  -0.1762605), wk =   0.0078125
        k(  154) = (   0.2500000  -0.1443376  -0.0881303), wk =   0.0078125
        k(  155) = (   0.2500000  -0.0000000  -0.0000000), wk =   0.0078125
        k(  156) = (   0.2500000  -0.0000000   0.0881302), wk =   0.0078125
        k(  157) = (   0.2500000  -0.0000000   0.1762604), wk =   0.0078125
        k(  158) = (   0.2500000  -0.0000000   0.2643906), wk =   0.0078125
        k(  159) = (   0.2500001  -0.0000000  -0.3525209), wk =   0.0078125
        k(  160) = (   0.2500000  -0.0000000  -0.2643907), wk =   0.0078125
        k(  161) = (   0.2500000  -0.0000000  -0.1762605), wk =   0.0078125
        k(  162) = (   0.2500000  -0.0000000  -0.0881303), wk =   0.0078125
        k(  163) = (   0.3750000   0.2165063  -0.0000001), wk =   0.0078125
        k(  164) = (   0.3750000   0.2165063   0.0881301), wk =   0.0078125
        k(  165) = (   0.3750000   0.2165063   0.1762603), wk =   0.0078125
        k(  166) = (   0.3750000   0.2165063   0.2643905), wk =   0.0078125
        k(  167) = (   0.3750000   0.2165063  -0.3525209), wk =   0.0078125
        k(  168) = (   0.3750000   0.2165063  -0.2643907), wk =   0.0078125
        k(  169) = (   0.3750000   0.2165063  -0.1762605), wk =   0.0078125
        k(  170) = (   0.3750000   0.2165063  -0.0881303), wk =   0.0078125
        k(  171) = (   0.3750000   0.3608439  -0.0000001), wk =   0.0078125
        k(  172) = (   0.3750000   0.3608439   0.0881301), wk =   0.0078125
        k(  173) = (   0.3750000   0.3608439   0.1762603), wk =   0.0078125
        k(  174) = (   0.3749999   0.3608439   0.2643905), wk =   0.0078125
        k(  175) = (   0.3750000   0.3608439  -0.3525209), wk =   0.0078125
        k(  176) = (   0.3750000   0.3608439  -0.2643907), wk =   0.0078125
        k(  177) = (   0.3750000   0.3608439  -0.1762605), wk =   0.0078125
        k(  178) = (   0.3750000   0.3608439  -0.0881303), wk =   0.0078125
        k(  179) = (   0.3750000   0.5051815  -0.0000001), wk =   0.0078125
        k(  180) = (   0.3750000   0.5051815   0.0881301), wk =   0.0078125
        k(  181) = (   0.3750000   0.5051815   0.1762603), wk =   0.0078125
        k(  182) = (   0.3749999   0.5051815   0.2643905), wk =   0.0078125
        k(  183) = (   0.3750000   0.5051815  -0.3525209), wk =   0.0078125
        k(  184) = (   0.3750000   0.5051815  -0.2643907), wk =   0.0078125
        k(  185) = (   0.3750000   0.5051815  -0.1762605), wk =   0.0078125
        k(  186) = (   0.3750000   0.5051815  -0.0881303), wk =   0.0078125
        k(  187) = (   0.3750000   0.6495191  -0.0000001), wk =   0.0078125
        k(  188) = (   0.3750000   0.6495191   0.0881301), wk =   0.0078125
        k(  189) = (   0.3749999   0.6495190   0.1762603), wk =   0.0078125
        k(  190) = (   0.3749999   0.6495190   0.2643905), wk =   0.0078125
        k(  191) = (   0.3750000   0.6495191  -0.3525209), wk =   0.0078125
        k(  192) = (   0.3750000   0.6495191  -0.2643907), wk =   0.0078125
        k(  193) = (   0.3750000   0.6495191  -0.1762605), wk =   0.0078125
        k(  194) = (   0.3750000   0.6495191  -0.0881303), wk =   0.0078125
        k(  195) = (   0.3750000  -0.3608439  -0.0000001), wk =   0.0078125
        k(  196) = (   0.3750000  -0.3608439   0.0881301), wk =   0.0078125
        k(  197) = (   0.3750000  -0.3608439   0.1762603), wk =   0.0078125
        k(  198) = (   0.3750000  -0.3608439   0.2643905), wk =   0.0078125
        k(  199) = (   0.3750001  -0.3608439  -0.3525209), wk =   0.0078125
        k(  200) = (   0.3750001  -0.3608439  -0.2643907), wk =   0.0078125
        k(  201) = (   0.3750000  -0.3608439  -0.1762605), wk =   0.0078125
        k(  202) = (   0.3750000  -0.3608439  -0.0881303), wk =   0.0078125
        k(  203) = (   0.3750000  -0.2165064  -0.0000001), wk =   0.0078125
        k(  204) = (   0.3750000  -0.2165064   0.0881301), wk =   0.0078125
        k(  205) = (   0.3750000  -0.2165064   0.1762603), wk =   0.0078125
        k(  206) = (   0.3750000  -0.2165064   0.2643905), wk =   0.0078125
        k(  207) = (   0.3750001  -0.2165064  -0.3525209), wk =   0.0078125
        k(  208) = (   0.3750000  -0.2165064  -0.2643907), wk =   0.0078125
        k(  209) = (   0.3750000  -0.2165064  -0.1762605), wk =   0.0078125
        k(  210) = (   0.3750000  -0.2165064  -0.0881303), wk =   0.0078125
        k(  211) = (   0.3750000  -0.0721688  -0.0000001), wk =   0.0078125
        k(  212) = (   0.3750000  -0.0721688   0.0881301), wk =   0.0078125
        k(  213) = (   0.3750000  -0.0721688   0.1762603), wk =   0.0078125
        k(  214) = (   0.3750000  -0.0721688   0.2643905), wk =   0.0078125
        k(  215) = (   0.3750001  -0.0721688  -0.3525209), wk =   0.0078125
        k(  216) = (   0.3750000  -0.0721688  -0.2643907), wk =   0.0078125
        k(  217) = (   0.3750000  -0.0721688  -0.1762605), wk =   0.0078125
        k(  218) = (   0.3750000  -0.0721688  -0.0881303), wk =   0.0078125
        k(  219) = (   0.3750000   0.0721688  -0.0000001), wk =   0.0078125
        k(  220) = (   0.3750000   0.0721688   0.0881301), wk =   0.0078125
        k(  221) = (   0.3750000   0.0721688   0.1762603), wk =   0.0078125
        k(  222) = (   0.3750000   0.0721688   0.2643905), wk =   0.0078125
        k(  223) = (   0.3750001   0.0721688  -0.3525209), wk =   0.0078125
        k(  224) = (   0.3750000   0.0721688  -0.2643907), wk =   0.0078125
        k(  225) = (   0.3750000   0.0721688  -0.1762605), wk =   0.0078125
        k(  226) = (   0.3750000   0.0721688  -0.0881303), wk =   0.0078125
        k(  227) = (  -0.5000000  -0.2886751   0.0000001), wk =   0.0039062
        k(  228) = (  -0.5000000  -0.2886751   0.0881303), wk =   0.0078125
        k(  229) = (  -0.5000000  -0.2886751   0.1762605), wk =   0.0078125
        k(  230) = (  -0.5000000  -0.2886751   0.2643907), wk =   0.0078125
        k(  231) = (  -0.4999999  -0.2886751  -0.3525207), wk =   0.0039062
        k(  232) = (  -0.5000000  -0.1443376   0.0000001), wk =   0.0078125
        k(  233) = (  -0.5000000  -0.1443376   0.0881303), wk =   0.0078125
        k(  234) = (  -0.5000000  -0.1443376   0.1762605), wk =   0.0078125
        k(  235) = (  -0.5000000  -0.1443376   0.2643907), wk =   0.0078125
        k(  236) = (  -0.4999999  -0.1443375  -0.3525207), wk =   0.0078125
        k(  237) = (  -0.5000000  -0.1443375  -0.2643905), wk =   0.0078125
        k(  238) = (  -0.5000000  -0.1443375  -0.1762603), wk =   0.0078125
        k(  239) = (  -0.5000000  -0.1443376  -0.0881301), wk =   0.0078125
        k(  240) = (  -0.5000000   0.0000000   0.0000001), wk =   0.0078125
        k(  241) = (  -0.5000000   0.0000000   0.0881303), wk =   0.0078125
        k(  242) = (  -0.5000000   0.0000000   0.1762605), wk =   0.0078125
        k(  243) = (  -0.5000000   0.0000000   0.2643907), wk =   0.0078125
        k(  244) = (  -0.4999999   0.0000000  -0.3525207), wk =   0.0078125
        k(  245) = (  -0.5000000   0.0000000  -0.2643905), wk =   0.0078125
        k(  246) = (  -0.5000000   0.0000000  -0.1762603), wk =   0.0078125
        k(  247) = (  -0.5000000   0.0000000  -0.0881301), wk =   0.0078125
        k(  248) = (  -0.5000000   0.1443376   0.0000001), wk =   0.0078125
        k(  249) = (  -0.5000000   0.1443376   0.0881303), wk =   0.0078125
        k(  250) = (  -0.5000000   0.1443376   0.1762605), wk =   0.0078125
        k(  251) = (  -0.5000000   0.1443376   0.2643907), wk =   0.0078125
        k(  252) = (  -0.5000000   0.1443376  -0.3525207), wk =   0.0078125
        k(  253) = (  -0.5000000   0.1443376  -0.2643905), wk =   0.0078125
        k(  254) = (  -0.5000000   0.1443376  -0.1762603), wk =   0.0078125
        k(  255) = (  -0.5000000   0.1443376  -0.0881301), wk =   0.0078125
        k(  256) = (  -0.5000000  -0.8660254   0.0000001), wk =   0.0039062
        k(  257) = (  -0.5000000  -0.8660254   0.0881303), wk =   0.0078125
        k(  258) = (  -0.5000000  -0.8660254   0.1762605), wk =   0.0078125
        k(  259) = (  -0.5000000  -0.8660254   0.2643907), wk =   0.0078125
        k(  260) = (  -0.4999999  -0.8660254  -0.3525207), wk =   0.0039062

                       cryst. coord.
        k(    1) = (   0.0000000   0.0000000   0.0000000), wk =   0.0039062
        k(    2) = (  -0.0000000   0.0000000   0.1250000), wk =   0.0078125
        k(    3) = (  -0.0000000   0.0000000   0.2500000), wk =   0.0078125
        k(    4) = (  -0.0000000   0.0000000   0.3750000), wk =   0.0078125
        k(    5) = (   0.0000000  -0.0000000  -0.5000000), wk =   0.0039062
        k(    6) = (  -0.0000000   0.1250000   0.0000000), wk =   0.0078125
        k(    7) = (  -0.0000000   0.1250000   0.1250000), wk =   0.0078125
        k(    8) = (  -0.0000000   0.1250000   0.2500000), wk =   0.0078125
        k(    9) = (  -0.0000000   0.1250000   0.3750000), wk =   0.0078125
        k(   10) = (   0.0000000   0.1250000  -0.5000000), wk =   0.0078125
        k(   11) = (  -0.0000000   0.1250000  -0.3750000), wk =   0.0078125
        k(   12) = (   0.0000000   0.1250000  -0.2500000), wk =   0.0078125
        k(   13) = (   0.0000000   0.1250000  -0.1250000), wk =   0.0078125
        k(   14) = (  -0.0000000   0.2500000   0.0000000), wk =   0.0078125
        k(   15) = (  -0.0000000   0.2500000   0.1250000), wk =   0.0078125
        k(   16) = (  -0.0000000   0.2500000   0.2500000), wk =   0.0078125
        k(   17) = (  -0.0000000   0.2500000   0.3750000), wk =   0.0078125
        k(   18) = (   0.0000000   0.2500000  -0.5000000), wk =   0.0078125
        k(   19) = (  -0.0000000   0.2500000  -0.3750000), wk =   0.0078125
        k(   20) = (   0.0000000   0.2500000  -0.2500000), wk =   0.0078125
        k(   21) = (   0.0000000   0.2500000  -0.1250000), wk =   0.0078125
        k(   22) = (  -0.0000000   0.3750000   0.0000000), wk =   0.0078125
        k(   23) = (  -0.0000000   0.3750000   0.1250000), wk =   0.0078125
        k(   24) = (  -0.0000000   0.3750000   0.2500000), wk =   0.0078125
        k(   25) = (  -0.0000000   0.3750000   0.3750000), wk =   0.0078125
        k(   26) = (   0.0000000   0.3750000  -0.5000000), wk =   0.0078125
        k(   27) = (   0.0000000   0.3750000  -0.3750000), wk =   0.0078125
        k(   28) = (   0.0000000   0.3750000  -0.2500000), wk =   0.0078125
        k(   29) = (  -0.0000000   0.3750000  -0.1250000), wk =   0.0078125
        k(   30) = (   0.0000000  -0.5000000  -0.0000000), wk =   0.0039062
        k(   31) = (   0.0000000  -0.5000000   0.1250000), wk =   0.0078125
        k(   32) = (  -0.0000000  -0.5000000   0.2500000), wk =   0.0078125
        k(   33) = (   0.0000000  -0.5000000   0.3750000), wk =   0.0078125
        k(   34) = (   0.0000000  -0.5000000  -0.5000000), wk =   0.0039062
        k(   35) = (   0.1250000  -0.0000000   0.0000000), wk =   0.0078125
        k(   36) = (   0.1250000  -0.0000000   0.1250000), wk =   0.0078125
        k(   37) = (   0.1250000  -0.0000000   0.2500000), wk =   0.0078125
        k(   38) = (   0.1250000  -0.0000000   0.3750000), wk =   0.0078125
        k(   39) = (   0.1250000  -0.0000000  -0.5000000), wk =   0.0078125
        k(   40) = (   0.1250000  -0.0000000  -0.3750000), wk =   0.0078125
        k(   41) = (   0.1250000  -0.0000000  -0.2500000), wk =   0.0078125
        k(   42) = (   0.1250000  -0.0000000  -0.1250000), wk =   0.0078125
        k(   43) = (   0.1250000   0.1250000   0.0000000), wk =   0.0078125
        k(   44) = (   0.1250000   0.1250000   0.1250000), wk =   0.0078125
        k(   45) = (   0.1250000   0.1250000   0.2500000), wk =   0.0078125
        k(   46) = (   0.1250000   0.1250000   0.3750000), wk =   0.0078125
        k(   47) = (   0.1250000   0.1250000  -0.5000000), wk =   0.0078125
        k(   48) = (   0.1250000   0.1250000  -0.3750000), wk =   0.0078125
        k(   49) = (   0.1250000   0.1250000  -0.2500000), wk =   0.0078125
        k(   50) = (   0.1250000   0.1250000  -0.1250000), wk =   0.0078125
        k(   51) = (   0.1250000   0.2500000   0.0000000), wk =   0.0078125
        k(   52) = (   0.1250000   0.2500000   0.1250000), wk =   0.0078125
        k(   53) = (   0.1250000   0.2500000   0.2500000), wk =   0.0078125
        k(   54) = (   0.1250000   0.2500000   0.3750000), wk =   0.0078125
        k(   55) = (   0.1250000   0.2500000  -0.5000000), wk =   0.0078125
        k(   56) = (   0.1250000   0.2500000  -0.3750000), wk =   0.0078125
        k(   57) = (   0.1250000   0.2500000  -0.2500000), wk =   0.0078125
        k(   58) = (   0.1250000   0.2500000  -0.1250000), wk =   0.0078125
        k(   59) = (   0.1250000   0.3750000   0.0000000), wk =   0.0078125
        k(   60) = (   0.1250000   0.3750000   0.1250000), wk =   0.0078125
        k(   61) = (   0.1250000   0.3750000   0.2500000), wk =   0.0078125
        k(   62) = (   0.1250000   0.3750000   0.3750000), wk =   0.0078125
        k(   63) = (   0.1250000   0.3750000  -0.5000000), wk =   0.0078125
        k(   64) = (   0.1250000   0.3750000  -0.3750000), wk =   0.0078125
        k(   65) = (   0.1250000   0.3750000  -0.2500000), wk =   0.0078125
        k(   66) = (   0.1250000   0.3750000  -0.1250000), wk =   0.0078125
        k(   67) = (   0.1250000  -0.5000000   0.0000000), wk =   0.0078125
        k(   68) = (   0.1250000  -0.5000000   0.1250000), wk =   0.0078125
        k(   69) = (   0.1250000  -0.5000000   0.2500000), wk =   0.0078125
        k(   70) = (   0.1250000  -0.5000000   0.3750000), wk =   0.0078125
        k(   71) = (   0.1250000  -0.5000000  -0.5000000), wk =   0.0078125
        k(   72) = (   0.1250000  -0.5000000  -0.3750000), wk =   0.0078125
        k(   73) = (   0.1250000  -0.5000000  -0.2500000), wk =   0.0078125
        k(   74) = (   0.1250000  -0.5000000  -0.1250000), wk =   0.0078125
        k(   75) = (   0.1250000  -0.3750000   0.0000000), wk =   0.0078125
        k(   76) = (   0.1250000  -0.3750000   0.1250000), wk =   0.0078125
        k(   77) = (   0.1250000  -0.3750000   0.2500000), wk =   0.0078125
        k(   78) = (   0.1250000  -0.3750000   0.3750000), wk =   0.0078125
        k(   79) = (   0.1250000  -0.3750000  -0.5000000), wk =   0.0078125
        k(   80) = (   0.1250000  -0.3750000  -0.3750000), wk =   0.0078125
        k(   81) = (   0.1250000  -0.3750000  -0.2500000), wk =   0.0078125
        k(   82) = (   0.1250000  -0.3750000  -0.1250000), wk =   0.0078125
        k(   83) = (   0.1250000  -0.2500000   0.0000000), wk =   0.0078125
        k(   84) = (   0.1250000  -0.2500000   0.1250000), wk =   0.0078125
        k(   85) = (   0.1250000  -0.2500000   0.2500000), wk =   0.0078125
        k(   86) = (   0.1250000  -0.2500000   0.3750000), wk =   0.0078125
        k(   87) = (   0.1250000  -0.2500000  -0.5000000), wk =   0.0078125
        k(   88) = (   0.1250000  -0.2500000  -0.3750000), wk =   0.0078125
        k(   89) = (   0.1250000  -0.2500000  -0.2500000), wk =   0.0078125
        k(   90) = (   0.1250000  -0.2500000  -0.1250000), wk =   0.0078125
        k(   91) = (   0.1250000  -0.1250000  -0.0000000), wk =   0.0078125
        k(   92) = (   0.1250000  -0.1250000   0.1250000), wk =   0.0078125
        k(   93) = (   0.1250000  -0.1250000   0.2500000), wk =   0.0078125
        k(   94) = (   0.1250000  -0.1250000   0.3750000), wk =   0.0078125
        k(   95) = (   0.1250000  -0.1250000  -0.5000000), wk =   0.0078125
        k(   96) = (   0.1250000  -0.1250000  -0.3750000), wk =   0.0078125
        k(   97) = (   0.1250000  -0.1250000  -0.2500000), wk =   0.0078125
        k(   98) = (   0.1250000  -0.1250000  -0.1250000), wk =   0.0078125
        k(   99) = (   0.2500000  -0.0000000   0.0000000), wk =   0.0078125
        k(  100) = (   0.2500000  -0.0000000   0.1250000), wk =   0.0078125
        k(  101) = (   0.2500000  -0.0000000   0.2500000), wk =   0.0078125
        k(  102) = (   0.2500000  -0.0000000   0.3750000), wk =   0.0078125
        k(  103) = (   0.2500000  -0.0000000  -0.5000000), wk =   0.0078125
        k(  104) = (   0.2500000  -0.0000000  -0.3750000), wk =   0.0078125
        k(  105) = (   0.2500000  -0.0000000  -0.2500000), wk =   0.0078125
        k(  106) = (   0.2500000  -0.0000000  -0.1250000), wk =   0.0078125
        k(  107) = (   0.2500000   0.1250000   0.0000000), wk =   0.0078125
        k(  108) = (   0.2500000   0.1250000   0.1250000), wk =   0.0078125
        k(  109) = (   0.2500000   0.1250000   0.2500000), wk =   0.0078125
        k(  110) = (   0.2500000   0.1250000   0.3750000), wk =   0.0078125
        k(  111) = (   0.2500000   0.1250000  -0.5000000), wk =   0.0078125
        k(  112) = (   0.2500000   0.1250000  -0.3750000), wk =   0.0078125
        k(  113) = (   0.2500000   0.1250000  -0.2500000), wk =   0.0078125
        k(  114) = (   0.2500000   0.1250000  -0.1250000), wk =   0.0078125
        k(  115) = (   0.2500000   0.2500000   0.0000000), wk =   0.0078125
        k(  116) = (   0.2500000   0.2500000   0.1250000), wk =   0.0078125
        k(  117) = (   0.2500000   0.2500000   0.2500000), wk =   0.0078125
        k(  118) = (   0.2500000   0.2500000   0.3750000), wk =   0.0078125
        k(  119) = (   0.2500000   0.2500000  -0.5000000), wk =   0.0078125
        k(  120) = (   0.2500000   0.2500000  -0.3750000), wk =   0.0078125
        k(  121) = (   0.2500000   0.2500000  -0.2500000), wk =   0.0078125
        k(  122) = (   0.2500000   0.2500000  -0.1250000), wk =   0.0078125
        k(  123) = (   0.2500000   0.3750000   0.0000000), wk =   0.0078125
        k(  124) = (   0.2500000   0.3750000   0.1250000), wk =   0.0078125
        k(  125) = (   0.2500000   0.3750000   0.2500000), wk =   0.0078125
        k(  126) = (   0.2500000   0.3750000   0.3750000), wk =   0.0078125
        k(  127) = (   0.2500000   0.3750000  -0.5000000), wk =   0.0078125
        k(  128) = (   0.2500000   0.3750000  -0.3750000), wk =   0.0078125
        k(  129) = (   0.2500000   0.3750000  -0.2500000), wk =   0.0078125
        k(  130) = (   0.2500000   0.3750000  -0.1250000), wk =   0.0078125
        k(  131) = (   0.2500000  -0.5000000   0.0000000), wk =   0.0078125
        k(  132) = (   0.2500000  -0.5000000   0.1250000), wk =   0.0078125
        k(  133) = (   0.2500000  -0.5000000   0.2500000), wk =   0.0078125
        k(  134) = (   0.2500000  -0.5000000   0.3750000), wk =   0.0078125
        k(  135) = (   0.2500000  -0.5000000  -0.5000000), wk =   0.0078125
        k(  136) = (   0.2500000  -0.5000000  -0.3750000), wk =   0.0078125
        k(  137) = (   0.2500000  -0.5000000  -0.2500000), wk =   0.0078125
        k(  138) = (   0.2500000  -0.5000000  -0.1250000), wk =   0.0078125
        k(  139) = (   0.2500000  -0.3750000   0.0000000), wk =   0.0078125
        k(  140) = (   0.2500000  -0.3750000   0.1250000), wk =   0.0078125
        k(  141) = (   0.2500000  -0.3750000   0.2500000), wk =   0.0078125
        k(  142) = (   0.2500000  -0.3750000   0.3750000), wk =   0.0078125
        k(  143) = (   0.2500000  -0.3750000  -0.5000000), wk =   0.0078125
        k(  144) = (   0.2500000  -0.3750000  -0.3750000), wk =   0.0078125
        k(  145) = (   0.2500000  -0.3750000  -0.2500000), wk =   0.0078125
        k(  146) = (   0.2500000  -0.3750000  -0.1250000), wk =   0.0078125
        k(  147) = (   0.2500000  -0.2500000  -0.0000000), wk =   0.0078125
        k(  148) = (   0.2500000  -0.2500000   0.1250000), wk =   0.0078125
        k(  149) = (   0.2500000  -0.2500000   0.2500000), wk =   0.0078125
        k(  150) = (   0.2500000  -0.2500000   0.3750000), wk =   0.0078125
        k(  151) = (   0.2500000  -0.2500000  -0.5000000), wk =   0.0078125
        k(  152) = (   0.2500000  -0.2500000  -0.3750000), wk =   0.0078125
        k(  153) = (   0.2500000  -0.2500000  -0.2500000), wk =   0.0078125
        k(  154) = (   0.2500000  -0.2500000  -0.1250000), wk =   0.0078125
        k(  155) = (   0.2500000  -0.1250000   0.0000000), wk =   0.0078125
        k(  156) = (   0.2500000  -0.1250000   0.1250000), wk =   0.0078125
        k(  157) = (   0.2500000  -0.1250000   0.2500000), wk =   0.0078125
        k(  158) = (   0.2500000  -0.1250000   0.3750000), wk =   0.0078125
        k(  159) = (   0.2500000  -0.1250000  -0.5000000), wk =   0.0078125
        k(  160) = (   0.2500000  -0.1250000  -0.3750000), wk =   0.0078125
        k(  161) = (   0.2500000  -0.1250000  -0.2500000), wk =   0.0078125
        k(  162) = (   0.2500000  -0.1250000  -0.1250000), wk =   0.0078125
        k(  163) = (   0.3750000  -0.0000000  -0.0000000), wk =   0.0078125
        k(  164) = (   0.3750000  -0.0000000   0.1250000), wk =   0.0078125
        k(  165) = (   0.3750000  -0.0000000   0.2500000), wk =   0.0078125
        k(  166) = (   0.3750000  -0.0000000   0.3750000), wk =   0.0078125
        k(  167) = (   0.3750000  -0.0000000  -0.5000000), wk =   0.0078125
        k(  168) = (   0.3750000  -0.0000000  -0.3750000), wk =   0.0078125
        k(  169) = (   0.3750000  -0.0000000  -0.2500000), wk =   0.0078125
        k(  170) = (   0.3750000  -0.0000000  -0.1250000), wk =   0.0078125
        k(  171) = (   0.3750000   0.1250000  -0.0000000), wk =   0.0078125
        k(  172) = (   0.3750000   0.1250000   0.1250000), wk =   0.0078125
        k(  173) = (   0.3750000   0.1250000   0.2500000), wk =   0.0078125
        k(  174) = (   0.3750000   0.1250000   0.3750000), wk =   0.0078125
        k(  175) = (   0.3750000   0.1250000  -0.5000000), wk =   0.0078125
        k(  176) = (   0.3750000   0.1250000  -0.3750000), wk =   0.0078125
        k(  177) = (   0.3750000   0.1250000  -0.2500000), wk =   0.0078125
        k(  178) = (   0.3750000   0.1250000  -0.1250000), wk =   0.0078125
        k(  179) = (   0.3750000   0.2500000  -0.0000000), wk =   0.0078125
        k(  180) = (   0.3750000   0.2500000   0.1250000), wk =   0.0078125
        k(  181) = (   0.3750000   0.2500000   0.2500000), wk =   0.0078125
        k(  182) = (   0.3750000   0.2500000   0.3750000), wk =   0.0078125
        k(  183) = (   0.3750000   0.2500000  -0.5000000), wk =   0.0078125
        k(  184) = (   0.3750000   0.2500000  -0.3750000), wk =   0.0078125
        k(  185) = (   0.3750000   0.2500000  -0.2500000), wk =   0.0078125
        k(  186) = (   0.3750000   0.2500000  -0.1250000), wk =   0.0078125
        k(  187) = (   0.3750000   0.3750000   0.0000000), wk =   0.0078125
        k(  188) = (   0.3750000   0.3750000   0.1250000), wk =   0.0078125
        k(  189) = (   0.3750000   0.3750000   0.2500000), wk =   0.0078125
        k(  190) = (   0.3750000   0.3750000   0.3750000), wk =   0.0078125
        k(  191) = (   0.3750000   0.3750000  -0.5000000), wk =   0.0078125
        k(  192) = (   0.3750000   0.3750000  -0.3750000), wk =   0.0078125
        k(  193) = (   0.3750000   0.3750000  -0.2500000), wk =   0.0078125
        k(  194) = (   0.3750000   0.3750000  -0.1250000), wk =   0.0078125
        k(  195) = (   0.3750000  -0.5000000  -0.0000000), wk =   0.0078125
        k(  196) = (   0.3750000  -0.5000000   0.1250000), wk =   0.0078125
        k(  197) = (   0.3750000  -0.5000000   0.2500000), wk =   0.0078125
        k(  198) = (   0.3750000  -0.5000000   0.3750000), wk =   0.0078125
        k(  199) = (   0.3750000  -0.5000000  -0.5000000), wk =   0.0078125
        k(  200) = (   0.3750000  -0.5000000  -0.3750000), wk =   0.0078125
        k(  201) = (   0.3750000  -0.5000000  -0.2500000), wk =   0.0078125
        k(  202) = (   0.3750000  -0.5000000  -0.1250000), wk =   0.0078125
        k(  203) = (   0.3750000  -0.3750000  -0.0000000), wk =   0.0078125
        k(  204) = (   0.3750000  -0.3750000   0.1250000), wk =   0.0078125
        k(  205) = (   0.3750000  -0.3750000   0.2500000), wk =   0.0078125
        k(  206) = (   0.3750000  -0.3750000   0.3750000), wk =   0.0078125
        k(  207) = (   0.3750000  -0.3750000  -0.5000000), wk =   0.0078125
        k(  208) = (   0.3750000  -0.3750000  -0.3750000), wk =   0.0078125
        k(  209) = (   0.3750000  -0.3750000  -0.2500000), wk =   0.0078125
        k(  210) = (   0.3750000  -0.3750000  -0.1250000), wk =   0.0078125
        k(  211) = (   0.3750000  -0.2500000   0.0000000), wk =   0.0078125
        k(  212) = (   0.3750000  -0.2500000   0.1250000), wk =   0.0078125
        k(  213) = (   0.3750000  -0.2500000   0.2500000), wk =   0.0078125
        k(  214) = (   0.3750000  -0.2500000   0.3750000), wk =   0.0078125
        k(  215) = (   0.3750000  -0.2500000  -0.5000000), wk =   0.0078125
        k(  216) = (   0.3750000  -0.2500000  -0.3750000), wk =   0.0078125
        k(  217) = (   0.3750000  -0.2500000  -0.2500000), wk =   0.0078125
        k(  218) = (   0.3750000  -0.2500000  -0.1250000), wk =   0.0078125
        k(  219) = (   0.3750000  -0.1250000  -0.0000000), wk =   0.0078125
        k(  220) = (   0.3750000  -0.1250000   0.1250000), wk =   0.0078125
        k(  221) = (   0.3750000  -0.1250000   0.2500000), wk =   0.0078125
        k(  222) = (   0.3750000  -0.1250000   0.3750000), wk =   0.0078125
        k(  223) = (   0.3750000  -0.1250000  -0.5000000), wk =   0.0078125
        k(  224) = (   0.3750000  -0.1250000  -0.3750000), wk =   0.0078125
        k(  225) = (   0.3750000  -0.1250000  -0.2500000), wk =   0.0078125
        k(  226) = (   0.3750000  -0.1250000  -0.1250000), wk =   0.0078125
        k(  227) = (  -0.5000000   0.0000000  -0.0000000), wk =   0.0039062
        k(  228) = (  -0.5000000   0.0000000   0.1250000), wk =   0.0078125
        k(  229) = (  -0.5000000   0.0000000   0.2500000), wk =   0.0078125
        k(  230) = (  -0.5000000   0.0000000   0.3750000), wk =   0.0078125
        k(  231) = (  -0.5000000   0.0000000  -0.5000000), wk =   0.0039062
        k(  232) = (  -0.5000000   0.1250000  -0.0000000), wk =   0.0078125
        k(  233) = (  -0.5000000   0.1250000   0.1250000), wk =   0.0078125
        k(  234) = (  -0.5000000   0.1250000   0.2500000), wk =   0.0078125
        k(  235) = (  -0.5000000   0.1250000   0.3750000), wk =   0.0078125
        k(  236) = (  -0.5000000   0.1250000  -0.5000000), wk =   0.0078125
        k(  237) = (  -0.5000000   0.1250000  -0.3750000), wk =   0.0078125
        k(  238) = (  -0.5000000   0.1250000  -0.2500000), wk =   0.0078125
        k(  239) = (  -0.5000000   0.1250000  -0.1250000), wk =   0.0078125
        k(  240) = (  -0.5000000   0.2500000  -0.0000000), wk =   0.0078125
        k(  241) = (  -0.5000000   0.2500000   0.1250000), wk =   0.0078125
        k(  242) = (  -0.5000000   0.2500000   0.2500000), wk =   0.0078125
        k(  243) = (  -0.5000000   0.2500000   0.3750000), wk =   0.0078125
        k(  244) = (  -0.5000000   0.2500000  -0.5000000), wk =   0.0078125
        k(  245) = (  -0.5000000   0.2500000  -0.3750000), wk =   0.0078125
        k(  246) = (  -0.5000000   0.2500000  -0.2500000), wk =   0.0078125
        k(  247) = (  -0.5000000   0.2500000  -0.1250000), wk =   0.0078125
        k(  248) = (  -0.5000000   0.3750000  -0.0000000), wk =   0.0078125
        k(  249) = (  -0.5000000   0.3750000   0.1250000), wk =   0.0078125
        k(  250) = (  -0.5000000   0.3750000   0.2500000), wk =   0.0078125
        k(  251) = (  -0.5000000   0.3750000   0.3750000), wk =   0.0078125
        k(  252) = (  -0.5000000   0.3750000  -0.5000000), wk =   0.0078125
        k(  253) = (  -0.5000000   0.3750000  -0.3750000), wk =   0.0078125
        k(  254) = (  -0.5000000   0.3750000  -0.2500000), wk =   0.0078125
        k(  255) = (  -0.5000000   0.3750000  -0.1250000), wk =   0.0078125
        k(  256) = (  -0.5000000  -0.5000000  -0.0000000), wk =   0.0039062
        k(  257) = (  -0.5000000  -0.5000000   0.1250000), wk =   0.0078125
        k(  258) = (  -0.5000000  -0.5000000   0.2500000), wk =   0.0078125
        k(  259) = (  -0.5000000  -0.5000000   0.3750000), wk =   0.0078125
        k(  260) = (  -0.5000000  -0.5000000  -0.5000000), wk =   0.0039062

     Dense  grid:    78101 G-vectors     FFT dimensions: (  50,  50,  72)

     Smooth grid:    30339 G-vectors     FFT dimensions: (  40,  40,  54)

     Dynamical RAM for                 wfc:       0.06 MB

     Dynamical RAM for     wfc (w. buffer):       3.82 MB

     Dynamical RAM for           str. fact:       0.15 MB

     Dynamical RAM for           local pot:       0.00 MB

     Dynamical RAM for          nlocal pot:       0.23 MB

     Dynamical RAM for                qrad:       5.30 MB

     Dynamical RAM for          rho,v,vnew:       0.51 MB

     Dynamical RAM for               rhoin:       0.17 MB

     Dynamical RAM for            rho*nmix:       1.19 MB

     Dynamical RAM for           G-vectors:       0.29 MB

     Dynamical RAM for          h,s,v(r/c):       0.05 MB

     Dynamical RAM for          <psi|beta>:       0.02 MB

     Dynamical RAM for                 psi:       0.23 MB

     Dynamical RAM for                hpsi:       0.23 MB

     Dynamical RAM for                spsi:       0.23 MB

     Dynamical RAM for      wfcinit/wfcrot:       0.14 MB

     Dynamical RAM for           addusdens:       3.91 MB

     Dynamical RAM for          addusforce:       4.06 MB

     Dynamical RAM for         addusstress:       4.12 MB

     Estimated static dynamical RAM per process >      12.36 MB

     Estimated max dynamical RAM per process >      16.48 MB

     Estimated total dynamical RAM >       1.03 GB

     Check: negative core charge=   -0.000003

     Initial potential from superposition of free atoms

     starting charge   31.39954, renormalised to   32.00000
     Starting wfcs are   18 randomized atomic wfcs

     total cpu time spent up to now is        2.6 secs

     Self-consistent Calculation

     iteration #  1     ecut=    80.00 Ry     beta= 0.50
     Davidson diagonalization with overlap
     ethr =  1.00E-02,  avg # of iterations =  2.0

     total cpu time spent up to now is        3.3 secs

     total energy              =    -314.89877151 Ry
     Harris-Foulkes estimate   =    -315.45805060 Ry
     estimated scf accuracy    <       0.88375578 Ry

     iteration #  2     ecut=    80.00 Ry     beta= 0.50
     Davidson diagonalization with overlap
     ethr =  2.76E-03,  avg # of iterations =  2.8

     total cpu time spent up to now is        4.2 secs

     total energy              =    -315.13546472 Ry
     Harris-Foulkes estimate   =    -315.24494622 Ry
     estimated scf accuracy    <       0.25277341 Ry

     iteration #  3     ecut=    80.00 Ry     beta= 0.50
     Davidson diagonalization with overlap
     ethr =  7.90E-04,  avg # of iterations =  2.0

     total cpu time spent up to now is        4.9 secs

     total energy              =    -315.17847763 Ry
     Harris-Foulkes estimate   =    -315.18138884 Ry
     estimated scf accuracy    <       0.00945202 Ry

     iteration #  4     ecut=    80.00 Ry     beta= 0.50
     Davidson diagonalization with overlap
     ethr =  2.95E-05,  avg # of iterations =  1.9

     total cpu time spent up to now is        5.5 secs

     total energy              =    -315.17906589 Ry
     Harris-Foulkes estimate   =    -315.17910199 Ry
     estimated scf accuracy    <       0.00050993 Ry

     iteration #  5     ecut=    80.00 Ry     beta= 0.50
     Davidson diagonalization with overlap
     ethr =  1.59E-06,  avg # of iterations =  2.0

     total cpu time spent up to now is        6.2 secs

     total energy              =    -315.17912174 Ry
     Harris-Foulkes estimate   =    -315.17912304 Ry
     estimated scf accuracy    <       0.00002216 Ry

     iteration #  6     ecut=    80.00 Ry     beta= 0.50
     Davidson diagonalization with overlap
     ethr =  6.92E-08,  avg # of iterations =  2.5

     total cpu time spent up to now is        7.0 secs

     End of self-consistent calculation

          k = 0.0000 0.0000 0.0000 (  3787 PWs)   bands (ev):

   -66.6718 -66.6657 -33.6993 -33.6438 -33.6408 -33.6408 -33.6286 -33.6286
   -11.3644 -10.3901   1.5529   3.8788   3.8788   4.3460   4.3460   5.0392

     occupation numbers 
     1.0000   1.0000   1.0000   1.0000   1.0000   1.0000   1.0000   1.0000
     1.0000   1.0000   1.0000   1.0000   1.0000   1.0000   1.0000   1.0000

          k =-0.0000-0.0000 0.0881 (  3763 PWs)   bands (ev):

   -66.6715 -66.6659 -33.6972 -33.6459 -33.6403 -33.6403 -33.6291 -33.6291
   -11.3294 -10.4295   1.6388   3.8956   3.8956   4.3272   4.3273   4.7737

     occupation numbers 
     1.0000   1.0000   1.0000   1.0000   1.0000   1.0000   1.0000   1.0000
     1.0000   1.0000   1.0000   1.0000   1.0000   1.0000   1.0000   1.0000

          k =-0.0000-0.0000 0.1763 (  3770 PWs)   bands (ev):

   -66.6709 -66.6666 -33.6913 -33.6521 -33.6390 -33.6390 -33.6304 -33.6304
   -11.2288 -10.5405   1.8926   3.9440   3.9440   4.1745   4.2743   4.2743

     occupation numbers 
     1.0000   1.0000   1.0000   1.0000   1.0000   1.0000   1.0000   1.0000
     1.0000   1.0000   1.0000   1.0000   1.0000   1.0000   1.0000   1.0000

          k =-0.0000-0.0000 0.2644 (  3818 PWs)   bands (ev):

   -66.6699 -66.6676 -33.6825 -33.6613 -33.6370 -33.6370 -33.6323 -33.6323
   -11.0760 -10.7037   2.3025   3.4913   4.0175   4.0175   4.1962   4.1962

     occupation numbers 
     1.0000   1.0000   1.0000   1.0000   1.0000   1.0000   1.0000   1.0000
     1.0000   1.0000   1.0000   1.0000   1.0000   1.0000   1.0000   1.0000

          k = 0.0000 0.0000-0.3525 (  3770 PWs)   bands (ev):

   -66.6687 -66.6687 -33.6719 -33.6719 -33.6347 -33.6347 -33.6347 -33.6347
   -10.8921 -10.8920   2.8471   2.8471   4.1059   4.1059   4.1059   4.1059

     occupation numbers 
     1.0000   1.0000   1.0000   1.0000   1.0000   1.0000   1.0000   1.0000
     1.0000   1.0000   1.0000   1.0000   1.0000   1.0000   1.0000   1.0000

          k =-0.0000 0.1443 0.0000 (  3785 PWs)   bands (ev):

   -66.6714 -66.6657 -33.6971 -33.6454 -33.6440 -33.6420 -33.6324 -33.6290
   -11.2837 -10.3719   1.6955   3.5344   3.7756   3.9235   4.3705   4.9605

     occupation numbers 
     1.0000   1.0000   1.0000   1.0000   1.0000   1.0000   1.0000   1.0000
     1.0000   1.0000   1.0000   1.0000   1.0000   1.0000   1.0000   1.0000

          k =-0.0000 0.1443 0.0881 (  3779 PWs)   bands (ev):

   -66.6712 -66.6659 -33.6954 -33.6480 -33.6434 -33.6415 -33.6323 -33.6295
   -11.2505 -10.4081   1.7594   3.5542   3.7966   3.8521   4.3461   4.8408

     occupation numbers 
     1.0000   1.0000   1.0000   1.0000   1.0000   1.0000   1.0000   1.0000
     1.0000   1.0000   1.0000   1.0000   1.0000   1.0000   1.0000   1.0000

          k =-0.0000 0.1443 0.1763 (  3793 PWs)   bands (ev):

   -66.6706 -66.6666 -33.6903 -33.6546 -33.6417 -33.6401 -33.6327 -33.6309
   -11.1552 -10.5106   1.9492   3.4705   3.7735   3.8570   4.2772   4.5832

     occupation numbers 
     1.0000   1.0000   1.0000   1.0000   1.0000   1.0000   1.0000   1.0000
     1.0000   1.0000   1.0000   1.0000   1.0000   1.0000   1.0000   1.0000

          k =-0.0000 0.1443 0.2644 (  3784 PWs)   bands (ev):

   -66.6696 -66.6675 -33.6826 -33.6634 -33.6393 -33.6380 -33.6342 -33.6330
   -11.0109 -10.6621   2.2563   3.0992   3.8983   3.9493   4.1766   4.3226

     occupation numbers 
     1.0000   1.0000   1.0000   1.0000   1.0000   1.0000   1.0000   1.0000
     1.0000   1.0000   1.0000   1.0000   1.0000   1.0000   1.0000   1.0000

          k = 0.0000 0.1443-0.3525 (  3776 PWs)   bands (ev):

   -66.6686 -66.6686 -33.6732 -33.6732 -33.6365 -33.6365 -33.6355 -33.6355
   -10.8380 -10.8380   2.6572   2.6572   4.0612   4.0612   4.0929   4.0929

     occupation numbers 
     1.0000   1.0000   1.0000   1.0000   1.0000   1.0000   1.0000   1.0000
     1.0000   1.0000   1.0000   1.0000   1.0000   1.0000   1.0000   1.0000

          k = 0.0000 0.1443-0.2644 (  3784 PWs)   bands (ev):

   -66.6696 -66.6675 -33.6826 -33.6634 -33.6393 -33.6380 -33.6342 -33.6330
   -11.0109 -10.6621   2.2563   3.0992   3.8983   3.9493   4.1766   4.3226

     occupation numbers 
     1.0000   1.0000   1.0000   1.0000   1.0000   1.0000   1.0000   1.0000
     1.0000   1.0000   1.0000   1.0000   1.0000   1.0000   1.0000   1.0000

          k = 0.0000 0.1443-0.1763 (  3793 PWs)   bands (ev):

   -66.6706 -66.6666 -33.6903 -33.6546 -33.6417 -33.6401 -33.6327 -33.6309
   -11.1552 -10.5106   1.9492   3.4705   3.7735   3.8570   4.2772   4.5832

     occupation numbers 
     1.0000   1.0000   1.0000   1.0000   1.0000   1.0000   1.0000   1.0000
     1.0000   1.0000   1.0000   1.0000   1.0000   1.0000   1.0000   1.0000

          k = 0.0000 0.1443-0.0881 (  3779 PWs)   bands (ev):

   -66.6712 -66.6659 -33.6954 -33.6480 -33.6434 -33.6415 -33.6323 -33.6295
   -11.2505 -10.4081   1.7594   3.5542   3.7966   3.8521   4.3461   4.8408

     occupation numbers 
     1.0000   1.0000   1.0000   1.0000   1.0000   1.0000   1.0000   1.0000
     1.0000   1.0000   1.0000   1.0000   1.0000   1.0000   1.0000   1.0000

          k =-0.0000 0.2887 0.0000 (  3804 PWs)   bands (ev):

   -66.6704 -66.6659 -33.6913 -33.6519 -33.6501 -33.6449 -33.6412 -33.6300
   -11.0721 -10.3396   2.0909   2.6722   3.3526   3.5736   4.3870   4.7156

     occupation numbers 
     1.0000   1.0000   1.0000   1.0000   1.0000   1.0000   1.0000   1.0000
     1.0000   1.0000   1.0000   1.0000   1.0000   1.0000   1.0000   1.0000

          k =-0.0000 0.2887 0.0881 (  3803 PWs)   bands (ev):

   -66.6702 -66.6660 -33.6905 -33.6542 -33.6505 -33.6443 -33.6393 -33.6305
   -11.0441 -10.3671   2.0407   2.7325   3.3314   3.6013   4.3522   4.6992

     occupation numbers 
     1.0000   1.0000   1.0000   1.0000   1.0000   1.0000   1.0000   1.0000
     1.0000   1.0000   1.0000   1.0000   1.0000   1.0000   1.0000   1.0000

          k =-0.0000 0.2887 0.1763 (  3789 PWs)   bands (ev):

   -66.6697 -66.6665 -33.6880 -33.6616 -33.6476 -33.6427 -33.6376 -33.6321
   -10.9645 -10.4459   1.9927   2.6722   3.4565   3.6814   4.2551   4.6140

     occupation numbers 
     1.0000   1.0000   1.0000   1.0000   1.0000   1.0000   1.0000   1.0000
     1.0000   1.0000   1.0000   1.0000   1.0000   1.0000   1.0000   1.0000

          k =-0.0000 0.2887 0.2644 (  3787 PWs)   bands (ev):

   -66.6690 -66.6672 -33.6836 -33.6697 -33.6438 -33.6403 -33.6380 -33.6346
   -10.8452 -10.5643   2.0391   2.4344   3.7731   3.8049   4.1148   4.4183

     occupation numbers 
     1.0000   1.0000   1.0000   1.0000   1.0000   1.0000   1.0000   1.0000
     1.0000   1.0000   1.0000   1.0000   1.0000   1.0000   1.0000   1.0000

          k = 0.0000 0.2887-0.3525 (  3794 PWs)   bands (ev):

   -66.6681 -66.6681 -33.6773 -33.6773 -33.6403 -33.6403 -33.6374 -33.6374
   -10.7046 -10.7046   2.1957   2.1957   3.9563   3.9564   4.1218   4.1218

     occupation numbers 
     1.0000   1.0000   1.0000   1.0000   1.0000   1.0000   1.0000   1.0000
     1.0000   1.0000   1.0000   1.0000   1.0000   1.0000   1.0000   1.0000

          k = 0.0000 0.2887-0.2644 (  3787 PWs)   bands (ev):

   -66.6690 -66.6672 -33.6836 -33.6697 -33.6438 -33.6403 -33.6380 -33.6346
   -10.8452 -10.5643   2.0391   2.4344   3.7731   3.8049   4.1148   4.4183

     occupation numbers 
     1.0000   1.0000   1.0000   1.0000   1.0000   1.0000   1.0000   1.0000
     1.0000   1.0000   1.0000   1.0000   1.0000   1.0000   1.0000   1.0000

          k = 0.0000 0.2887-0.1763 (  3789 PWs)   bands (ev):

   -66.6697 -66.6665 -33.6880 -33.6616 -33.6476 -33.6427 -33.6376 -33.6321
   -10.9645 -10.4459   1.9927   2.6722   3.4565   3.6814   4.2551   4.6140

     occupation numbers 
     1.0000   1.0000   1.0000   1.0000   1.0000   1.0000   1.0000   1.0000
     1.0000   1.0000   1.0000   1.0000   1.0000   1.0000   1.0000   1.0000

          k = 0.0000 0.2887-0.0881 (  3803 PWs)   bands (ev):

   -66.6702 -66.6660 -33.6905 -33.6542 -33.6505 -33.6443 -33.6393 -33.6305
   -11.0441 -10.3671   2.0407   2.7325   3.3314   3.6013   4.3522   4.6992

     occupation numbers 
     1.0000   1.0000   1.0000   1.0000   1.0000   1.0000   1.0000   1.0000
     1.0000   1.0000   1.0000   1.0000   1.0000   1.0000   1.0000   1.0000

          k =-0.0000 0.4330 0.0000 (  3792 PWs)   bands (ev):

   -66.6691 -66.6662 -33.6839 -33.6598 -33.6572 -33.6492 -33.6477 -33.6310
   -10.8177 -10.3427   1.9333   2.6451   2.9311   3.4047   4.3241   4.3763

     occupation numbers 
     1.0000   1.0000   1.0000   1.0000   1.0000   1.0000   1.0000   1.0000
     1.0000   1.0000   1.0000   1.0000   1.0000   1.0000   1.0000   1.0000

          k =-0.0000 0.4330 0.0881 (  3799 PWs)   bands (ev):

   -66.6690 -66.6663 -33.6847 -33.6625 -33.6570 -33.6470 -33.6459 -33.6317
   -10.7978 -10.3586   1.8378   2.5605   3.0544   3.4370   4.3336   4.3926

     occupation numbers 
     1.0000   1.0000   1.0000   1.0000   1.0000   1.0000   1.0000   1.0000
     1.0000   1.0000   1.0000   1.0000   1.0000   1.0000   1.0000   1.0000

          k =-0.0000 0.4330 0.1763 (  3799 PWs)   bands (ev):

   -66.6687 -66.6666 -33.6859 -33.6700 -33.6521 -33.6452 -33.6424 -33.6335
   -10.7419 -10.4051   1.7025   2.2775   3.4117   3.5307   4.2150   4.4761

     occupation numbers 
     1.0000   1.0000   1.0000   1.0000   1.0000   1.0000   1.0000   1.0000
     1.0000   1.0000   1.0000   1.0000   1.0000   1.0000   1.0000   1.0000

          k =-0.0000 0.4330 0.2644 (  3798 PWs)   bands (ev):

   -66.6682 -66.6671 -33.6854 -33.6771 -33.6468 -33.6425 -33.6413 -33.6362
   -10.6601 -10.4775   1.6623   1.9746   3.6759   3.8247   4.0452   4.4202

     occupation numbers 
     1.0000   1.0000   1.0000   1.0000   1.0000   1.0000   1.0000   1.0000
     1.0000   1.0000   1.0000   1.0000   1.0000   1.0000   1.0000   1.0000

          k = 0.0000 0.4330-0.3525 (  3810 PWs)   bands (ev):

   -66.6677 -66.6677 -33.6824 -33.6824 -33.6429 -33.6429 -33.6394 -33.6394
   -10.5669 -10.5668   1.7551   1.7551   3.8554   3.8555   4.1873   4.1873

     occupation numbers 
     1.0000   1.0000   1.0000   1.0000   1.0000   1.0000   1.0000   1.0000
     1.0000   1.0000   1.0000   1.0000   1.0000   1.0000   1.0000   1.0000

          k = 0.0000 0.4330-0.2644 (  3798 PWs)   bands (ev):

   -66.6682 -66.6671 -33.6854 -33.6771 -33.6468 -33.6425 -33.6413 -33.6362
   -10.6601 -10.4775   1.6623   1.9746   3.6759   3.8247   4.0452   4.4202

     occupation numbers 
     1.0000   1.0000   1.0000   1.0000   1.0000   1.0000   1.0000   1.0000
     1.0000   1.0000   1.0000   1.0000   1.0000   1.0000   1.0000   1.0000

          k = 0.0000 0.4330-0.1763 (  3799 PWs)   bands (ev):

   -66.6687 -66.6666 -33.6859 -33.6700 -33.6521 -33.6452 -33.6424 -33.6335
   -10.7419 -10.4051   1.7025   2.2775   3.4117   3.5307   4.2150   4.4761

     occupation numbers 
     1.0000   1.0000   1.0000   1.0000   1.0000   1.0000   1.0000   1.0000
     1.0000   1.0000   1.0000   1.0000   1.0000   1.0000   1.0000   1.0000

          k =-0.0000 0.4330-0.0881 (  3799 PWs)   bands (ev):

   -66.6690 -66.6663 -33.6847 -33.6625 -33.6570 -33.6470 -33.6459 -33.6317
   -10.7978 -10.3586   1.8378   2.5605   3.0544   3.4370   4.3336   4.3926

     occupation numbers 
     1.0000   1.0000   1.0000   1.0000   1.0000   1.0000   1.0000   1.0000
     1.0000   1.0000   1.0000   1.0000   1.0000   1.0000   1.0000   1.0000

          k = 0.0000-0.5774-0.0000 (  3802 PWs)   bands (ev):

   -66.6685 -66.6665 -33.6795 -33.6627 -33.6618 -33.6525 -33.6488 -33.6315
   -10.6784 -10.3756   1.6653   2.7457   3.0284   3.3407   4.0308   4.3675

     occupation numbers 
     1.0000   1.0000   1.0000   1.0000   1.0000   1.0000   1.0000   1.0000
     1.0000   1.0000   1.0000   1.0000   1.0000   1.0000   1.0000   1.0000

          k = 0.0000-0.5774 0.0881 (  3802 PWs)   bands (ev):

   -66.6684 -66.6665 -33.6817 -33.6666 -33.6595 -33.6488 -33.6481 -33.6322
   -10.6643 -10.3842   1.6026   2.5505   3.1710   3.3746   4.1694   4.3220

     occupation numbers 
     1.0000   1.0000   1.0000   1.0000   1.0000   1.0000   1.0000   1.0000
     1.0000   1.0000   1.0000   1.0000   1.0000   1.0000   1.0000   1.0000

          k =-0.0000-0.5774 0.1763 (  3800 PWs)   bands (ev):

   -66.6682 -66.6668 -33.6850 -33.6740 -33.6533 -33.6463 -33.6445 -33.6340
   -10.6251 -10.4102   1.5016   2.1726   3.4729   3.5052   4.1957   4.3647

     occupation numbers 
     1.0000   1.0000   1.0000   1.0000   1.0000   1.0000   1.0000   1.0000
     1.0000   1.0000   1.0000   1.0000   1.0000   1.0000   1.0000   1.0000

          k =-0.0000-0.5774 0.2644 (  3806 PWs)   bands (ev):

   -66.6679 -66.6671 -33.6863 -33.6805 -33.6475 -33.6435 -33.6426 -33.6368
   -10.5694 -10.4528   1.4764   1.8214   3.6255   3.8907   4.0154   4.3964

     occupation numbers 
     1.0000   1.0000   1.0000   1.0000   1.0000   1.0000   1.0000   1.0000
     1.0000   1.0000   1.0000   1.0000   1.0000   1.0000   1.0000   1.0000

          k = 0.0000-0.5774-0.3525 (  3792 PWs)   bands (ev):

   -66.6675 -66.6675 -33.6848 -33.6848 -33.6437 -33.6437 -33.6401 -33.6401
   -10.5084 -10.5084   1.5800   1.5800   3.8148   3.8148   4.2192   4.2193

     occupation numbers 
     1.0000   1.0000   1.0000   1.0000   1.0000   1.0000   1.0000   1.0000
     1.0000   1.0000   1.0000   1.0000   1.0000   1.0000   1.0000   1.0000

          k = 0.1250 0.0722-0.0000 (  3785 PWs)   bands (ev):

   -66.6714 -66.6657 -33.6971 -33.6454 -33.6440 -33.6420 -33.6324 -33.6290
   -11.2837 -10.3719   1.6955   3.5344   3.7756   3.9235   4.3705   4.9605

     occupation numbers 
     1.0000   1.0000   1.0000   1.0000   1.0000   1.0000   1.0000   1.0000
     1.0000   1.0000   1.0000   1.0000   1.0000   1.0000   1.0000   1.0000

          k = 0.1250 0.0722 0.0881 (  3779 PWs)   bands (ev):

   -66.6712 -66.6659 -33.6954 -33.6480 -33.6434 -33.6415 -33.6323 -33.6295
   -11.2505 -10.4081   1.7594   3.5542   3.7966   3.8521   4.3461   4.8408

     occupation numbers 
     1.0000   1.0000   1.0000   1.0000   1.0000   1.0000   1.0000   1.0000
     1.0000   1.0000   1.0000   1.0000   1.0000   1.0000   1.0000   1.0000

          k = 0.1250 0.0722 0.1763 (  3793 PWs)   bands (ev):

   -66.6706 -66.6666 -33.6903 -33.6546 -33.6417 -33.6401 -33.6327 -33.6309
   -11.1552 -10.5106   1.9492   3.4705   3.7735   3.8570   4.2772   4.5832

     occupation numbers 
     1.0000   1.0000   1.0000   1.0000   1.0000   1.0000   1.0000   1.0000
     1.0000   1.0000   1.0000   1.0000   1.0000   1.0000   1.0000   1.0000

          k = 0.1250 0.0722 0.2644 (  3784 PWs)   bands (ev):

   -66.6696 -66.6675 -33.6826 -33.6634 -33.6393 -33.6380 -33.6342 -33.6330
   -11.0109 -10.6621   2.2563   3.0992   3.8983   3.9493   4.1766   4.3226

     occupation numbers 
     1.0000   1.0000   1.0000   1.0000   1.0000   1.0000   1.0000   1.0000
     1.0000   1.0000   1.0000   1.0000   1.0000   1.0000   1.0000   1.0000

          k = 0.1250 0.0722-0.3525 (  3776 PWs)   bands (ev):

   -66.6686 -66.6686 -33.6732 -33.6732 -33.6366 -33.6365 -33.6355 -33.6355
   -10.8380 -10.8380   2.6572   2.6572   4.0612   4.0612   4.0929   4.0929

     occupation numbers 
     1.0000   1.0000   1.0000   1.0000   1.0000   1.0000   1.0000   1.0000
     1.0000   1.0000   1.0000   1.0000   1.0000   1.0000   1.0000   1.0000

          k = 0.1250 0.0722-0.2644 (  3784 PWs)   bands (ev):

   -66.6696 -66.6675 -33.6826 -33.6635 -33.6393 -33.6380 -33.6342 -33.6330
   -11.0109 -10.6621   2.2563   3.0992   3.8983   3.9493   4.1766   4.3226

     occupation numbers 
     1.0000   1.0000   1.0000   1.0000   1.0000   1.0000   1.0000   1.0000
     1.0000   1.0000   1.0000   1.0000   1.0000   1.0000   1.0000   1.0000

          k = 0.1250 0.0722-0.1763 (  3793 PWs)   bands (ev):

   -66.6706 -66.6666 -33.6903 -33.6546 -33.6417 -33.6401 -33.6327 -33.6309
   -11.1552 -10.5106   1.9492   3.4705   3.7735   3.8570   4.2772   4.5832

     occupation numbers 
     1.0000   1.0000   1.0000   1.0000   1.0000   1.0000   1.0000   1.0000
     1.0000   1.0000   1.0000   1.0000   1.0000   1.0000   1.0000   1.0000

          k = 0.1250 0.0722-0.0881 (  3779 PWs)   bands (ev):

   -66.6712 -66.6659 -33.6954 -33.6480 -33.6434 -33.6415 -33.6323 -33.6295
   -11.2505 -10.4081   1.7594   3.5542   3.7966   3.8521   4.3461   4.8408

     occupation numbers 
     1.0000   1.0000   1.0000   1.0000   1.0000   1.0000   1.0000   1.0000
     1.0000   1.0000   1.0000   1.0000   1.0000   1.0000   1.0000   1.0000

          k = 0.1250 0.2165-0.0000 (  3809 PWs)   bands (ev):

   -66.6707 -66.6658 -33.6931 -33.6488 -33.6486 -33.6453 -33.6377 -33.6302
   -11.1373 -10.3466   1.9659   3.0351   3.2333   3.8313   4.3048   4.7991

     occupation numbers 
     1.0000   1.0000   1.0000   1.0000   1.0000   1.0000   1.0000   1.0000
     1.0000   1.0000   1.0000   1.0000   1.0000   1.0000   1.0000   1.0000

          k = 0.1250 0.2165 0.0881 (  3802 PWs)   bands (ev):

   -66.6705 -66.6660 -33.6920 -33.6521 -33.6478 -33.6445 -33.6366 -33.6307
   -11.1076 -10.3770   1.9726   2.9979   3.3205   3.7892   4.2714   4.7673

     occupation numbers 
     1.0000   1.0000   1.0000   1.0000   1.0000   1.0000   1.0000   1.0000
     1.0000   1.0000   1.0000   1.0000   1.0000   1.0000   1.0000   1.0000

          k = 0.1250 0.2165 0.1763 (  3796 PWs)   bands (ev):

   -66.6700 -66.6665 -33.6886 -33.6593 -33.6454 -33.6429 -33.6356 -33.6323
   -11.0228 -10.4633   2.0179   2.8567   3.5472   3.7427   4.1793   4.6554

     occupation numbers 
     1.0000   1.0000   1.0000   1.0000   1.0000   1.0000   1.0000   1.0000
     1.0000   1.0000   1.0000   1.0000   1.0000   1.0000   1.0000   1.0000

          k = 0.1250 0.2165 0.2644 (  3789 PWs)   bands (ev):

   -66.6692 -66.6673 -33.6831 -33.6677 -33.6421 -33.6406 -33.6361 -33.6346
   -10.8953 -10.5924   2.1402   2.6123   3.7830   3.8399   4.0559   4.4516

     occupation numbers 
     1.0000   1.0000   1.0000   1.0000   1.0000   1.0000   1.0000   1.0000
     1.0000   1.0000   1.0000   1.0000   1.0000   1.0000   1.0000   1.0000

          k = 0.1250 0.2165-0.3525 (  3788 PWs)   bands (ev):

   -66.6682 -66.6682 -33.6759 -33.6759 -33.6393 -33.6393 -33.6369 -33.6369
   -10.7442 -10.7442   2.3487   2.3487   3.8908   3.8909   4.1782   4.1782

     occupation numbers 
     1.0000   1.0000   1.0000   1.0000   1.0000   1.0000   1.0000   1.0000
     1.0000   1.0000   1.0000   1.0000   1.0000   1.0000   1.0000   1.0000

          k = 0.1250 0.2165-0.2644 (  3789 PWs)   bands (ev):

   -66.6692 -66.6673 -33.6831 -33.6677 -33.6421 -33.6406 -33.6361 -33.6346
   -10.8953 -10.5924   2.1402   2.6123   3.7830   3.8399   4.0559   4.4516

     occupation numbers 
     1.0000   1.0000   1.0000   1.0000   1.0000   1.0000   1.0000   1.0000
     1.0000   1.0000   1.0000   1.0000   1.0000   1.0000   1.0000   1.0000

          k = 0.1250 0.2165-0.1763 (  3796 PWs)   bands (ev):

   -66.6700 -66.6665 -33.6886 -33.6593 -33.6454 -33.6428 -33.6356 -33.6323
   -11.0228 -10.4633   2.0179   2.8567   3.5472   3.7427   4.1793   4.6554

     occupation numbers 
     1.0000   1.0000   1.0000   1.0000   1.0000   1.0000   1.0000   1.0000
     1.0000   1.0000   1.0000   1.0000   1.0000   1.0000   1.0000   1.0000

          k = 0.1250 0.2165-0.0881 (  3802 PWs)   bands (ev):

   -66.6705 -66.6660 -33.6920 -33.6521 -33.6478 -33.6445 -33.6366 -33.6307
   -11.1076 -10.3770   1.9726   2.9979   3.3205   3.7892   4.2714   4.7673

     occupation numbers 
     1.0000   1.0000   1.0000   1.0000   1.0000   1.0000   1.0000   1.0000
     1.0000   1.0000   1.0000   1.0000   1.0000   1.0000   1.0000   1.0000

          k = 0.1250 0.3608-0.0000 (  3798 PWs)   bands (ev):

   -66.6695 -66.6660 -33.6863 -33.6559 -33.6546 -33.6502 -33.6443 -33.6320
   -10.9013 -10.3340   2.2606   2.4508   2.9394   3.5282   4.2265   4.4806

     occupation numbers 
     1.0000   1.0000   1.0000   1.0000   1.0000   1.0000   1.0000   1.0000
     1.0000   1.0000   1.0000   1.0000   1.0000   1.0000   1.0000   1.0000

          k = 0.1250 0.3608 0.0881 (  3798 PWs)   bands (ev):

   -66.6694 -66.6662 -33.6865 -33.6596 -33.6537 -33.6486 -33.6422 -33.6326
   -10.8785 -10.3540   2.1267   2.4311   3.1258   3.4815   4.1746   4.5369

     occupation numbers 
     1.0000   1.0000   1.0000   1.0000   1.0000   1.0000   1.0000   1.0000
     1.0000   1.0000   1.0000   1.0000   1.0000   1.0000   1.0000   1.0000

          k = 0.1250 0.3608 0.1763 (  3799 PWs)   bands (ev):

   -66.6690 -66.6666 -33.6862 -33.6671 -33.6499 -33.6464 -33.6395 -33.6343
   -10.8139 -10.4119   1.9612   2.3100   3.3761   3.5667   4.0430   4.5936

     occupation numbers 
     1.0000   1.0000   1.0000   1.0000   1.0000   1.0000   1.0000   1.0000
     1.0000   1.0000   1.0000   1.0000   1.0000   1.0000   1.0000   1.0000

          k = 0.1250 0.3608 0.2644 (  3809 PWs)   bands (ev):

   -66.6685 -66.6671 -33.6844 -33.6744 -33.6456 -33.6436 -33.6389 -33.6366
   -10.7185 -10.5006   1.8999   2.1221   3.4725   3.8052   3.9946   4.5262

     occupation numbers 
     1.0000   1.0000   1.0000   1.0000   1.0000   1.0000   1.0000   1.0000
     1.0000   1.0000   1.0000   1.0000   1.0000   1.0000   1.0000   1.0000

          k = 0.1250 0.3608-0.3525 (  3804 PWs)   bands (ev):

   -66.6678 -66.6678 -33.6804 -33.6804 -33.6426 -33.6426 -33.6388 -33.6388
   -10.6082 -10.6081   1.9622   1.9622   3.6339   3.6339   4.3073   4.3073

     occupation numbers 
     1.0000   1.0000   1.0000   1.0000   1.0000   1.0000   1.0000   1.0000
     1.0000   1.0000   1.0000   1.0000   1.0000   1.0000   1.0000   1.0000

          k = 0.1250 0.3608-0.2644 (  3809 PWs)   bands (ev):

   -66.6685 -66.6671 -33.6844 -33.6744 -33.6456 -33.6436 -33.6389 -33.6366
   -10.7185 -10.5006   1.8999   2.1221   3.4725   3.8052   3.9946   4.5262

     occupation numbers 
     1.0000   1.0000   1.0000   1.0000   1.0000   1.0000   1.0000   1.0000
     1.0000   1.0000   1.0000   1.0000   1.0000   1.0000   1.0000   1.0000

          k = 0.1250 0.3608-0.1763 (  3799 PWs)   bands (ev):

   -66.6690 -66.6666 -33.6862 -33.6671 -33.6499 -33.6464 -33.6395 -33.6343
   -10.8139 -10.4119   1.9612   2.3100   3.3761   3.5667   4.0430   4.5936

     occupation numbers 
     1.0000   1.0000   1.0000   1.0000   1.0000   1.0000   1.0000   1.0000
     1.0000   1.0000   1.0000   1.0000   1.0000   1.0000   1.0000   1.0000

          k = 0.1250 0.3608-0.0881 (  3798 PWs)   bands (ev):

   -66.6694 -66.6662 -33.6865 -33.6596 -33.6537 -33.6486 -33.6422 -33.6326
   -10.8785 -10.3540   2.1267   2.4311   3.1258   3.4815   4.1746   4.5369

     occupation numbers 
     1.0000   1.0000   1.0000   1.0000   1.0000   1.0000   1.0000   1.0000
     1.0000   1.0000   1.0000   1.0000   1.0000   1.0000   1.0000   1.0000

          k = 0.1250 0.5052-0.0000 (  3811 PWs)   bands (ev):

   -66.6685 -66.6665 -33.6794 -33.6619 -33.6606 -33.6524 -33.6495 -33.6332
   -10.6848 -10.3703   1.7997   2.7901   3.0068   3.2363   4.0740   4.1834

     occupation numbers 
     1.0000   1.0000   1.0000   1.0000   1.0000   1.0000   1.0000   1.0000
     1.0000   1.0000   1.0000   1.0000   1.0000   1.0000   1.0000   1.0000

          k = 0.1250 0.5052 0.0881 (  3805 PWs)   bands (ev):

   -66.6684 -66.6665 -33.6813 -33.6663 -33.6580 -33.6501 -33.6474 -33.6338
   -10.6703 -10.3795   1.7516   2.5740   3.0538   3.3851   4.0824   4.2506

     occupation numbers 
     1.0000   1.0000   1.0000   1.0000   1.0000   1.0000   1.0000   1.0000
     1.0000   1.0000   1.0000   1.0000   1.0000   1.0000   1.0000   1.0000

          k = 0.1250 0.5052 0.1763 (  3810 PWs)   bands (ev):

   -66.6682 -66.6668 -33.6843 -33.6735 -33.6529 -33.6472 -33.6436 -33.6356
   -10.6301 -10.4069   1.6630   2.2361   3.0915   3.7401   3.9362   4.4456

     occupation numbers 
     1.0000   1.0000   1.0000   1.0000   1.0000   1.0000   1.0000   1.0000
     1.0000   1.0000   1.0000   1.0000   1.0000   1.0000   1.0000   1.0000

          k = 0.1250 0.5052 0.2644 (  3812 PWs)   bands (ev):

   -66.6679 -66.6671 -33.6855 -33.6799 -33.6483 -33.6438 -33.6419 -33.6378
   -10.5726 -10.4515   1.6307   1.9245   3.2350   3.6967   4.1203   4.5161

     occupation numbers 
     1.0000   1.0000   1.0000   1.0000   1.0000   1.0000   1.0000   1.0000
     1.0000   1.0000   1.0000   1.0000   1.0000   1.0000   1.0000   1.0000

          k = 0.1250 0.5052-0.3525 (  3816 PWs)   bands (ev):

   -66.6675 -66.6675 -33.6841 -33.6841 -33.6447 -33.6447 -33.6399 -33.6399
   -10.5094 -10.5094   1.7135   1.7136   3.4524   3.4524   4.3973   4.3973

     occupation numbers 
     1.0000   1.0000   1.0000   1.0000   1.0000   1.0000   1.0000   1.0000
     1.0000   1.0000   1.0000   1.0000   1.0000   1.0000   1.0000   1.0000

          k = 0.1250 0.5052-0.2644 (  3812 PWs)   bands (ev):

   -66.6679 -66.6671 -33.6855 -33.6799 -33.6483 -33.6438 -33.6419 -33.6378
   -10.5726 -10.4515   1.6307   1.9245   3.2350   3.6967   4.1203   4.5161

     occupation numbers 
     1.0000   1.0000   1.0000   1.0000   1.0000   1.0000   1.0000   1.0000
     1.0000   1.0000   1.0000   1.0000   1.0000   1.0000   1.0000   1.0000

          k = 0.1250 0.5052-0.1763 (  3810 PWs)   bands (ev):

   -66.6682 -66.6668 -33.6843 -33.6735 -33.6529 -33.6472 -33.6436 -33.6356
   -10.6301 -10.4069   1.6630   2.2361   3.0915   3.7401   3.9362   4.4456

     occupation numbers 
     1.0000   1.0000   1.0000   1.0000   1.0000   1.0000   1.0000   1.0000
     1.0000   1.0000   1.0000   1.0000   1.0000   1.0000   1.0000   1.0000

          k = 0.1250 0.5052-0.0881 (  3805 PWs)   bands (ev):

   -66.6684 -66.6665 -33.6813 -33.6663 -33.6580 -33.6501 -33.6474 -33.6338
   -10.6703 -10.3795   1.7516   2.5740   3.0538   3.3851   4.0824   4.2506

     occupation numbers 
     1.0000   1.0000   1.0000   1.0000   1.0000   1.0000   1.0000   1.0000
     1.0000   1.0000   1.0000   1.0000   1.0000   1.0000   1.0000   1.0000

          k = 0.1250-0.5052-0.0000 (  3811 PWs)   bands (ev):

   -66.6685 -66.6665 -33.6794 -33.6619 -33.6606 -33.6524 -33.6495 -33.6332
   -10.6848 -10.3703   1.7997   2.7901   3.0068   3.2363   4.0740   4.1834

     occupation numbers 
     1.0000   1.0000   1.0000   1.0000   1.0000   1.0000   1.0000   1.0000
     1.0000   1.0000   1.0000   1.0000   1.0000   1.0000   1.0000   1.0000

          k = 0.1250-0.5052 0.0881 (  3805 PWs)   bands (ev):

   -66.6684 -66.6665 -33.6813 -33.6663 -33.6580 -33.6501 -33.6474 -33.6338
   -10.6703 -10.3795   1.7516   2.5740   3.0538   3.3851   4.0824   4.2506

     occupation numbers 
     1.0000   1.0000   1.0000   1.0000   1.0000   1.0000   1.0000   1.0000
     1.0000   1.0000   1.0000   1.0000   1.0000   1.0000   1.0000   1.0000

          k = 0.1250-0.5052 0.1763 (  3810 PWs)   bands (ev):

   -66.6682 -66.6668 -33.6843 -33.6735 -33.6529 -33.6472 -33.6436 -33.6356
   -10.6301 -10.4069   1.6630   2.2361   3.0915   3.7401   3.9362   4.4456

     occupation numbers 
     1.0000   1.0000   1.0000   1.0000   1.0000   1.0000   1.0000   1.0000
     1.0000   1.0000   1.0000   1.0000   1.0000   1.0000   1.0000   1.0000

          k = 0.1250-0.5052 0.2644 (  3812 PWs)   bands (ev):

   -66.6679 -66.6671 -33.6855 -33.6799 -33.6483 -33.6438 -33.6419 -33.6378
   -10.5726 -10.4515   1.6307   1.9245   3.2350   3.6967   4.1203   4.5161

     occupation numbers 
     1.0000   1.0000   1.0000   1.0000   1.0000   1.0000   1.0000   1.0000
     1.0000   1.0000   1.0000   1.0000   1.0000   1.0000   1.0000   1.0000

          k = 0.1250-0.5052-0.3525 (  3816 PWs)   bands (ev):

   -66.6675 -66.6675 -33.6841 -33.6841 -33.6447 -33.6447 -33.6399 -33.6399
   -10.5094 -10.5094   1.7135   1.7136   3.4524   3.4524   4.3973   4.3973

     occupation numbers 
     1.0000   1.0000   1.0000   1.0000   1.0000   1.0000   1.0000   1.0000
     1.0000   1.0000   1.0000   1.0000   1.0000   1.0000   1.0000   1.0000

          k = 0.1250-0.5052-0.2644 (  3812 PWs)   bands (ev):

   -66.6679 -66.6671 -33.6855 -33.6799 -33.6483 -33.6438 -33.6419 -33.6378
   -10.5726 -10.4515   1.6307   1.9245   3.2350   3.6967   4.1203   4.5161

     occupation numbers 
     1.0000   1.0000   1.0000   1.0000   1.0000   1.0000   1.0000   1.0000
     1.0000   1.0000   1.0000   1.0000   1.0000   1.0000   1.0000   1.0000

          k = 0.1250-0.5052-0.1763 (  3810 PWs)   bands (ev):

   -66.6682 -66.6668 -33.6843 -33.6735 -33.6529 -33.6472 -33.6436 -33.6356
   -10.6301 -10.4069   1.6630   2.2361   3.0915   3.7401   3.9362   4.4456

     occupation numbers 
     1.0000   1.0000   1.0000   1.0000   1.0000   1.0000   1.0000   1.0000
     1.0000   1.0000   1.0000   1.0000   1.0000   1.0000   1.0000   1.0000

          k = 0.1250-0.5052-0.0881 (  3805 PWs)   bands (ev):

   -66.6684 -66.6665 -33.6813 -33.6663 -33.6580 -33.6501 -33.6474 -33.6338
   -10.6703 -10.3795   1.7516   2.5740   3.0538   3.3851   4.0824   4.2506

     occupation numbers 
     1.0000   1.0000   1.0000   1.0000   1.0000   1.0000   1.0000   1.0000
     1.0000   1.0000   1.0000   1.0000   1.0000   1.0000   1.0000   1.0000

          k = 0.1250-0.3608-0.0000 (  3798 PWs)   bands (ev):

   -66.6695 -66.6660 -33.6863 -33.6559 -33.6546 -33.6502 -33.6443 -33.6320
   -10.9013 -10.3340   2.2606   2.4508   2.9394   3.5282   4.2265   4.4806

     occupation numbers 
     1.0000   1.0000   1.0000   1.0000   1.0000   1.0000   1.0000   1.0000
     1.0000   1.0000   1.0000   1.0000   1.0000   1.0000   1.0000   1.0000

          k = 0.1250-0.3608 0.0881 (  3798 PWs)   bands (ev):

   -66.6694 -66.6662 -33.6865 -33.6596 -33.6537 -33.6486 -33.6422 -33.6326
   -10.8785 -10.3540   2.1267   2.4311   3.1258   3.4815   4.1746   4.5369

     occupation numbers 
     1.0000   1.0000   1.0000   1.0000   1.0000   1.0000   1.0000   1.0000
     1.0000   1.0000   1.0000   1.0000   1.0000   1.0000   1.0000   1.0000

          k = 0.1250-0.3608 0.1763 (  3799 PWs)   bands (ev):

   -66.6690 -66.6666 -33.6862 -33.6671 -33.6499 -33.6464 -33.6395 -33.6343
   -10.8139 -10.4119   1.9612   2.3100   3.3761   3.5667   4.0430   4.5936

     occupation numbers 
     1.0000   1.0000   1.0000   1.0000   1.0000   1.0000   1.0000   1.0000
     1.0000   1.0000   1.0000   1.0000   1.0000   1.0000   1.0000   1.0000

          k = 0.1250-0.3608 0.2644 (  3809 PWs)   bands (ev):

   -66.6685 -66.6671 -33.6844 -33.6744 -33.6456 -33.6436 -33.6389 -33.6366
   -10.7185 -10.5006   1.8999   2.1221   3.4725   3.8052   3.9946   4.5262

     occupation numbers 
     1.0000   1.0000   1.0000   1.0000   1.0000   1.0000   1.0000   1.0000
     1.0000   1.0000   1.0000   1.0000   1.0000   1.0000   1.0000   1.0000

          k = 0.1250-0.3608-0.3525 (  3804 PWs)   bands (ev):

   -66.6678 -66.6678 -33.6804 -33.6804 -33.6426 -33.6426 -33.6388 -33.6388
   -10.6082 -10.6081   1.9622   1.9622   3.6339   3.6339   4.3073   4.3073

[...]
     1.0000   1.0000   1.0000   1.0000   1.0000   1.0000   1.0000   1.0000

          k =-0.5000-0.1443 0.0881 (  3805 PWs)   bands (ev):

   -66.6684 -66.6665 -33.6813 -33.6663 -33.6580 -33.6501 -33.6474 -33.6338
   -10.6703 -10.3795   1.7516   2.5740   3.0538   3.3851   4.0824   4.2506

     occupation numbers 
     1.0000   1.0000   1.0000   1.0000   1.0000   1.0000   1.0000   1.0000
     1.0000   1.0000   1.0000   1.0000   1.0000   1.0000   1.0000   1.0000

          k =-0.5000-0.1443 0.1763 (  3810 PWs)   bands (ev):

   -66.6682 -66.6668 -33.6843 -33.6735 -33.6529 -33.6472 -33.6436 -33.6356
   -10.6301 -10.4069   1.6630   2.2361   3.0915   3.7401   3.9362   4.4456

     occupation numbers 
     1.0000   1.0000   1.0000   1.0000   1.0000   1.0000   1.0000   1.0000
     1.0000   1.0000   1.0000   1.0000   1.0000   1.0000   1.0000   1.0000

          k =-0.5000-0.1443 0.2644 (  3812 PWs)   bands (ev):

   -66.6679 -66.6671 -33.6855 -33.6799 -33.6483 -33.6439 -33.6419 -33.6378
   -10.5726 -10.4515   1.6307   1.9245   3.2350   3.6967   4.1203   4.5161

     occupation numbers 
     1.0000   1.0000   1.0000   1.0000   1.0000   1.0000   1.0000   1.0000
     1.0000   1.0000   1.0000   1.0000   1.0000   1.0000   1.0000   1.0000

          k =-0.5000-0.1443-0.3525 (  3816 PWs)   bands (ev):

   -66.6675 -66.6675 -33.6841 -33.6841 -33.6447 -33.6447 -33.6399 -33.6399
   -10.5094 -10.5094   1.7135   1.7135   3.4524   3.4524   4.3973   4.3973

     occupation numbers 
     1.0000   1.0000   1.0000   1.0000   1.0000   1.0000   1.0000   1.0000
     1.0000   1.0000   1.0000   1.0000   1.0000   1.0000   1.0000   1.0000

          k =-0.5000-0.1443-0.2644 (  3812 PWs)   bands (ev):

   -66.6679 -66.6671 -33.6855 -33.6799 -33.6483 -33.6438 -33.6419 -33.6378
   -10.5726 -10.4515   1.6307   1.9245   3.2350   3.6967   4.1203   4.5161

     occupation numbers 
     1.0000   1.0000   1.0000   1.0000   1.0000   1.0000   1.0000   1.0000
     1.0000   1.0000   1.0000   1.0000   1.0000   1.0000   1.0000   1.0000

          k =-0.5000-0.1443-0.1763 (  3810 PWs)   bands (ev):

   -66.6682 -66.6668 -33.6843 -33.6735 -33.6529 -33.6472 -33.6436 -33.6356
   -10.6301 -10.4069   1.6630   2.2361   3.0915   3.7401   3.9362   4.4456

     occupation numbers 
     1.0000   1.0000   1.0000   1.0000   1.0000   1.0000   1.0000   1.0000
     1.0000   1.0000   1.0000   1.0000   1.0000   1.0000   1.0000   1.0000

          k =-0.5000-0.1443-0.0881 (  3805 PWs)   bands (ev):

   -66.6684 -66.6665 -33.6813 -33.6663 -33.6580 -33.6501 -33.6474 -33.6338
   -10.6703 -10.3795   1.7516   2.5740   3.0538   3.3851   4.0824   4.2506

     occupation numbers 
     1.0000   1.0000   1.0000   1.0000   1.0000   1.0000   1.0000   1.0000
     1.0000   1.0000   1.0000   1.0000   1.0000   1.0000   1.0000   1.0000

          k =-0.5000 0.0000 0.0000 (  3801 PWs)   bands (ev):

   -66.6685 -66.6665 -33.6793 -33.6615 -33.6563 -33.6563 -33.6483 -33.6352
   -10.6910 -10.3653   1.9911   2.6837   3.0118   3.2622   3.9324   4.1236

     occupation numbers 
     1.0000   1.0000   1.0000   1.0000   1.0000   1.0000   1.0000   1.0000
     1.0000   1.0000   1.0000   1.0000   1.0000   1.0000   1.0000   1.0000

          k =-0.5000 0.0000 0.0881 (  3809 PWs)   bands (ev):

   -66.6684 -66.6665 -33.6808 -33.6660 -33.6546 -33.6538 -33.6457 -33.6359
   -10.6762 -10.3750   2.0007   2.4049   3.1273   3.3412   3.8680   4.2656

     occupation numbers 
     1.0000   1.0000   1.0000   1.0000   1.0000   1.0000   1.0000   1.0000
     1.0000   1.0000   1.0000   1.0000   1.0000   1.0000   1.0000   1.0000

          k =-0.5000 0.0000 0.1763 (  3815 PWs)   bands (ev):

   -66.6682 -66.6668 -33.6835 -33.6731 -33.6521 -33.6489 -33.6418 -33.6378
   -10.6348 -10.4037   1.9985   2.1070   2.9540   3.6186   3.8558   4.4812

     occupation numbers 
     1.0000   1.0000   1.0000   1.0000   1.0000   1.0000   1.0000   1.0000
     1.0000   1.0000   1.0000   1.0000   1.0000   1.0000   1.0000   1.0000

          k =-0.5000 0.0000 0.2644 (  3808 PWs)   bands (ev):

   -66.6679 -66.6671 -33.6846 -33.6792 -33.6490 -33.6447 -33.6402 -33.6396
   -10.5757 -10.4503   1.9315   1.9413   2.9600   3.3922   4.2223   4.5764

     occupation numbers 
     1.0000   1.0000   1.0000   1.0000   1.0000   1.0000   1.0000   1.0000
     1.0000   1.0000   1.0000   1.0000   1.0000   1.0000   1.0000   1.0000

          k =-0.5000 0.0000-0.3525 (  3822 PWs)   bands (ev):

   -66.6675 -66.6675 -33.6833 -33.6833 -33.6456 -33.6456 -33.6398 -33.6398
   -10.5104 -10.5104   1.8886   1.8886   3.1378   3.1378   4.4874   4.4874

     occupation numbers 
     1.0000   1.0000   1.0000   1.0000   1.0000   1.0000   1.0000   1.0000
     1.0000   1.0000   1.0000   1.0000   1.0000   1.0000   1.0000   1.0000

          k =-0.5000 0.0000-0.2644 (  3808 PWs)   bands (ev):

   -66.6679 -66.6671 -33.6846 -33.6792 -33.6490 -33.6447 -33.6402 -33.6396
   -10.5757 -10.4503   1.9315   1.9413   2.9600   3.3922   4.2223   4.5764

     occupation numbers 
     1.0000   1.0000   1.0000   1.0000   1.0000   1.0000   1.0000   1.0000
     1.0000   1.0000   1.0000   1.0000   1.0000   1.0000   1.0000   1.0000

          k =-0.5000 0.0000-0.1763 (  3815 PWs)   bands (ev):

   -66.6682 -66.6668 -33.6835 -33.6731 -33.6521 -33.6489 -33.6418 -33.6378
   -10.6348 -10.4037   1.9985   2.1070   2.9540   3.6186   3.8558   4.4812

     occupation numbers 
     1.0000   1.0000   1.0000   1.0000   1.0000   1.0000   1.0000   1.0000
     1.0000   1.0000   1.0000   1.0000   1.0000   1.0000   1.0000   1.0000

          k =-0.5000 0.0000-0.0881 (  3809 PWs)   bands (ev):

   -66.6684 -66.6665 -33.6809 -33.6660 -33.6546 -33.6538 -33.6457 -33.6359
   -10.6762 -10.3750   2.0007   2.4049   3.1273   3.3412   3.8680   4.2656

     occupation numbers 
     1.0000   1.0000   1.0000   1.0000   1.0000   1.0000   1.0000   1.0000
     1.0000   1.0000   1.0000   1.0000   1.0000   1.0000   1.0000   1.0000

          k =-0.5000 0.1443 0.0000 (  3811 PWs)   bands (ev):

   -66.6685 -66.6665 -33.6794 -33.6619 -33.6606 -33.6524 -33.6495 -33.6332
   -10.6848 -10.3703   1.7997   2.7901   3.0068   3.2363   4.0739   4.1834

     occupation numbers 
     1.0000   1.0000   1.0000   1.0000   1.0000   1.0000   1.0000   1.0000
     1.0000   1.0000   1.0000   1.0000   1.0000   1.0000   1.0000   1.0000

          k =-0.5000 0.1443 0.0881 (  3805 PWs)   bands (ev):

   -66.6684 -66.6665 -33.6813 -33.6663 -33.6580 -33.6501 -33.6474 -33.6338
   -10.6703 -10.3795   1.7516   2.5740   3.0538   3.3851   4.0824   4.2506

     occupation numbers 
     1.0000   1.0000   1.0000   1.0000   1.0000   1.0000   1.0000   1.0000
     1.0000   1.0000   1.0000   1.0000   1.0000   1.0000   1.0000   1.0000

          k =-0.5000 0.1443 0.1763 (  3810 PWs)   bands (ev):

   -66.6682 -66.6668 -33.6843 -33.6735 -33.6529 -33.6472 -33.6436 -33.6356
   -10.6301 -10.4069   1.6630   2.2361   3.0915   3.7401   3.9362   4.4456

     occupation numbers 
     1.0000   1.0000   1.0000   1.0000   1.0000   1.0000   1.0000   1.0000
     1.0000   1.0000   1.0000   1.0000   1.0000   1.0000   1.0000   1.0000

          k =-0.5000 0.1443 0.2644 (  3812 PWs)   bands (ev):

   -66.6679 -66.6671 -33.6855 -33.6799 -33.6483 -33.6439 -33.6419 -33.6378
   -10.5726 -10.4515   1.6307   1.9245   3.2350   3.6967   4.1203   4.5161

     occupation numbers 
     1.0000   1.0000   1.0000   1.0000   1.0000   1.0000   1.0000   1.0000
     1.0000   1.0000   1.0000   1.0000   1.0000   1.0000   1.0000   1.0000

          k =-0.5000 0.1443-0.3525 (  3816 PWs)   bands (ev):

   -66.6675 -66.6675 -33.6841 -33.6841 -33.6447 -33.6447 -33.6399 -33.6399
   -10.5094 -10.5094   1.7135   1.7135   3.4524   3.4524   4.3973   4.3973

     occupation numbers 
     1.0000   1.0000   1.0000   1.0000   1.0000   1.0000   1.0000   1.0000
     1.0000   1.0000   1.0000   1.0000   1.0000   1.0000   1.0000   1.0000

          k =-0.5000 0.1443-0.2644 (  3812 PWs)   bands (ev):

   -66.6679 -66.6671 -33.6855 -33.6799 -33.6483 -33.6438 -33.6419 -33.6378
   -10.5726 -10.4515   1.6307   1.9245   3.2350   3.6967   4.1203   4.5161

     occupation numbers 
     1.0000   1.0000   1.0000   1.0000   1.0000   1.0000   1.0000   1.0000
     1.0000   1.0000   1.0000   1.0000   1.0000   1.0000   1.0000   1.0000

          k =-0.5000 0.1443-0.1763 (  3810 PWs)   bands (ev):

   -66.6682 -66.6668 -33.6843 -33.6735 -33.6529 -33.6472 -33.6436 -33.6356
   -10.6301 -10.4069   1.6630   2.2361   3.0915   3.7401   3.9362   4.4456

     occupation numbers 
     1.0000   1.0000   1.0000   1.0000   1.0000   1.0000   1.0000   1.0000
     1.0000   1.0000   1.0000   1.0000   1.0000   1.0000   1.0000   1.0000

          k =-0.5000 0.1443-0.0881 (  3805 PWs)   bands (ev):

   -66.6684 -66.6665 -33.6813 -33.6663 -33.6580 -33.6501 -33.6474 -33.6338
   -10.6703 -10.3795   1.7516   2.5740   3.0538   3.3851   4.0824   4.2506

     occupation numbers 
     1.0000   1.0000   1.0000   1.0000   1.0000   1.0000   1.0000   1.0000
     1.0000   1.0000   1.0000   1.0000   1.0000   1.0000   1.0000   1.0000

          k =-0.5000-0.8660 0.0000 (  3802 PWs)   bands (ev):

   -66.6685 -66.6665 -33.6795 -33.6627 -33.6618 -33.6525 -33.6488 -33.6315
   -10.6784 -10.3756   1.6653   2.7457   3.0284   3.3408   4.0308   4.3675

     occupation numbers 
     1.0000   1.0000   1.0000   1.0000   1.0000   1.0000   1.0000   1.0000
     1.0000   1.0000   1.0000   1.0000   1.0000   1.0000   1.0000   1.0000

          k =-0.5000-0.8660 0.0881 (  3802 PWs)   bands (ev):

   -66.6684 -66.6665 -33.6817 -33.6666 -33.6595 -33.6488 -33.6481 -33.6322
   -10.6643 -10.3842   1.6026   2.5505   3.1711   3.3746   4.1694   4.3220

     occupation numbers 
     1.0000   1.0000   1.0000   1.0000   1.0000   1.0000   1.0000   1.0000
     1.0000   1.0000   1.0000   1.0000   1.0000   1.0000   1.0000   1.0000

          k =-0.5000-0.8660 0.1763 (  3800 PWs)   bands (ev):

   -66.6682 -66.6668 -33.6850 -33.6740 -33.6533 -33.6463 -33.6445 -33.6340
   -10.6251 -10.4102   1.5016   2.1726   3.4729   3.5052   4.1957   4.3647

     occupation numbers 
     1.0000   1.0000   1.0000   1.0000   1.0000   1.0000   1.0000   1.0000
     1.0000   1.0000   1.0000   1.0000   1.0000   1.0000   1.0000   1.0000

          k =-0.5000-0.8660 0.2644 (  3806 PWs)   bands (ev):

   -66.6679 -66.6671 -33.6863 -33.6805 -33.6475 -33.6435 -33.6426 -33.6368
   -10.5694 -10.4528   1.4764   1.8214   3.6255   3.8907   4.0154   4.3964

     occupation numbers 
     1.0000   1.0000   1.0000   1.0000   1.0000   1.0000   1.0000   1.0000
     1.0000   1.0000   1.0000   1.0000   1.0000   1.0000   1.0000   1.0000

          k =-0.5000-0.8660-0.3525 (  3792 PWs)   bands (ev):

   -66.6675 -66.6675 -33.6848 -33.6848 -33.6437 -33.6437 -33.6401 -33.6401
   -10.5084 -10.5084   1.5800   1.5800   3.8148   3.8148   4.2192   4.2193

     occupation numbers 
     1.0000   1.0000   1.0000   1.0000   1.0000   1.0000   1.0000   1.0000
     1.0000   1.0000   1.0000   1.0000   1.0000   1.0000   1.0000   1.0000

     highest occupied level (ev):     5.0392

!    total energy              =    -315.17912721 Ry
     Harris-Foulkes estimate   =    -315.17912645 Ry
     estimated scf accuracy    <       0.00000090 Ry

     The total energy is the sum of the following terms:

     one-electron contribution =    -211.21205707 Ry
     hartree contribution      =     112.02689232 Ry
     xc contribution           =     -48.06648321 Ry
     ewald contribution        =    -167.92747925 Ry

     convergence has been achieved in   6 iterations

     Forces acting on atoms (cartesian axes, Ry/au):

     atom    1 type  2   force =    -0.00000037    0.00000064    0.00156729
     atom    2 type  2   force =     0.00000020    0.00000143    0.00156742
     atom    3 type  1   force =     0.00000061   -0.00000261   -0.00156921
     atom    4 type  1   force =    -0.00000045    0.00000054   -0.00156550
     The non-local contrib.  to forces
     atom    1 type  2   force =    -0.00000043   -0.00000154   -0.06851838
     atom    2 type  2   force =    -0.00000004    0.00000236   -0.06851596
     atom    3 type  1   force =    -0.00000003   -0.00000236   -0.13029278
     atom    4 type  1   force =     0.00000084   -0.00000115   -0.13029303
     The ionic contribution  to forces
     atom    1 type  2   force =    -0.00000596    0.00002125    0.85430226
     atom    2 type  2   force =     0.00000056    0.00000289    0.85430089
     atom    3 type  1   force =    -0.00000025   -0.00001528   -0.85430112
     atom    4 type  1   force =     0.00000564   -0.00000886   -0.85430202
     The local contribution  to forces
     atom    1 type  2   force =     0.00000625   -0.00002017   -0.78399779
     atom    2 type  2   force =     0.00000001   -0.00000325   -0.78399872
     atom    3 type  1   force =    -0.00000075    0.00001918    0.98246254
     atom    4 type  1   force =    -0.00000594    0.00000861    0.98245580
     The core correction contribution to forces
     atom    1 type  2   force =     0.00000000   -0.00000000    0.00014549
     atom    2 type  2   force =    -0.00000000   -0.00000002    0.00014547
     atom    3 type  1   force =     0.00000000    0.00000000    0.00000000
     atom    4 type  1   force =     0.00000000    0.00000000    0.00000000
     The Hubbard contrib.    to forces
     atom    1 type  2   force =     0.00000000    0.00000000    0.00000000
     atom    2 type  2   force =     0.00000000    0.00000000    0.00000000
     atom    3 type  1   force =     0.00000000    0.00000000    0.00000000
     atom    4 type  1   force =     0.00000000    0.00000000    0.00000000
     The SCF correction term to forces
     atom    1 type  2   force =     0.00000000    0.00000000    0.00000000
     atom    2 type  2   force =     0.00000000    0.00000000    0.00000000
     atom    3 type  1   force =     0.00000000    0.00000000    0.00000000
     atom    4 type  1   force =     0.00000000    0.00000000    0.00000000

     Total force =     0.000000     Total SCF correction =     0.000000


     Computing stress (Cartesian axis) and pressure

          total   stress  (Ry/bohr**3)                   (kbar)     P=    5.17
   0.00003580  -0.00000000  -0.00000001          5.27     -0.00     -0.00
  -0.00000000   0.00003580  -0.00000001         -0.00      5.27     -0.00
  -0.00000001  -0.00000001   0.00003390         -0.00     -0.00      4.99

     kinetic stress (kbar)  19309.82      0.00     -0.00
                                0.00  19309.82     -0.00
                               -0.00     -0.00  19360.86

     local   stress (kbar)  -7622.33     -0.02     -0.02
                               -0.02  -7622.36      0.03
                               -0.02      0.03 -11110.86

     nonloc. stress (kbar)   5306.68     -0.00      0.00
                               -0.00   5306.68     -0.00
                                0.00     -0.00   5268.85

     hartree stress (kbar)  16866.36      0.01      0.01
                                0.01  16866.38     -0.01
                                0.01     -0.01  18646.02

     exc-cor stress (kbar)  -6864.60      0.00      0.00
                                0.00  -6864.60     -0.00
                                0.00     -0.00  -6866.81

     corecor stress (kbar)   -252.99     -0.00      0.00
                               -0.00   -252.99     -0.00
                                0.00     -0.00   -253.03

     ewald   stress (kbar) -26737.67      0.01      0.01
                                0.01 -26737.65     -0.02
                                0.01     -0.02 -25040.04

     hubbard stress (kbar)      0.00      0.00      0.00
                                0.00      0.00      0.00
                                0.00      0.00      0.00

     london  stress (kbar)      0.00      0.00      0.00
                                0.00      0.00      0.00
                                0.00      0.00      0.00

     DFT-D3  stress (kbar)      0.00      0.00      0.00
                                0.00      0.00      0.00
                                0.00      0.00      0.00

     XDM     stress (kbar)      0.00      0.00      0.00
                                0.00      0.00      0.00
                                0.00      0.00      0.00

     dft-nl  stress (kbar)      0.00      0.00      0.00
                                0.00      0.00      0.00
                                0.00      0.00      0.00

     TS-vdW  stress (kbar)      0.00      0.00      0.00
                                0.00      0.00      0.00
                                0.00      0.00      0.00



     Writing output data file ZnO.save/
 
     init_run     :      0.35s CPU      1.38s WALL (       1 calls)
     electrons    :      4.05s CPU      4.50s WALL (       1 calls)
     forces       :      0.13s CPU      0.20s WALL (       1 calls)
     stress       :      0.24s CPU      0.34s WALL (       1 calls)

     Called by init_run:
     wfcinit      :      0.22s CPU      0.84s WALL (       1 calls)
     wfcinit:atom :      0.00s CPU      0.00s WALL (      65 calls)
     wfcinit:wfcr :      0.21s CPU      0.82s WALL (      65 calls)
     potinit      :      0.05s CPU      0.10s WALL (       1 calls)
     hinit0       :      0.06s CPU      0.20s WALL (       1 calls)

     Called by electrons:
     c_bands      :      3.33s CPU      3.62s WALL (       6 calls)
     sum_band     :      0.51s CPU      0.58s WALL (       6 calls)
     v_of_rho     :      0.19s CPU      0.22s WALL (       7 calls)
     v_h          :      0.00s CPU      0.00s WALL (       7 calls)
     v_xc         :      0.24s CPU      0.27s WALL (       9 calls)
     newd         :      0.03s CPU      0.04s WALL (       7 calls)
     mix_rho      :      0.00s CPU      0.01s WALL (       6 calls)

     Called by c_bands:
     init_us_2    :      0.07s CPU      0.07s WALL (     975 calls)
     cegterg      :      3.00s CPU      3.17s WALL (     390 calls)

     Called by sum_band:
     sum_band:bec :      0.00s CPU      0.01s WALL (     390 calls)
     addusdens    :      0.03s CPU      0.05s WALL (       6 calls)

     Called by *egterg:
     h_psi        :      1.96s CPU      2.05s WALL (    1308 calls)
     s_psi        :      0.06s CPU      0.07s WALL (    1308 calls)
     g_psi        :      0.00s CPU      0.00s WALL (     853 calls)
     cdiaghg      :      0.69s CPU      1.33s WALL (    1243 calls)
     cegterg:over :      0.22s CPU      0.26s WALL (     853 calls)
     cegterg:upda :      0.10s CPU      0.10s WALL (     853 calls)
     cegterg:last :      0.05s CPU      0.06s WALL (     390 calls)
     cdiaghg:chol :      0.04s CPU      0.31s WALL (    1243 calls)
     cdiaghg:inve :      0.02s CPU      0.04s WALL (    1243 calls)
     cdiaghg:para :      0.07s CPU      0.08s WALL (    2486 calls)

     Called by h_psi:
     h_psi:pot    :      1.96s CPU      2.04s WALL (    1308 calls)
     h_psi:calbec :      0.12s CPU      0.13s WALL (    1308 calls)
     vloc_psi     :      1.77s CPU      1.84s WALL (    1308 calls)
     add_vuspsi   :      0.07s CPU      0.07s WALL (    1308 calls)

     General routines
     calbec       :      0.20s CPU      0.21s WALL (    2023 calls)
     fft          :      0.03s CPU      0.08s WALL (     114 calls)
     ffts         :      0.00s CPU      0.00s WALL (      13 calls)
     fftw         :      2.02s CPU      2.10s WALL (   38598 calls)
     interpolate  :      0.00s CPU      0.01s WALL (       7 calls)
 
     Parallel routines
     fft_scatt_xy :      0.31s CPU      0.32s WALL (   38725 calls)
     fft_scatt_yz :      1.04s CPU      1.09s WALL (   38725 calls)
 
     PWSCF        :      4.98s CPU      8.72s WALL

 
   This run was terminated on:  20:53:30  15Jun2022            

=------------------------------------------------------------------------------=
   JOB DONE.
=------------------------------------------------------------------------------=
