
     Program PWSCF v.6.4.1 starts on 16Jun2022 at 16:50:49 

     This program is part of the open-source Quantum ESPRESSO suite
     for quantum simulation of materials; please cite
         "P. Giannozzi et al., J. Phys.:Condens. Matter 21 395502 (2009);
         "P. Giannozzi et al., J. Phys.:Condens. Matter 29 465901 (2017);
          URL http://www.quantum-espresso.org", 
     in publications or presentations arising from this work. More details at
     http://www.quantum-espresso.org/quote

     Parallel version (MPI), running on    64 processors

     MPI processes distributed on     1 nodes
     K-points division:     npool     =       4
     R & G space division:  proc/nbgrp/npool/nimage =      16
     Waiting for input...
     Reading input from standard input

     Current dimensions of program PWSCF are:
     Max number of different atomic species (ntypx) = 10
     Max number of k-points (npk) =  40000
     Max angular momentum in pseudopotentials (lmaxx) =  3

     Subspace diagonalization in iterative solution of the eigenvalue problem:
     one sub-group per band group will be used
     scalapack distributed-memory algorithm (size of sub-group:  2*  2 procs)

 
     Parallelization info
     --------------------
     sticks:   dense  smooth     PW     G-vecs:    dense   smooth      PW
     Min         111      59     18                 4691     1829     319
     Max         112      60     20                 4694     1834     323
     Sum        1789     955    301                75087    29309    5137
 


     bravais-lattice index     =            0
     lattice parameter (alat)  =       6.5610  a.u.
     unit-cell volume          =     302.0768 (a.u.)^3
     number of atoms/cell      =            4
     number of atomic types    =            3
     number of electrons       =        42.00
     number of Kohn-Sham states=           21
     kinetic-energy cutoff     =      80.0000  Ry
     charge density cutoff     =     600.0000  Ry
     convergence threshold     =      1.0E-06
     mixing beta               =       0.5000
     number of iterations used =            8  plain     mixing
     Exchange-correlation      = SLA  PW   PSX  PSC ( 1  4 10  8 0 0)
     Using LIBXC version       =    4   3   4
     nstep                     =          200


     celldm(1)=   6.560986  celldm(2)=   0.000000  celldm(3)=   0.000000
     celldm(4)=   0.000000  celldm(5)=   0.000000  celldm(6)=   0.000000

     crystal axes: (cart. coord. in units of alat)
               a(1) = (   1.000000   0.000000   0.000000 )  
               a(2) = (  -0.500000   0.866026   0.000000 )  
               a(3) = (   0.000000   0.000000   1.235035 )  

     reciprocal axes: (cart. coord. in units 2 pi/alat)
               b(1) = (  1.000000  0.577350 -0.000000 )  
               b(2) = ( -0.000000  1.154700 -0.000000 )  
               b(3) = ( -0.000000 -0.000000  0.809694 )  


     PseudoPot. # 1 for Mg read from file:
     ./GBRV_PBEsol/mg_pbesol_v1.4.uspp.F.UPF
     MD5 check sum: 4059f37963cf5867752dbf5ab2400678
     Pseudo is Ultrasoft, Zval = 10.0
     Generated by new atomic code, or converted to UPF format
     Using radial grid of  821 points,  7 beta functions with: 
                l(1) =   0
                l(2) =   0
                l(3) =   0
                l(4) =   1
                l(5) =   1
                l(6) =   2
                l(7) =   2
     Q(r) pseudized with  8 coefficients,  rinner =    1.200   1.200   1.200
                                                       1.200   1.200

     PseudoPot. # 2 for Zn read from file:
     ./GBRV_PBEsol/zn_pbesol_v1.uspp.F.UPF
     MD5 check sum: 7d8615e52efe7c1e2b1899de8658bae2
     Pseudo is Ultrasoft, Zval = 20.0
     Generated by new atomic code, or converted to UPF format
     Using radial grid of  943 points,  6 beta functions with: 
                l(1) =   0
                l(2) =   0
                l(3) =   1
                l(4) =   1
                l(5) =   2
                l(6) =   2
     Q(r) pseudized with  8 coefficients,  rinner =    1.100   1.100   1.100
                                                       1.100   1.100

     PseudoPot. # 3 for O  read from file:
     ./GBRV_PBEsol/o_pbesol_v1.2.uspp.F.UPF
     MD5 check sum: 501638753501ef6325af9037351f7734
     Pseudo is Ultrasoft + core correction, Zval =  6.0
     Generated by new atomic code, or converted to UPF format
     Using radial grid of  737 points,  5 beta functions with: 
                l(1) =   0
                l(2) =   0
                l(3) =   1
                l(4) =   1
                l(5) =   2
     Q(r) pseudized with  8 coefficients,  rinner =    0.900   0.900   0.900
                                                       0.900   0.900

     atomic species   valence    mass     pseudopotential
        Mg            10.00    24.30500     Mg( 1.00)
        Zn            20.00    65.38000     Zn( 1.00)
        O              6.00    15.99900     O ( 1.00)

     No symmetry found


                                    s                        frac. trans.

      isym =  1     identity                                     

 cryst.   s( 1) = (     1          0          0      )
                  (     0          1          0      )
                  (     0          0          1      )

 cart.    s( 1) = (  1.0000000 -0.0000000  0.0000000 )
                  (  0.0000000  1.0000000 -0.0000000 )
                  ( -0.0000000 -0.0000000  1.0000000 )


   Cartesian axes

     site n.     atom                  positions (alat units)
         1           O   tau(   1) = (   0.5000002   0.2886757   0.0090725  )
         2           O   tau(   2) = (   0.0000002   0.5773499   0.6265897  )
         3           Zn  tau(   3) = (   0.5000001   0.2886752   0.6224500  )
         4           Mg  tau(   4) = (  -0.0000000   0.5773518   1.2440239  )

   Crystallographic axes

     site n.     atom                  positions (cryst. coord.)
         1           O   tau(   1) = (  0.6666670  0.3333337  0.0073459  )
         2           O   tau(   2) = (  0.3333329  0.6666657  0.5073458  )
         3           Zn  tau(   3) = (  0.6666664  0.3333329  0.5039939  )
         4           Mg  tau(   4) = (  0.3333337  0.6666677  1.0072785  )

     number of k points=   260
                       cart. coord. in units 2pi/alat
        k(    1) = (   0.0000000   0.0000000   0.0000000), wk =   0.0039062
        k(    2) = (  -0.0000000  -0.0000000   0.1012117), wk =   0.0078125
        k(    3) = (  -0.0000000  -0.0000001   0.2024235), wk =   0.0078125
        k(    4) = (  -0.0000000  -0.0000001   0.3036352), wk =   0.0078125
        k(    5) = (   0.0000000   0.0000001  -0.4048470), wk =   0.0039062
        k(    6) = (  -0.0000000   0.1443375  -0.0000000), wk =   0.0078125
        k(    7) = (  -0.0000000   0.1443375   0.1012117), wk =   0.0078125
        k(    8) = (  -0.0000000   0.1443374   0.2024235), wk =   0.0078125
        k(    9) = (  -0.0000000   0.1443374   0.3036352), wk =   0.0078125
        k(   10) = (   0.0000000   0.1443376  -0.4048470), wk =   0.0078125
        k(   11) = (   0.0000000   0.1443376  -0.3036353), wk =   0.0078125
        k(   12) = (  -0.0000000   0.1443376  -0.2024235), wk =   0.0078125
        k(   13) = (  -0.0000000   0.1443375  -0.1012118), wk =   0.0078125
        k(   14) = (  -0.0000000   0.2886750  -0.0000001), wk =   0.0078125
        k(   15) = (  -0.0000000   0.2886750   0.1012117), wk =   0.0078125
        k(   16) = (  -0.0000000   0.2886749   0.2024234), wk =   0.0078125
        k(   17) = (  -0.0000001   0.2886749   0.3036352), wk =   0.0078125
        k(   18) = (  -0.0000000   0.2886751  -0.4048471), wk =   0.0078125
        k(   19) = (  -0.0000000   0.2886751  -0.3036353), wk =   0.0078125
        k(   20) = (  -0.0000000   0.2886750  -0.2024236), wk =   0.0078125
        k(   21) = (  -0.0000000   0.2886750  -0.1012118), wk =   0.0078125
        k(   22) = (  -0.0000000   0.4330125  -0.0000001), wk =   0.0078125
        k(   23) = (  -0.0000001   0.4330124   0.1012116), wk =   0.0078125
        k(   24) = (  -0.0000001   0.4330124   0.2024234), wk =   0.0078125
        k(   25) = (  -0.0000001   0.4330124   0.3036351), wk =   0.0078125
        k(   26) = (  -0.0000000   0.4330126  -0.4048471), wk =   0.0078125
        k(   27) = (  -0.0000000   0.4330126  -0.3036353), wk =   0.0078125
        k(   28) = (  -0.0000000   0.4330125  -0.2024236), wk =   0.0078125
        k(   29) = (  -0.0000000   0.4330125  -0.1012119), wk =   0.0078125
        k(   30) = (   0.0000001  -0.5773500   0.0000002), wk =   0.0039062
        k(   31) = (   0.0000001  -0.5773500   0.1012119), wk =   0.0078125
        k(   32) = (   0.0000000  -0.5773500   0.2024236), wk =   0.0078125
        k(   33) = (   0.0000000  -0.5773501   0.3036354), wk =   0.0078125
        k(   34) = (   0.0000001  -0.5773498  -0.4048468), wk =   0.0039062
        k(   35) = (   0.1250000   0.0721687  -0.0000000), wk =   0.0078125
        k(   36) = (   0.1250000   0.0721687   0.1012117), wk =   0.0078125
        k(   37) = (   0.1250000   0.0721687   0.2024235), wk =   0.0078125
        k(   38) = (   0.1250000   0.0721686   0.3036352), wk =   0.0078125
        k(   39) = (   0.1250000   0.0721689  -0.4048470), wk =   0.0078125
        k(   40) = (   0.1250000   0.0721688  -0.3036353), wk =   0.0078125
        k(   41) = (   0.1250000   0.0721688  -0.2024235), wk =   0.0078125
        k(   42) = (   0.1250000   0.0721688  -0.1012118), wk =   0.0078125
        k(   43) = (   0.1250000   0.2165062  -0.0000001), wk =   0.0078125
        k(   44) = (   0.1250000   0.2165062   0.1012117), wk =   0.0078125
        k(   45) = (   0.1250000   0.2165062   0.2024234), wk =   0.0078125
        k(   46) = (   0.1250000   0.2165061   0.3036352), wk =   0.0078125
        k(   47) = (   0.1250000   0.2165063  -0.4048470), wk =   0.0078125
        k(   48) = (   0.1250000   0.2165063  -0.3036353), wk =   0.0078125
        k(   49) = (   0.1250000   0.2165063  -0.2024236), wk =   0.0078125
        k(   50) = (   0.1250000   0.2165063  -0.1012118), wk =   0.0078125
        k(   51) = (   0.1250000   0.3608437  -0.0000001), wk =   0.0078125
        k(   52) = (   0.1250000   0.3608437   0.1012116), wk =   0.0078125
        k(   53) = (   0.1249999   0.3608437   0.2024234), wk =   0.0078125
        k(   54) = (   0.1249999   0.3608436   0.3036351), wk =   0.0078125
        k(   55) = (   0.1250000   0.3608438  -0.4048471), wk =   0.0078125
        k(   56) = (   0.1250000   0.3608438  -0.3036353), wk =   0.0078125
        k(   57) = (   0.1250000   0.3608438  -0.2024236), wk =   0.0078125
        k(   58) = (   0.1250000   0.3608437  -0.1012119), wk =   0.0078125
        k(   59) = (   0.1249999   0.5051812  -0.0000001), wk =   0.0078125
        k(   60) = (   0.1249999   0.5051812   0.1012116), wk =   0.0078125
        k(   61) = (   0.1249999   0.5051811   0.2024233), wk =   0.0078125
        k(   62) = (   0.1249999   0.5051811   0.3036351), wk =   0.0078125
        k(   63) = (   0.1250000   0.5051813  -0.4048471), wk =   0.0078125
        k(   64) = (   0.1250000   0.5051813  -0.3036354), wk =   0.0078125
        k(   65) = (   0.1250000   0.5051813  -0.2024236), wk =   0.0078125
        k(   66) = (   0.1250000   0.5051812  -0.1012119), wk =   0.0078125
        k(   67) = (   0.1250001  -0.5051812   0.0000001), wk =   0.0078125
        k(   68) = (   0.1250000  -0.5051813   0.1012119), wk =   0.0078125
        k(   69) = (   0.1250000  -0.5051813   0.2024236), wk =   0.0078125
        k(   70) = (   0.1250000  -0.5051813   0.3036354), wk =   0.0078125
        k(   71) = (   0.1250001  -0.5051811  -0.4048469), wk =   0.0078125
        k(   72) = (   0.1250001  -0.5051811  -0.3036351), wk =   0.0078125
        k(   73) = (   0.1250001  -0.5051812  -0.2024234), wk =   0.0078125
        k(   74) = (   0.1250001  -0.5051812  -0.1012116), wk =   0.0078125
        k(   75) = (   0.1250000  -0.3608437   0.0000001), wk =   0.0078125
        k(   76) = (   0.1250000  -0.3608438   0.1012118), wk =   0.0078125
        k(   77) = (   0.1250000  -0.3608438   0.2024236), wk =   0.0078125
        k(   78) = (   0.1250000  -0.3608438   0.3036353), wk =   0.0078125
        k(   79) = (   0.1250001  -0.3608436  -0.4048469), wk =   0.0078125
        k(   80) = (   0.1250001  -0.3608436  -0.3036352), wk =   0.0078125
        k(   81) = (   0.1250001  -0.3608437  -0.2024234), wk =   0.0078125
        k(   82) = (   0.1250000  -0.3608437  -0.1012117), wk =   0.0078125
        k(   83) = (   0.1250000  -0.2165063   0.0000000), wk =   0.0078125
        k(   84) = (   0.1250000  -0.2165063   0.1012118), wk =   0.0078125
        k(   85) = (   0.1250000  -0.2165063   0.2024235), wk =   0.0078125
        k(   86) = (   0.1250000  -0.2165063   0.3036353), wk =   0.0078125
        k(   87) = (   0.1250000  -0.2165061  -0.4048469), wk =   0.0078125
        k(   88) = (   0.1250000  -0.2165062  -0.3036352), wk =   0.0078125
        k(   89) = (   0.1250000  -0.2165062  -0.2024234), wk =   0.0078125
        k(   90) = (   0.1250000  -0.2165062  -0.1012117), wk =   0.0078125
        k(   91) = (   0.1250000  -0.0721688   0.0000000), wk =   0.0078125
        k(   92) = (   0.1250000  -0.0721688   0.1012118), wk =   0.0078125
        k(   93) = (   0.1250000  -0.0721688   0.2024235), wk =   0.0078125
        k(   94) = (   0.1250000  -0.0721689   0.3036352), wk =   0.0078125
        k(   95) = (   0.1250000  -0.0721686  -0.4048470), wk =   0.0078125
        k(   96) = (   0.1250000  -0.0721687  -0.3036352), wk =   0.0078125
        k(   97) = (   0.1250000  -0.0721687  -0.2024235), wk =   0.0078125
        k(   98) = (   0.1250000  -0.0721687  -0.1012117), wk =   0.0078125
        k(   99) = (   0.2500000   0.1443375  -0.0000001), wk =   0.0078125
        k(  100) = (   0.2500000   0.1443374   0.1012117), wk =   0.0078125
        k(  101) = (   0.2500000   0.1443374   0.2024234), wk =   0.0078125
        k(  102) = (   0.2500000   0.1443374   0.3036352), wk =   0.0078125
        k(  103) = (   0.2500000   0.1443376  -0.4048470), wk =   0.0078125
        k(  104) = (   0.2500000   0.1443376  -0.3036353), wk =   0.0078125
        k(  105) = (   0.2500000   0.1443375  -0.2024236), wk =   0.0078125
        k(  106) = (   0.2500000   0.1443375  -0.1012118), wk =   0.0078125
        k(  107) = (   0.2500000   0.2886750  -0.0000001), wk =   0.0078125
        k(  108) = (   0.2500000   0.2886749   0.1012116), wk =   0.0078125
        k(  109) = (   0.2500000   0.2886749   0.2024234), wk =   0.0078125
        k(  110) = (   0.2499999   0.2886749   0.3036351), wk =   0.0078125
        k(  111) = (   0.2500000   0.2886751  -0.4048471), wk =   0.0078125
        k(  112) = (   0.2500000   0.2886750  -0.3036353), wk =   0.0078125
        k(  113) = (   0.2500000   0.2886750  -0.2024236), wk =   0.0078125
        k(  114) = (   0.2500000   0.2886750  -0.1012118), wk =   0.0078125
        k(  115) = (   0.2500000   0.4330124  -0.0000001), wk =   0.0078125
        k(  116) = (   0.2499999   0.4330124   0.1012116), wk =   0.0078125
        k(  117) = (   0.2499999   0.4330124   0.2024234), wk =   0.0078125
        k(  118) = (   0.2499999   0.4330124   0.3036351), wk =   0.0078125
        k(  119) = (   0.2500000   0.4330126  -0.4048471), wk =   0.0078125
        k(  120) = (   0.2500000   0.4330125  -0.3036354), wk =   0.0078125
        k(  121) = (   0.2500000   0.4330125  -0.2024236), wk =   0.0078125
        k(  122) = (   0.2500000   0.4330125  -0.1012119), wk =   0.0078125
        k(  123) = (   0.2499999   0.5773499  -0.0000002), wk =   0.0078125
        k(  124) = (   0.2499999   0.5773499   0.1012116), wk =   0.0078125
        k(  125) = (   0.2499999   0.5773499   0.2024233), wk =   0.0078125
        k(  126) = (   0.2499999   0.5773498   0.3036351), wk =   0.0078125
        k(  127) = (   0.2500000   0.5773501  -0.4048472), wk =   0.0078125
        k(  128) = (   0.2500000   0.5773500  -0.3036354), wk =   0.0078125
        k(  129) = (   0.2500000   0.5773500  -0.2024237), wk =   0.0078125
        k(  130) = (   0.2499999   0.5773500  -0.1012119), wk =   0.0078125
        k(  131) = (   0.2500000  -0.4330125   0.0000001), wk =   0.0078125
        k(  132) = (   0.2500000  -0.4330125   0.1012118), wk =   0.0078125
        k(  133) = (   0.2500000  -0.4330126   0.2024236), wk =   0.0078125
        k(  134) = (   0.2500000  -0.4330126   0.3036353), wk =   0.0078125
        k(  135) = (   0.2500001  -0.4330124  -0.4048469), wk =   0.0078125
        k(  136) = (   0.2500001  -0.4330124  -0.3036351), wk =   0.0078125
        k(  137) = (   0.2500001  -0.4330124  -0.2024234), wk =   0.0078125
        k(  138) = (   0.2500001  -0.4330125  -0.1012117), wk =   0.0078125
        k(  139) = (   0.2500000  -0.2886750   0.0000001), wk =   0.0078125
        k(  140) = (   0.2500000  -0.2886750   0.1012118), wk =   0.0078125
        k(  141) = (   0.2500000  -0.2886751   0.2024235), wk =   0.0078125
        k(  142) = (   0.2500000  -0.2886751   0.3036353), wk =   0.0078125
        k(  143) = (   0.2500001  -0.2886749  -0.4048469), wk =   0.0078125
        k(  144) = (   0.2500001  -0.2886749  -0.3036352), wk =   0.0078125
        k(  145) = (   0.2500000  -0.2886749  -0.2024234), wk =   0.0078125
        k(  146) = (   0.2500000  -0.2886750  -0.1012117), wk =   0.0078125
        k(  147) = (   0.2500000  -0.1443375   0.0000000), wk =   0.0078125
        k(  148) = (   0.2500000  -0.1443375   0.1012118), wk =   0.0078125
        k(  149) = (   0.2500000  -0.1443376   0.2024235), wk =   0.0078125
        k(  150) = (   0.2500000  -0.1443376   0.3036352), wk =   0.0078125
        k(  151) = (   0.2500000  -0.1443374  -0.4048470), wk =   0.0078125
        k(  152) = (   0.2500000  -0.1443374  -0.3036352), wk =   0.0078125
        k(  153) = (   0.2500000  -0.1443375  -0.2024235), wk =   0.0078125
        k(  154) = (   0.2500000  -0.1443375  -0.1012117), wk =   0.0078125
        k(  155) = (   0.2500000  -0.0000000  -0.0000000), wk =   0.0078125
        k(  156) = (   0.2500000  -0.0000001   0.1012117), wk =   0.0078125
        k(  157) = (   0.2500000  -0.0000001   0.2024235), wk =   0.0078125
        k(  158) = (   0.2500000  -0.0000001   0.3036352), wk =   0.0078125
        k(  159) = (   0.2500000   0.0000001  -0.4048470), wk =   0.0078125
        k(  160) = (   0.2500000   0.0000001  -0.3036353), wk =   0.0078125
        k(  161) = (   0.2500000   0.0000000  -0.2024235), wk =   0.0078125
        k(  162) = (   0.2500000   0.0000000  -0.1012118), wk =   0.0078125
        k(  163) = (   0.3750000   0.2165062  -0.0000001), wk =   0.0078125
        k(  164) = (   0.3750000   0.2165062   0.1012117), wk =   0.0078125
        k(  165) = (   0.3750000   0.2165061   0.2024234), wk =   0.0078125
        k(  166) = (   0.3750000   0.2165061   0.3036351), wk =   0.0078125
        k(  167) = (   0.3750000   0.2165063  -0.4048471), wk =   0.0078125
        k(  168) = (   0.3750000   0.2165063  -0.3036353), wk =   0.0078125
        k(  169) = (   0.3750000   0.2165063  -0.2024236), wk =   0.0078125
        k(  170) = (   0.3750000   0.2165062  -0.1012118), wk =   0.0078125
        k(  171) = (   0.3750000   0.3608437  -0.0000001), wk =   0.0078125
        k(  172) = (   0.3750000   0.3608437   0.1012116), wk =   0.0078125
        k(  173) = (   0.3749999   0.3608436   0.2024234), wk =   0.0078125
        k(  174) = (   0.3749999   0.3608436   0.3036351), wk =   0.0078125
        k(  175) = (   0.3750000   0.3608438  -0.4048471), wk =   0.0078125
        k(  176) = (   0.3750000   0.3608438  -0.3036354), wk =   0.0078125
        k(  177) = (   0.3750000   0.3608437  -0.2024236), wk =   0.0078125
        k(  178) = (   0.3750000   0.3608437  -0.1012119), wk =   0.0078125
        k(  179) = (   0.3749999   0.5051812  -0.0000002), wk =   0.0078125
        k(  180) = (   0.3749999   0.5051811   0.1012116), wk =   0.0078125
        k(  181) = (   0.3749999   0.5051811   0.2024233), wk =   0.0078125
        k(  182) = (   0.3749999   0.5051811   0.3036351), wk =   0.0078125
        k(  183) = (   0.3750000   0.5051813  -0.4048471), wk =   0.0078125
        k(  184) = (   0.3750000   0.5051813  -0.3036354), wk =   0.0078125
        k(  185) = (   0.3750000   0.5051812  -0.2024237), wk =   0.0078125
        k(  186) = (   0.3750000   0.5051812  -0.1012119), wk =   0.0078125
        k(  187) = (   0.3749999   0.6495187  -0.0000002), wk =   0.0078125
        k(  188) = (   0.3749999   0.6495186   0.1012115), wk =   0.0078125
        k(  189) = (   0.3749999   0.6495186   0.2024233), wk =   0.0078125
        k(  190) = (   0.3749999   0.6495186   0.3036350), wk =   0.0078125
        k(  191) = (   0.3750000   0.6495188  -0.4048472), wk =   0.0078125
        k(  192) = (   0.3749999   0.6495188  -0.3036354), wk =   0.0078125
        k(  193) = (   0.3749999   0.6495187  -0.2024237), wk =   0.0078125
        k(  194) = (   0.3749999   0.6495187  -0.1012120), wk =   0.0078125
        k(  195) = (   0.3750000  -0.3608438   0.0000001), wk =   0.0078125
        k(  196) = (   0.3750000  -0.3608438   0.1012118), wk =   0.0078125
        k(  197) = (   0.3750000  -0.3608438   0.2024235), wk =   0.0078125
        k(  198) = (   0.3750000  -0.3608439   0.3036353), wk =   0.0078125
        k(  199) = (   0.3750001  -0.3608436  -0.4048469), wk =   0.0078125
        k(  200) = (   0.3750001  -0.3608437  -0.3036352), wk =   0.0078125
        k(  201) = (   0.3750001  -0.3608437  -0.2024234), wk =   0.0078125
        k(  202) = (   0.3750000  -0.3608437  -0.1012117), wk =   0.0078125
        k(  203) = (   0.3750000  -0.2165063   0.0000000), wk =   0.0078125
        k(  204) = (   0.3750000  -0.2165063   0.1012118), wk =   0.0078125
        k(  205) = (   0.3750000  -0.2165063   0.2024235), wk =   0.0078125
        k(  206) = (   0.3750000  -0.2165064   0.3036353), wk =   0.0078125
        k(  207) = (   0.3750000  -0.2165062  -0.4048470), wk =   0.0078125
        k(  208) = (   0.3750000  -0.2165062  -0.3036352), wk =   0.0078125
        k(  209) = (   0.3750000  -0.2165062  -0.2024235), wk =   0.0078125
        k(  210) = (   0.3750000  -0.2165062  -0.1012117), wk =   0.0078125
        k(  211) = (   0.3750000  -0.0721688  -0.0000000), wk =   0.0078125
        k(  212) = (   0.3750000  -0.0721688   0.1012117), wk =   0.0078125
        k(  213) = (   0.3750000  -0.0721688   0.2024235), wk =   0.0078125
        k(  214) = (   0.3750000  -0.0721689   0.3036352), wk =   0.0078125
        k(  215) = (   0.3750000  -0.0721687  -0.4048470), wk =   0.0078125
        k(  216) = (   0.3750000  -0.0721687  -0.3036353), wk =   0.0078125
        k(  217) = (   0.3750000  -0.0721687  -0.2024235), wk =   0.0078125
        k(  218) = (   0.3750000  -0.0721688  -0.1012118), wk =   0.0078125
        k(  219) = (   0.3750000   0.0721687  -0.0000001), wk =   0.0078125
        k(  220) = (   0.3750000   0.0721687   0.1012117), wk =   0.0078125
        k(  221) = (   0.3750000   0.0721686   0.2024234), wk =   0.0078125
        k(  222) = (   0.3750000   0.0721686   0.3036352), wk =   0.0078125
        k(  223) = (   0.3750000   0.0721688  -0.4048470), wk =   0.0078125
        k(  224) = (   0.3750000   0.0721688  -0.3036353), wk =   0.0078125
        k(  225) = (   0.3750000   0.0721688  -0.2024235), wk =   0.0078125
        k(  226) = (   0.3750000   0.0721687  -0.1012118), wk =   0.0078125
        k(  227) = (  -0.5000000  -0.2886749   0.0000001), wk =   0.0039062
        k(  228) = (  -0.5000000  -0.2886750   0.1012119), wk =   0.0078125
        k(  229) = (  -0.5000000  -0.2886750   0.2024236), wk =   0.0078125
        k(  230) = (  -0.5000000  -0.2886750   0.3036354), wk =   0.0078125
        k(  231) = (  -0.4999999  -0.2886748  -0.4048469), wk =   0.0039062
        k(  232) = (  -0.5000000  -0.1443374   0.0000001), wk =   0.0078125
        k(  233) = (  -0.5000000  -0.1443375   0.1012118), wk =   0.0078125
        k(  234) = (  -0.5000000  -0.1443375   0.2024236), wk =   0.0078125
        k(  235) = (  -0.5000000  -0.1443375   0.3036353), wk =   0.0078125
        k(  236) = (  -0.5000000  -0.1443373  -0.4048469), wk =   0.0078125
        k(  237) = (  -0.5000000  -0.1443373  -0.3036351), wk =   0.0078125
        k(  238) = (  -0.5000000  -0.1443374  -0.2024234), wk =   0.0078125
        k(  239) = (  -0.5000000  -0.1443374  -0.1012117), wk =   0.0078125
        k(  240) = (  -0.5000000   0.0000001   0.0000000), wk =   0.0078125
        k(  241) = (  -0.5000000   0.0000000   0.1012118), wk =   0.0078125
        k(  242) = (  -0.5000000  -0.0000000   0.2024235), wk =   0.0078125
        k(  243) = (  -0.5000000  -0.0000000   0.3036353), wk =   0.0078125
        k(  244) = (  -0.5000000   0.0000002  -0.4048469), wk =   0.0078125
        k(  245) = (  -0.5000000   0.0000001  -0.3036352), wk =   0.0078125
        k(  246) = (  -0.5000000   0.0000001  -0.2024234), wk =   0.0078125
        k(  247) = (  -0.5000000   0.0000001  -0.1012117), wk =   0.0078125
        k(  248) = (  -0.5000000   0.1443375   0.0000000), wk =   0.0078125
        k(  249) = (  -0.5000000   0.1443375   0.1012118), wk =   0.0078125
        k(  250) = (  -0.5000000   0.1443375   0.2024235), wk =   0.0078125
        k(  251) = (  -0.5000000   0.1443375   0.3036352), wk =   0.0078125
        k(  252) = (  -0.5000000   0.1443377  -0.4048470), wk =   0.0078125
        k(  253) = (  -0.5000000   0.1443376  -0.3036352), wk =   0.0078125
        k(  254) = (  -0.5000000   0.1443376  -0.2024235), wk =   0.0078125
        k(  255) = (  -0.5000000   0.1443376  -0.1012117), wk =   0.0078125
        k(  256) = (  -0.4999999  -0.8660249   0.0000003), wk =   0.0039062
        k(  257) = (  -0.4999999  -0.8660249   0.1012120), wk =   0.0078125
        k(  258) = (  -0.4999999  -0.8660250   0.2024238), wk =   0.0078125
        k(  259) = (  -0.4999999  -0.8660250   0.3036355), wk =   0.0078125
        k(  260) = (  -0.4999999  -0.8660248  -0.4048467), wk =   0.0039062

                       cryst. coord.
        k(    1) = (   0.0000000   0.0000000   0.0000000), wk =   0.0039062
        k(    2) = (  -0.0000000  -0.0000000   0.1250000), wk =   0.0078125
        k(    3) = (  -0.0000000  -0.0000000   0.2500000), wk =   0.0078125
        k(    4) = (  -0.0000000  -0.0000000   0.3750000), wk =   0.0078125
        k(    5) = (   0.0000000   0.0000000  -0.5000000), wk =   0.0039062
        k(    6) = (   0.0000000   0.1250000   0.0000000), wk =   0.0078125
        k(    7) = (   0.0000000   0.1250000   0.1250000), wk =   0.0078125
        k(    8) = (   0.0000000   0.1250000   0.2500000), wk =   0.0078125
        k(    9) = (   0.0000000   0.1250000   0.3750000), wk =   0.0078125
        k(   10) = (   0.0000000   0.1250000  -0.5000000), wk =   0.0078125
        k(   11) = (  -0.0000000   0.1250000  -0.3750000), wk =   0.0078125
        k(   12) = (  -0.0000000   0.1250000  -0.2500000), wk =   0.0078125
        k(   13) = (   0.0000000   0.1250000  -0.1250000), wk =   0.0078125
        k(   14) = (   0.0000000   0.2500000   0.0000000), wk =   0.0078125
        k(   15) = (   0.0000000   0.2500000   0.1250000), wk =   0.0078125
        k(   16) = (   0.0000000   0.2500000   0.2500000), wk =   0.0078125
        k(   17) = (   0.0000000   0.2500000   0.3750000), wk =   0.0078125
        k(   18) = (  -0.0000000   0.2500000  -0.5000000), wk =   0.0078125
        k(   19) = (   0.0000000   0.2500000  -0.3750000), wk =   0.0078125
        k(   20) = (   0.0000000   0.2500000  -0.2500000), wk =   0.0078125
        k(   21) = (   0.0000000   0.2500000  -0.1250000), wk =   0.0078125
        k(   22) = (   0.0000000   0.3750000  -0.0000000), wk =   0.0078125
        k(   23) = (   0.0000000   0.3750000   0.1250000), wk =   0.0078125
        k(   24) = (   0.0000000   0.3750000   0.2500000), wk =   0.0078125
        k(   25) = (   0.0000000   0.3750000   0.3750000), wk =   0.0078125
        k(   26) = (   0.0000000   0.3750000  -0.5000000), wk =   0.0078125
        k(   27) = (   0.0000000   0.3750000  -0.3750000), wk =   0.0078125
        k(   28) = (   0.0000000   0.3750000  -0.2500000), wk =   0.0078125
        k(   29) = (   0.0000000   0.3750000  -0.1250000), wk =   0.0078125
        k(   30) = (  -0.0000000  -0.5000000  -0.0000000), wk =   0.0039062
        k(   31) = (  -0.0000000  -0.5000000   0.1250000), wk =   0.0078125
        k(   32) = (  -0.0000000  -0.5000000   0.2500000), wk =   0.0078125
        k(   33) = (  -0.0000000  -0.5000000   0.3750000), wk =   0.0078125
        k(   34) = (  -0.0000000  -0.5000000  -0.5000000), wk =   0.0039062
        k(   35) = (   0.1250000  -0.0000000  -0.0000000), wk =   0.0078125
        k(   36) = (   0.1250000   0.0000000   0.1250000), wk =   0.0078125
        k(   37) = (   0.1250000  -0.0000000   0.2500000), wk =   0.0078125
        k(   38) = (   0.1250000  -0.0000000   0.3750000), wk =   0.0078125
        k(   39) = (   0.1250000  -0.0000000  -0.5000000), wk =   0.0078125
        k(   40) = (   0.1250000   0.0000000  -0.3750000), wk =   0.0078125
        k(   41) = (   0.1250000   0.0000000  -0.2500000), wk =   0.0078125
        k(   42) = (   0.1250000  -0.0000000  -0.1250000), wk =   0.0078125
        k(   43) = (   0.1250000   0.1250000  -0.0000000), wk =   0.0078125
        k(   44) = (   0.1250000   0.1250000   0.1250000), wk =   0.0078125
        k(   45) = (   0.1250000   0.1250000   0.2500000), wk =   0.0078125
        k(   46) = (   0.1250000   0.1250000   0.3750000), wk =   0.0078125
        k(   47) = (   0.1250000   0.1250000  -0.5000000), wk =   0.0078125
        k(   48) = (   0.1250000   0.1250000  -0.3750000), wk =   0.0078125
        k(   49) = (   0.1250000   0.1250000  -0.2500000), wk =   0.0078125
        k(   50) = (   0.1250000   0.1250000  -0.1250000), wk =   0.0078125
        k(   51) = (   0.1250000   0.2500000   0.0000000), wk =   0.0078125
        k(   52) = (   0.1250000   0.2500000   0.1250000), wk =   0.0078125
        k(   53) = (   0.1250000   0.2500000   0.2500000), wk =   0.0078125
        k(   54) = (   0.1250000   0.2500000   0.3750000), wk =   0.0078125
        k(   55) = (   0.1250000   0.2500000  -0.5000000), wk =   0.0078125
        k(   56) = (   0.1250000   0.2500000  -0.3750000), wk =   0.0078125
        k(   57) = (   0.1250000   0.2500000  -0.2500000), wk =   0.0078125
        k(   58) = (   0.1250000   0.2500000  -0.1250000), wk =   0.0078125
        k(   59) = (   0.1250000   0.3750000   0.0000000), wk =   0.0078125
        k(   60) = (   0.1250000   0.3750000   0.1250000), wk =   0.0078125
        k(   61) = (   0.1250000   0.3750000   0.2500000), wk =   0.0078125
        k(   62) = (   0.1250000   0.3750000   0.3750000), wk =   0.0078125
        k(   63) = (   0.1250000   0.3750000  -0.5000000), wk =   0.0078125
        k(   64) = (   0.1250000   0.3750000  -0.3750000), wk =   0.0078125
        k(   65) = (   0.1250000   0.3750000  -0.2500000), wk =   0.0078125
        k(   66) = (   0.1250000   0.3750000  -0.1250000), wk =   0.0078125
        k(   67) = (   0.1250000  -0.5000000   0.0000000), wk =   0.0078125
        k(   68) = (   0.1250000  -0.5000000   0.1250000), wk =   0.0078125
        k(   69) = (   0.1250000  -0.5000000   0.2500000), wk =   0.0078125
        k(   70) = (   0.1250000  -0.5000000   0.3750000), wk =   0.0078125
        k(   71) = (   0.1250000  -0.5000000  -0.5000000), wk =   0.0078125
        k(   72) = (   0.1250000  -0.5000000  -0.3750000), wk =   0.0078125
        k(   73) = (   0.1250000  -0.5000000  -0.2500000), wk =   0.0078125
        k(   74) = (   0.1250000  -0.5000000  -0.1250000), wk =   0.0078125
        k(   75) = (   0.1250000  -0.3750000   0.0000000), wk =   0.0078125
        k(   76) = (   0.1250000  -0.3750000   0.1250000), wk =   0.0078125
        k(   77) = (   0.1250000  -0.3750000   0.2500000), wk =   0.0078125
        k(   78) = (   0.1250000  -0.3750000   0.3750000), wk =   0.0078125
        k(   79) = (   0.1250000  -0.3750000  -0.5000000), wk =   0.0078125
        k(   80) = (   0.1250000  -0.3750000  -0.3750000), wk =   0.0078125
        k(   81) = (   0.1250000  -0.3750000  -0.2500000), wk =   0.0078125
        k(   82) = (   0.1250000  -0.3750000  -0.1250000), wk =   0.0078125
        k(   83) = (   0.1250000  -0.2500000  -0.0000000), wk =   0.0078125
        k(   84) = (   0.1250000  -0.2500000   0.1250000), wk =   0.0078125
        k(   85) = (   0.1250000  -0.2500000   0.2500000), wk =   0.0078125
        k(   86) = (   0.1250000  -0.2500000   0.3750000), wk =   0.0078125
        k(   87) = (   0.1250000  -0.2500000  -0.5000000), wk =   0.0078125
        k(   88) = (   0.1250000  -0.2500000  -0.3750000), wk =   0.0078125
        k(   89) = (   0.1250000  -0.2500000  -0.2500000), wk =   0.0078125
        k(   90) = (   0.1250000  -0.2500000  -0.1250000), wk =   0.0078125
        k(   91) = (   0.1250000  -0.1250000   0.0000000), wk =   0.0078125
        k(   92) = (   0.1250000  -0.1250000   0.1250000), wk =   0.0078125
        k(   93) = (   0.1250000  -0.1250000   0.2500000), wk =   0.0078125
        k(   94) = (   0.1250000  -0.1250000   0.3750000), wk =   0.0078125
        k(   95) = (   0.1250000  -0.1250000  -0.5000000), wk =   0.0078125
        k(   96) = (   0.1250000  -0.1250000  -0.3750000), wk =   0.0078125
        k(   97) = (   0.1250000  -0.1250000  -0.2500000), wk =   0.0078125
        k(   98) = (   0.1250000  -0.1250000  -0.1250000), wk =   0.0078125
        k(   99) = (   0.2500000  -0.0000000  -0.0000000), wk =   0.0078125
        k(  100) = (   0.2500000  -0.0000000   0.1250000), wk =   0.0078125
        k(  101) = (   0.2500000   0.0000000   0.2500000), wk =   0.0078125
        k(  102) = (   0.2500000   0.0000000   0.3750000), wk =   0.0078125
        k(  103) = (   0.2500000   0.0000000  -0.5000000), wk =   0.0078125
        k(  104) = (   0.2500000  -0.0000000  -0.3750000), wk =   0.0078125
        k(  105) = (   0.2500000  -0.0000000  -0.2500000), wk =   0.0078125
        k(  106) = (   0.2500000  -0.0000000  -0.1250000), wk =   0.0078125
        k(  107) = (   0.2500000   0.1250000   0.0000000), wk =   0.0078125
        k(  108) = (   0.2500000   0.1250000   0.1250000), wk =   0.0078125
        k(  109) = (   0.2500000   0.1250000   0.2500000), wk =   0.0078125
        k(  110) = (   0.2500000   0.1250000   0.3750000), wk =   0.0078125
        k(  111) = (   0.2500000   0.1250000  -0.5000000), wk =   0.0078125
        k(  112) = (   0.2500000   0.1250000  -0.3750000), wk =   0.0078125
        k(  113) = (   0.2500000   0.1250000  -0.2500000), wk =   0.0078125
        k(  114) = (   0.2500000   0.1250000  -0.1250000), wk =   0.0078125
        k(  115) = (   0.2500000   0.2500000  -0.0000000), wk =   0.0078125
        k(  116) = (   0.2500000   0.2500000   0.1250000), wk =   0.0078125
        k(  117) = (   0.2500000   0.2500000   0.2500000), wk =   0.0078125
        k(  118) = (   0.2500000   0.2500000   0.3750000), wk =   0.0078125
        k(  119) = (   0.2500000   0.2500000  -0.5000000), wk =   0.0078125
        k(  120) = (   0.2500000   0.2500000  -0.3750000), wk =   0.0078125
        k(  121) = (   0.2500000   0.2500000  -0.2500000), wk =   0.0078125
        k(  122) = (   0.2500000   0.2500000  -0.1250000), wk =   0.0078125
        k(  123) = (   0.2500000   0.3750000  -0.0000000), wk =   0.0078125
        k(  124) = (   0.2500000   0.3750000   0.1250000), wk =   0.0078125
        k(  125) = (   0.2500000   0.3750000   0.2500000), wk =   0.0078125
        k(  126) = (   0.2500000   0.3750000   0.3750000), wk =   0.0078125
        k(  127) = (   0.2500000   0.3750000  -0.5000000), wk =   0.0078125
        k(  128) = (   0.2500000   0.3750000  -0.3750000), wk =   0.0078125
        k(  129) = (   0.2500000   0.3750000  -0.2500000), wk =   0.0078125
        k(  130) = (   0.2500000   0.3750000  -0.1250000), wk =   0.0078125
        k(  131) = (   0.2500000  -0.5000000  -0.0000000), wk =   0.0078125
        k(  132) = (   0.2500000  -0.5000000   0.1250000), wk =   0.0078125
        k(  133) = (   0.2500000  -0.5000000   0.2500000), wk =   0.0078125
        k(  134) = (   0.2500000  -0.5000000   0.3750000), wk =   0.0078125
        k(  135) = (   0.2500000  -0.5000000  -0.5000000), wk =   0.0078125
        k(  136) = (   0.2500000  -0.5000000  -0.3750000), wk =   0.0078125
        k(  137) = (   0.2500000  -0.5000000  -0.2500000), wk =   0.0078125
        k(  138) = (   0.2500000  -0.5000000  -0.1250000), wk =   0.0078125
        k(  139) = (   0.2500000  -0.3750000   0.0000000), wk =   0.0078125
        k(  140) = (   0.2500000  -0.3750000   0.1250000), wk =   0.0078125
        k(  141) = (   0.2500000  -0.3750000   0.2500000), wk =   0.0078125
        k(  142) = (   0.2500000  -0.3750000   0.3750000), wk =   0.0078125
        k(  143) = (   0.2500000  -0.3750000  -0.5000000), wk =   0.0078125
        k(  144) = (   0.2500000  -0.3750000  -0.3750000), wk =   0.0078125
        k(  145) = (   0.2500000  -0.3750000  -0.2500000), wk =   0.0078125
        k(  146) = (   0.2500000  -0.3750000  -0.1250000), wk =   0.0078125
        k(  147) = (   0.2500000  -0.2500000   0.0000000), wk =   0.0078125
        k(  148) = (   0.2500000  -0.2500000   0.1250000), wk =   0.0078125
        k(  149) = (   0.2500000  -0.2500000   0.2500000), wk =   0.0078125
        k(  150) = (   0.2500000  -0.2500000   0.3750000), wk =   0.0078125
        k(  151) = (   0.2500000  -0.2500000  -0.5000000), wk =   0.0078125
        k(  152) = (   0.2500000  -0.2500000  -0.3750000), wk =   0.0078125
        k(  153) = (   0.2500000  -0.2500000  -0.2500000), wk =   0.0078125
        k(  154) = (   0.2500000  -0.2500000  -0.1250000), wk =   0.0078125
        k(  155) = (   0.2500000  -0.1250000   0.0000000), wk =   0.0078125
        k(  156) = (   0.2500000  -0.1250000   0.1250000), wk =   0.0078125
        k(  157) = (   0.2500000  -0.1250000   0.2500000), wk =   0.0078125
        k(  158) = (   0.2500000  -0.1250000   0.3750000), wk =   0.0078125
        k(  159) = (   0.2500000  -0.1250000  -0.5000000), wk =   0.0078125
        k(  160) = (   0.2500000  -0.1250000  -0.3750000), wk =   0.0078125
        k(  161) = (   0.2500000  -0.1250000  -0.2500000), wk =   0.0078125
        k(  162) = (   0.2500000  -0.1250000  -0.1250000), wk =   0.0078125
        k(  163) = (   0.3750000  -0.0000000   0.0000000), wk =   0.0078125
        k(  164) = (   0.3750000  -0.0000000   0.1250000), wk =   0.0078125
        k(  165) = (   0.3750000   0.0000000   0.2500000), wk =   0.0078125
        k(  166) = (   0.3750000  -0.0000000   0.3750000), wk =   0.0078125
        k(  167) = (   0.3750000   0.0000000  -0.5000000), wk =   0.0078125
        k(  168) = (   0.3750000  -0.0000000  -0.3750000), wk =   0.0078125
        k(  169) = (   0.3750000  -0.0000000  -0.2500000), wk =   0.0078125
        k(  170) = (   0.3750000  -0.0000000  -0.1250000), wk =   0.0078125
        k(  171) = (   0.3750000   0.1250000   0.0000000), wk =   0.0078125
        k(  172) = (   0.3750000   0.1250000   0.1250000), wk =   0.0078125
        k(  173) = (   0.3750000   0.1250000   0.2500000), wk =   0.0078125
        k(  174) = (   0.3750000   0.1250000   0.3750000), wk =   0.0078125
        k(  175) = (   0.3750000   0.1250000  -0.5000000), wk =   0.0078125
        k(  176) = (   0.3750000   0.1250000  -0.3750000), wk =   0.0078125
        k(  177) = (   0.3750000   0.1250000  -0.2500000), wk =   0.0078125
        k(  178) = (   0.3750000   0.1250000  -0.1250000), wk =   0.0078125
        k(  179) = (   0.3750000   0.2500000  -0.0000000), wk =   0.0078125
        k(  180) = (   0.3750000   0.2500000   0.1250000), wk =   0.0078125
        k(  181) = (   0.3750000   0.2500000   0.2500000), wk =   0.0078125
        k(  182) = (   0.3750000   0.2500000   0.3750000), wk =   0.0078125
        k(  183) = (   0.3750000   0.2500000  -0.5000000), wk =   0.0078125
        k(  184) = (   0.3750000   0.2500000  -0.3750000), wk =   0.0078125
        k(  185) = (   0.3750000   0.2500000  -0.2500000), wk =   0.0078125
        k(  186) = (   0.3750000   0.2500000  -0.1250000), wk =   0.0078125
        k(  187) = (   0.3750000   0.3750000   0.0000000), wk =   0.0078125
        k(  188) = (   0.3750000   0.3750000   0.1250000), wk =   0.0078125
        k(  189) = (   0.3750000   0.3750000   0.2500000), wk =   0.0078125
        k(  190) = (   0.3750000   0.3750000   0.3750000), wk =   0.0078125
        k(  191) = (   0.3750000   0.3750000  -0.5000000), wk =   0.0078125
        k(  192) = (   0.3750000   0.3750000  -0.3750000), wk =   0.0078125
        k(  193) = (   0.3750000   0.3750000  -0.2500000), wk =   0.0078125
        k(  194) = (   0.3750000   0.3750000  -0.1250000), wk =   0.0078125
        k(  195) = (   0.3750000  -0.5000000  -0.0000000), wk =   0.0078125
        k(  196) = (   0.3750000  -0.5000000   0.1250000), wk =   0.0078125
        k(  197) = (   0.3750000  -0.5000000   0.2500000), wk =   0.0078125
        k(  198) = (   0.3750000  -0.5000000   0.3750000), wk =   0.0078125
        k(  199) = (   0.3750000  -0.5000000  -0.5000000), wk =   0.0078125
        k(  200) = (   0.3750000  -0.5000000  -0.3750000), wk =   0.0078125
        k(  201) = (   0.3750000  -0.5000000  -0.2500000), wk =   0.0078125
        k(  202) = (   0.3750000  -0.5000000  -0.1250000), wk =   0.0078125
        k(  203) = (   0.3750000  -0.3750000   0.0000000), wk =   0.0078125
        k(  204) = (   0.3750000  -0.3750000   0.1250000), wk =   0.0078125
        k(  205) = (   0.3750000  -0.3750000   0.2500000), wk =   0.0078125
        k(  206) = (   0.3750000  -0.3750000   0.3750000), wk =   0.0078125
        k(  207) = (   0.3750000  -0.3750000  -0.5000000), wk =   0.0078125
        k(  208) = (   0.3750000  -0.3750000  -0.3750000), wk =   0.0078125
        k(  209) = (   0.3750000  -0.3750000  -0.2500000), wk =   0.0078125
        k(  210) = (   0.3750000  -0.3750000  -0.1250000), wk =   0.0078125
        k(  211) = (   0.3750000  -0.2500000   0.0000000), wk =   0.0078125
        k(  212) = (   0.3750000  -0.2500000   0.1250000), wk =   0.0078125
        k(  213) = (   0.3750000  -0.2500000   0.2500000), wk =   0.0078125
        k(  214) = (   0.3750000  -0.2500000   0.3750000), wk =   0.0078125
        k(  215) = (   0.3750000  -0.2500000  -0.5000000), wk =   0.0078125
        k(  216) = (   0.3750000  -0.2500000  -0.3750000), wk =   0.0078125
        k(  217) = (   0.3750000  -0.2500000  -0.2500000), wk =   0.0078125
        k(  218) = (   0.3750000  -0.2500000  -0.1250000), wk =   0.0078125
        k(  219) = (   0.3750000  -0.1250000   0.0000000), wk =   0.0078125
        k(  220) = (   0.3750000  -0.1250000   0.1250000), wk =   0.0078125
        k(  221) = (   0.3750000  -0.1250000   0.2500000), wk =   0.0078125
        k(  222) = (   0.3750000  -0.1250000   0.3750000), wk =   0.0078125
        k(  223) = (   0.3750000  -0.1250000  -0.5000000), wk =   0.0078125
        k(  224) = (   0.3750000  -0.1250000  -0.3750000), wk =   0.0078125
        k(  225) = (   0.3750000  -0.1250000  -0.2500000), wk =   0.0078125
        k(  226) = (   0.3750000  -0.1250000  -0.1250000), wk =   0.0078125
        k(  227) = (  -0.5000000   0.0000000   0.0000000), wk =   0.0039062
        k(  228) = (  -0.5000000   0.0000000   0.1250000), wk =   0.0078125
        k(  229) = (  -0.5000000   0.0000000   0.2500000), wk =   0.0078125
        k(  230) = (  -0.5000000   0.0000000   0.3750000), wk =   0.0078125
        k(  231) = (  -0.5000000  -0.0000000  -0.5000000), wk =   0.0039062
        k(  232) = (  -0.5000000   0.1250000  -0.0000000), wk =   0.0078125
        k(  233) = (  -0.5000000   0.1250000   0.1250000), wk =   0.0078125
        k(  234) = (  -0.5000000   0.1250000   0.2500000), wk =   0.0078125
        k(  235) = (  -0.5000000   0.1250000   0.3750000), wk =   0.0078125
        k(  236) = (  -0.5000000   0.1250000  -0.5000000), wk =   0.0078125
        k(  237) = (  -0.5000000   0.1250000  -0.3750000), wk =   0.0078125
        k(  238) = (  -0.5000000   0.1250000  -0.2500000), wk =   0.0078125
        k(  239) = (  -0.5000000   0.1250000  -0.1250000), wk =   0.0078125
        k(  240) = (  -0.5000000   0.2500000  -0.0000000), wk =   0.0078125
        k(  241) = (  -0.5000000   0.2500000   0.1250000), wk =   0.0078125
        k(  242) = (  -0.5000000   0.2500000   0.2500000), wk =   0.0078125
        k(  243) = (  -0.5000000   0.2500000   0.3750000), wk =   0.0078125
        k(  244) = (  -0.5000000   0.2500000  -0.5000000), wk =   0.0078125
        k(  245) = (  -0.5000000   0.2500000  -0.3750000), wk =   0.0078125
        k(  246) = (  -0.5000000   0.2500000  -0.2500000), wk =   0.0078125
        k(  247) = (  -0.5000000   0.2500000  -0.1250000), wk =   0.0078125
        k(  248) = (  -0.5000000   0.3750000  -0.0000000), wk =   0.0078125
        k(  249) = (  -0.5000000   0.3750000   0.1250000), wk =   0.0078125
        k(  250) = (  -0.5000000   0.3750000   0.2500000), wk =   0.0078125
        k(  251) = (  -0.5000000   0.3750000   0.3750000), wk =   0.0078125
        k(  252) = (  -0.5000000   0.3750000  -0.5000000), wk =   0.0078125
        k(  253) = (  -0.5000000   0.3750000  -0.3750000), wk =   0.0078125
        k(  254) = (  -0.5000000   0.3750000  -0.2500000), wk =   0.0078125
        k(  255) = (  -0.5000000   0.3750000  -0.1250000), wk =   0.0078125
        k(  256) = (  -0.5000000  -0.5000000   0.0000000), wk =   0.0039062
        k(  257) = (  -0.5000000  -0.5000000   0.1250000), wk =   0.0078125
        k(  258) = (  -0.5000000  -0.5000000   0.2500000), wk =   0.0078125
        k(  259) = (  -0.5000000  -0.5000000   0.3750000), wk =   0.0078125
        k(  260) = (  -0.5000000  -0.5000000  -0.5000000), wk =   0.0039062

     Dense  grid:    75087 G-vectors     FFT dimensions: (  54,  54,  64)

     Smooth grid:    29309 G-vectors     FFT dimensions: (  40,  40,  48)

     Dynamical RAM for                 wfc:       0.07 MB

     Dynamical RAM for     wfc (w. buffer):       4.82 MB

     Dynamical RAM for           str. fact:       0.21 MB

     Dynamical RAM for           local pot:       0.00 MB

     Dynamical RAM for          nlocal pot:       0.22 MB

     Dynamical RAM for                qrad:      16.42 MB

     Dynamical RAM for          rho,v,vnew:       0.48 MB

     Dynamical RAM for               rhoin:       0.16 MB

     Dynamical RAM for            rho*nmix:       1.15 MB

     Dynamical RAM for           G-vectors:       0.28 MB

     Dynamical RAM for          h,s,v(r/c):       0.08 MB

     Dynamical RAM for          <psi|beta>:       0.02 MB

     Dynamical RAM for                 psi:       0.29 MB

     Dynamical RAM for                hpsi:       0.29 MB

     Dynamical RAM for                spsi:       0.29 MB

     Dynamical RAM for      wfcinit/wfcrot:       0.20 MB

     Dynamical RAM for           addusdens:       3.76 MB

     Dynamical RAM for          addusforce:       3.90 MB

     Dynamical RAM for         addusstress:       3.96 MB

     Estimated static dynamical RAM per process >      24.47 MB

     Estimated max dynamical RAM per process >      28.44 MB

     Estimated total dynamical RAM >       1.78 GB

     Check: negative core charge=   -0.000003

     Initial potential from superposition of free atoms

     starting charge   41.69964, renormalised to   42.00000
     Starting wfcs are   26 randomized atomic wfcs

     total cpu time spent up to now is        2.6 secs

     Self-consistent Calculation

     iteration #  1     ecut=    80.00 Ry     beta= 0.50
     Davidson diagonalization with overlap
     ethr =  1.00E-02,  avg # of iterations =  2.0

     total cpu time spent up to now is        3.5 secs

     total energy              =    -650.65777030 Ry
     Harris-Foulkes estimate   =    -651.44098437 Ry
     estimated scf accuracy    <       1.17491781 Ry

     iteration #  2     ecut=    80.00 Ry     beta= 0.50
     Davidson diagonalization with overlap
     ethr =  2.80E-03,  avg # of iterations =  3.0

     total cpu time spent up to now is        4.5 secs

     total energy              =    -651.02817196 Ry
     Harris-Foulkes estimate   =    -651.28746369 Ry
     estimated scf accuracy    <       0.59297422 Ry

     iteration #  3     ecut=    80.00 Ry     beta= 0.50
     Davidson diagonalization with overlap
     ethr =  1.41E-03,  avg # of iterations =  2.0

     total cpu time spent up to now is        5.4 secs

     total energy              =    -651.12860512 Ry
     Harris-Foulkes estimate   =    -651.13177050 Ry
     estimated scf accuracy    <       0.00948183 Ry

     iteration #  4     ecut=    80.00 Ry     beta= 0.50
     Davidson diagonalization with overlap
     ethr =  2.26E-05,  avg # of iterations =  2.9

     total cpu time spent up to now is        6.3 secs

     total energy              =    -651.12923789 Ry
     Harris-Foulkes estimate   =    -651.13017117 Ry
     estimated scf accuracy    <       0.00227482 Ry

     iteration #  5     ecut=    80.00 Ry     beta= 0.50
     Davidson diagonalization with overlap
     ethr =  5.42E-06,  avg # of iterations =  2.9

     total cpu time spent up to now is        7.2 secs

     total energy              =    -651.12971322 Ry
     Harris-Foulkes estimate   =    -651.12977174 Ry
     estimated scf accuracy    <       0.00021952 Ry

     iteration #  6     ecut=    80.00 Ry     beta= 0.50
     Davidson diagonalization with overlap
     ethr =  5.23E-07,  avg # of iterations =  2.7

     total cpu time spent up to now is        8.1 secs

     total energy              =    -651.12974780 Ry
     Harris-Foulkes estimate   =    -651.12974486 Ry
     estimated scf accuracy    <       0.00000920 Ry

     iteration #  7     ecut=    80.00 Ry     beta= 0.50
     Davidson diagonalization with overlap
     ethr =  2.19E-08,  avg # of iterations =  2.1

     total cpu time spent up to now is        9.0 secs

     End of self-consistent calculation

          k = 0.0000 0.0000 0.0000 (  3647 PWs)   bands (ev):

  -115.1959 -69.5624 -69.5624 -69.5431 -64.6727 -31.6577 -31.6453 -31.6453
    -9.8954  -8.4573   2.1892   2.1892   3.1672   3.4224   3.4224   3.7954
     5.8356   5.8356   7.0411   7.4669   7.4669

     occupation numbers 
     1.0000   1.0000   1.0000   1.0000   1.0000   1.0000   1.0000   1.0000
     1.0000   1.0000   1.0000   1.0000   1.0000   1.0000   1.0000   1.0000
     1.0000   1.0000   1.0000   1.0000   1.0000

          k =-0.0000-0.0000 0.1012 (  3665 PWs)   bands (ev):

  -115.1959 -69.5624 -69.5624 -69.5431 -64.6727 -31.6580 -31.6453 -31.6453
    -9.8457  -8.5018   2.1903   2.1903   2.9151   3.3931   3.3931   4.0320
     5.8988   5.8988   6.7507   7.4459   7.4459

     occupation numbers 
     1.0000   1.0000   1.0000   1.0000   1.0000   1.0000   1.0000   1.0000
     1.0000   1.0000   1.0000   1.0000   1.0000   1.0000   1.0000   1.0000
     1.0000   1.0000   1.0000   1.0000   1.0000

          k =-0.0000-0.0000 0.2024 (  3659 PWs)   bands (ev):

  -115.1959 -69.5624 -69.5624 -69.5431 -64.6727 -31.6586 -31.6453 -31.6453
    -9.7075  -8.6282   2.1931   2.1931   2.5609   3.3264   3.3264   4.3437
     6.0549   6.0549   6.2573   7.3879   7.3879

     occupation numbers 
     1.0000   1.0000   1.0000   1.0000   1.0000   1.0000   1.0000   1.0000
     1.0000   1.0000   1.0000   1.0000   1.0000   1.0000   1.0000   1.0000
     1.0000   1.0000   1.0000   1.0000   1.0000

          k =-0.0000-0.0000 0.3036 (  3659 PWs)   bands (ev):

  -115.1959 -69.5624 -69.5624 -69.5431 -64.6727 -31.6592 -31.6452 -31.6452
    -9.5201  -8.8044   2.1960   2.1960   2.3187   3.2645   3.2645   4.5288
     5.9060   6.2215   6.2215   7.3147   7.3147

     occupation numbers 
     1.0000   1.0000   1.0000   1.0000   1.0000   1.0000   1.0000   1.0000
     1.0000   1.0000   1.0000   1.0000   1.0000   1.0000   1.0000   1.0000
     1.0000   1.0000   1.0000   1.0000   1.0000

          k = 0.0000 0.0000-0.4048 (  3672 PWs)   bands (ev):

  -115.1959 -69.5624 -69.5624 -69.5431 -64.6727 -31.6595 -31.6452 -31.6452
    -9.4042  -8.9158   2.1972   2.1972   2.2351   3.2400   3.2400   4.5809
     5.7893   6.2963   6.2963   7.2775   7.2775

     occupation numbers 
     1.0000   1.0000   1.0000   1.0000   1.0000   1.0000   1.0000   1.0000
     1.0000   1.0000   1.0000   1.0000   1.0000   1.0000   1.0000   1.0000
     1.0000   1.0000   1.0000   1.0000   1.0000

          k =-0.0000 0.1443-0.0000 (  3634 PWs)   bands (ev):

  -115.1959 -69.5625 -69.5624 -69.5431 -64.6726 -31.6575 -31.6479 -31.6459
    -9.8137  -8.4599   2.1663   2.2684   3.0350   3.4167   3.6607   3.7989
     5.5405   5.7502   6.8569   6.9602   7.3290

     occupation numbers 
     1.0000   1.0000   1.0000   1.0000   1.0000   1.0000   1.0000   1.0000
     1.0000   1.0000   1.0000   1.0000   1.0000   1.0000   1.0000   1.0000
     1.0000   1.0000   1.0000   1.0000   1.0000

          k =-0.0000 0.1443 0.1012 (  3653 PWs)   bands (ev):

  -115.1959 -69.5625 -69.5624 -69.5431 -64.6726 -31.6577 -31.6479 -31.6459
    -9.7663  -8.4996   2.1650   2.2699   2.8769   3.3865   3.3987   4.1435
     5.6207   5.8174   6.4206   7.2751   7.3013

     occupation numbers 
     1.0000   1.0000   1.0000   1.0000   1.0000   1.0000   1.0000   1.0000
     1.0000   1.0000   1.0000   1.0000   1.0000   1.0000   1.0000   1.0000
     1.0000   1.0000   1.0000   1.0000   1.0000

          k =-0.0000 0.1443 0.2024 (  3665 PWs)   bands (ev):

  -115.1959 -69.5625 -69.5624 -69.5431 -64.6726 -31.6584 -31.6479 -31.6458
    -9.6349  -8.6129   2.1567   2.2738   2.5700   3.2000   3.3180   4.4738
     5.7645   5.9868   6.0321   7.2228   7.4326

     occupation numbers 
     1.0000   1.0000   1.0000   1.0000   1.0000   1.0000   1.0000   1.0000
     1.0000   1.0000   1.0000   1.0000   1.0000   1.0000   1.0000   1.0000
     1.0000   1.0000   1.0000   1.0000   1.0000

          k =-0.0000 0.1443 0.3036 (  3663 PWs)   bands (ev):

  -115.1959 -69.5625 -69.5624 -69.5431 -64.6726 -31.6590 -31.6478 -31.6458
    -9.4590  -8.7713   2.1260   2.2778   2.3616   3.0613   3.2545   4.6734
     5.5777   6.1358   6.1764   7.1190   7.4441

     occupation numbers 
     1.0000   1.0000   1.0000   1.0000   1.0000   1.0000   1.0000   1.0000
     1.0000   1.0000   1.0000   1.0000   1.0000   1.0000   1.0000   1.0000
     1.0000   1.0000   1.0000   1.0000   1.0000

          k = 0.0000 0.1443-0.4048 (  3660 PWs)   bands (ev):

  -115.1959 -69.5625 -69.5624 -69.5431 -64.6726 -31.6592 -31.6478 -31.6458
    -9.3528  -8.8704   2.0964   2.2795   2.3073   3.0078   3.2295   4.7410
     5.4684   6.2364   6.2675   7.0622   7.4251

     occupation numbers 
     1.0000   1.0000   1.0000   1.0000   1.0000   1.0000   1.0000   1.0000
     1.0000   1.0000   1.0000   1.0000   1.0000   1.0000   1.0000   1.0000
     1.0000   1.0000   1.0000   1.0000   1.0000

          k = 0.0000 0.1443-0.3036 (  3663 PWs)   bands (ev):

  -115.1959 -69.5625 -69.5624 -69.5431 -64.6726 -31.6590 -31.6478 -31.6458
    -9.4590  -8.7713   2.1257   2.2777   2.3621   3.0611   3.2547   4.6751
     5.5722   6.1392   6.1772   7.1182   7.4447

     occupation numbers 
     1.0000   1.0000   1.0000   1.0000   1.0000   1.0000   1.0000   1.0000
     1.0000   1.0000   1.0000   1.0000   1.0000   1.0000   1.0000   1.0000
     1.0000   1.0000   1.0000   1.0000   1.0000

          k =-0.0000 0.1443-0.2024 (  3665 PWs)   bands (ev):

  -115.1959 -69.5625 -69.5624 -69.5431 -64.6726 -31.6584 -31.6479 -31.6458
    -9.6349  -8.6129   2.1567   2.2736   2.5703   3.1998   3.3182   4.4753
     5.7548   5.9876   6.0395   7.2219   7.4338

     occupation numbers 
     1.0000   1.0000   1.0000   1.0000   1.0000   1.0000   1.0000   1.0000
     1.0000   1.0000   1.0000   1.0000   1.0000   1.0000   1.0000   1.0000
     1.0000   1.0000   1.0000   1.0000   1.0000

          k =-0.0000 0.1443-0.1012 (  3654 PWs)   bands (ev):

  -115.1959 -69.5625 -69.5624 -69.5431 -64.6726 -31.6577 -31.6479 -31.6459
    -9.7663  -8.4996   2.1651   2.2698   2.8769   3.3866   3.3984   4.1444
     5.6189   5.8178   6.4205   7.2767   7.3007

     occupation numbers 
     1.0000   1.0000   1.0000   1.0000   1.0000   1.0000   1.0000   1.0000
     1.0000   1.0000   1.0000   1.0000   1.0000   1.0000   1.0000   1.0000
     1.0000   1.0000   1.0000   1.0000   1.0000

          k =-0.0000 0.2887-0.0000 (  3654 PWs)   bands (ev):

  -115.1959 -69.5628 -69.5625 -69.5431 -64.6723 -31.6569 -31.6542 -31.6473
    -9.5971  -8.4827   2.1478   2.4843   2.9078   3.4029   3.7742   4.0794
     4.9055   5.5073   5.9759   6.7299   7.0259

     occupation numbers 
     1.0000   1.0000   1.0000   1.0000   1.0000   1.0000   1.0000   1.0000
     1.0000   1.0000   1.0000   1.0000   1.0000   1.0000   1.0000   1.0000
     1.0000   1.0000   1.0000   1.0000   1.0000

          k =-0.0000 0.2887 0.1012 (  3663 PWs)   bands (ev):

  -115.1959 -69.5628 -69.5625 -69.5431 -64.6723 -31.6572 -31.6542 -31.6473
    -9.5566  -8.5092   2.1439   2.4869   2.7949   3.3707   3.4163   4.3167
     5.0740   5.5827   5.7779   6.9842   7.0058

     occupation numbers 
     1.0000   1.0000   1.0000   1.0000   1.0000   1.0000   1.0000   1.0000
     1.0000   1.0000   1.0000   1.0000   1.0000   1.0000   1.0000   1.0000
     1.0000   1.0000   1.0000   1.0000   1.0000

          k =-0.0000 0.2887 0.2024 (  3653 PWs)   bands (ev):

  -115.1959 -69.5628 -69.5625 -69.5431 -64.6723 -31.6578 -31.6542 -31.6473
    -9.4463  -8.5858   2.1222   2.4935   2.5585   2.9943   3.2980   4.5114
     5.2172   5.7345   5.7804   6.8625   7.3902

     occupation numbers 
     1.0000   1.0000   1.0000   1.0000   1.0000   1.0000   1.0000   1.0000
     1.0000   1.0000   1.0000   1.0000   1.0000   1.0000   1.0000   1.0000
     1.0000   1.0000   1.0000   1.0000   1.0000

          k =-0.0000 0.2887 0.3036 (  3654 PWs)   bands (ev):

  -115.1959 -69.5628 -69.5625 -69.5431 -64.6723 -31.6584 -31.6541 -31.6472
    -9.3049  -8.6937   2.0581   2.4020   2.5006   2.6991   3.2306   4.6539
     5.0434   6.0330   6.0392   6.6798   7.5982

     occupation numbers 
     1.0000   1.0000   1.0000   1.0000   1.0000   1.0000   1.0000   1.0000
     1.0000   1.0000   1.0000   1.0000   1.0000   1.0000   1.0000   1.0000
     1.0000   1.0000   1.0000   1.0000   1.0000

          k =-0.0000 0.2887-0.4048 (  3646 PWs)   bands (ev):

  -115.1959 -69.5628 -69.5625 -69.5430 -64.6723 -31.6587 -31.6541 -31.6472
    -9.2261  -8.7587   2.0111   2.3749   2.5037   2.5843   3.2040   4.7496
     4.9167   6.1873   6.2004   6.5399   7.6468

     occupation numbers 
     1.0000   1.0000   1.0000   1.0000   1.0000   1.0000   1.0000   1.0000
     1.0000   1.0000   1.0000   1.0000   1.0000   1.0000   1.0000   1.0000
     1.0000   1.0000   1.0000   1.0000   1.0000

          k =-0.0000 0.2887-0.3036 (  3654 PWs)   bands (ev):

  -115.1959 -69.5628 -69.5625 -69.5431 -64.6723 -31.6584 -31.6541 -31.6472
    -9.3049  -8.6937   2.0569   2.4052   2.5003   2.6972   3.2308   4.6633
     5.0292   6.0346   6.0427   6.6782   7.5998

     occupation numbers 
     1.0000   1.0000   1.0000   1.0000   1.0000   1.0000   1.0000   1.0000
     1.0000   1.0000   1.0000   1.0000   1.0000   1.0000   1.0000   1.0000
     1.0000   1.0000   1.0000   1.0000   1.0000

          k =-0.0000 0.2887-0.2024 (  3653 PWs)   bands (ev):

  -115.1959 -69.5628 -69.5625 -69.5431 -64.6723 -31.6578 -31.6542 -31.6473
    -9.4463  -8.5858   2.1221   2.4931   2.5596   2.9930   3.2983   4.5195
     5.2002   5.7411   5.7817   6.8611   7.3934

     occupation numbers 
     1.0000   1.0000   1.0000   1.0000   1.0000   1.0000   1.0000   1.0000
     1.0000   1.0000   1.0000   1.0000   1.0000   1.0000   1.0000   1.0000
     1.0000   1.0000   1.0000   1.0000   1.0000

          k =-0.0000 0.2887-0.1012 (  3663 PWs)   bands (ev):

  -115.1959 -69.5628 -69.5625 -69.5431 -64.6723 -31.6572 -31.6542 -31.6473
    -9.5566  -8.5092   2.1442   2.4867   2.7949   3.3709   3.4146   4.3224
     5.0687   5.5834   5.7749   6.9834   7.0101

     occupation numbers 
     1.0000   1.0000   1.0000   1.0000   1.0000   1.0000   1.0000   1.0000
     1.0000   1.0000   1.0000   1.0000   1.0000   1.0000   1.0000   1.0000
     1.0000   1.0000   1.0000   1.0000   1.0000

          k =-0.0000 0.4330-0.0000 (  3666 PWs)   bands (ev):

  -115.1959 -69.5631 -69.5626 -69.5431 -64.6720 -31.6605 -31.6564 -31.6487
    -9.3338  -8.5482   2.2013   2.7545   2.8410   3.3891   3.6274   4.4286
     4.5236   5.1883   5.3018   6.4168   6.7668

     occupation numbers 
     1.0000   1.0000   1.0000   1.0000   1.0000   1.0000   1.0000   1.0000
     1.0000   1.0000   1.0000   1.0000   1.0000   1.0000   1.0000   1.0000
     1.0000   1.0000   1.0000   1.0000   1.0000

          k =-0.0000 0.4330 0.1012 (  3651 PWs)   bands (ev):

  -115.1959 -69.5631 -69.5626 -69.5430 -64.6720 -31.6605 -31.6567 -31.6487
    -9.3045  -8.5567   2.1944   2.7272   2.7577   3.3550   3.4307   4.0751
     4.8148   5.2671   5.4615   6.6950   6.7172

     occupation numbers 
     1.0000   1.0000   1.0000   1.0000   1.0000   1.0000   1.0000   1.0000
     1.0000   1.0000   1.0000   1.0000   1.0000   1.0000   1.0000   1.0000
     1.0000   1.0000   1.0000   1.0000   1.0000

          k =-0.0000 0.4330 0.2024 (  3648 PWs)   bands (ev):

  -115.1959 -69.5631 -69.5626 -69.5430 -64.6720 -31.6605 -31.6573 -31.6487
    -9.2279  -8.5831   2.1625   2.5082   2.7663   2.9139   3.2783   3.9874
     4.9105   5.4750   5.7972   6.5734   7.2458

     occupation numbers 
     1.0000   1.0000   1.0000   1.0000   1.0000   1.0000   1.0000   1.0000
     1.0000   1.0000   1.0000   1.0000   1.0000   1.0000   1.0000   1.0000
     1.0000   1.0000   1.0000   1.0000   1.0000

          k =-0.0000 0.4330 0.3036 (  3650 PWs)   bands (ev):

  -115.1959 -69.5631 -69.5626 -69.5430 -64.6720 -31.6604 -31.6578 -31.6486
    -9.1386  -8.6217   2.0889   2.3347   2.5331   2.7768   3.2068   3.9808
     4.9174   5.7520   6.1181   6.3531   7.6515

     occupation numbers 
     1.0000   1.0000   1.0000   1.0000   1.0000   1.0000   1.0000   1.0000
     1.0000   1.0000   1.0000   1.0000   1.0000   1.0000   1.0000   1.0000
     1.0000   1.0000   1.0000   1.0000   1.0000

          k =-0.0000 0.4330-0.4048 (  3642 PWs)   bands (ev):

  -115.1959 -69.5631 -69.5626 -69.5430 -64.6720 -31.6604 -31.6581 -31.6486
    -9.0954  -8.6438   2.0436   2.2425   2.4402   2.7817   3.1782   3.9814
     4.9123   5.9885   6.1384   6.2528   7.7820

     occupation numbers 
     1.0000   1.0000   1.0000   1.0000   1.0000   1.0000   1.0000   1.0000
     1.0000   1.0000   1.0000   1.0000   1.0000   1.0000   1.0000   1.0000
     1.0000   1.0000   1.0000   1.0000   1.0000

          k =-0.0000 0.4330-0.3036 (  3650 PWs)   bands (ev):

  -115.1959 -69.5631 -69.5626 -69.5430 -64.6720 -31.6604 -31.6578 -31.6486
    -9.1386  -8.6217   2.0868   2.3416   2.5280   2.7764   3.2072   3.9820
     4.9153   5.7532   6.1176   6.3519   7.6534

     occupation numbers 
     1.0000   1.0000   1.0000   1.0000   1.0000   1.0000   1.0000   1.0000
     1.0000   1.0000   1.0000   1.0000   1.0000   1.0000   1.0000   1.0000
     1.0000   1.0000   1.0000   1.0000   1.0000

          k =-0.0000 0.4330-0.2024 (  3648 PWs)   bands (ev):

  -115.1959 -69.5631 -69.5626 -69.5430 -64.6720 -31.6605 -31.6573 -31.6487
    -9.2279  -8.5831   2.1633   2.5087   2.7658   2.9115   3.2787   3.9902
     4.9089   5.4759   5.7936   6.5724   7.2497

     occupation numbers 
     1.0000   1.0000   1.0000   1.0000   1.0000   1.0000   1.0000   1.0000
     1.0000   1.0000   1.0000   1.0000   1.0000   1.0000   1.0000   1.0000
     1.0000   1.0000   1.0000   1.0000   1.0000

          k =-0.0000 0.4330-0.1012 (  3649 PWs)   bands (ev):

  -115.1959 -69.5631 -69.5626 -69.5430 -64.6720 -31.6605 -31.6567 -31.6487
    -9.3045  -8.5567   2.1955   2.7265   2.7574   3.3553   3.4268   4.0798
     4.8201   5.2676   5.4498   6.7005   6.7166

     occupation numbers 
     1.0000   1.0000   1.0000   1.0000   1.0000   1.0000   1.0000   1.0000
     1.0000   1.0000   1.0000   1.0000   1.0000   1.0000   1.0000   1.0000
     1.0000   1.0000   1.0000   1.0000   1.0000

          k = 0.0000-0.5773 0.0000 (  3666 PWs)   bands (ev):

  -115.1959 -69.5633 -69.5627 -69.5430 -64.6719 -31.6631 -31.6562 -31.6493
    -9.1944  -8.6044   2.2594   2.8209   2.8935   3.3834   3.4826   4.3151
     4.7480   5.0217   5.0380   6.2359   6.6724

     occupation numbers 
     1.0000   1.0000   1.0000   1.0000   1.0000   1.0000   1.0000   1.0000
     1.0000   1.0000   1.0000   1.0000   1.0000   1.0000   1.0000   1.0000
     1.0000   1.0000   1.0000   1.0000   1.0000

          k = 0.0000-0.5773 0.1012 (  3644 PWs)   bands (ev):

  -115.1959 -69.5632 -69.5626 -69.5430 -64.6719 -31.6631 -31.6564 -31.6493
    -9.1735  -8.6017   2.2444   2.7146   2.8964   3.3488   3.4258   3.8453
     4.6959   5.1006   5.5308   6.5143   6.6215

     occupation numbers 
     1.0000   1.0000   1.0000   1.0000   1.0000   1.0000   1.0000   1.0000
     1.0000   1.0000   1.0000   1.0000   1.0000   1.0000   1.0000   1.0000
     1.0000   1.0000   1.0000   1.0000   1.0000

          k = 0.0000-0.5774 0.2024 (  3650 PWs)   bands (ev):

  -115.1959 -69.5633 -69.5626 -69.5430 -64.6719 -31.6631 -31.6570 -31.6493
    -9.1210  -8.5968   2.1806   2.5350   2.9047   2.9304   3.2709   3.6161
     4.8035   5.3055   5.9089   6.4768   7.1578

     occupation numbers 
     1.0000   1.0000   1.0000   1.0000   1.0000   1.0000   1.0000   1.0000
     1.0000   1.0000   1.0000   1.0000   1.0000   1.0000   1.0000   1.0000
     1.0000   1.0000   1.0000   1.0000   1.0000

          k = 0.0000-0.5774 0.3036 (  3662 PWs)   bands (ev):

  -115.1959 -69.5633 -69.5627 -69.5430 -64.6719 -31.6630 -31.6576 -31.6492
    -9.0648  -8.5948   2.0889   2.3379   2.5341   2.9163   3.1977   3.6010
     4.8657   5.5676   6.1842   6.2669   7.6580

     occupation numbers 
     1.0000   1.0000   1.0000   1.0000   1.0000   1.0000   1.0000   1.0000
     1.0000   1.0000   1.0000   1.0000   1.0000   1.0000   1.0000   1.0000
     1.0000   1.0000   1.0000   1.0000   1.0000

          k = 0.0000-0.5773-0.4048 (  3664 PWs)   bands (ev):

  -115.1959 -69.5633 -69.5627 -69.5430 -64.6719 -31.6630 -31.6579 -31.6492
    -9.0401  -8.5952   2.1073   2.1156   2.4884   2.9227   3.1676   3.5995
     4.8812   5.7421   6.1123   6.2997   7.8245

     occupation numbers 
     1.0000   1.0000   1.0000   1.0000   1.0000   1.0000   1.0000   1.0000
     1.0000   1.0000   1.0000   1.0000   1.0000   1.0000   1.0000   1.0000
     1.0000   1.0000   1.0000   1.0000   1.0000

          k = 0.1250 0.0722-0.0000 (  3634 PWs)   bands (ev):

  -115.1959 -69.5625 -69.5624 -69.5431 -64.6726 -31.6575 -31.6479 -31.6459
    -9.8137  -8.4599   2.1663   2.2684   3.0350   3.4167   3.6607   3.7989
     5.5405   5.7502   6.8569   6.9602   7.3290

     occupation numbers 
     1.0000   1.0000   1.0000   1.0000   1.0000   1.0000   1.0000   1.0000
     1.0000   1.0000   1.0000   1.0000   1.0000   1.0000   1.0000   1.0000
     1.0000   1.0000   1.0000   1.0000   1.0000

          k = 0.1250 0.0722 0.1012 (  3653 PWs)   bands (ev):

  -115.1959 -69.5625 -69.5624 -69.5431 -64.6726 -31.6577 -31.6479 -31.6459
    -9.7663  -8.4996   2.1651   2.2698   2.8769   3.3866   3.3984   4.1444
     5.6189   5.8178   6.4205   7.2767   7.3007

     occupation numbers 
     1.0000   1.0000   1.0000   1.0000   1.0000   1.0000   1.0000   1.0000
     1.0000   1.0000   1.0000   1.0000   1.0000   1.0000   1.0000   1.0000
     1.0000   1.0000   1.0000   1.0000   1.0000

          k = 0.1250 0.0722 0.2024 (  3665 PWs)   bands (ev):

  -115.1959 -69.5625 -69.5624 -69.5431 -64.6726 -31.6584 -31.6479 -31.6458
    -9.6349  -8.6129   2.1566   2.2736   2.5703   3.1998   3.3182   4.4753
     5.7548   5.9876   6.0395   7.2219   7.4338

     occupation numbers 
     1.0000   1.0000   1.0000   1.0000   1.0000   1.0000   1.0000   1.0000
     1.0000   1.0000   1.0000   1.0000   1.0000   1.0000   1.0000   1.0000
     1.0000   1.0000   1.0000   1.0000   1.0000

          k = 0.1250 0.0722 0.3036 (  3663 PWs)   bands (ev):

  -115.1959 -69.5625 -69.5624 -69.5431 -64.6726 -31.6590 -31.6478 -31.6458
    -9.4590  -8.7713   2.1257   2.2777   2.3621   3.0611   3.2547   4.6751
     5.5722   6.1392   6.1772   7.1182   7.4447

     occupation numbers 
     1.0000   1.0000   1.0000   1.0000   1.0000   1.0000   1.0000   1.0000
     1.0000   1.0000   1.0000   1.0000   1.0000   1.0000   1.0000   1.0000
     1.0000   1.0000   1.0000   1.0000   1.0000

          k = 0.1250 0.0722-0.4048 (  3660 PWs)   bands (ev):

  -115.1959 -69.5625 -69.5624 -69.5431 -64.6726 -31.6592 -31.6478 -31.6458
    -9.3528  -8.8704   2.0964   2.2795   2.3073   3.0078   3.2295   4.7410
     5.4684   6.2364   6.2675   7.0622   7.4251

     occupation numbers 
     1.0000   1.0000   1.0000   1.0000   1.0000   1.0000   1.0000   1.0000
     1.0000   1.0000   1.0000   1.0000   1.0000   1.0000   1.0000   1.0000
     1.0000   1.0000   1.0000   1.0000   1.0000

          k = 0.1250 0.0722-0.3036 (  3663 PWs)   bands (ev):

  -115.1959 -69.5625 -69.5624 -69.5431 -64.6726 -31.6590 -31.6478 -31.6458
    -9.4590  -8.7713   2.1260   2.2778   2.3616   3.0613   3.2545   4.6734
     5.5777   6.1358   6.1764   7.1190   7.4441

     occupation numbers 
     1.0000   1.0000   1.0000   1.0000   1.0000   1.0000   1.0000   1.0000
     1.0000   1.0000   1.0000   1.0000   1.0000   1.0000   1.0000   1.0000
     1.0000   1.0000   1.0000   1.0000   1.0000

          k = 0.1250 0.0722-0.2024 (  3665 PWs)   bands (ev):

  -115.1959 -69.5625 -69.5624 -69.5431 -64.6726 -31.6584 -31.6479 -31.6458
    -9.6349  -8.6129   2.1567   2.2738   2.5700   3.2000   3.3180   4.4738
     5.7645   5.9868   6.0321   7.2228   7.4326

     occupation numbers 
     1.0000   1.0000   1.0000   1.0000   1.0000   1.0000   1.0000   1.0000
     1.0000   1.0000   1.0000   1.0000   1.0000   1.0000   1.0000   1.0000
     1.0000   1.0000   1.0000   1.0000   1.0000

          k = 0.1250 0.0722-0.1012 (  3654 PWs)   bands (ev):

  -115.1959 -69.5625 -69.5624 -69.5431 -64.6726 -31.6577 -31.6479 -31.6459
    -9.7663  -8.4996   2.1650   2.2699   2.8769   3.3865   3.3987   4.1435
     5.6207   5.8174   6.4206   7.2751   7.3013

     occupation numbers 
     1.0000   1.0000   1.0000   1.0000   1.0000   1.0000   1.0000   1.0000
     1.0000   1.0000   1.0000   1.0000   1.0000   1.0000   1.0000   1.0000
     1.0000   1.0000   1.0000   1.0000   1.0000

          k = 0.1250 0.2165-0.0000 (  3659 PWs)   bands (ev):

  -115.1959 -69.5627 -69.5625 -69.5431 -64.6724 -31.6571 -31.6521 -31.6471
    -9.6641  -8.4729   2.1531   2.4139   2.9374   3.4023   3.7890   3.9632
     5.1252   5.4941   6.2788   6.8036   7.0492

     occupation numbers 
     1.0000   1.0000   1.0000   1.0000   1.0000   1.0000   1.0000   1.0000
     1.0000   1.0000   1.0000   1.0000   1.0000   1.0000   1.0000   1.0000
     1.0000   1.0000   1.0000   1.0000   1.0000

          k = 0.1250 0.2165 0.1012 (  3658 PWs)   bands (ev):

  -115.1959 -69.5627 -69.5625 -69.5431 -64.6724 -31.6574 -31.6521 -31.6471
    -9.6213  -8.5036   2.1499   2.4161   2.8203   3.3695   3.4131   4.2971
     5.2279   5.5856   6.0102   6.9997   7.1128

     occupation numbers 
     1.0000   1.0000   1.0000   1.0000   1.0000   1.0000   1.0000   1.0000
     1.0000   1.0000   1.0000   1.0000   1.0000   1.0000   1.0000   1.0000
     1.0000   1.0000   1.0000   1.0000   1.0000

          k = 0.1250 0.2165 0.2024 (  3659 PWs)   bands (ev):

  -115.1959 -69.5627 -69.5625 -69.5431 -64.6724 -31.6580 -31.6521 -31.6471
    -9.5040  -8.5919   2.1301   2.4220   2.5702   3.0482   3.2953   4.5689
     5.3225   5.7969   5.8663   6.8870   7.4541

     occupation numbers 
     1.0000   1.0000   1.0000   1.0000   1.0000   1.0000   1.0000   1.0000
     1.0000   1.0000   1.0000   1.0000   1.0000   1.0000   1.0000   1.0000
     1.0000   1.0000   1.0000   1.0000   1.0000

          k = 0.1250 0.2165 0.3036 (  3661 PWs)   bands (ev):

  -115.1959 -69.5627 -69.5625 -69.5431 -64.6724 -31.6586 -31.6520 -31.6471
    -9.3512  -8.7160   2.0706   2.3971   2.4311   2.8013   3.2265   4.7556
     5.1448   5.9805   6.1497   6.7165   7.6192

     occupation numbers 
     1.0000   1.0000   1.0000   1.0000   1.0000   1.0000   1.0000   1.0000
     1.0000   1.0000   1.0000   1.0000   1.0000   1.0000   1.0000   1.0000
     1.0000   1.0000   1.0000   1.0000   1.0000

          k = 0.1250 0.2165-0.4048 (  3644 PWs)   bands (ev):

  -115.1959 -69.5627 -69.5625 -69.5430 -64.6724 -31.6588 -31.6520 -31.6471
    -9.2637  -8.7918   2.0269   2.3575   2.4352   2.7087   3.1993   4.8890
     4.9853   6.1185   6.2838   6.6010   7.6527

     occupation numbers 
     1.0000   1.0000   1.0000   1.0000   1.0000   1.0000   1.0000   1.0000
     1.0000   1.0000   1.0000   1.0000   1.0000   1.0000   1.0000   1.0000
     1.0000   1.0000   1.0000   1.0000   1.0000

          k = 0.1250 0.2165-0.3036 (  3661 PWs)   bands (ev):

  -115.1959 -69.5627 -69.5625 -69.5431 -64.6724 -31.6586 -31.6520 -31.6471
    -9.3512  -8.7160   2.0706   2.3971   2.4311   2.8013   3.2265   4.7556
     5.1448   5.9805   6.1497   6.7165   7.6192

     occupation numbers 
     1.0000   1.0000   1.0000   1.0000   1.0000   1.0000   1.0000   1.0000
     1.0000   1.0000   1.0000   1.0000   1.0000   1.0000   1.0000   1.0000
     1.0000   1.0000   1.0000   1.0000   1.0000

          k = 0.1250 0.2165-0.2024 (  3659 PWs)   bands (ev):

  -115.1959 -69.5627 -69.5625 -69.5431 -64.6724 -31.6580 -31.6521 -31.6471
    -9.5040  -8.5919   2.1301   2.4220   2.5702   3.0482   3.2953   4.5689
     5.3225   5.7969   5.8663   6.8870   7.4540

     occupation numbers 
     1.0000   1.0000   1.0000   1.0000   1.0000   1.0000   1.0000   1.0000
     1.0000   1.0000   1.0000   1.0000   1.0000   1.0000   1.0000   1.0000
     1.0000   1.0000   1.0000   1.0000   1.0000

          k = 0.1250 0.2165-0.1012 (  3658 PWs)   bands (ev):

  -115.1959 -69.5627 -69.5625 -69.5431 -64.6724 -31.6574 -31.6521 -31.6471
    -9.6213  -8.5036   2.1499   2.4161   2.8203   3.3695   3.4131   4.2971
     5.2279   5.5856   6.0102   6.9997   7.1128

     occupation numbers 
     1.0000   1.0000   1.0000   1.0000   1.0000   1.0000   1.0000   1.0000
     1.0000   1.0000   1.0000   1.0000   1.0000   1.0000   1.0000   1.0000
     1.0000   1.0000   1.0000   1.0000   1.0000

          k = 0.1250 0.3608-0.0000 (  3659 PWs)   bands (ev):

  -115.1959 -69.5630 -69.5626 -69.5431 -64.6721 -31.6579 -31.6566 -31.6491
    -9.4200  -8.5206   2.2051   2.6615   2.8651   3.3783   3.7066   4.3879
     4.5892   5.1008   5.6664   6.5237   6.6978

     occupation numbers 
     1.0000   1.0000   1.0000   1.0000   1.0000   1.0000   1.0000   1.0000
     1.0000   1.0000   1.0000   1.0000   1.0000   1.0000   1.0000   1.0000
     1.0000   1.0000   1.0000   1.0000   1.0000

          k = 0.1250 0.3608 0.1012 (  3656 PWs)   bands (ev):

  -115.1959 -69.5630 -69.5626 -69.5431 -64.6721 -31.6579 -31.6568 -31.6491
    -9.3865  -8.5354   2.2026   2.6575   2.7620   3.3398   3.4310   4.2728
     4.7688   5.3501   5.5762   6.6290   6.8399

     occupation numbers 
     1.0000   1.0000   1.0000   1.0000   1.0000   1.0000   1.0000   1.0000
     1.0000   1.0000   1.0000   1.0000   1.0000   1.0000   1.0000   1.0000
     1.0000   1.0000   1.0000   1.0000   1.0000

          k = 0.1250 0.3608 0.2024 (  3655 PWs)   bands (ev):

  -115.1959 -69.5630 -69.5626 -69.5431 -64.6721 -31.6578 -31.6574 -31.6490
    -9.2975  -8.5793   2.1812   2.5178   2.6858   2.9332   3.2557   4.2686
     4.9239   5.4559   5.8699   6.4764   7.3639

     occupation numbers 
     1.0000   1.0000   1.0000   1.0000   1.0000   1.0000   1.0000   1.0000
     1.0000   1.0000   1.0000   1.0000   1.0000   1.0000   1.0000   1.0000
     1.0000   1.0000   1.0000   1.0000   1.0000

          k = 0.1250 0.3608 0.3036 (  3643 PWs)   bands (ev):

  -115.1959 -69.5630 -69.5626 -69.5430 -64.6721 -31.6580 -31.6578 -31.6490
    -9.1896  -8.6419   2.0976   2.3838   2.5616   2.7012   3.1767   4.2871
     4.9575   5.6280   6.1776   6.2937   7.7471

     occupation numbers 
     1.0000   1.0000   1.0000   1.0000   1.0000   1.0000   1.0000   1.0000
     1.0000   1.0000   1.0000   1.0000   1.0000   1.0000   1.0000   1.0000
     1.0000   1.0000   1.0000   1.0000   1.0000

          k = 0.1250 0.3608-0.4048 (  3640 PWs)   bands (ev):

  -115.1959 -69.5630 -69.5626 -69.5430 -64.6721 -31.6583 -31.6578 -31.6490
    -9.1346  -8.6781   2.0336   2.3780   2.4197   2.7037   3.1450   4.2954
     4.9472   5.8926   5.9485   6.3988   7.8741

     occupation numbers 
     1.0000   1.0000   1.0000   1.0000   1.0000   1.0000   1.0000   1.0000
     1.0000   1.0000   1.0000   1.0000   1.0000   1.0000   1.0000   1.0000
     1.0000   1.0000   1.0000   1.0000   1.0000

          k = 0.1250 0.3608-0.3036 (  3643 PWs)   bands (ev):

  -115.1959 -69.5630 -69.5626 -69.5430 -64.6721 -31.6580 -31.6578 -31.6490
    -9.1896  -8.6419   2.0964   2.3880   2.5586   2.7009   3.1770   4.2888
     4.9539   5.6296   6.1785   6.2922   7.7480

     occupation numbers 
     1.0000   1.0000   1.0000   1.0000   1.0000   1.0000   1.0000   1.0000
     1.0000   1.0000   1.0000   1.0000   1.0000   1.0000   1.0000   1.0000
     1.0000   1.0000   1.0000   1.0000   1.0000

          k = 0.1250 0.3608-0.2024 (  3655 PWs)   bands (ev):

  -115.1959 -69.5630 -69.5626 -69.5431 -64.6721 -31.6578 -31.6574 -31.6490
    -9.2975  -8.5793   2.1815   2.5180   2.6860   2.9319   3.2560   4.2716
     4.9199   5.4567   5.8690   6.4763   7.3656

     occupation numbers 
     1.0000   1.0000   1.0000   1.0000   1.0000   1.0000   1.0000   1.0000
     1.0000   1.0000   1.0000   1.0000   1.0000   1.0000   1.0000   1.0000
     1.0000   1.0000   1.0000   1.0000   1.0000

          k = 0.1250 0.3608-0.1012 (  3656 PWs)   bands (ev):

  -115.1959 -69.5630 -69.5626 -69.5431 -64.6721 -31.6579 -31.6568 -31.6491
    -9.3865  -8.5354   2.2031   2.6570   2.7621   3.3397   3.4296   4.2765
     4.7687   5.3499   5.5715   6.6313   6.8407

     occupation numbers 
     1.0000   1.0000   1.0000   1.0000   1.0000   1.0000   1.0000   1.0000
     1.0000   1.0000   1.0000   1.0000   1.0000   1.0000   1.0000   1.0000
     1.0000   1.0000   1.0000   1.0000   1.0000

          k = 0.1250 0.5052-0.0000 (  3652 PWs)   bands (ev):

  -115.1959 -69.5632 -69.5627 -69.5430 -64.6719 -31.6619 -31.6562 -31.6505
    -9.1992  -8.6001   2.3275   2.8336   2.8934   3.3604   3.5067   4.2612
     4.7566   4.9199   5.1539   6.2399   6.5000

     occupation numbers 
     1.0000   1.0000   1.0000   1.0000   1.0000   1.0000   1.0000   1.0000
     1.0000   1.0000   1.0000   1.0000   1.0000   1.0000   1.0000   1.0000
     1.0000   1.0000   1.0000   1.0000   1.0000

          k = 0.1250 0.5052 0.1012 (  3650 PWs)   bands (ev):

  -115.1959 -69.5632 -69.5627 -69.5430 -64.6719 -31.6619 -31.6564 -31.6505
    -9.1779  -8.5980   2.3193   2.7179   2.9070   3.3171   3.4312   3.9084
     4.5635   5.0658   5.6235   6.3990   6.5675

     occupation numbers 
     1.0000   1.0000   1.0000   1.0000   1.0000   1.0000   1.0000   1.0000
     1.0000   1.0000   1.0000   1.0000   1.0000   1.0000   1.0000   1.0000
     1.0000   1.0000   1.0000   1.0000   1.0000

          k = 0.1250 0.5052 0.2024 (  3647 PWs)   bands (ev):

  -115.1959 -69.5632 -69.5627 -69.5430 -64.6719 -31.6619 -31.6570 -31.6505
    -9.1242  -8.5947   2.2708   2.5277   2.9099   2.9428   3.2287   3.7055
     4.7363   5.1147   6.0455   6.2727   7.2237

     occupation numbers 
     1.0000   1.0000   1.0000   1.0000   1.0000   1.0000   1.0000   1.0000
     1.0000   1.0000   1.0000   1.0000   1.0000   1.0000   1.0000   1.0000
     1.0000   1.0000   1.0000   1.0000   1.0000

          k = 0.1250 0.5052 0.3036 (  3640 PWs)   bands (ev):

  -115.1959 -69.5632 -69.5627 -69.5430 -64.6719 -31.6618 -31.6576 -31.6504
    -9.0665  -8.5946   2.1673   2.3511   2.5408   2.9433   3.1419   3.6901
[...]
     4.7345   5.1117   6.0407   6.2703   7.2224

     occupation numbers 
     1.0000   1.0000   1.0000   1.0000   1.0000   1.0000   1.0000   1.0000
     1.0000   1.0000   1.0000   1.0000   1.0000   1.0000   1.0000   1.0000
     1.0000   1.0000   1.0000   1.0000   1.0000

          k =-0.4999-0.1443-0.1012 (  3651 PWs)   bands (ev):

  -115.1951 -69.5627 -69.5623 -69.5424 -64.6781 -31.6680 -31.6625 -31.6566
    -9.1803  -8.6011   2.3196   2.7163   2.9067   3.3164   3.4280   3.9089
     4.5636   5.0619   5.6162   6.3994   6.5641

     occupation numbers 
     1.0000   1.0000   1.0000   1.0000   1.0000   1.0000   1.0000   1.0000
     1.0000   1.0000   1.0000   1.0000   1.0000   1.0000   1.0000   1.0000
     1.0000   1.0000   1.0000   1.0000   1.0000

          k =-0.4999 0.0000-0.0000 (  3669 PWs)   bands (ev):

  -115.1951 -69.5627 -69.5623 -69.5424 -64.6781 -31.6665 -31.6623 -31.6582
    -9.2064  -8.5990   2.3997   2.8469   2.8934   3.3362   3.5472   4.1699
     4.7567   4.8315   5.3064   6.2398   6.2930

     occupation numbers 
     1.0000   1.0000   1.0000   1.0000   1.0000   1.0000   1.0000   1.0000
     1.0000   1.0000   1.0000   1.0000   1.0000   1.0000   1.0000   1.0000
     1.0000   1.0000   1.0000   1.0000   1.0000

          k =-0.4999 0.0000 0.1012 (  3652 PWs)   bands (ev):

  -115.1951 -69.5627 -69.5623 -69.5424 -64.6781 -31.6665 -31.6625 -31.6582
    -9.1847  -8.5975   2.4028   2.7208   2.9137   3.2822   3.4368   4.0753
     4.2601   5.1479   5.6733   6.2254   6.5493

     occupation numbers 
     1.0000   1.0000   1.0000   1.0000   1.0000   1.0000   1.0000   1.0000
     1.0000   1.0000   1.0000   1.0000   1.0000   1.0000   1.0000   1.0000
     1.0000   1.0000   1.0000   1.0000   1.0000

          k =-0.4999 0.0000 0.2024 (  3651 PWs)   bands (ev):

  -115.1951 -69.5627 -69.5623 -69.5424 -64.6781 -31.6664 -31.6631 -31.6581
    -9.1298  -8.5957   2.4009   2.4899   2.9082   2.9462   3.1864   3.8657
     4.4762   5.1184   6.0151   6.1791   7.2648

     occupation numbers 
     1.0000   1.0000   1.0000   1.0000   1.0000   1.0000   1.0000   1.0000
     1.0000   1.0000   1.0000   1.0000   1.0000   1.0000   1.0000   1.0000
     1.0000   1.0000   1.0000   1.0000   1.0000

          k =-0.4999 0.0000 0.3037 (  3642 PWs)   bands (ev):

  -115.1951 -69.5627 -69.5623 -69.5424 -64.6781 -31.6664 -31.6637 -31.6581
    -9.0706  -8.5975   2.2648   2.3517   2.5458   2.9578   3.0856   3.8427
     4.7527   5.0683   5.7827   6.4912   7.8712

     occupation numbers 
     1.0000   1.0000   1.0000   1.0000   1.0000   1.0000   1.0000   1.0000
     1.0000   1.0000   1.0000   1.0000   1.0000   1.0000   1.0000   1.0000
     1.0000   1.0000   1.0000   1.0000   1.0000

          k =-0.4999-0.0000-0.4049 (  3640 PWs)   bands (ev):

  -115.1951 -69.5627 -69.5623 -69.5424 -64.6781 -31.6664 -31.6639 -31.6581
    -9.0444  -8.5998   2.1651   2.2598   2.4986   2.9890   3.0263   3.8400
     4.9645   4.9877   5.6425   6.6123   8.0957

     occupation numbers 
     1.0000   1.0000   1.0000   1.0000   1.0000   1.0000   1.0000   1.0000
     1.0000   1.0000   1.0000   1.0000   1.0000   1.0000   1.0000   1.0000
     1.0000   1.0000   1.0000   1.0000   1.0000

          k =-0.4999 0.0000-0.3037 (  3642 PWs)   bands (ev):

  -115.1951 -69.5627 -69.5623 -69.5424 -64.6781 -31.6664 -31.6637 -31.6581
    -9.0706  -8.5975   2.2648   2.3517   2.5458   2.9578   3.0856   3.8427
     4.7527   5.0683   5.7827   6.4912   7.8712

     occupation numbers 
     1.0000   1.0000   1.0000   1.0000   1.0000   1.0000   1.0000   1.0000
     1.0000   1.0000   1.0000   1.0000   1.0000   1.0000   1.0000   1.0000
     1.0000   1.0000   1.0000   1.0000   1.0000

          k =-0.4999 0.0000-0.2024 (  3651 PWs)   bands (ev):

  -115.1951 -69.5627 -69.5623 -69.5424 -64.6781 -31.6664 -31.6631 -31.6581
    -9.1298  -8.5957   2.4009   2.4899   2.9082   2.9462   3.1864   3.8657
     4.4762   5.1184   6.0151   6.1791   7.2648

     occupation numbers 
     1.0000   1.0000   1.0000   1.0000   1.0000   1.0000   1.0000   1.0000
     1.0000   1.0000   1.0000   1.0000   1.0000   1.0000   1.0000   1.0000
     1.0000   1.0000   1.0000   1.0000   1.0000

          k =-0.4999 0.0000-0.1012 (  3652 PWs)   bands (ev):

  -115.1951 -69.5627 -69.5623 -69.5424 -64.6781 -31.6665 -31.6625 -31.6582
    -9.1847  -8.5975   2.4028   2.7208   2.9137   3.2822   3.4368   4.0753
     4.2601   5.1479   5.6733   6.2254   6.5493

     occupation numbers 
     1.0000   1.0000   1.0000   1.0000   1.0000   1.0000   1.0000   1.0000
     1.0000   1.0000   1.0000   1.0000   1.0000   1.0000   1.0000   1.0000
     1.0000   1.0000   1.0000   1.0000   1.0000

          k =-0.4999 0.1443-0.0000 (  3652 PWs)   bands (ev):

  -115.1951 -69.5627 -69.5623 -69.5424 -64.6781 -31.6680 -31.6623 -31.6566
    -9.2016  -8.6032   2.3269   2.8333   2.8928   3.3600   3.5061   4.2594
     4.7533   4.9172   5.1517   6.2360   6.4974

     occupation numbers 
     1.0000   1.0000   1.0000   1.0000   1.0000   1.0000   1.0000   1.0000
     1.0000   1.0000   1.0000   1.0000   1.0000   1.0000   1.0000   1.0000
     1.0000   1.0000   1.0000   1.0000   1.0000

          k =-0.4999 0.1443 0.1012 (  3651 PWs)   bands (ev):

  -115.1951 -69.5627 -69.5623 -69.5424 -64.6781 -31.6680 -31.6625 -31.6566
    -9.1803  -8.6011   2.3196   2.7163   2.9067   3.3164   3.4280   3.9089
     4.5636   5.0619   5.6162   6.3994   6.5641

     occupation numbers 
     1.0000   1.0000   1.0000   1.0000   1.0000   1.0000   1.0000   1.0000
     1.0000   1.0000   1.0000   1.0000   1.0000   1.0000   1.0000   1.0000
     1.0000   1.0000   1.0000   1.0000   1.0000

          k =-0.4999 0.1443 0.2024 (  3647 PWs)   bands (ev):

  -115.1951 -69.5627 -69.5623 -69.5424 -64.6781 -31.6680 -31.6631 -31.6566
    -9.1266  -8.5978   2.2708   2.5265   2.9086   2.9398   3.2282   3.7055
     4.7345   5.1117   6.0407   6.2703   7.2224

     occupation numbers 
     1.0000   1.0000   1.0000   1.0000   1.0000   1.0000   1.0000   1.0000
     1.0000   1.0000   1.0000   1.0000   1.0000   1.0000   1.0000   1.0000
     1.0000   1.0000   1.0000   1.0000   1.0000

          k =-0.4999 0.1443 0.3037 (  3642 PWs)   bands (ev):

  -115.1951 -69.5627 -69.5623 -69.5424 -64.6781 -31.6679 -31.6637 -31.6566
    -9.0688  -8.5977   2.1644   2.3536   2.5367   2.9427   3.1412   3.6894
     4.8875   5.2330   5.9825   6.3961   7.7786

     occupation numbers 
     1.0000   1.0000   1.0000   1.0000   1.0000   1.0000   1.0000   1.0000
     1.0000   1.0000   1.0000   1.0000   1.0000   1.0000   1.0000   1.0000
     1.0000   1.0000   1.0000   1.0000   1.0000

          k =-0.4999 0.1443-0.4049 (  3646 PWs)   bands (ev):

  -115.1951 -69.5627 -69.5623 -69.5424 -64.6781 -31.6679 -31.6639 -31.6566
    -9.0434  -8.5990   2.1367   2.1804   2.4930   2.9563   3.1020   3.6880
     4.9236   5.3675   5.8272   6.5096   7.9765

     occupation numbers 
     1.0000   1.0000   1.0000   1.0000   1.0000   1.0000   1.0000   1.0000
     1.0000   1.0000   1.0000   1.0000   1.0000   1.0000   1.0000   1.0000
     1.0000   1.0000   1.0000   1.0000   1.0000

          k =-0.4999 0.1443-0.3037 (  3642 PWs)   bands (ev):

  -115.1951 -69.5627 -69.5623 -69.5424 -64.6781 -31.6679 -31.6637 -31.6566
    -9.0688  -8.5977   2.1656   2.3495   2.5397   2.9429   3.1410   3.6890
     4.8882   5.2325   5.9825   6.3966   7.7779

     occupation numbers 
     1.0000   1.0000   1.0000   1.0000   1.0000   1.0000   1.0000   1.0000
     1.0000   1.0000   1.0000   1.0000   1.0000   1.0000   1.0000   1.0000
     1.0000   1.0000   1.0000   1.0000   1.0000

          k =-0.4999 0.1443-0.2024 (  3647 PWs)   bands (ev):

  -115.1951 -69.5627 -69.5623 -69.5424 -64.6781 -31.6680 -31.6631 -31.6566
    -9.1266  -8.5978   2.2697   2.5270   2.9087   2.9414   3.2280   3.7042
     4.7343   5.1121   6.0423   6.2701   7.2209

     occupation numbers 
     1.0000   1.0000   1.0000   1.0000   1.0000   1.0000   1.0000   1.0000
     1.0000   1.0000   1.0000   1.0000   1.0000   1.0000   1.0000   1.0000
     1.0000   1.0000   1.0000   1.0000   1.0000

          k =-0.4999 0.1443-0.1012 (  3651 PWs)   bands (ev):

  -115.1951 -69.5627 -69.5623 -69.5424 -64.6781 -31.6680 -31.6625 -31.6566
    -9.1803  -8.6011   2.3186   2.7173   2.9065   3.3166   3.4304   3.9063
     4.5610   5.0630   5.6209   6.3962   6.5642

     occupation numbers 
     1.0000   1.0000   1.0000   1.0000   1.0000   1.0000   1.0000   1.0000
     1.0000   1.0000   1.0000   1.0000   1.0000   1.0000   1.0000   1.0000
     1.0000   1.0000   1.0000   1.0000   1.0000

          k =-0.4999-0.8658-0.0000 (  3666 PWs)   bands (ev):

  -115.1951 -69.5628 -69.5622 -69.5424 -64.6781 -31.6692 -31.6623 -31.6554
    -9.1968  -8.6075   2.2587   2.8207   2.8930   3.3830   3.4820   4.3135
     4.7447   5.0182   5.0364   6.2320   6.6695

     occupation numbers 
     1.0000   1.0000   1.0000   1.0000   1.0000   1.0000   1.0000   1.0000
     1.0000   1.0000   1.0000   1.0000   1.0000   1.0000   1.0000   1.0000
     1.0000   1.0000   1.0000   1.0000   1.0000

          k =-0.4999-0.8658 0.1012 (  3644 PWs)   bands (ev):

  -115.1951 -69.5628 -69.5622 -69.5424 -64.6781 -31.6692 -31.6625 -31.6554
    -9.1759  -8.6048   2.2436   2.7142   2.8959   3.3482   3.4250   3.8432
     4.6937   5.0972   5.5283   6.5109   6.6186

     occupation numbers 
     1.0000   1.0000   1.0000   1.0000   1.0000   1.0000   1.0000   1.0000
     1.0000   1.0000   1.0000   1.0000   1.0000   1.0000   1.0000   1.0000
     1.0000   1.0000   1.0000   1.0000   1.0000

          k =-0.4999-0.8658 0.2024 (  3654 PWs)   bands (ev):

  -115.1951 -69.5628 -69.5622 -69.5424 -64.6781 -31.6692 -31.6631 -31.6554
    -9.1234  -8.5999   2.1795   2.5344   2.9043   2.9283   3.2702   3.6151
     4.8019   5.3022   5.9057   6.4740   7.1551

     occupation numbers 
     1.0000   1.0000   1.0000   1.0000   1.0000   1.0000   1.0000   1.0000
     1.0000   1.0000   1.0000   1.0000   1.0000   1.0000   1.0000   1.0000
     1.0000   1.0000   1.0000   1.0000   1.0000

          k =-0.4999-0.8658 0.3037 (  3662 PWs)   bands (ev):

  -115.1951 -69.5628 -69.5622 -69.5424 -64.6781 -31.6691 -31.6637 -31.6554
    -9.0671  -8.5979   2.0873   2.3362   2.5329   2.9159   3.1968   3.6001
     4.8643   5.5645   6.1808   6.2641   7.6554

     occupation numbers 
     1.0000   1.0000   1.0000   1.0000   1.0000   1.0000   1.0000   1.0000
     1.0000   1.0000   1.0000   1.0000   1.0000   1.0000   1.0000   1.0000
     1.0000   1.0000   1.0000   1.0000   1.0000

          k =-0.4999-0.8658-0.4049 (  3664 PWs)   bands (ev):

  -115.1951 -69.5628 -69.5622 -69.5424 -64.6781 -31.6691 -31.6639 -31.6554
    -9.0424  -8.5983   2.1049   2.1141   2.4878   2.9223   3.1666   3.5987
     4.8798   5.7389   6.1096   6.2964   7.8219

     occupation numbers 
     1.0000   1.0000   1.0000   1.0000   1.0000   1.0000   1.0000   1.0000
     1.0000   1.0000   1.0000   1.0000   1.0000   1.0000   1.0000   1.0000
     1.0000   1.0000   1.0000   1.0000   1.0000

     highest occupied level (ev):     8.1708

!    total energy              =    -651.12974973 Ry
     Harris-Foulkes estimate   =    -651.12974972 Ry
     estimated scf accuracy    <          1.4E-09 Ry

     The total energy is the sum of the following terms:

     one-electron contribution =    -521.87845550 Ry
     hartree contribution      =     275.25784068 Ry
     xc contribution           =     -73.10884179 Ry
     ewald contribution        =    -331.40029312 Ry

     convergence has been achieved in   9 iterations

     Forces acting on atoms (cartesian axes, Ry/au):

     atom    1 type  3   force =    -0.00000041    0.00000032   -0.00095426
     atom    2 type  3   force =    -0.00000005    0.00000097   -0.00016014
     atom    3 type  2   force =     0.00000003   -0.00000023    0.00330229
     atom    4 type  1   force =     0.00000043   -0.00000107   -0.00218789
     The non-local contrib.  to forces
     atom    1 type  3   force =    -0.00000013   -0.00000224    0.02380723
     atom    2 type  3   force =     0.00000008    0.00000190   -0.01111707
     atom    3 type  2   force =     0.00000054   -0.00000522    0.02543135
     atom    4 type  1   force =     0.00000125   -0.00000127    0.00285617
     The ionic contribution  to forces
     atom    1 type  3   force =    -0.00000755    0.00003209   -0.44894424
     atom    2 type  3   force =    -0.00000261    0.00001245    0.25921769
     atom    3 type  2   force =    -0.00000044   -0.00002348    0.50970750
     atom    4 type  1   force =     0.00001060   -0.00002106   -0.31998094
     The local contribution  to forces
     atom    1 type  3   force =     0.00000727   -0.00002955    0.42430659
     atom    2 type  3   force =     0.00000247   -0.00001336   -0.24832395
     atom    3 type  2   force =    -0.00000006    0.00002847   -0.53184072
     atom    4 type  1   force =    -0.00001142    0.00002127    0.31493652
     The core correction contribution to forces
     atom    1 type  3   force =     0.00000001    0.00000001   -0.00012510
     atom    2 type  3   force =    -0.00000000   -0.00000002    0.00006377
     atom    3 type  2   force =     0.00000000    0.00000000    0.00000000
     atom    4 type  1   force =     0.00000000    0.00000000    0.00000000
     The Hubbard contrib.    to forces
     atom    1 type  3   force =     0.00000000    0.00000000    0.00000000
     atom    2 type  3   force =     0.00000000    0.00000000    0.00000000
     atom    3 type  2   force =     0.00000000    0.00000000    0.00000000
     atom    4 type  1   force =     0.00000000    0.00000000    0.00000000
     The SCF correction term to forces
     atom    1 type  3   force =     0.00000000    0.00000000    0.00000000
     atom    2 type  3   force =     0.00000000    0.00000000    0.00000000
     atom    3 type  2   force =     0.00000000    0.00000000    0.00000000
     atom    4 type  1   force =     0.00000000    0.00000000    0.00000000

     Total force =     0.000000     Total SCF correction =     0.000000


     Computing stress (Cartesian axis) and pressure

          total   stress  (Ry/bohr**3)                   (kbar)     P=   -0.83
  -0.00000317   0.00000000   0.00000001         -0.47      0.00      0.00
   0.00000000  -0.00000317   0.00000000          0.00     -0.47      0.00
   0.00000001   0.00000000  -0.00001052          0.00      0.00     -1.55

     kinetic stress (kbar)  27930.20      0.00      0.00
                                0.00  27930.20      0.00
                                0.00      0.00  28011.99

     local   stress (kbar)  -5849.68     -0.03      0.01
                               -0.03  -5849.73      0.00
                                0.01      0.00 -16455.55

     nonloc. stress (kbar)   1850.25      0.00     -0.00
                                0.00   1850.25     -0.00
                               -0.00     -0.00   1834.84

     hartree stress (kbar)  43225.93      0.01     -0.00
                                0.01  43225.95     -0.00
                               -0.00     -0.00  47543.29

     exc-cor stress (kbar) -11045.82      0.00     -0.00
                                0.00 -11045.82     -0.00
                               -0.00     -0.00 -11044.17

     corecor stress (kbar)   -263.07     -0.00     -0.00
                               -0.00   -263.07     -0.00
                               -0.00     -0.00   -263.22

     ewald   stress (kbar) -55848.28      0.02     -0.00
                                0.02 -55848.24     -0.00
                               -0.00     -0.00 -49628.73

     hubbard stress (kbar)      0.00      0.00      0.00
                                0.00      0.00      0.00
                                0.00      0.00      0.00

     london  stress (kbar)      0.00      0.00      0.00
                                0.00      0.00      0.00
                                0.00      0.00      0.00

     DFT-D3  stress (kbar)      0.00      0.00      0.00
                                0.00      0.00      0.00
                                0.00      0.00      0.00

     XDM     stress (kbar)      0.00      0.00      0.00
                                0.00      0.00      0.00
                                0.00      0.00      0.00

     dft-nl  stress (kbar)      0.00      0.00      0.00
                                0.00      0.00      0.00
                                0.00      0.00      0.00

     TS-vdW  stress (kbar)      0.00      0.00      0.00
                                0.00      0.00      0.00
                                0.00      0.00      0.00



     Writing output data file ZnO.save/
 
     init_run     :      1.12s CPU      2.35s WALL (       2 calls)
     electrons    :     72.67s CPU     78.71s WALL (      11 calls)
     update_pot   :      1.50s CPU      1.53s WALL (       9 calls)
     forces       :      1.66s CPU      1.75s WALL (      11 calls)
     stress       :      3.02s CPU      3.14s WALL (      11 calls)

     Called by init_run:
     wfcinit      :      0.64s CPU      1.46s WALL (       2 calls)
     wfcinit:atom :      0.01s CPU      0.02s WALL (     130 calls)
     wfcinit:wfcr :      0.60s CPU      1.40s WALL (     130 calls)
     potinit      :      0.13s CPU      0.17s WALL (       2 calls)
     hinit0       :      0.31s CPU      0.52s WALL (       2 calls)

     Called by electrons:
     c_bands      :     60.84s CPU     66.05s WALL (      92 calls)
     sum_band     :      8.78s CPU      9.12s WALL (      92 calls)
     v_of_rho     :      2.47s CPU      2.51s WALL (      99 calls)
     v_h          :      0.03s CPU      0.04s WALL (      99 calls)
     v_xc         :      2.98s CPU      3.01s WALL (     121 calls)
     newd         :      0.62s CPU      0.65s WALL (      99 calls)
     mix_rho      :      0.09s CPU      0.16s WALL (      92 calls)

     Called by c_bands:
     init_us_2    :      1.02s CPU      1.09s WALL (   13520 calls)
     cegterg      :     56.29s CPU     59.11s WALL (    5980 calls)

     Called by sum_band:
     sum_band:bec :      0.06s CPU      0.07s WALL (    5980 calls)
     addusdens    :      0.62s CPU      0.63s WALL (      92 calls)

     Called by *egterg:
     h_psi        :     32.80s CPU     34.02s WALL (   18510 calls)
     s_psi        :      1.16s CPU      1.21s WALL (   18510 calls)
     g_psi        :      0.08s CPU      0.08s WALL (   12400 calls)
     cdiaghg      :     14.13s CPU     15.80s WALL (   17535 calls)
     cegterg:over :      3.94s CPU      4.50s WALL (   12400 calls)
     cegterg:upda :      2.03s CPU      2.07s WALL (   12400 calls)
     cegterg:last :      1.28s CPU      1.31s WALL (    6138 calls)
     cdiaghg:chol :      0.75s CPU      1.11s WALL (   17535 calls)
     cdiaghg:inve :      0.26s CPU      0.33s WALL (   17535 calls)
     cdiaghg:para :      1.46s CPU      1.56s WALL (   35070 calls)

     Called by h_psi:
     h_psi:pot    :     32.70s CPU     33.92s WALL (   18510 calls)
     h_psi:calbec :      2.09s CPU      2.17s WALL (   18510 calls)
     vloc_psi     :     29.37s CPU     30.47s WALL (   18510 calls)
     add_vuspsi   :      1.18s CPU      1.24s WALL (   18510 calls)

     General routines
     calbec       :      3.32s CPU      3.44s WALL (   28065 calls)
     fft          :      0.50s CPU      0.54s WALL (    1553 calls)
     ffts         :      0.02s CPU      0.03s WALL (     191 calls)
     fftw         :     33.84s CPU     35.06s WALL (  763098 calls)
     interpolate  :      0.04s CPU      0.04s WALL (      99 calls)
 
     Parallel routines
     fft_scatt_xy :      4.67s CPU      4.83s WALL (  764842 calls)
     fft_scatt_yz :     19.07s CPU     19.78s WALL (  764842 calls)
 
     PWSCF        :   1m20.64s CPU   1m30.73s WALL

 
   This run was terminated on:  16:52:20  16Jun2022            

=------------------------------------------------------------------------------=
   JOB DONE.
=------------------------------------------------------------------------------=
