
     Program PWSCF v.6.4.1 starts on 15Jun2022 at 23:25:58 

     This program is part of the open-source Quantum ESPRESSO suite
     for quantum simulation of materials; please cite
         "P. Giannozzi et al., J. Phys.:Condens. Matter 21 395502 (2009);
         "P. Giannozzi et al., J. Phys.:Condens. Matter 29 465901 (2017);
          URL http://www.quantum-espresso.org", 
     in publications or presentations arising from this work. More details at
     http://www.quantum-espresso.org/quote

     Parallel version (MPI), running on    64 processors

     MPI processes distributed on     1 nodes
     K-points division:     npool     =       4
     R & G space division:  proc/nbgrp/npool/nimage =      16
     Waiting for input...
     Reading input from standard input
Warning: card &IONS ignored
Warning: card   UPSCALE           = 100.D0, ignored
Warning: card / ignored
Warning: card &CELL ignored
Warning: card   CELL_DYNAMICS     = 'BFGS' ignored
Warning: card   PRESS_CONV_THR    = 0.5D0 ignored
Warning: card   CELL_DOFREE = 'ALL' ignored
Warning: card / ignored

     Current dimensions of program PWSCF are:
     Max number of different atomic species (ntypx) = 10
     Max number of k-points (npk) =  40000
     Max angular momentum in pseudopotentials (lmaxx) =  3

     Subspace diagonalization in iterative solution of the eigenvalue problem:
     one sub-group per band group will be used
     scalapack distributed-memory algorithm (size of sub-group:  2*  2 procs)

--------------------------------------------------------------------------------
NOTICE: Bravais lattice has wrong number (10) of symmetries - symmetries are disabled
--------------------------------------------------------------------------------
 
     Parallelization info
     --------------------
     sticks:   dense  smooth     PW     G-vecs:    dense   smooth      PW
     Min         110      58     18                 4704     1832     319
     Max         111      60     20                 4709     1835     322
     Sum        1765     955    295                75305    29321    5121
 


     bravais-lattice index     =            0
     lattice parameter (alat)  =       6.5310  a.u.
     unit-cell volume          =     303.4040 (a.u.)^3
     number of atoms/cell      =            4
     number of atomic types    =            3
     number of electrons       =        42.00
     number of Kohn-Sham states=           21
     kinetic-energy cutoff     =      80.0000  Ry
     charge density cutoff     =     600.0000  Ry
     convergence threshold     =      1.0E-06
     mixing beta               =       0.5000
     number of iterations used =            8  plain     mixing
     Exchange-correlation      = SLA  PW   PSX  PSC ( 1  4 10  8 0 0)
     Using LIBXC version       =    4   3   4

     celldm(1)=   6.530964  celldm(2)=   0.000000  celldm(3)=   0.000000
     celldm(4)=   0.000000  celldm(5)=   0.000000  celldm(6)=   0.000000

     crystal axes: (cart. coord. in units of alat)
               a(1) = (   1.000000   0.000000  -0.000000 )  
               a(2) = (  -0.500000   0.866025  -0.000000 )  
               a(3) = (   0.000000  -0.000000   1.257648 )  

     reciprocal axes: (cart. coord. in units 2 pi/alat)
               b(1) = (  1.000000  0.577351  0.000000 )  
               b(2) = ( -0.000000  1.154702  0.000000 )  
               b(3) = (  0.000000  0.000000  0.795135 )  


     PseudoPot. # 1 for Mg read from file:
     ./GBRV_PBEsol/mg_pbesol_v1.4.uspp.F.UPF
     MD5 check sum: 4059f37963cf5867752dbf5ab2400678
     Pseudo is Ultrasoft, Zval = 10.0
     Generated by new atomic code, or converted to UPF format
     Using radial grid of  821 points,  7 beta functions with: 
                l(1) =   0
                l(2) =   0
                l(3) =   0
                l(4) =   1
                l(5) =   1
                l(6) =   2
                l(7) =   2
     Q(r) pseudized with  8 coefficients,  rinner =    1.200   1.200   1.200
                                                       1.200   1.200

     PseudoPot. # 2 for Zn read from file:
     ./GBRV_PBEsol/zn_pbesol_v1.uspp.F.UPF
     MD5 check sum: 7d8615e52efe7c1e2b1899de8658bae2
     Pseudo is Ultrasoft, Zval = 20.0
     Generated by new atomic code, or converted to UPF format
     Using radial grid of  943 points,  6 beta functions with: 
                l(1) =   0
                l(2) =   0
                l(3) =   1
                l(4) =   1
                l(5) =   2
                l(6) =   2
     Q(r) pseudized with  8 coefficients,  rinner =    1.100   1.100   1.100
                                                       1.100   1.100

     PseudoPot. # 3 for O  read from file:
     ./GBRV_PBEsol/o_pbesol_v1.2.uspp.F.UPF
     MD5 check sum: 501638753501ef6325af9037351f7734
     Pseudo is Ultrasoft + core correction, Zval =  6.0
     Generated by new atomic code, or converted to UPF format
     Using radial grid of  737 points,  5 beta functions with: 
                l(1) =   0
                l(2) =   0
                l(3) =   1
                l(4) =   1
                l(5) =   2
     Q(r) pseudized with  8 coefficients,  rinner =    0.900   0.900   0.900
                                                       0.900   0.900

     atomic species   valence    mass     pseudopotential
        Mg            10.00    24.30500     Mg( 1.00)
        Zn            20.00    65.38000     Zn( 1.00)
        O              6.00    15.99900     O ( 1.00)

     No symmetry found


                                    s                        frac. trans.

      isym =  1     identity                                     

 cryst.   s( 1) = (     1          0          0      )
                  (     0          1          0      )
                  (     0          0          1      )

 cart.    s( 1) = (  1.0000000  0.0000000  0.0000000 )
                  (  0.0000000  1.0000000 -0.0000000 )
                  ( -0.0000000 -0.0000000  1.0000000 )


   Cartesian axes

     site n.     atom                  positions (alat units)
         1           O   tau(   1) = (   0.5000002   0.2886752   0.0092383  )
         2           O   tau(   2) = (   0.0000002   0.5773487   0.6380622  )
         3           Zn  tau(   3) = (   0.5000001   0.2886744   0.6086939  )
         4           Mg  tau(   4) = (  -0.0000001   0.5773503   1.2416487  )

   Crystallographic axes

     site n.     atom                  positions (cryst. coord.)
         1           O   tau(   1) = (  0.6666670  0.3333337  0.0073459  )
         2           O   tau(   2) = (  0.3333329  0.6666657  0.5073458  )
         3           Zn  tau(   3) = (  0.6666664  0.3333329  0.4839939  )
         4           Mg  tau(   4) = (  0.3333337  0.6666677  0.9872785  )

     number of k points=   260
                       cart. coord. in units 2pi/alat
        k(    1) = (   0.0000000   0.0000000   0.0000000), wk =   0.0039062
        k(    2) = (   0.0000000   0.0000001   0.0993919), wk =   0.0078125
        k(    3) = (   0.0000000   0.0000001   0.1987837), wk =   0.0078125
        k(    4) = (   0.0000000   0.0000002   0.2981756), wk =   0.0078125
        k(    5) = (  -0.0000000  -0.0000002  -0.3975675), wk =   0.0039062
        k(    6) = (  -0.0000000   0.1443377   0.0000000), wk =   0.0078125
        k(    7) = (  -0.0000000   0.1443378   0.0993919), wk =   0.0078125
        k(    8) = (  -0.0000000   0.1443378   0.1987838), wk =   0.0078125
        k(    9) = (  -0.0000000   0.1443379   0.2981756), wk =   0.0078125
        k(   10) = (  -0.0000000   0.1443375  -0.3975674), wk =   0.0078125
        k(   11) = (  -0.0000000   0.1443375  -0.2981756), wk =   0.0078125
        k(   12) = (  -0.0000000   0.1443376  -0.1987837), wk =   0.0078125
        k(   13) = (  -0.0000000   0.1443377  -0.0993918), wk =   0.0078125
        k(   14) = (  -0.0000000   0.2886754   0.0000001), wk =   0.0078125
        k(   15) = (  -0.0000000   0.2886755   0.0993919), wk =   0.0078125
        k(   16) = (  -0.0000000   0.2886755   0.1987838), wk =   0.0078125
        k(   17) = (  -0.0000000   0.2886756   0.2981757), wk =   0.0078125
        k(   18) = (  -0.0000000   0.2886752  -0.3975674), wk =   0.0078125
        k(   19) = (  -0.0000000   0.2886752  -0.2981755), wk =   0.0078125
        k(   20) = (  -0.0000000   0.2886753  -0.1987837), wk =   0.0078125
        k(   21) = (  -0.0000000   0.2886754  -0.0993918), wk =   0.0078125
        k(   22) = (  -0.0000001   0.4330131   0.0000001), wk =   0.0078125
        k(   23) = (  -0.0000000   0.4330132   0.0993920), wk =   0.0078125
        k(   24) = (  -0.0000000   0.4330132   0.1987838), wk =   0.0078125
        k(   25) = (  -0.0000000   0.4330133   0.2981757), wk =   0.0078125
        k(   26) = (  -0.0000001   0.4330129  -0.3975673), wk =   0.0078125
        k(   27) = (  -0.0000001   0.4330130  -0.2981755), wk =   0.0078125
        k(   28) = (  -0.0000001   0.4330130  -0.1987836), wk =   0.0078125
        k(   29) = (  -0.0000001   0.4330131  -0.0993917), wk =   0.0078125
        k(   30) = (   0.0000001  -0.5773508  -0.0000002), wk =   0.0039062
        k(   31) = (   0.0000001  -0.5773508   0.0993917), wk =   0.0078125
        k(   32) = (   0.0000001  -0.5773507   0.1987836), wk =   0.0078125
        k(   33) = (   0.0000001  -0.5773507   0.2981754), wk =   0.0078125
        k(   34) = (   0.0000001  -0.5773511  -0.3975676), wk =   0.0039062
        k(   35) = (   0.1250000   0.0721688   0.0000000), wk =   0.0078125
        k(   36) = (   0.1250000   0.0721689   0.0993919), wk =   0.0078125
        k(   37) = (   0.1250000   0.0721690   0.1987837), wk =   0.0078125
        k(   38) = (   0.1250000   0.0721690   0.2981756), wk =   0.0078125
        k(   39) = (   0.1250000   0.0721686  -0.3975674), wk =   0.0078125
        k(   40) = (   0.1250000   0.0721687  -0.2981756), wk =   0.0078125
        k(   41) = (   0.1250000   0.0721687  -0.1987837), wk =   0.0078125
        k(   42) = (   0.1250000   0.0721688  -0.0993919), wk =   0.0078125
        k(   43) = (   0.1250000   0.2165065   0.0000001), wk =   0.0078125
        k(   44) = (   0.1250000   0.2165066   0.0993919), wk =   0.0078125
        k(   45) = (   0.1250000   0.2165067   0.1987838), wk =   0.0078125
        k(   46) = (   0.1250000   0.2165067   0.2981756), wk =   0.0078125
        k(   47) = (   0.1250000   0.2165063  -0.3975674), wk =   0.0078125
        k(   48) = (   0.1250000   0.2165064  -0.2981755), wk =   0.0078125
        k(   49) = (   0.1250000   0.2165064  -0.1987837), wk =   0.0078125
        k(   50) = (   0.1250000   0.2165065  -0.0993918), wk =   0.0078125
        k(   51) = (   0.1250000   0.3608443   0.0000001), wk =   0.0078125
        k(   52) = (   0.1250000   0.3608443   0.0993920), wk =   0.0078125
        k(   53) = (   0.1250000   0.3608444   0.1987838), wk =   0.0078125
        k(   54) = (   0.1250000   0.3608444   0.2981757), wk =   0.0078125
        k(   55) = (   0.1249999   0.3608440  -0.3975674), wk =   0.0078125
        k(   56) = (   0.1249999   0.3608441  -0.2981755), wk =   0.0078125
        k(   57) = (   0.1249999   0.3608441  -0.1987836), wk =   0.0078125
        k(   58) = (   0.1250000   0.3608442  -0.0993918), wk =   0.0078125
        k(   59) = (   0.1249999   0.5051820   0.0000001), wk =   0.0078125
        k(   60) = (   0.1249999   0.5051820   0.0993920), wk =   0.0078125
        k(   61) = (   0.1249999   0.5051821   0.1987839), wk =   0.0078125
        k(   62) = (   0.1249999   0.5051821   0.2981757), wk =   0.0078125
        k(   63) = (   0.1249999   0.5051817  -0.3975673), wk =   0.0078125
        k(   64) = (   0.1249999   0.5051818  -0.2981755), wk =   0.0078125
        k(   65) = (   0.1249999   0.5051818  -0.1987836), wk =   0.0078125
        k(   66) = (   0.1249999   0.5051819  -0.0993917), wk =   0.0078125
        k(   67) = (   0.1250001  -0.5051820  -0.0000001), wk =   0.0078125
        k(   68) = (   0.1250001  -0.5051819   0.0993917), wk =   0.0078125
        k(   69) = (   0.1250001  -0.5051819   0.1987836), wk =   0.0078125
        k(   70) = (   0.1250001  -0.5051818   0.2981754), wk =   0.0078125
        k(   71) = (   0.1250000  -0.5051822  -0.3975676), wk =   0.0078125
        k(   72) = (   0.1250001  -0.5051822  -0.2981757), wk =   0.0078125
        k(   73) = (   0.1250001  -0.5051821  -0.1987839), wk =   0.0078125
        k(   74) = (   0.1250001  -0.5051820  -0.0993920), wk =   0.0078125
        k(   75) = (   0.1250000  -0.3608443  -0.0000001), wk =   0.0078125
        k(   76) = (   0.1250000  -0.3608442   0.0993918), wk =   0.0078125
        k(   77) = (   0.1250001  -0.3608442   0.1987836), wk =   0.0078125
        k(   78) = (   0.1250001  -0.3608441   0.2981755), wk =   0.0078125
        k(   79) = (   0.1250000  -0.3608445  -0.3975676), wk =   0.0078125
        k(   80) = (   0.1250000  -0.3608445  -0.2981757), wk =   0.0078125
        k(   81) = (   0.1250000  -0.3608444  -0.1987838), wk =   0.0078125
        k(   82) = (   0.1250000  -0.3608443  -0.0993920), wk =   0.0078125
        k(   83) = (   0.1250000  -0.2165066  -0.0000001), wk =   0.0078125
        k(   84) = (   0.1250000  -0.2165065   0.0993918), wk =   0.0078125
        k(   85) = (   0.1250000  -0.2165065   0.1987837), wk =   0.0078125
        k(   86) = (   0.1250000  -0.2165064   0.2981755), wk =   0.0078125
        k(   87) = (   0.1250000  -0.2165068  -0.3975675), wk =   0.0078125
        k(   88) = (   0.1250000  -0.2165067  -0.2981757), wk =   0.0078125
        k(   89) = (   0.1250000  -0.2165067  -0.1987838), wk =   0.0078125
        k(   90) = (   0.1250000  -0.2165066  -0.0993919), wk =   0.0078125
        k(   91) = (   0.1250000  -0.0721689  -0.0000000), wk =   0.0078125
        k(   92) = (   0.1250000  -0.0721688   0.0993918), wk =   0.0078125
        k(   93) = (   0.1250000  -0.0721688   0.1987837), wk =   0.0078125
        k(   94) = (   0.1250000  -0.0721687   0.2981756), wk =   0.0078125
        k(   95) = (   0.1250000  -0.0721691  -0.3975675), wk =   0.0078125
        k(   96) = (   0.1250000  -0.0721690  -0.2981756), wk =   0.0078125
        k(   97) = (   0.1250000  -0.0721690  -0.1987838), wk =   0.0078125
        k(   98) = (   0.1250000  -0.0721689  -0.0993919), wk =   0.0078125
        k(   99) = (   0.2500000   0.1443377   0.0000000), wk =   0.0078125
        k(  100) = (   0.2500000   0.1443377   0.0993919), wk =   0.0078125
        k(  101) = (   0.2500000   0.1443378   0.1987838), wk =   0.0078125
        k(  102) = (   0.2500000   0.1443378   0.2981756), wk =   0.0078125
        k(  103) = (   0.2500000   0.1443375  -0.3975674), wk =   0.0078125
        k(  104) = (   0.2500000   0.1443375  -0.2981756), wk =   0.0078125
        k(  105) = (   0.2500000   0.1443376  -0.1987837), wk =   0.0078125
        k(  106) = (   0.2500000   0.1443376  -0.0993918), wk =   0.0078125
        k(  107) = (   0.2500000   0.2886754   0.0000001), wk =   0.0078125
        k(  108) = (   0.2500000   0.2886754   0.0993919), wk =   0.0078125
        k(  109) = (   0.2500000   0.2886755   0.1987838), wk =   0.0078125
        k(  110) = (   0.2500000   0.2886756   0.2981757), wk =   0.0078125
        k(  111) = (   0.2500000   0.2886752  -0.3975674), wk =   0.0078125
        k(  112) = (   0.2500000   0.2886752  -0.2981755), wk =   0.0078125
        k(  113) = (   0.2500000   0.2886753  -0.1987837), wk =   0.0078125
        k(  114) = (   0.2500000   0.2886753  -0.0993918), wk =   0.0078125
        k(  115) = (   0.2499999   0.4330131   0.0000001), wk =   0.0078125
        k(  116) = (   0.2500000   0.4330131   0.0993920), wk =   0.0078125
        k(  117) = (   0.2500000   0.4330132   0.1987838), wk =   0.0078125
        k(  118) = (   0.2500000   0.4330133   0.2981757), wk =   0.0078125
        k(  119) = (   0.2499999   0.4330129  -0.3975674), wk =   0.0078125
        k(  120) = (   0.2499999   0.4330129  -0.2981755), wk =   0.0078125
        k(  121) = (   0.2499999   0.4330130  -0.1987836), wk =   0.0078125
        k(  122) = (   0.2499999   0.4330130  -0.0993918), wk =   0.0078125
        k(  123) = (   0.2499999   0.5773508   0.0000001), wk =   0.0078125
        k(  124) = (   0.2499999   0.5773509   0.0993920), wk =   0.0078125
        k(  125) = (   0.2499999   0.5773509   0.1987839), wk =   0.0078125
        k(  126) = (   0.2499999   0.5773510   0.2981757), wk =   0.0078125
        k(  127) = (   0.2499999   0.5773506  -0.3975673), wk =   0.0078125
        k(  128) = (   0.2499999   0.5773506  -0.2981755), wk =   0.0078125
        k(  129) = (   0.2499999   0.5773507  -0.1987836), wk =   0.0078125
        k(  130) = (   0.2499999   0.5773507  -0.0993917), wk =   0.0078125
        k(  131) = (   0.2500001  -0.4330132  -0.0000001), wk =   0.0078125
        k(  132) = (   0.2500001  -0.4330131   0.0993917), wk =   0.0078125
        k(  133) = (   0.2500001  -0.4330130   0.1987836), wk =   0.0078125
        k(  134) = (   0.2500001  -0.4330130   0.2981755), wk =   0.0078125
        k(  135) = (   0.2500000  -0.4330134  -0.3975676), wk =   0.0078125
        k(  136) = (   0.2500000  -0.4330133  -0.2981757), wk =   0.0078125
        k(  137) = (   0.2500000  -0.4330133  -0.1987839), wk =   0.0078125
        k(  138) = (   0.2500000  -0.4330132  -0.0993920), wk =   0.0078125
        k(  139) = (   0.2500000  -0.2886754  -0.0000001), wk =   0.0078125
        k(  140) = (   0.2500000  -0.2886754   0.0993918), wk =   0.0078125
        k(  141) = (   0.2500000  -0.2886753   0.1987836), wk =   0.0078125
        k(  142) = (   0.2500000  -0.2886753   0.2981755), wk =   0.0078125
        k(  143) = (   0.2500000  -0.2886757  -0.3975675), wk =   0.0078125
        k(  144) = (   0.2500000  -0.2886756  -0.2981757), wk =   0.0078125
        k(  145) = (   0.2500000  -0.2886756  -0.1987838), wk =   0.0078125
        k(  146) = (   0.2500000  -0.2886755  -0.0993920), wk =   0.0078125
        k(  147) = (   0.2500000  -0.1443377  -0.0000001), wk =   0.0078125
        k(  148) = (   0.2500000  -0.1443377   0.0993918), wk =   0.0078125
        k(  149) = (   0.2500000  -0.1443376   0.1987837), wk =   0.0078125
        k(  150) = (   0.2500000  -0.1443376   0.2981755), wk =   0.0078125
        k(  151) = (   0.2500000  -0.1443380  -0.3975675), wk =   0.0078125
        k(  152) = (   0.2500000  -0.1443379  -0.2981756), wk =   0.0078125
        k(  153) = (   0.2500000  -0.1443378  -0.1987838), wk =   0.0078125
        k(  154) = (   0.2500000  -0.1443378  -0.0993919), wk =   0.0078125
        k(  155) = (   0.2500000  -0.0000000  -0.0000000), wk =   0.0078125
        k(  156) = (   0.2500000   0.0000000   0.0993918), wk =   0.0078125
        k(  157) = (   0.2500000   0.0000001   0.1987837), wk =   0.0078125
        k(  158) = (   0.2500000   0.0000001   0.2981756), wk =   0.0078125
        k(  159) = (   0.2500000  -0.0000003  -0.3975675), wk =   0.0078125
        k(  160) = (   0.2500000  -0.0000002  -0.2981756), wk =   0.0078125
        k(  161) = (   0.2500000  -0.0000001  -0.1987837), wk =   0.0078125
        k(  162) = (   0.2500000  -0.0000001  -0.0993919), wk =   0.0078125
        k(  163) = (   0.3750000   0.2165065   0.0000000), wk =   0.0078125
        k(  164) = (   0.3750000   0.2165066   0.0993919), wk =   0.0078125
        k(  165) = (   0.3750000   0.2165066   0.1987838), wk =   0.0078125
        k(  166) = (   0.3750000   0.2165067   0.2981756), wk =   0.0078125
        k(  167) = (   0.3750000   0.2165063  -0.3975674), wk =   0.0078125
        k(  168) = (   0.3750000   0.2165063  -0.2981756), wk =   0.0078125
        k(  169) = (   0.3750000   0.2165064  -0.1987837), wk =   0.0078125
        k(  170) = (   0.3750000   0.2165065  -0.0993918), wk =   0.0078125
        k(  171) = (   0.3750000   0.3608442   0.0000001), wk =   0.0078125
        k(  172) = (   0.3750000   0.3608443   0.0993919), wk =   0.0078125
        k(  173) = (   0.3750000   0.3608443   0.1987838), wk =   0.0078125
        k(  174) = (   0.3750000   0.3608444   0.2981757), wk =   0.0078125
        k(  175) = (   0.3749999   0.3608440  -0.3975674), wk =   0.0078125
        k(  176) = (   0.3749999   0.3608441  -0.2981755), wk =   0.0078125
        k(  177) = (   0.3749999   0.3608441  -0.1987837), wk =   0.0078125
        k(  178) = (   0.3750000   0.3608442  -0.0993918), wk =   0.0078125
        k(  179) = (   0.3749999   0.5051819   0.0000001), wk =   0.0078125
        k(  180) = (   0.3749999   0.5051820   0.0993920), wk =   0.0078125
        k(  181) = (   0.3749999   0.5051820   0.1987838), wk =   0.0078125
        k(  182) = (   0.3749999   0.5051821   0.2981757), wk =   0.0078125
        k(  183) = (   0.3749999   0.5051817  -0.3975673), wk =   0.0078125
        k(  184) = (   0.3749999   0.5051818  -0.2981755), wk =   0.0078125
        k(  185) = (   0.3749999   0.5051818  -0.1987836), wk =   0.0078125
        k(  186) = (   0.3749999   0.5051819  -0.0993918), wk =   0.0078125
        k(  187) = (   0.3749999   0.6495196   0.0000002), wk =   0.0078125
        k(  188) = (   0.3749999   0.6495197   0.0993920), wk =   0.0078125
        k(  189) = (   0.3749999   0.6495197   0.1987839), wk =   0.0078125
        k(  190) = (   0.3749999   0.6495198   0.2981757), wk =   0.0078125
        k(  191) = (   0.3749999   0.6495194  -0.3975673), wk =   0.0078125
        k(  192) = (   0.3749999   0.6495195  -0.2981754), wk =   0.0078125
        k(  193) = (   0.3749999   0.6495195  -0.1987836), wk =   0.0078125
        k(  194) = (   0.3749999   0.6495196  -0.0993917), wk =   0.0078125
        k(  195) = (   0.3750000  -0.3608443  -0.0000001), wk =   0.0078125
        k(  196) = (   0.3750000  -0.3608443   0.0993917), wk =   0.0078125
        k(  197) = (   0.3750001  -0.3608442   0.1987836), wk =   0.0078125
        k(  198) = (   0.3750001  -0.3608441   0.2981755), wk =   0.0078125
        k(  199) = (   0.3750000  -0.3608445  -0.3975676), wk =   0.0078125
        k(  200) = (   0.3750000  -0.3608445  -0.2981757), wk =   0.0078125
        k(  201) = (   0.3750000  -0.3608444  -0.1987838), wk =   0.0078125
        k(  202) = (   0.3750000  -0.3608444  -0.0993920), wk =   0.0078125
        k(  203) = (   0.3750000  -0.2165066  -0.0000001), wk =   0.0078125
        k(  204) = (   0.3750000  -0.2165065   0.0993918), wk =   0.0078125
        k(  205) = (   0.3750000  -0.2165065   0.1987836), wk =   0.0078125
        k(  206) = (   0.3750000  -0.2165064   0.2981755), wk =   0.0078125
        k(  207) = (   0.3750000  -0.2165068  -0.3975675), wk =   0.0078125
        k(  208) = (   0.3750000  -0.2165068  -0.2981757), wk =   0.0078125
        k(  209) = (   0.3750000  -0.2165067  -0.1987838), wk =   0.0078125
        k(  210) = (   0.3750000  -0.2165067  -0.0993919), wk =   0.0078125
        k(  211) = (   0.3750000  -0.0721689  -0.0000000), wk =   0.0078125
        k(  212) = (   0.3750000  -0.0721688   0.0993918), wk =   0.0078125
        k(  213) = (   0.3750000  -0.0721688   0.1987837), wk =   0.0078125
        k(  214) = (   0.3750000  -0.0721687   0.2981755), wk =   0.0078125
        k(  215) = (   0.3750000  -0.0721691  -0.3975675), wk =   0.0078125
        k(  216) = (   0.3750000  -0.0721691  -0.2981756), wk =   0.0078125
        k(  217) = (   0.3750000  -0.0721690  -0.1987838), wk =   0.0078125
        k(  218) = (   0.3750000  -0.0721690  -0.0993919), wk =   0.0078125
        k(  219) = (   0.3750000   0.0721688  -0.0000000), wk =   0.0078125
        k(  220) = (   0.3750000   0.0721689   0.0993919), wk =   0.0078125
        k(  221) = (   0.3750000   0.0721689   0.1987837), wk =   0.0078125
        k(  222) = (   0.3750000   0.0721690   0.2981756), wk =   0.0078125
        k(  223) = (   0.3750000   0.0721686  -0.3975675), wk =   0.0078125
        k(  224) = (   0.3750000   0.0721686  -0.2981756), wk =   0.0078125
        k(  225) = (   0.3750000   0.0721687  -0.1987837), wk =   0.0078125
        k(  226) = (   0.3750000   0.0721688  -0.0993919), wk =   0.0078125
        k(  227) = (  -0.5000000  -0.2886754  -0.0000000), wk =   0.0039062
        k(  228) = (  -0.5000000  -0.2886753   0.0993918), wk =   0.0078125
        k(  229) = (  -0.5000000  -0.2886752   0.1987837), wk =   0.0078125
        k(  230) = (  -0.5000000  -0.2886752   0.2981755), wk =   0.0078125
        k(  231) = (  -0.5000000  -0.2886756  -0.3975675), wk =   0.0039062
        k(  232) = (  -0.5000000  -0.1443376  -0.0000000), wk =   0.0078125
        k(  233) = (  -0.5000000  -0.1443376   0.0993919), wk =   0.0078125
        k(  234) = (  -0.5000000  -0.1443375   0.1987837), wk =   0.0078125
        k(  235) = (  -0.5000000  -0.1443375   0.2981756), wk =   0.0078125
        k(  236) = (  -0.5000000  -0.1443379  -0.3975675), wk =   0.0078125
        k(  237) = (  -0.5000000  -0.1443378  -0.2981756), wk =   0.0078125
        k(  238) = (  -0.5000000  -0.1443378  -0.1987837), wk =   0.0078125
        k(  239) = (  -0.5000000  -0.1443377  -0.0993919), wk =   0.0078125
        k(  240) = (  -0.5000000   0.0000001   0.0000000), wk =   0.0078125
        k(  241) = (  -0.5000000   0.0000001   0.0993919), wk =   0.0078125
        k(  242) = (  -0.5000000   0.0000002   0.1987838), wk =   0.0078125
        k(  243) = (  -0.5000000   0.0000002   0.2981756), wk =   0.0078125
        k(  244) = (  -0.5000000  -0.0000002  -0.3975674), wk =   0.0078125
        k(  245) = (  -0.5000000  -0.0000001  -0.2981756), wk =   0.0078125
        k(  246) = (  -0.5000000  -0.0000001  -0.1987837), wk =   0.0078125
        k(  247) = (  -0.5000000   0.0000000  -0.0993918), wk =   0.0078125
        k(  248) = (  -0.5000000   0.1443378   0.0000001), wk =   0.0078125
        k(  249) = (  -0.5000000   0.1443378   0.0993919), wk =   0.0078125
        k(  250) = (  -0.5000000   0.1443379   0.1987838), wk =   0.0078125
        k(  251) = (  -0.5000000   0.1443379   0.2981757), wk =   0.0078125
        k(  252) = (  -0.5000000   0.1443375  -0.3975674), wk =   0.0078125
        k(  253) = (  -0.5000000   0.1443376  -0.2981755), wk =   0.0078125
        k(  254) = (  -0.5000000   0.1443377  -0.1987837), wk =   0.0078125
        k(  255) = (  -0.5000000   0.1443377  -0.0993918), wk =   0.0078125
        k(  256) = (  -0.4999999  -0.8660262  -0.0000002), wk =   0.0039062
        k(  257) = (  -0.4999999  -0.8660261   0.0993917), wk =   0.0078125
        k(  258) = (  -0.4999999  -0.8660261   0.1987835), wk =   0.0078125
        k(  259) = (  -0.4999999  -0.8660260   0.2981754), wk =   0.0078125
        k(  260) = (  -0.4999999  -0.8660264  -0.3975677), wk =   0.0039062

                       cryst. coord.
        k(    1) = (   0.0000000   0.0000000   0.0000000), wk =   0.0039062
        k(    2) = (  -0.0000000  -0.0000000   0.1250000), wk =   0.0078125
        k(    3) = (  -0.0000000  -0.0000000   0.2500000), wk =   0.0078125
        k(    4) = (  -0.0000000  -0.0000000   0.3750000), wk =   0.0078125
        k(    5) = (   0.0000000   0.0000000  -0.5000000), wk =   0.0039062
        k(    6) = (  -0.0000000   0.1250000  -0.0000000), wk =   0.0078125
        k(    7) = (  -0.0000000   0.1250000   0.1250000), wk =   0.0078125
        k(    8) = (  -0.0000000   0.1250000   0.2500000), wk =   0.0078125
        k(    9) = (  -0.0000000   0.1250000   0.3750000), wk =   0.0078125
        k(   10) = (  -0.0000000   0.1250000  -0.5000000), wk =   0.0078125
        k(   11) = (   0.0000000   0.1250000  -0.3750000), wk =   0.0078125
        k(   12) = (  -0.0000000   0.1250000  -0.2500000), wk =   0.0078125
        k(   13) = (  -0.0000000   0.1250000  -0.1250000), wk =   0.0078125
        k(   14) = (  -0.0000000   0.2500000  -0.0000000), wk =   0.0078125
        k(   15) = (  -0.0000000   0.2500000   0.1250000), wk =   0.0078125
        k(   16) = (  -0.0000000   0.2500000   0.2500000), wk =   0.0078125
        k(   17) = (  -0.0000000   0.2500000   0.3750000), wk =   0.0078125
        k(   18) = (  -0.0000000   0.2500000  -0.5000000), wk =   0.0078125
        k(   19) = (  -0.0000000   0.2500000  -0.3750000), wk =   0.0078125
        k(   20) = (  -0.0000000   0.2500000  -0.2500000), wk =   0.0078125
        k(   21) = (  -0.0000000   0.2500000  -0.1250000), wk =   0.0078125
        k(   22) = (  -0.0000000   0.3750000   0.0000000), wk =   0.0078125
        k(   23) = (  -0.0000000   0.3750000   0.1250000), wk =   0.0078125
        k(   24) = (  -0.0000000   0.3750000   0.2500000), wk =   0.0078125
        k(   25) = (  -0.0000000   0.3750000   0.3750000), wk =   0.0078125
        k(   26) = (  -0.0000000   0.3750000  -0.5000000), wk =   0.0078125
        k(   27) = (  -0.0000000   0.3750000  -0.3750000), wk =   0.0078125
        k(   28) = (  -0.0000000   0.3750000  -0.2500000), wk =   0.0078125
        k(   29) = (  -0.0000000   0.3750000  -0.1250000), wk =   0.0078125
        k(   30) = (   0.0000000  -0.5000000   0.0000000), wk =   0.0039062
        k(   31) = (   0.0000000  -0.5000000   0.1250000), wk =   0.0078125
        k(   32) = (   0.0000000  -0.5000000   0.2500000), wk =   0.0078125
        k(   33) = (   0.0000000  -0.5000000   0.3750000), wk =   0.0078125
        k(   34) = (   0.0000000  -0.5000000  -0.5000000), wk =   0.0039062
        k(   35) = (   0.1250000   0.0000000  -0.0000000), wk =   0.0078125
        k(   36) = (   0.1250000   0.0000000   0.1250000), wk =   0.0078125
        k(   37) = (   0.1250000   0.0000000   0.2500000), wk =   0.0078125
        k(   38) = (   0.1250000   0.0000000   0.3750000), wk =   0.0078125
        k(   39) = (   0.1250000   0.0000000  -0.5000000), wk =   0.0078125
        k(   40) = (   0.1250000   0.0000000  -0.3750000), wk =   0.0078125
        k(   41) = (   0.1250000   0.0000000  -0.2500000), wk =   0.0078125
        k(   42) = (   0.1250000   0.0000000  -0.1250000), wk =   0.0078125
        k(   43) = (   0.1250000   0.1250000  -0.0000000), wk =   0.0078125
        k(   44) = (   0.1250000   0.1250000   0.1250000), wk =   0.0078125
        k(   45) = (   0.1250000   0.1250000   0.2500000), wk =   0.0078125
        k(   46) = (   0.1250000   0.1250000   0.3750000), wk =   0.0078125
        k(   47) = (   0.1250000   0.1250000  -0.5000000), wk =   0.0078125
        k(   48) = (   0.1250000   0.1250000  -0.3750000), wk =   0.0078125
        k(   49) = (   0.1250000   0.1250000  -0.2500000), wk =   0.0078125
        k(   50) = (   0.1250000   0.1250000  -0.1250000), wk =   0.0078125
        k(   51) = (   0.1250000   0.2500000  -0.0000000), wk =   0.0078125
        k(   52) = (   0.1250000   0.2500000   0.1250000), wk =   0.0078125
        k(   53) = (   0.1250000   0.2500000   0.2500000), wk =   0.0078125
        k(   54) = (   0.1250000   0.2500000   0.3750000), wk =   0.0078125
        k(   55) = (   0.1250000   0.2500000  -0.5000000), wk =   0.0078125
        k(   56) = (   0.1250000   0.2500000  -0.3750000), wk =   0.0078125
        k(   57) = (   0.1250000   0.2500000  -0.2500000), wk =   0.0078125
        k(   58) = (   0.1250000   0.2500000  -0.1250000), wk =   0.0078125
        k(   59) = (   0.1250000   0.3750000   0.0000000), wk =   0.0078125
        k(   60) = (   0.1250000   0.3750000   0.1250000), wk =   0.0078125
        k(   61) = (   0.1250000   0.3750000   0.2500000), wk =   0.0078125
        k(   62) = (   0.1250000   0.3750000   0.3750000), wk =   0.0078125
        k(   63) = (   0.1250000   0.3750000  -0.5000000), wk =   0.0078125
        k(   64) = (   0.1250000   0.3750000  -0.3750000), wk =   0.0078125
        k(   65) = (   0.1250000   0.3750000  -0.2500000), wk =   0.0078125
        k(   66) = (   0.1250000   0.3750000  -0.1250000), wk =   0.0078125
        k(   67) = (   0.1250000  -0.5000000  -0.0000000), wk =   0.0078125
        k(   68) = (   0.1250000  -0.5000000   0.1250000), wk =   0.0078125
        k(   69) = (   0.1250000  -0.5000000   0.2500000), wk =   0.0078125
        k(   70) = (   0.1250000  -0.5000000   0.3750000), wk =   0.0078125
        k(   71) = (   0.1250000  -0.5000000  -0.5000000), wk =   0.0078125
        k(   72) = (   0.1250000  -0.5000000  -0.3750000), wk =   0.0078125
        k(   73) = (   0.1250000  -0.5000000  -0.2500000), wk =   0.0078125
        k(   74) = (   0.1250000  -0.5000000  -0.1250000), wk =   0.0078125
        k(   75) = (   0.1250000  -0.3750000  -0.0000000), wk =   0.0078125
        k(   76) = (   0.1250000  -0.3750000   0.1250000), wk =   0.0078125
        k(   77) = (   0.1250000  -0.3750000   0.2500000), wk =   0.0078125
        k(   78) = (   0.1250000  -0.3750000   0.3750000), wk =   0.0078125
        k(   79) = (   0.1250000  -0.3750000  -0.5000000), wk =   0.0078125
        k(   80) = (   0.1250000  -0.3750000  -0.3750000), wk =   0.0078125
        k(   81) = (   0.1250000  -0.3750000  -0.2500000), wk =   0.0078125
        k(   82) = (   0.1250000  -0.3750000  -0.1250000), wk =   0.0078125
        k(   83) = (   0.1250000  -0.2500000   0.0000000), wk =   0.0078125
        k(   84) = (   0.1250000  -0.2500000   0.1250000), wk =   0.0078125
        k(   85) = (   0.1250000  -0.2500000   0.2500000), wk =   0.0078125
        k(   86) = (   0.1250000  -0.2500000   0.3750000), wk =   0.0078125
        k(   87) = (   0.1250000  -0.2500000  -0.5000000), wk =   0.0078125
        k(   88) = (   0.1250000  -0.2500000  -0.3750000), wk =   0.0078125
        k(   89) = (   0.1250000  -0.2500000  -0.2500000), wk =   0.0078125
        k(   90) = (   0.1250000  -0.2500000  -0.1250000), wk =   0.0078125
        k(   91) = (   0.1250000  -0.1250000   0.0000000), wk =   0.0078125
        k(   92) = (   0.1250000  -0.1250000   0.1250000), wk =   0.0078125
        k(   93) = (   0.1250000  -0.1250000   0.2500000), wk =   0.0078125
        k(   94) = (   0.1250000  -0.1250000   0.3750000), wk =   0.0078125
        k(   95) = (   0.1250000  -0.1250000  -0.5000000), wk =   0.0078125
        k(   96) = (   0.1250000  -0.1250000  -0.3750000), wk =   0.0078125
        k(   97) = (   0.1250000  -0.1250000  -0.2500000), wk =   0.0078125
        k(   98) = (   0.1250000  -0.1250000  -0.1250000), wk =   0.0078125
        k(   99) = (   0.2500000   0.0000000  -0.0000000), wk =   0.0078125
        k(  100) = (   0.2500000  -0.0000000   0.1250000), wk =   0.0078125
        k(  101) = (   0.2500000   0.0000000   0.2500000), wk =   0.0078125
        k(  102) = (   0.2500000  -0.0000000   0.3750000), wk =   0.0078125
        k(  103) = (   0.2500000   0.0000000  -0.5000000), wk =   0.0078125
        k(  104) = (   0.2500000   0.0000000  -0.3750000), wk =   0.0078125
        k(  105) = (   0.2500000   0.0000000  -0.2500000), wk =   0.0078125
        k(  106) = (   0.2500000   0.0000000  -0.1250000), wk =   0.0078125
        k(  107) = (   0.2500000   0.1250000  -0.0000000), wk =   0.0078125
        k(  108) = (   0.2500000   0.1250000   0.1250000), wk =   0.0078125
        k(  109) = (   0.2500000   0.1250000   0.2500000), wk =   0.0078125
        k(  110) = (   0.2500000   0.1250000   0.3750000), wk =   0.0078125
        k(  111) = (   0.2500000   0.1250000  -0.5000000), wk =   0.0078125
        k(  112) = (   0.2500000   0.1250000  -0.3750000), wk =   0.0078125
        k(  113) = (   0.2500000   0.1250000  -0.2500000), wk =   0.0078125
        k(  114) = (   0.2500000   0.1250000  -0.1250000), wk =   0.0078125
        k(  115) = (   0.2500000   0.2500000  -0.0000000), wk =   0.0078125
        k(  116) = (   0.2500000   0.2500000   0.1250000), wk =   0.0078125
        k(  117) = (   0.2500000   0.2500000   0.2500000), wk =   0.0078125
        k(  118) = (   0.2500000   0.2500000   0.3750000), wk =   0.0078125
        k(  119) = (   0.2500000   0.2500000  -0.5000000), wk =   0.0078125
        k(  120) = (   0.2500000   0.2500000  -0.3750000), wk =   0.0078125
        k(  121) = (   0.2500000   0.2500000  -0.2500000), wk =   0.0078125
        k(  122) = (   0.2500000   0.2500000  -0.1250000), wk =   0.0078125
        k(  123) = (   0.2500000   0.3750000  -0.0000000), wk =   0.0078125
        k(  124) = (   0.2500000   0.3750000   0.1250000), wk =   0.0078125
        k(  125) = (   0.2500000   0.3750000   0.2500000), wk =   0.0078125
        k(  126) = (   0.2500000   0.3750000   0.3750000), wk =   0.0078125
        k(  127) = (   0.2500000   0.3750000  -0.5000000), wk =   0.0078125
        k(  128) = (   0.2500000   0.3750000  -0.3750000), wk =   0.0078125
        k(  129) = (   0.2500000   0.3750000  -0.2500000), wk =   0.0078125
        k(  130) = (   0.2500000   0.3750000  -0.1250000), wk =   0.0078125
        k(  131) = (   0.2500000  -0.5000000   0.0000000), wk =   0.0078125
        k(  132) = (   0.2500000  -0.5000000   0.1250000), wk =   0.0078125
        k(  133) = (   0.2500000  -0.5000000   0.2500000), wk =   0.0078125
        k(  134) = (   0.2500000  -0.5000000   0.3750000), wk =   0.0078125
        k(  135) = (   0.2500000  -0.5000000  -0.5000000), wk =   0.0078125
        k(  136) = (   0.2500000  -0.5000000  -0.3750000), wk =   0.0078125
        k(  137) = (   0.2500000  -0.5000000  -0.2500000), wk =   0.0078125
        k(  138) = (   0.2500000  -0.5000000  -0.1250000), wk =   0.0078125
        k(  139) = (   0.2500000  -0.3750000  -0.0000000), wk =   0.0078125
        k(  140) = (   0.2500000  -0.3750000   0.1250000), wk =   0.0078125
        k(  141) = (   0.2500000  -0.3750000   0.2500000), wk =   0.0078125
        k(  142) = (   0.2500000  -0.3750000   0.3750000), wk =   0.0078125
        k(  143) = (   0.2500000  -0.3750000  -0.5000000), wk =   0.0078125
        k(  144) = (   0.2500000  -0.3750000  -0.3750000), wk =   0.0078125
        k(  145) = (   0.2500000  -0.3750000  -0.2500000), wk =   0.0078125
        k(  146) = (   0.2500000  -0.3750000  -0.1250000), wk =   0.0078125
        k(  147) = (   0.2500000  -0.2500000   0.0000000), wk =   0.0078125
        k(  148) = (   0.2500000  -0.2500000   0.1250000), wk =   0.0078125
        k(  149) = (   0.2500000  -0.2500000   0.2500000), wk =   0.0078125
        k(  150) = (   0.2500000  -0.2500000   0.3750000), wk =   0.0078125
        k(  151) = (   0.2500000  -0.2500000  -0.5000000), wk =   0.0078125
        k(  152) = (   0.2500000  -0.2500000  -0.3750000), wk =   0.0078125
        k(  153) = (   0.2500000  -0.2500000  -0.2500000), wk =   0.0078125
        k(  154) = (   0.2500000  -0.2500000  -0.1250000), wk =   0.0078125
        k(  155) = (   0.2500000  -0.1250000  -0.0000000), wk =   0.0078125
        k(  156) = (   0.2500000  -0.1250000   0.1250000), wk =   0.0078125
        k(  157) = (   0.2500000  -0.1250000   0.2500000), wk =   0.0078125
        k(  158) = (   0.2500000  -0.1250000   0.3750000), wk =   0.0078125
        k(  159) = (   0.2500000  -0.1250000  -0.5000000), wk =   0.0078125
        k(  160) = (   0.2500000  -0.1250000  -0.3750000), wk =   0.0078125
        k(  161) = (   0.2500000  -0.1250000  -0.2500000), wk =   0.0078125
        k(  162) = (   0.2500000  -0.1250000  -0.1250000), wk =   0.0078125
        k(  163) = (   0.3750000  -0.0000000  -0.0000000), wk =   0.0078125
        k(  164) = (   0.3750000  -0.0000000   0.1250000), wk =   0.0078125
        k(  165) = (   0.3750000  -0.0000000   0.2500000), wk =   0.0078125
        k(  166) = (   0.3750000  -0.0000000   0.3750000), wk =   0.0078125
        k(  167) = (   0.3750000  -0.0000000  -0.5000000), wk =   0.0078125
        k(  168) = (   0.3750000  -0.0000000  -0.3750000), wk =   0.0078125
        k(  169) = (   0.3750000  -0.0000000  -0.2500000), wk =   0.0078125
        k(  170) = (   0.3750000  -0.0000000  -0.1250000), wk =   0.0078125
        k(  171) = (   0.3750000   0.1250000  -0.0000000), wk =   0.0078125
        k(  172) = (   0.3750000   0.1250000   0.1250000), wk =   0.0078125
        k(  173) = (   0.3750000   0.1250000   0.2500000), wk =   0.0078125
        k(  174) = (   0.3750000   0.1250000   0.3750000), wk =   0.0078125
        k(  175) = (   0.3750000   0.1250000  -0.5000000), wk =   0.0078125
        k(  176) = (   0.3750000   0.1250000  -0.3750000), wk =   0.0078125
        k(  177) = (   0.3750000   0.1250000  -0.2500000), wk =   0.0078125
        k(  178) = (   0.3750000   0.1250000  -0.1250000), wk =   0.0078125
        k(  179) = (   0.3750000   0.2500000  -0.0000000), wk =   0.0078125
        k(  180) = (   0.3750000   0.2500000   0.1250000), wk =   0.0078125
        k(  181) = (   0.3750000   0.2500000   0.2500000), wk =   0.0078125
        k(  182) = (   0.3750000   0.2500000   0.3750000), wk =   0.0078125
        k(  183) = (   0.3750000   0.2500000  -0.5000000), wk =   0.0078125
        k(  184) = (   0.3750000   0.2500000  -0.3750000), wk =   0.0078125
        k(  185) = (   0.3750000   0.2500000  -0.2500000), wk =   0.0078125
        k(  186) = (   0.3750000   0.2500000  -0.1250000), wk =   0.0078125
        k(  187) = (   0.3750000   0.3750000   0.0000000), wk =   0.0078125
        k(  188) = (   0.3750000   0.3750000   0.1250000), wk =   0.0078125
        k(  189) = (   0.3750000   0.3750000   0.2500000), wk =   0.0078125
        k(  190) = (   0.3750000   0.3750000   0.3750000), wk =   0.0078125
        k(  191) = (   0.3750000   0.3750000  -0.5000000), wk =   0.0078125
        k(  192) = (   0.3750000   0.3750000  -0.3750000), wk =   0.0078125
        k(  193) = (   0.3750000   0.3750000  -0.2500000), wk =   0.0078125
        k(  194) = (   0.3750000   0.3750000  -0.1250000), wk =   0.0078125
        k(  195) = (   0.3750000  -0.5000000   0.0000000), wk =   0.0078125
        k(  196) = (   0.3750000  -0.5000000   0.1250000), wk =   0.0078125
        k(  197) = (   0.3750000  -0.5000000   0.2500000), wk =   0.0078125
        k(  198) = (   0.3750000  -0.5000000   0.3750000), wk =   0.0078125
        k(  199) = (   0.3750000  -0.5000000  -0.5000000), wk =   0.0078125
        k(  200) = (   0.3750000  -0.5000000  -0.3750000), wk =   0.0078125
        k(  201) = (   0.3750000  -0.5000000  -0.2500000), wk =   0.0078125
        k(  202) = (   0.3750000  -0.5000000  -0.1250000), wk =   0.0078125
        k(  203) = (   0.3750000  -0.3750000  -0.0000000), wk =   0.0078125
        k(  204) = (   0.3750000  -0.3750000   0.1250000), wk =   0.0078125
        k(  205) = (   0.3750000  -0.3750000   0.2500000), wk =   0.0078125
        k(  206) = (   0.3750000  -0.3750000   0.3750000), wk =   0.0078125
        k(  207) = (   0.3750000  -0.3750000  -0.5000000), wk =   0.0078125
        k(  208) = (   0.3750000  -0.3750000  -0.3750000), wk =   0.0078125
        k(  209) = (   0.3750000  -0.3750000  -0.2500000), wk =   0.0078125
        k(  210) = (   0.3750000  -0.3750000  -0.1250000), wk =   0.0078125
        k(  211) = (   0.3750000  -0.2500000  -0.0000000), wk =   0.0078125
        k(  212) = (   0.3750000  -0.2500000   0.1250000), wk =   0.0078125
        k(  213) = (   0.3750000  -0.2500000   0.2500000), wk =   0.0078125
        k(  214) = (   0.3750000  -0.2500000   0.3750000), wk =   0.0078125
        k(  215) = (   0.3750000  -0.2500000  -0.5000000), wk =   0.0078125
        k(  216) = (   0.3750000  -0.2500000  -0.3750000), wk =   0.0078125
        k(  217) = (   0.3750000  -0.2500000  -0.2500000), wk =   0.0078125
        k(  218) = (   0.3750000  -0.2500000  -0.1250000), wk =   0.0078125
        k(  219) = (   0.3750000  -0.1250000  -0.0000000), wk =   0.0078125
        k(  220) = (   0.3750000  -0.1250000   0.1250000), wk =   0.0078125
        k(  221) = (   0.3750000  -0.1250000   0.2500000), wk =   0.0078125
        k(  222) = (   0.3750000  -0.1250000   0.3750000), wk =   0.0078125
        k(  223) = (   0.3750000  -0.1250000  -0.5000000), wk =   0.0078125
        k(  224) = (   0.3750000  -0.1250000  -0.3750000), wk =   0.0078125
        k(  225) = (   0.3750000  -0.1250000  -0.2500000), wk =   0.0078125
        k(  226) = (   0.3750000  -0.1250000  -0.1250000), wk =   0.0078125
        k(  227) = (  -0.5000000  -0.0000000   0.0000000), wk =   0.0039062
        k(  228) = (  -0.5000000   0.0000000   0.1250000), wk =   0.0078125
        k(  229) = (  -0.5000000  -0.0000000   0.2500000), wk =   0.0078125
        k(  230) = (  -0.5000000   0.0000000   0.3750000), wk =   0.0078125
        k(  231) = (  -0.5000000  -0.0000000  -0.5000000), wk =   0.0039062
        k(  232) = (  -0.5000000   0.1250000   0.0000000), wk =   0.0078125
        k(  233) = (  -0.5000000   0.1250000   0.1250000), wk =   0.0078125
        k(  234) = (  -0.5000000   0.1250000   0.2500000), wk =   0.0078125
        k(  235) = (  -0.5000000   0.1250000   0.3750000), wk =   0.0078125
        k(  236) = (  -0.5000000   0.1250000  -0.5000000), wk =   0.0078125
        k(  237) = (  -0.5000000   0.1250000  -0.3750000), wk =   0.0078125
        k(  238) = (  -0.5000000   0.1250000  -0.2500000), wk =   0.0078125
        k(  239) = (  -0.5000000   0.1250000  -0.1250000), wk =   0.0078125
        k(  240) = (  -0.5000000   0.2500000   0.0000000), wk =   0.0078125
        k(  241) = (  -0.5000000   0.2500000   0.1250000), wk =   0.0078125
        k(  242) = (  -0.5000000   0.2500000   0.2500000), wk =   0.0078125
        k(  243) = (  -0.5000000   0.2500000   0.3750000), wk =   0.0078125
        k(  244) = (  -0.5000000   0.2500000  -0.5000000), wk =   0.0078125
        k(  245) = (  -0.5000000   0.2500000  -0.3750000), wk =   0.0078125
        k(  246) = (  -0.5000000   0.2500000  -0.2500000), wk =   0.0078125
        k(  247) = (  -0.5000000   0.2500000  -0.1250000), wk =   0.0078125
        k(  248) = (  -0.5000000   0.3750000   0.0000000), wk =   0.0078125
        k(  249) = (  -0.5000000   0.3750000   0.1250000), wk =   0.0078125
        k(  250) = (  -0.5000000   0.3750000   0.2500000), wk =   0.0078125
        k(  251) = (  -0.5000000   0.3750000   0.3750000), wk =   0.0078125
        k(  252) = (  -0.5000000   0.3750000  -0.5000000), wk =   0.0078125
        k(  253) = (  -0.5000000   0.3750000  -0.3750000), wk =   0.0078125
        k(  254) = (  -0.5000000   0.3750000  -0.2500000), wk =   0.0078125
        k(  255) = (  -0.5000000   0.3750000  -0.1250000), wk =   0.0078125
        k(  256) = (  -0.5000000  -0.5000000   0.0000000), wk =   0.0039062
        k(  257) = (  -0.5000000  -0.5000000   0.1250000), wk =   0.0078125
        k(  258) = (  -0.5000000  -0.5000000   0.2500000), wk =   0.0078125
        k(  259) = (  -0.5000000  -0.5000000   0.3750000), wk =   0.0078125
        k(  260) = (  -0.5000000  -0.5000000  -0.5000000), wk =   0.0039062

     Dense  grid:    75305 G-vectors     FFT dimensions: (  54,  54,  72)

     Smooth grid:    29321 G-vectors     FFT dimensions: (  40,  40,  48)

     Dynamical RAM for                 wfc:       0.07 MB

     Dynamical RAM for     wfc (w. buffer):       4.84 MB

     Dynamical RAM for           str. fact:       0.22 MB

     Dynamical RAM for           local pot:       0.00 MB

     Dynamical RAM for          nlocal pot:       0.22 MB

     Dynamical RAM for                qrad:       8.17 MB

     Dynamical RAM for          rho,v,vnew:       0.55 MB

     Dynamical RAM for               rhoin:       0.18 MB

     Dynamical RAM for            rho*nmix:       1.15 MB

     Dynamical RAM for           G-vectors:       0.28 MB

     Dynamical RAM for          h,s,v(r/c):       0.08 MB

     Dynamical RAM for          <psi|beta>:       0.02 MB

     Dynamical RAM for                 psi:       0.29 MB

     Dynamical RAM for                hpsi:       0.29 MB

     Dynamical RAM for                spsi:       0.29 MB

     Dynamical RAM for      wfcinit/wfcrot:       0.20 MB

     Dynamical RAM for           addusdens:       3.77 MB

     Dynamical RAM for          addusforce:       3.91 MB

     Dynamical RAM for         addusstress:       3.97 MB

     Estimated static dynamical RAM per process >      16.46 MB

     Estimated max dynamical RAM per process >      20.43 MB

     Estimated total dynamical RAM >       1.28 GB

     Check: negative core charge=   -0.000003

     Initial potential from superposition of free atoms

     starting charge   41.69964, renormalised to   42.00000
     Starting wfcs are   26 randomized atomic wfcs

     total cpu time spent up to now is        1.7 secs

     Self-consistent Calculation

     iteration #  1     ecut=    80.00 Ry     beta= 0.50
     Davidson diagonalization with overlap
     ethr =  1.00E-02,  avg # of iterations =  2.0

     total cpu time spent up to now is        2.4 secs

     total energy              =    -650.65211909 Ry
     Harris-Foulkes estimate   =    -651.44206507 Ry
     estimated scf accuracy    <       1.18464274 Ry

     iteration #  2     ecut=    80.00 Ry     beta= 0.50
     Davidson diagonalization with overlap
     ethr =  2.82E-03,  avg # of iterations =  3.0

     total cpu time spent up to now is        3.5 secs

     total energy              =    -651.02528044 Ry
     Harris-Foulkes estimate   =    -651.28831074 Ry
     estimated scf accuracy    <       0.60204320 Ry

     iteration #  3     ecut=    80.00 Ry     beta= 0.50
     Davidson diagonalization with overlap
     ethr =  1.43E-03,  avg # of iterations =  2.0

     total cpu time spent up to now is        4.3 secs

     total energy              =    -651.12722304 Ry
     Harris-Foulkes estimate   =    -651.13046279 Ry
     estimated scf accuracy    <       0.00960742 Ry

     iteration #  4     ecut=    80.00 Ry     beta= 0.50
     Davidson diagonalization with overlap
     ethr =  2.29E-05,  avg # of iterations =  2.9

     total cpu time spent up to now is        5.3 secs

     total energy              =    -651.12785120 Ry
     Harris-Foulkes estimate   =    -651.12890886 Ry
     estimated scf accuracy    <       0.00261932 Ry

     iteration #  5     ecut=    80.00 Ry     beta= 0.50
     Davidson diagonalization with overlap
     ethr =  6.24E-06,  avg # of iterations =  2.8

     total cpu time spent up to now is        6.2 secs

     total energy              =    -651.12838086 Ry
     Harris-Foulkes estimate   =    -651.12842914 Ry
     estimated scf accuracy    <       0.00019661 Ry

     iteration #  6     ecut=    80.00 Ry     beta= 0.50
     Davidson diagonalization with overlap
     ethr =  4.68E-07,  avg # of iterations =  2.6

     total cpu time spent up to now is        7.1 secs

     total energy              =    -651.12841103 Ry
     Harris-Foulkes estimate   =    -651.12840788 Ry
     estimated scf accuracy    <       0.00000934 Ry

     iteration #  7     ecut=    80.00 Ry     beta= 0.50
     Davidson diagonalization with overlap
     ethr =  2.22E-08,  avg # of iterations =  2.1

     total cpu time spent up to now is        8.0 secs

     End of self-consistent calculation

          k = 0.0000 0.0000 0.0000 (  3647 PWs)   bands (ev):

  -115.2629 -69.6261 -69.6261 -69.6155 -64.7239 -31.7138 -31.6939 -31.6939
    -9.9378  -8.5336   2.1113   2.1113   3.1123   3.3498   3.3498   3.6673
     5.8257   5.8257   7.0533   7.4205   7.4205

     occupation numbers 
     1.0000   1.0000   1.0000   1.0000   1.0000   1.0000   1.0000   1.0000
     1.0000   1.0000   1.0000   1.0000   1.0000   1.0000   1.0000   1.0000
     1.0000   1.0000   1.0000   1.0000   1.0000

          k = 0.0000 0.0000 0.0994 (  3647 PWs)   bands (ev):

  -115.2629 -69.6261 -69.6261 -69.6155 -64.7239 -31.7140 -31.6939 -31.6939
    -9.8911  -8.5770   2.1122   2.1122   2.8655   3.3250   3.3250   3.9083
     5.8816   5.8816   6.7647   7.4006   7.4006

     occupation numbers 
     1.0000   1.0000   1.0000   1.0000   1.0000   1.0000   1.0000   1.0000
     1.0000   1.0000   1.0000   1.0000   1.0000   1.0000   1.0000   1.0000
     1.0000   1.0000   1.0000   1.0000   1.0000

          k = 0.0000 0.0000 0.1988 (  3701 PWs)   bands (ev):

  -115.2629 -69.6262 -69.6262 -69.6155 -64.7239 -31.7146 -31.6939 -31.6939
    -9.7619  -8.6989   2.1143   2.1143   2.5306   3.2681   3.2681   4.2267
     6.0201   6.0201   6.2714   7.3465   7.3465

     occupation numbers 
     1.0000   1.0000   1.0000   1.0000   1.0000   1.0000   1.0000   1.0000
     1.0000   1.0000   1.0000   1.0000   1.0000   1.0000   1.0000   1.0000
     1.0000   1.0000   1.0000   1.0000   1.0000

          k = 0.0000 0.0000 0.2982 (  3702 PWs)   bands (ev):

  -115.2629 -69.6262 -69.6262 -69.6155 -64.7239 -31.7151 -31.6939 -31.6939
    -9.5891  -8.8649   2.1164   2.1164   2.3047   3.2147   3.2147   4.4292
     5.9106   6.1675   6.1675   7.2800   7.2800

     occupation numbers 
     1.0000   1.0000   1.0000   1.0000   1.0000   1.0000   1.0000   1.0000
     1.0000   1.0000   1.0000   1.0000   1.0000   1.0000   1.0000   1.0000
     1.0000   1.0000   1.0000   1.0000   1.0000

          k =-0.0000-0.0000-0.3976 (  3684 PWs)   bands (ev):

  -115.2629 -69.6261 -69.6261 -69.6155 -64.7239 -31.7153 -31.6938 -31.6938
    -9.4860  -8.9654   2.1174   2.1174   2.2272   3.1936   3.1936   4.4932
     5.7855   6.2331   6.2331   7.2471   7.2471

     occupation numbers 
     1.0000   1.0000   1.0000   1.0000   1.0000   1.0000   1.0000   1.0000
     1.0000   1.0000   1.0000   1.0000   1.0000   1.0000   1.0000   1.0000
     1.0000   1.0000   1.0000   1.0000   1.0000

          k =-0.0000 0.1443 0.0000 (  3644 PWs)   bands (ev):

  -115.2629 -69.6262 -69.6261 -69.6155 -64.7238 -31.7136 -31.6966 -31.6945
    -9.8561  -8.5325   2.0870   2.1915   2.9694   3.3438   3.5969   3.6782
     5.5233   5.7414   6.7941   6.9725   7.2776

     occupation numbers 
     1.0000   1.0000   1.0000   1.0000   1.0000   1.0000   1.0000   1.0000
     1.0000   1.0000   1.0000   1.0000   1.0000   1.0000   1.0000   1.0000
     1.0000   1.0000   1.0000   1.0000   1.0000

          k =-0.0000 0.1443 0.0994 (  3651 PWs)   bands (ev):

  -115.2629 -69.6262 -69.6261 -69.6155 -64.7238 -31.7138 -31.6966 -31.6945
    -9.8117  -8.5713   2.0854   2.1931   2.8235   3.3180   3.3270   4.0334
     5.5999   5.7996   6.4132   7.2279   7.2533

     occupation numbers 
     1.0000   1.0000   1.0000   1.0000   1.0000   1.0000   1.0000   1.0000
     1.0000   1.0000   1.0000   1.0000   1.0000   1.0000   1.0000   1.0000
     1.0000   1.0000   1.0000   1.0000   1.0000

          k =-0.0000 0.1443 0.1988 (  3665 PWs)   bands (ev):

  -115.2629 -69.6262 -69.6262 -69.6155 -64.7238 -31.7143 -31.6966 -31.6945
    -9.6893  -8.6806   2.0784   2.1963   2.5370   3.1427   3.2594   4.3648
     5.7467   5.9502   6.0187   7.1808   7.3709

     occupation numbers 
     1.0000   1.0000   1.0000   1.0000   1.0000   1.0000   1.0000   1.0000
     1.0000   1.0000   1.0000   1.0000   1.0000   1.0000   1.0000   1.0000
     1.0000   1.0000   1.0000   1.0000   1.0000

          k =-0.0000 0.1443 0.2982 (  3679 PWs)   bands (ev):

  -115.2629 -69.6263 -69.6262 -69.6155 -64.7238 -31.7148 -31.6966 -31.6945
    -9.5276  -8.8296   2.0579   2.1993   2.3351   3.0169   3.2047   4.5740
     5.5824   6.0832   6.1197   7.0853   7.3804

     occupation numbers 
     1.0000   1.0000   1.0000   1.0000   1.0000   1.0000   1.0000   1.0000
     1.0000   1.0000   1.0000   1.0000   1.0000   1.0000   1.0000   1.0000
     1.0000   1.0000   1.0000   1.0000   1.0000

          k =-0.0000 0.1443-0.3976 (  3686 PWs)   bands (ev):

  -115.2629 -69.6263 -69.6262 -69.6155 -64.7238 -31.7150 -31.6966 -31.6945
    -9.4334  -8.9187   2.0390   2.2002   2.2765   2.9682   3.1834   4.6521
     5.4598   6.1812   6.2024   7.0319   7.3644

     occupation numbers 
     1.0000   1.0000   1.0000   1.0000   1.0000   1.0000   1.0000   1.0000
     1.0000   1.0000   1.0000   1.0000   1.0000   1.0000   1.0000   1.0000
     1.0000   1.0000   1.0000   1.0000   1.0000

          k =-0.0000 0.1443-0.2982 (  3679 PWs)   bands (ev):

  -115.2629 -69.6263 -69.6262 -69.6155 -64.7238 -31.7148 -31.6966 -31.6945
    -9.5276  -8.8296   2.0561   2.1984   2.3382   3.0158   3.2055   4.5851
     5.5439   6.1061   6.1258   7.0783   7.3870

     occupation numbers 
     1.0000   1.0000   1.0000   1.0000   1.0000   1.0000   1.0000   1.0000
     1.0000   1.0000   1.0000   1.0000   1.0000   1.0000   1.0000   1.0000
     1.0000   1.0000   1.0000   1.0000   1.0000

          k =-0.0000 0.1443-0.1988 (  3665 PWs)   bands (ev):

  -115.2629 -69.6262 -69.6262 -69.6155 -64.7238 -31.7143 -31.6966 -31.6945
    -9.6893  -8.6806   2.0779   2.1951   2.5386   3.1411   3.2604   4.3754
     5.6888   5.9569   6.0580   7.1729   7.3829

     occupation numbers 
     1.0000   1.0000   1.0000   1.0000   1.0000   1.0000   1.0000   1.0000
     1.0000   1.0000   1.0000   1.0000   1.0000   1.0000   1.0000   1.0000
     1.0000   1.0000   1.0000   1.0000   1.0000

          k =-0.0000 0.1443-0.0994 (  3651 PWs)   bands (ev):

  -115.2629 -69.6262 -69.6261 -69.6155 -64.7238 -31.7138 -31.6966 -31.6945
    -9.8117  -8.5713   2.0858   2.1923   2.8234   3.3187   3.3250   4.0398
     5.5866   5.8036   6.4098   7.2426   7.2485

     occupation numbers 
     1.0000   1.0000   1.0000   1.0000   1.0000   1.0000   1.0000   1.0000
     1.0000   1.0000   1.0000   1.0000   1.0000   1.0000   1.0000   1.0000
     1.0000   1.0000   1.0000   1.0000   1.0000

          k =-0.0000 0.2887 0.0000 (  3670 PWs)   bands (ev):

  -115.2629 -69.6266 -69.6262 -69.6155 -64.7235 -31.7130 -31.7033 -31.6960
    -9.6406  -8.5449   2.0664   2.4102   2.8349   3.3296   3.6582   4.0358
     4.8740   5.4999   5.8911   6.7365   6.9643

     occupation numbers 
     1.0000   1.0000   1.0000   1.0000   1.0000   1.0000   1.0000   1.0000
     1.0000   1.0000   1.0000   1.0000   1.0000   1.0000   1.0000   1.0000
     1.0000   1.0000   1.0000   1.0000   1.0000

          k =-0.0000 0.2887 0.0994 (  3671 PWs)   bands (ev):

  -115.2629 -69.6266 -69.6263 -69.6155 -64.7235 -31.7132 -31.7033 -31.6960
    -9.6031  -8.5710   2.0619   2.4131   2.7348   3.3017   3.3458   4.2291
     5.0465   5.5659   5.7339   6.9271   6.9561

     occupation numbers 
     1.0000   1.0000   1.0000   1.0000   1.0000   1.0000   1.0000   1.0000
     1.0000   1.0000   1.0000   1.0000   1.0000   1.0000   1.0000   1.0000
     1.0000   1.0000   1.0000   1.0000   1.0000

          k =-0.0000 0.2887 0.1988 (  3671 PWs)   bands (ev):

  -115.2629 -69.6266 -69.6263 -69.6155 -64.7235 -31.7137 -31.7033 -31.6960
    -9.5013  -8.6450   2.0447   2.4185   2.5166   2.9507   3.2393   4.4184
     5.2155   5.6710   5.7449   6.8127   7.3030

     occupation numbers 
     1.0000   1.0000   1.0000   1.0000   1.0000   1.0000   1.0000   1.0000
     1.0000   1.0000   1.0000   1.0000   1.0000   1.0000   1.0000   1.0000
     1.0000   1.0000   1.0000   1.0000   1.0000

          k =-0.0000 0.2887 0.2982 (  3671 PWs)   bands (ev):

  -115.2629 -69.6266 -69.6263 -69.6155 -64.7235 -31.7142 -31.7032 -31.6960
    -9.3728  -8.7460   1.9995   2.3566   2.4237   2.6771   3.1816   4.5598
     5.0423   5.9711   5.9747   6.6424   7.4974

     occupation numbers 
     1.0000   1.0000   1.0000   1.0000   1.0000   1.0000   1.0000   1.0000
     1.0000   1.0000   1.0000   1.0000   1.0000   1.0000   1.0000   1.0000
     1.0000   1.0000   1.0000   1.0000   1.0000

          k =-0.0000 0.2887-0.3976 (  3662 PWs)   bands (ev):

  -115.2629 -69.6266 -69.6263 -69.6155 -64.7235 -31.7144 -31.7032 -31.6959
    -9.3036  -8.8040   1.9611   2.3289   2.4252   2.5680   3.1594   4.6735
     4.8863   6.1243   6.1251   6.5150   7.5490

     occupation numbers 
     1.0000   1.0000   1.0000   1.0000   1.0000   1.0000   1.0000   1.0000
     1.0000   1.0000   1.0000   1.0000   1.0000   1.0000   1.0000   1.0000
     1.0000   1.0000   1.0000   1.0000   1.0000

          k =-0.0000 0.2887-0.2982 (  3671 PWs)   bands (ev):

  -115.2629 -69.6266 -69.6263 -69.6155 -64.7235 -31.7142 -31.7032 -31.6960
    -9.3729  -8.7459   1.9903   2.3764   2.4218   2.6668   3.1833   4.6298
     4.9390   5.9874   5.9918   6.6285   7.5160

     occupation numbers 
     1.0000   1.0000   1.0000   1.0000   1.0000   1.0000   1.0000   1.0000
     1.0000   1.0000   1.0000   1.0000   1.0000   1.0000   1.0000   1.0000
     1.0000   1.0000   1.0000   1.0000   1.0000

          k =-0.0000 0.2887-0.1988 (  3671 PWs)   bands (ev):

  -115.2629 -69.6266 -69.6263 -69.6155 -64.7235 -31.7137 -31.7033 -31.6960
    -9.5014  -8.6449   2.0416   2.4160   2.5232   2.9449   3.2416   4.4816
     5.0919   5.7097   5.7558   6.8002   7.3355

     occupation numbers 
     1.0000   1.0000   1.0000   1.0000   1.0000   1.0000   1.0000   1.0000
     1.0000   1.0000   1.0000   1.0000   1.0000   1.0000   1.0000   1.0000
     1.0000   1.0000   1.0000   1.0000   1.0000

          k =-0.0000 0.2887-0.0994 (  3671 PWs)   bands (ev):

  -115.2629 -69.6266 -69.6263 -69.6155 -64.7235 -31.7132 -31.7033 -31.6960
    -9.6031  -8.5709   2.0630   2.4114   2.7332   3.3032   3.3367   4.2756
     5.0017   5.5719   5.7110   6.9200   6.9927

     occupation numbers 
     1.0000   1.0000   1.0000   1.0000   1.0000   1.0000   1.0000   1.0000
     1.0000   1.0000   1.0000   1.0000   1.0000   1.0000   1.0000   1.0000
     1.0000   1.0000   1.0000   1.0000   1.0000

          k =-0.0000 0.4330 0.0000 (  3658 PWs)   bands (ev):

  -115.2629 -69.6269 -69.6263 -69.6155 -64.7232 -31.7125 -31.7099 -31.6975
    -9.3818  -8.5963   2.1208   2.6830   2.7618   3.3163   3.5394   4.3330
     4.5352   5.1789   5.1950   6.4121   6.6986

     occupation numbers 
     1.0000   1.0000   1.0000   1.0000   1.0000   1.0000   1.0000   1.0000
     1.0000   1.0000   1.0000   1.0000   1.0000   1.0000   1.0000   1.0000
     1.0000   1.0000   1.0000   1.0000   1.0000

          k =-0.0000 0.4330 0.0994 (  3675 PWs)   bands (ev):

  -115.2629 -69.6269 -69.6264 -69.6155 -64.7232 -31.7127 -31.7099 -31.6975
    -9.3553  -8.6050   2.1119   2.6620   2.6863   3.2867   3.3677   4.0150
     4.7575   5.2496   5.4041   6.6393   6.6523

     occupation numbers 
     1.0000   1.0000   1.0000   1.0000   1.0000   1.0000   1.0000   1.0000
     1.0000   1.0000   1.0000   1.0000   1.0000   1.0000   1.0000   1.0000
     1.0000   1.0000   1.0000   1.0000   1.0000

          k =-0.0000 0.4330 0.1988 (  3665 PWs)   bands (ev):

  -115.2629 -69.6269 -69.6264 -69.6154 -64.7232 -31.7131 -31.7099 -31.6975
    -9.2863  -8.6308   2.0870   2.4546   2.6928   2.8911   3.2213   3.9276
     4.8484   5.4410   5.7419   6.5144   7.1449

     occupation numbers 
     1.0000   1.0000   1.0000   1.0000   1.0000   1.0000   1.0000   1.0000
     1.0000   1.0000   1.0000   1.0000   1.0000   1.0000   1.0000   1.0000
     1.0000   1.0000   1.0000   1.0000   1.0000

          k =-0.0000 0.4330 0.2982 (  3663 PWs)   bands (ev):

  -115.2629 -69.6269 -69.6264 -69.6154 -64.7232 -31.7136 -31.7098 -31.6974
    -9.2071  -8.6665   2.0419   2.2694   2.5353   2.6995   3.1612   3.9243
     4.8488   5.6986   6.0580   6.3046   7.5337

     occupation numbers 
     1.0000   1.0000   1.0000   1.0000   1.0000   1.0000   1.0000   1.0000
     1.0000   1.0000   1.0000   1.0000   1.0000   1.0000   1.0000   1.0000
     1.0000   1.0000   1.0000   1.0000   1.0000

          k =-0.0000 0.4330-0.3976 (  3668 PWs)   bands (ev):

  -115.2629 -69.6269 -69.6264 -69.6155 -64.7232 -31.7138 -31.7098 -31.6974
    -9.1696  -8.6859   2.0028   2.2048   2.4234   2.7015   3.1383   3.9291
     4.8356   5.9081   6.1132   6.1890   7.6680

     occupation numbers 
     1.0000   1.0000   1.0000   1.0000   1.0000   1.0000   1.0000   1.0000
     1.0000   1.0000   1.0000   1.0000   1.0000   1.0000   1.0000   1.0000
     1.0000   1.0000   1.0000   1.0000   1.0000

          k =-0.0000 0.4330-0.2982 (  3663 PWs)   bands (ev):

  -115.2629 -69.6269 -69.6264 -69.6154 -64.7232 -31.7136 -31.7098 -31.6974
    -9.2071  -8.6664   2.0252   2.3083   2.5121   2.6969   3.1636   3.9350
     4.8321   5.7085   6.0504   6.2939   7.5545

     occupation numbers 
     1.0000   1.0000   1.0000   1.0000   1.0000   1.0000   1.0000   1.0000
     1.0000   1.0000   1.0000   1.0000   1.0000   1.0000   1.0000   1.0000
     1.0000   1.0000   1.0000   1.0000   1.0000

          k =-0.0000 0.4330-0.1988 (  3665 PWs)   bands (ev):

  -115.2629 -69.6269 -69.6264 -69.6154 -64.7232 -31.7131 -31.7099 -31.6975
    -9.2864  -8.6307   2.0888   2.4556   2.6895   2.8815   3.2244   3.9524
     4.8328   5.4487   5.7096   6.5056   7.1826

     occupation numbers 
     1.0000   1.0000   1.0000   1.0000   1.0000   1.0000   1.0000   1.0000
     1.0000   1.0000   1.0000   1.0000   1.0000   1.0000   1.0000   1.0000
     1.0000   1.0000   1.0000   1.0000   1.0000

          k =-0.0000 0.4330-0.0994 (  3675 PWs)   bands (ev):

  -115.2629 -69.6269 -69.6264 -69.6155 -64.7232 -31.7127 -31.7099 -31.6975
    -9.3553  -8.6049   2.1177   2.6550   2.6841   3.2887   3.3464   4.0561
     4.7879   5.2537   5.3162   6.6474   6.6830

     occupation numbers 
     1.0000   1.0000   1.0000   1.0000   1.0000   1.0000   1.0000   1.0000
     1.0000   1.0000   1.0000   1.0000   1.0000   1.0000   1.0000   1.0000
     1.0000   1.0000   1.0000   1.0000   1.0000

          k = 0.0000-0.5774-0.0000 (  3662 PWs)   bands (ev):

  -115.2629 -69.6271 -69.6264 -69.6155 -64.7231 -31.7127 -31.7122 -31.6981
    -9.2476  -8.6431   2.1816   2.7386   2.8225   3.3116   3.4070   4.2274
     4.7555   4.9185   5.0102   6.2210   6.6026

     occupation numbers 
     1.0000   1.0000   1.0000   1.0000   1.0000   1.0000   1.0000   1.0000
     1.0000   1.0000   1.0000   1.0000   1.0000   1.0000   1.0000   1.0000
     1.0000   1.0000   1.0000   1.0000   1.0000

          k = 0.0000-0.5774 0.0994 (  3670 PWs)   bands (ev):

  -115.2629 -69.6271 -69.6264 -69.6155 -64.7231 -31.7127 -31.7124 -31.6981
    -9.2292  -8.6410   2.1682   2.6411   2.8242   3.2828   3.3527   3.8035
     4.6450   5.0828   5.4409   6.4737   6.5529

     occupation numbers 
     1.0000   1.0000   1.0000   1.0000   1.0000   1.0000   1.0000   1.0000
     1.0000   1.0000   1.0000   1.0000   1.0000   1.0000   1.0000   1.0000
     1.0000   1.0000   1.0000   1.0000   1.0000

          k = 0.0000-0.5774 0.1988 (  3664 PWs)   bands (ev):

  -115.2629 -69.6271 -69.6264 -69.6154 -64.7231 -31.7129 -31.7126 -31.6981
    -9.1831  -8.6372   2.1154   2.4668   2.8289   2.9163   3.2179   3.5623
     4.7286   5.2734   5.8430   6.4122   7.0669

     occupation numbers 
     1.0000   1.0000   1.0000   1.0000   1.0000   1.0000   1.0000   1.0000
     1.0000   1.0000   1.0000   1.0000   1.0000   1.0000   1.0000   1.0000
     1.0000   1.0000   1.0000   1.0000   1.0000

          k = 0.0000-0.5774 0.2982 (  3664 PWs)   bands (ev):

  -115.2629 -69.6271 -69.6264 -69.6154 -64.7231 -31.7134 -31.7126 -31.6981
    -9.1342  -8.6357   2.0424   2.2932   2.5244   2.8349   3.1578   3.5422
     4.7827   5.5188   6.1238   6.2106   7.5447

     occupation numbers 
     1.0000   1.0000   1.0000   1.0000   1.0000   1.0000   1.0000   1.0000
     1.0000   1.0000   1.0000   1.0000   1.0000   1.0000   1.0000   1.0000
     1.0000   1.0000   1.0000   1.0000   1.0000

          k = 0.0000-0.5774-0.3976 (  3668 PWs)   bands (ev):

  -115.2629 -69.6270 -69.6264 -69.6154 -64.7231 -31.7136 -31.7126 -31.6981
    -9.1129  -8.6359   2.0371   2.1359   2.4527   2.8379   3.1337   3.5399
     4.7972   5.6789   6.0672   6.2385   7.7071

     occupation numbers 
     1.0000   1.0000   1.0000   1.0000   1.0000   1.0000   1.0000   1.0000
     1.0000   1.0000   1.0000   1.0000   1.0000   1.0000   1.0000   1.0000
     1.0000   1.0000   1.0000   1.0000   1.0000

          k = 0.1250 0.0722 0.0000 (  3644 PWs)   bands (ev):

  -115.2629 -69.6262 -69.6261 -69.6155 -64.7238 -31.7136 -31.6966 -31.6945
    -9.8561  -8.5325   2.0870   2.1915   2.9694   3.3438   3.5969   3.6782
     5.5233   5.7414   6.7941   6.9725   7.2776

     occupation numbers 
     1.0000   1.0000   1.0000   1.0000   1.0000   1.0000   1.0000   1.0000
     1.0000   1.0000   1.0000   1.0000   1.0000   1.0000   1.0000   1.0000
     1.0000   1.0000   1.0000   1.0000   1.0000

          k = 0.1250 0.0722 0.0994 (  3651 PWs)   bands (ev):

  -115.2629 -69.6262 -69.6262 -69.6155 -64.7238 -31.7138 -31.6966 -31.6945
    -9.8117  -8.5713   2.0858   2.1923   2.8234   3.3187   3.3250   4.0398
     5.5866   5.8036   6.4098   7.2426   7.2485

     occupation numbers 
     1.0000   1.0000   1.0000   1.0000   1.0000   1.0000   1.0000   1.0000
     1.0000   1.0000   1.0000   1.0000   1.0000   1.0000   1.0000   1.0000
     1.0000   1.0000   1.0000   1.0000   1.0000

          k = 0.1250 0.0722 0.1988 (  3665 PWs)   bands (ev):

  -115.2629 -69.6262 -69.6262 -69.6155 -64.7238 -31.7143 -31.6966 -31.6945
    -9.6893  -8.6806   2.0779   2.1951   2.5386   3.1411   3.2604   4.3754
     5.6888   5.9569   6.0580   7.1729   7.3829

     occupation numbers 
     1.0000   1.0000   1.0000   1.0000   1.0000   1.0000   1.0000   1.0000
     1.0000   1.0000   1.0000   1.0000   1.0000   1.0000   1.0000   1.0000
     1.0000   1.0000   1.0000   1.0000   1.0000

          k = 0.1250 0.0722 0.2982 (  3679 PWs)   bands (ev):

  -115.2629 -69.6263 -69.6262 -69.6155 -64.7238 -31.7148 -31.6966 -31.6945
    -9.5276  -8.8296   2.0561   2.1984   2.3382   3.0158   3.2055   4.5851
     5.5439   6.1061   6.1258   7.0783   7.3870

     occupation numbers 
     1.0000   1.0000   1.0000   1.0000   1.0000   1.0000   1.0000   1.0000
     1.0000   1.0000   1.0000   1.0000   1.0000   1.0000   1.0000   1.0000
     1.0000   1.0000   1.0000   1.0000   1.0000

          k = 0.1250 0.0722-0.3976 (  3686 PWs)   bands (ev):

  -115.2629 -69.6263 -69.6262 -69.6155 -64.7238 -31.7150 -31.6966 -31.6945
    -9.4334  -8.9187   2.0390   2.2002   2.2765   2.9682   3.1834   4.6521
     5.4598   6.1812   6.2024   7.0319   7.3644

     occupation numbers 
     1.0000   1.0000   1.0000   1.0000   1.0000   1.0000   1.0000   1.0000
     1.0000   1.0000   1.0000   1.0000   1.0000   1.0000   1.0000   1.0000
     1.0000   1.0000   1.0000   1.0000   1.0000

          k = 0.1250 0.0722-0.2982 (  3679 PWs)   bands (ev):

  -115.2629 -69.6263 -69.6262 -69.6155 -64.7238 -31.7148 -31.6966 -31.6945
    -9.5276  -8.8296   2.0579   2.1993   2.3351   3.0169   3.2047   4.5740
     5.5823   6.0832   6.1197   7.0853   7.3804

     occupation numbers 
     1.0000   1.0000   1.0000   1.0000   1.0000   1.0000   1.0000   1.0000
     1.0000   1.0000   1.0000   1.0000   1.0000   1.0000   1.0000   1.0000
     1.0000   1.0000   1.0000   1.0000   1.0000

          k = 0.1250 0.0722-0.1988 (  3665 PWs)   bands (ev):

  -115.2629 -69.6262 -69.6262 -69.6155 -64.7238 -31.7143 -31.6966 -31.6945
    -9.6893  -8.6806   2.0784   2.1963   2.5370   3.1427   3.2594   4.3648
     5.7467   5.9502   6.0187   7.1808   7.3709

     occupation numbers 
     1.0000   1.0000   1.0000   1.0000   1.0000   1.0000   1.0000   1.0000
     1.0000   1.0000   1.0000   1.0000   1.0000   1.0000   1.0000   1.0000
     1.0000   1.0000   1.0000   1.0000   1.0000

          k = 0.1250 0.0722-0.0994 (  3651 PWs)   bands (ev):

  -115.2629 -69.6262 -69.6262 -69.6155 -64.7238 -31.7138 -31.6966 -31.6945
    -9.8117  -8.5713   2.0854   2.1931   2.8235   3.3180   3.3270   4.0334
     5.5999   5.7996   6.4132   7.2280   7.2533

     occupation numbers 
     1.0000   1.0000   1.0000   1.0000   1.0000   1.0000   1.0000   1.0000
     1.0000   1.0000   1.0000   1.0000   1.0000   1.0000   1.0000   1.0000
     1.0000   1.0000   1.0000   1.0000   1.0000

          k = 0.1250 0.2165 0.0000 (  3669 PWs)   bands (ev):

  -115.2629 -69.6265 -69.6262 -69.6155 -64.7236 -31.7132 -31.7011 -31.6958
    -9.7072  -8.5384   2.0722   2.3388   2.8666   3.3286   3.6678   3.9171
     5.1015   5.4777   6.2068   6.8092   6.9910

     occupation numbers 
     1.0000   1.0000   1.0000   1.0000   1.0000   1.0000   1.0000   1.0000
     1.0000   1.0000   1.0000   1.0000   1.0000   1.0000   1.0000   1.0000
     1.0000   1.0000   1.0000   1.0000   1.0000

          k = 0.1250 0.2165 0.0994 (  3675 PWs)   bands (ev):

  -115.2629 -69.6265 -69.6263 -69.6155 -64.7236 -31.7134 -31.7011 -31.6958
    -9.6673  -8.5684   2.0688   2.3404   2.7619   3.3007   3.3386   4.2160
     5.1934   5.5600   5.9774   6.9393   7.0775

     occupation numbers 
     1.0000   1.0000   1.0000   1.0000   1.0000   1.0000   1.0000   1.0000
     1.0000   1.0000   1.0000   1.0000   1.0000   1.0000   1.0000   1.0000
     1.0000   1.0000   1.0000   1.0000   1.0000

          k = 0.1250 0.2165 0.1988 (  3672 PWs)   bands (ev):

  -115.2629 -69.6265 -69.6262 -69.6155 -64.7236 -31.7139 -31.7011 -31.6958
    -9.5587  -8.6538   2.0514   2.3447   2.5344   2.9974   3.2373   4.4883
     5.2778   5.7590   5.8389   6.8322   7.3843

     occupation numbers 
     1.0000   1.0000   1.0000   1.0000   1.0000   1.0000   1.0000   1.0000
     1.0000   1.0000   1.0000   1.0000   1.0000   1.0000   1.0000   1.0000
     1.0000   1.0000   1.0000   1.0000   1.0000

          k = 0.1250 0.2165 0.2982 (  3674 PWs)   bands (ev):

  -115.2629 -69.6265 -69.6262 -69.6155 -64.7236 -31.7144 -31.7010 -31.6958
    -9.4193  -8.7702   2.0070   2.3458   2.3713   2.7679   3.1780   4.6723
     5.1207   5.9296   6.0929   6.6740   7.5325

     occupation numbers 
     1.0000   1.0000   1.0000   1.0000   1.0000   1.0000   1.0000   1.0000
     1.0000   1.0000   1.0000   1.0000   1.0000   1.0000   1.0000   1.0000
     1.0000   1.0000   1.0000   1.0000   1.0000

          k = 0.1250 0.2165-0.3976 (  3656 PWs)   bands (ev):

  -115.2629 -69.6265 -69.6262 -69.6155 -64.7236 -31.7146 -31.7010 -31.6958
    -9.3421  -8.8380   1.9756   2.3174   2.3568   2.6828   3.1544   4.7727
     5.0000   6.0493   6.2200   6.5732   7.5614

     occupation numbers 
     1.0000   1.0000   1.0000   1.0000   1.0000   1.0000   1.0000   1.0000
     1.0000   1.0000   1.0000   1.0000   1.0000   1.0000   1.0000   1.0000
     1.0000   1.0000   1.0000   1.0000   1.0000

          k = 0.1250 0.2165-0.2982 (  3674 PWs)   bands (ev):

  -115.2629 -69.6265 -69.6262 -69.6155 -64.7236 -31.7144 -31.7010 -31.6958
    -9.4193  -8.7702   2.0070   2.3458   2.3713   2.7679   3.1780   4.6723
     5.1207   5.9296   6.0929   6.6740   7.5325

     occupation numbers 
     1.0000   1.0000   1.0000   1.0000   1.0000   1.0000   1.0000   1.0000
     1.0000   1.0000   1.0000   1.0000   1.0000   1.0000   1.0000   1.0000
     1.0000   1.0000   1.0000   1.0000   1.0000

          k = 0.1250 0.2165-0.1988 (  3672 PWs)   bands (ev):

  -115.2629 -69.6265 -69.6262 -69.6155 -64.7236 -31.7139 -31.7011 -31.6958
    -9.5587  -8.6538   2.0514   2.3447   2.5344   2.9974   3.2373   4.4883
     5.2778   5.7590   5.8389   6.8322   7.3843

     occupation numbers 
     1.0000   1.0000   1.0000   1.0000   1.0000   1.0000   1.0000   1.0000
     1.0000   1.0000   1.0000   1.0000   1.0000   1.0000   1.0000   1.0000
     1.0000   1.0000   1.0000   1.0000   1.0000

          k = 0.1250 0.2165-0.0994 (  3675 PWs)   bands (ev):

  -115.2629 -69.6265 -69.6263 -69.6155 -64.7236 -31.7134 -31.7011 -31.6958
    -9.6673  -8.5684   2.0688   2.3404   2.7619   3.3007   3.3386   4.2160
     5.1934   5.5600   5.9774   6.9393   7.0775

     occupation numbers 
     1.0000   1.0000   1.0000   1.0000   1.0000   1.0000   1.0000   1.0000
     1.0000   1.0000   1.0000   1.0000   1.0000   1.0000   1.0000   1.0000
     1.0000   1.0000   1.0000   1.0000   1.0000

          k = 0.1250 0.3608 0.0000 (  3677 PWs)   bands (ev):

  -115.2629 -69.6268 -69.6264 -69.6155 -64.7233 -31.7126 -31.7072 -31.6979
    -9.4660  -8.5736   2.1240   2.5883   2.7901   3.3035   3.6071   4.3427
     4.5626   5.0640   5.5884   6.5165   6.6334

     occupation numbers 
     1.0000   1.0000   1.0000   1.0000   1.0000   1.0000   1.0000   1.0000
     1.0000   1.0000   1.0000   1.0000   1.0000   1.0000   1.0000   1.0000
     1.0000   1.0000   1.0000   1.0000   1.0000

          k = 0.1250 0.3608 0.0994 (  3675 PWs)   bands (ev):

  -115.2629 -69.6268 -69.6264 -69.6155 -64.7233 -31.7128 -31.7071 -31.6979
    -9.4354  -8.5884   2.1199   2.5848   2.6994   3.2706   3.3620   4.2155
     4.7352   5.3097   5.5218   6.5526   6.7990

     occupation numbers 
     1.0000   1.0000   1.0000   1.0000   1.0000   1.0000   1.0000   1.0000
     1.0000   1.0000   1.0000   1.0000   1.0000   1.0000   1.0000   1.0000
     1.0000   1.0000   1.0000   1.0000   1.0000

          k = 0.1250 0.3608 0.1988 (  3668 PWs)   bands (ev):

  -115.2629 -69.6268 -69.6264 -69.6155 -64.7233 -31.7133 -31.7071 -31.6979
    -9.3544  -8.6310   2.1024   2.4685   2.6155   2.9008   3.1983   4.2095
     4.8780   5.4186   5.8059   6.4121   7.2726

     occupation numbers 
     1.0000   1.0000   1.0000   1.0000   1.0000   1.0000   1.0000   1.0000
     1.0000   1.0000   1.0000   1.0000   1.0000   1.0000   1.0000   1.0000
     1.0000   1.0000   1.0000   1.0000   1.0000

          k = 0.1250 0.3608 0.2982 (  3659 PWs)   bands (ev):

  -115.2629 -69.6268 -69.6264 -69.6155 -64.7233 -31.7138 -31.7071 -31.6978
    -9.2578  -8.6892   2.0454   2.3236   2.5522   2.6296   3.1310   4.2332
     4.8989   5.5776   6.1030   6.2486   7.6324

     occupation numbers 
     1.0000   1.0000   1.0000   1.0000   1.0000   1.0000   1.0000   1.0000
     1.0000   1.0000   1.0000   1.0000   1.0000   1.0000   1.0000   1.0000
     1.0000   1.0000   1.0000   1.0000   1.0000

          k = 0.1250 0.3608-0.3976 (  3662 PWs)   bands (ev):

  -115.2629 -69.6268 -69.6264 -69.6155 -64.7233 -31.7140 -31.7071 -31.6978
    -9.2098  -8.7212   1.9944   2.3042   2.4293   2.6261   3.1046   4.2486
     4.8760   5.8026   5.9274   6.3382   7.7569

     occupation numbers 
     1.0000   1.0000   1.0000   1.0000   1.0000   1.0000   1.0000   1.0000
     1.0000   1.0000   1.0000   1.0000   1.0000   1.0000   1.0000   1.0000
     1.0000   1.0000   1.0000   1.0000   1.0000

          k = 0.1250 0.3608-0.2982 (  3659 PWs)   bands (ev):

  -115.2629 -69.6268 -69.6264 -69.6155 -64.7233 -31.7138 -31.7071 -31.6978
    -9.2578  -8.6891   2.0366   2.3451   2.5410   2.6266   3.1324   4.2484
     4.8713   5.5878   6.1097   6.2370   7.6429

     occupation numbers 
     1.0000   1.0000   1.0000   1.0000   1.0000   1.0000   1.0000   1.0000
     1.0000   1.0000   1.0000   1.0000   1.0000   1.0000   1.0000   1.0000
     1.0000   1.0000   1.0000   1.0000   1.0000

          k = 0.1250 0.3608-0.1988 (  3668 PWs)   bands (ev):

  -115.2629 -69.6268 -69.6264 -69.6155 -64.7233 -31.7133 -31.7071 -31.6979
    -9.3544  -8.6310   2.1024   2.4675   2.6171   2.8956   3.2003   4.2368
     4.8441   5.4230   5.7979   6.4119   7.2895

     occupation numbers 
     1.0000   1.0000   1.0000   1.0000   1.0000   1.0000   1.0000   1.0000
     1.0000   1.0000   1.0000   1.0000   1.0000   1.0000   1.0000   1.0000
     1.0000   1.0000   1.0000   1.0000   1.0000

          k = 0.1250 0.3608-0.0994 (  3675 PWs)   bands (ev):

  -115.2629 -69.6268 -69.6264 -69.6155 -64.7233 -31.7128 -31.7071 -31.6979
    -9.4354  -8.5883   2.1228   2.5807   2.6989   3.2706   3.3540   4.2502
     4.7239   5.3073   5.4889   6.5682   6.8074

     occupation numbers 
     1.0000   1.0000   1.0000   1.0000   1.0000   1.0000   1.0000   1.0000
     1.0000   1.0000   1.0000   1.0000   1.0000   1.0000   1.0000   1.0000
     1.0000   1.0000   1.0000   1.0000   1.0000

          k = 0.1250 0.5052 0.0000 (  3678 PWs)   bands (ev):

  -115.2629 -69.6270 -69.6265 -69.6155 -64.7231 -31.7122 -31.7114 -31.6994
    -9.2522  -8.6391   2.2493   2.7509   2.8257   3.2861   3.4324   4.1952
     4.7144   4.9040   5.0661   6.2230   6.4263

     occupation numbers 
     1.0000   1.0000   1.0000   1.0000   1.0000   1.0000   1.0000   1.0000
     1.0000   1.0000   1.0000   1.0000   1.0000   1.0000   1.0000   1.0000
     1.0000   1.0000   1.0000   1.0000   1.0000

          k = 0.1250 0.5052 0.0994 (  3669 PWs)   bands (ev):

  -115.2629 -69.6270 -69.6265 -69.6155 -64.7231 -31.7124 -31.7114 -31.6994
    -9.2334  -8.6376   2.2392   2.6510   2.8352   3.2502   3.3661   3.8573
     4.5245   5.0256   5.5545   6.3238   6.5160

     occupation numbers 
     1.0000   1.0000   1.0000   1.0000   1.0000   1.0000   1.0000   1.0000
     1.0000   1.0000   1.0000   1.0000   1.0000   1.0000   1.0000   1.0000
     1.0000   1.0000   1.0000   1.0000   1.0000

          k = 0.1250 0.5052 0.1988 (  3672 PWs)   bands (ev):

  -115.2629 -69.6270 -69.6265 -69.6155 -64.7231 -31.7129 -31.7113 -31.6994
[...]
    -9.1862  -8.6353   2.2065   2.4601   2.8434   2.9132   3.1778   3.6604
     4.6764   5.0638   5.9684   6.2098   7.1342

     occupation numbers 
     1.0000   1.0000   1.0000   1.0000   1.0000   1.0000   1.0000   1.0000
     1.0000   1.0000   1.0000   1.0000   1.0000   1.0000   1.0000   1.0000
     1.0000   1.0000   1.0000   1.0000   1.0000

          k =-0.5000-0.1443-0.0994 (  3669 PWs)   bands (ev):

  -115.2629 -69.6270 -69.6265 -69.6155 -64.7231 -31.7124 -31.7114 -31.6994
    -9.2334  -8.6376   2.2454   2.6410   2.8370   3.2500   3.3528   3.8776
     4.5400   5.0164   5.5208   6.3461   6.5178

     occupation numbers 
     1.0000   1.0000   1.0000   1.0000   1.0000   1.0000   1.0000   1.0000
     1.0000   1.0000   1.0000   1.0000   1.0000   1.0000   1.0000   1.0000
     1.0000   1.0000   1.0000   1.0000   1.0000

          k =-0.5000 0.0000 0.0000 (  3665 PWs)   bands (ev):

  -115.2629 -69.6269 -69.6265 -69.6155 -64.7231 -31.7122 -31.7098 -31.7010
    -9.2568  -8.6352   2.3216   2.7604   2.8335   3.2606   3.4728   4.1395
     4.6269   4.8724   5.2276   6.1900   6.2503

     occupation numbers 
     1.0000   1.0000   1.0000   1.0000   1.0000   1.0000   1.0000   1.0000
     1.0000   1.0000   1.0000   1.0000   1.0000   1.0000   1.0000   1.0000
     1.0000   1.0000   1.0000   1.0000   1.0000

          k =-0.5000 0.0000 0.0994 (  3672 PWs)   bands (ev):

  -115.2629 -69.6269 -69.6265 -69.6155 -64.7231 -31.7124 -31.7098 -31.7010
    -9.2376  -8.6343   2.3237   2.6515   2.8460   3.2156   3.3686   4.0433
     4.2241   5.1064   5.5918   6.1460   6.5085

     occupation numbers 
     1.0000   1.0000   1.0000   1.0000   1.0000   1.0000   1.0000   1.0000
     1.0000   1.0000   1.0000   1.0000   1.0000   1.0000   1.0000   1.0000
     1.0000   1.0000   1.0000   1.0000   1.0000

          k =-0.5000 0.0000 0.1988 (  3654 PWs)   bands (ev):

  -115.2629 -69.6269 -69.6265 -69.6154 -64.7231 -31.7129 -31.7097 -31.7010
    -9.1893  -8.6335   2.3210   2.4415   2.8513   2.9104   3.1383   3.8227
     4.4241   5.0651   5.9363   6.1218   7.1660

     occupation numbers 
     1.0000   1.0000   1.0000   1.0000   1.0000   1.0000   1.0000   1.0000
     1.0000   1.0000   1.0000   1.0000   1.0000   1.0000   1.0000   1.0000
     1.0000   1.0000   1.0000   1.0000   1.0000

          k =-0.5000 0.0000 0.2982 (  3660 PWs)   bands (ev):

  -115.2629 -69.6269 -69.6265 -69.6154 -64.7231 -31.7134 -31.7097 -31.7010
    -9.1376  -8.6356   2.2387   2.2937   2.5326   2.8646   3.0618   3.7939
     4.6799   5.0180   5.7139   6.4326   7.7440

     occupation numbers 
     1.0000   1.0000   1.0000   1.0000   1.0000   1.0000   1.0000   1.0000
     1.0000   1.0000   1.0000   1.0000   1.0000   1.0000   1.0000   1.0000
     1.0000   1.0000   1.0000   1.0000   1.0000

          k =-0.5000-0.0000-0.3976 (  3666 PWs)   bands (ev):

  -115.2629 -69.6269 -69.6265 -69.6155 -64.7231 -31.7136 -31.7097 -31.7010
    -9.1150  -8.6375   2.1634   2.2222   2.4563   2.8692   3.0317   3.7902
     4.8376   4.9831   5.5797   6.5516   7.9615

     occupation numbers 
     1.0000   1.0000   1.0000   1.0000   1.0000   1.0000   1.0000   1.0000
     1.0000   1.0000   1.0000   1.0000   1.0000   1.0000   1.0000   1.0000
     1.0000   1.0000   1.0000   1.0000   1.0000

          k =-0.5000-0.0000-0.2982 (  3660 PWs)   bands (ev):

  -115.2629 -69.6269 -69.6265 -69.6154 -64.7231 -31.7134 -31.7097 -31.7010
    -9.1376  -8.6356   2.2387   2.2937   2.5326   2.8646   3.0618   3.7939
     4.6799   5.0180   5.7139   6.4326   7.7440

     occupation numbers 
     1.0000   1.0000   1.0000   1.0000   1.0000   1.0000   1.0000   1.0000
     1.0000   1.0000   1.0000   1.0000   1.0000   1.0000   1.0000   1.0000
     1.0000   1.0000   1.0000   1.0000   1.0000

          k =-0.5000-0.0000-0.1988 (  3654 PWs)   bands (ev):

  -115.2629 -69.6269 -69.6265 -69.6154 -64.7231 -31.7129 -31.7097 -31.7010
    -9.1893  -8.6335   2.3210   2.4415   2.8513   2.9104   3.1383   3.8227
     4.4241   5.0651   5.9363   6.1218   7.1660

     occupation numbers 
     1.0000   1.0000   1.0000   1.0000   1.0000   1.0000   1.0000   1.0000
     1.0000   1.0000   1.0000   1.0000   1.0000   1.0000   1.0000   1.0000
     1.0000   1.0000   1.0000   1.0000   1.0000

          k =-0.5000 0.0000-0.0994 (  3672 PWs)   bands (ev):

  -115.2629 -69.6269 -69.6265 -69.6155 -64.7231 -31.7124 -31.7098 -31.7010
    -9.2376  -8.6343   2.3237   2.6515   2.8460   3.2156   3.3686   4.0433
     4.2241   5.1064   5.5918   6.1460   6.5085

     occupation numbers 
     1.0000   1.0000   1.0000   1.0000   1.0000   1.0000   1.0000   1.0000
     1.0000   1.0000   1.0000   1.0000   1.0000   1.0000   1.0000   1.0000
     1.0000   1.0000   1.0000   1.0000   1.0000

          k =-0.5000 0.1443 0.0000 (  3678 PWs)   bands (ev):

  -115.2629 -69.6270 -69.6265 -69.6155 -64.7231 -31.7122 -31.7114 -31.6994
    -9.2522  -8.6391   2.2493   2.7509   2.8257   3.2861   3.4324   4.1952
     4.7144   4.9040   5.0661   6.2230   6.4263

     occupation numbers 
     1.0000   1.0000   1.0000   1.0000   1.0000   1.0000   1.0000   1.0000
     1.0000   1.0000   1.0000   1.0000   1.0000   1.0000   1.0000   1.0000
     1.0000   1.0000   1.0000   1.0000   1.0000

          k =-0.5000 0.1443 0.0994 (  3669 PWs)   bands (ev):

  -115.2629 -69.6270 -69.6265 -69.6155 -64.7231 -31.7124 -31.7114 -31.6994
    -9.2334  -8.6376   2.2454   2.6410   2.8370   3.2500   3.3528   3.8776
     4.5400   5.0164   5.5208   6.3461   6.5178

     occupation numbers 
     1.0000   1.0000   1.0000   1.0000   1.0000   1.0000   1.0000   1.0000
     1.0000   1.0000   1.0000   1.0000   1.0000   1.0000   1.0000   1.0000
     1.0000   1.0000   1.0000   1.0000   1.0000

          k =-0.5000 0.1443 0.1988 (  3672 PWs)   bands (ev):

  -115.2629 -69.6270 -69.6265 -69.6155 -64.7231 -31.7129 -31.7113 -31.6994
    -9.1862  -8.6353   2.2065   2.4601   2.8434   2.9132   3.1778   3.6604
     4.6764   5.0637   5.9684   6.2098   7.1342

     occupation numbers 
     1.0000   1.0000   1.0000   1.0000   1.0000   1.0000   1.0000   1.0000
     1.0000   1.0000   1.0000   1.0000   1.0000   1.0000   1.0000   1.0000
     1.0000   1.0000   1.0000   1.0000   1.0000

          k =-0.5000 0.1443 0.2982 (  3661 PWs)   bands (ev):

  -115.2629 -69.6270 -69.6265 -69.6154 -64.7231 -31.7134 -31.7113 -31.6993
    -9.1359  -8.6356   2.1192   2.3173   2.5207   2.8569   3.1085   3.6360
     4.8050   5.1904   5.9194   6.3389   7.6624

     occupation numbers 
     1.0000   1.0000   1.0000   1.0000   1.0000   1.0000   1.0000   1.0000
     1.0000   1.0000   1.0000   1.0000   1.0000   1.0000   1.0000   1.0000
     1.0000   1.0000   1.0000   1.0000   1.0000

          k =-0.5000 0.1443-0.3976 (  3658 PWs)   bands (ev):

  -115.2629 -69.6270 -69.6265 -69.6154 -64.7231 -31.7136 -31.7113 -31.6993
    -9.1139  -8.6367   2.1021   2.1721   2.4548   2.8624   3.0800   3.6322
     4.8401   5.3164   5.7721   6.4521   7.8513

     occupation numbers 
     1.0000   1.0000   1.0000   1.0000   1.0000   1.0000   1.0000   1.0000
     1.0000   1.0000   1.0000   1.0000   1.0000   1.0000   1.0000   1.0000
     1.0000   1.0000   1.0000   1.0000   1.0000

          k =-0.5000 0.1443-0.2982 (  3661 PWs)   bands (ev):

  -115.2629 -69.6270 -69.6265 -69.6154 -64.7231 -31.7134 -31.7113 -31.6993
    -9.1359  -8.6357   2.1290   2.2954   2.5342   2.8576   3.1076   3.6324
     4.8102   5.1879   5.9188   6.3441   7.6550

     occupation numbers 
     1.0000   1.0000   1.0000   1.0000   1.0000   1.0000   1.0000   1.0000
     1.0000   1.0000   1.0000   1.0000   1.0000   1.0000   1.0000   1.0000
     1.0000   1.0000   1.0000   1.0000   1.0000

          k =-0.5000 0.1443-0.1988 (  3672 PWs)   bands (ev):

  -115.2629 -69.6270 -69.6265 -69.6155 -64.7231 -31.7129 -31.7113 -31.6994
    -9.1862  -8.6354   2.2006   2.4674   2.8422   2.9199   3.1769   3.6495
     4.6765   5.0677   5.9813   6.2088   7.1206

     occupation numbers 
     1.0000   1.0000   1.0000   1.0000   1.0000   1.0000   1.0000   1.0000
     1.0000   1.0000   1.0000   1.0000   1.0000   1.0000   1.0000   1.0000
     1.0000   1.0000   1.0000   1.0000   1.0000

          k =-0.5000 0.1443-0.0994 (  3669 PWs)   bands (ev):

  -115.2629 -69.6270 -69.6265 -69.6155 -64.7231 -31.7124 -31.7114 -31.6994
    -9.2334  -8.6376   2.2392   2.6510   2.8352   3.2502   3.3661   3.8573
     4.5245   5.0256   5.5545   6.3238   6.5160

     occupation numbers 
     1.0000   1.0000   1.0000   1.0000   1.0000   1.0000   1.0000   1.0000
     1.0000   1.0000   1.0000   1.0000   1.0000   1.0000   1.0000   1.0000
     1.0000   1.0000   1.0000   1.0000   1.0000

          k =-0.5000-0.8660-0.0000 (  3662 PWs)   bands (ev):

  -115.2629 -69.6271 -69.6264 -69.6155 -64.7231 -31.7127 -31.7122 -31.6981
    -9.2476  -8.6431   2.1816   2.7386   2.8225   3.3116   3.4070   4.2274
     4.7555   4.9185   5.0102   6.2210   6.6026

     occupation numbers 
     1.0000   1.0000   1.0000   1.0000   1.0000   1.0000   1.0000   1.0000
     1.0000   1.0000   1.0000   1.0000   1.0000   1.0000   1.0000   1.0000
     1.0000   1.0000   1.0000   1.0000   1.0000

          k =-0.5000-0.8660 0.0994 (  3670 PWs)   bands (ev):

  -115.2629 -69.6271 -69.6264 -69.6155 -64.7231 -31.7127 -31.7124 -31.6981
    -9.2292  -8.6410   2.1682   2.6411   2.8242   3.2828   3.3527   3.8035
     4.6450   5.0828   5.4409   6.4737   6.5529

     occupation numbers 
     1.0000   1.0000   1.0000   1.0000   1.0000   1.0000   1.0000   1.0000
     1.0000   1.0000   1.0000   1.0000   1.0000   1.0000   1.0000   1.0000
     1.0000   1.0000   1.0000   1.0000   1.0000

          k =-0.5000-0.8660 0.1988 (  3664 PWs)   bands (ev):

  -115.2629 -69.6271 -69.6264 -69.6154 -64.7231 -31.7129 -31.7126 -31.6981
    -9.1831  -8.6372   2.1154   2.4668   2.8289   2.9163   3.2179   3.5623
     4.7286   5.2734   5.8430   6.4122   7.0669

     occupation numbers 
     1.0000   1.0000   1.0000   1.0000   1.0000   1.0000   1.0000   1.0000
     1.0000   1.0000   1.0000   1.0000   1.0000   1.0000   1.0000   1.0000
     1.0000   1.0000   1.0000   1.0000   1.0000

          k =-0.5000-0.8660 0.2982 (  3664 PWs)   bands (ev):

  -115.2629 -69.6271 -69.6264 -69.6154 -64.7231 -31.7134 -31.7126 -31.6981
    -9.1342  -8.6357   2.0424   2.2932   2.5244   2.8349   3.1578   3.5422
     4.7827   5.5188   6.1239   6.2106   7.5447

     occupation numbers 
     1.0000   1.0000   1.0000   1.0000   1.0000   1.0000   1.0000   1.0000
     1.0000   1.0000   1.0000   1.0000   1.0000   1.0000   1.0000   1.0000
     1.0000   1.0000   1.0000   1.0000   1.0000

          k =-0.5000-0.8660-0.3976 (  3668 PWs)   bands (ev):

  -115.2629 -69.6270 -69.6264 -69.6154 -64.7231 -31.7136 -31.7126 -31.6981
    -9.1129  -8.6359   2.0371   2.1359   2.4527   2.8379   3.1337   3.5399
     4.7972   5.6789   6.0672   6.2385   7.7072

     occupation numbers 
     1.0000   1.0000   1.0000   1.0000   1.0000   1.0000   1.0000   1.0000
     1.0000   1.0000   1.0000   1.0000   1.0000   1.0000   1.0000   1.0000
     1.0000   1.0000   1.0000   1.0000   1.0000

     highest occupied level (ev):     8.0295

!    total energy              =    -651.12841205 Ry
     Harris-Foulkes estimate   =    -651.12841206 Ry
     estimated scf accuracy    <       0.00000058 Ry

     The total energy is the sum of the following terms:

     one-electron contribution =    -522.67183145 Ry
     hartree contribution      =     275.57390292 Ry
     xc contribution           =     -73.10496959 Ry
     ewald contribution        =    -330.92551394 Ry

     convergence has been achieved in   7 iterations

     Forces acting on atoms (cartesian axes, Ry/au):

     atom    1 type  3   force =    -0.00000015   -0.00000038   -0.00749302
     atom    2 type  3   force =    -0.00000010   -0.00000063   -0.00537436
     atom    3 type  2   force =     0.00000102    0.00000480    0.00725153
     atom    4 type  1   force =    -0.00000076   -0.00000379    0.00561585
     The non-local contrib.  to forces
     atom    1 type  3   force =    -0.00000023   -0.00000255    0.10469452
     atom    2 type  3   force =     0.00000037    0.00000263    0.00471933
     atom    3 type  2   force =     0.00000166   -0.00000246    0.19413254
     atom    4 type  1   force =     0.00000091   -0.00000332    0.07793832
     The ionic contribution  to forces
     atom    1 type  3   force =    -0.00000372    0.00004807   -2.27661549
     atom    2 type  3   force =    -0.00001087   -0.00001272    0.58331480
     atom    3 type  2   force =     0.00000998    0.00000929    1.51802045
     atom    4 type  1   force =     0.00000461   -0.00004464    0.17528025
     The local contribution  to forces
     atom    1 type  3   force =     0.00000270   -0.00004584    2.16502527
     atom    2 type  3   force =     0.00001054    0.00001328   -0.59351169
     atom    3 type  2   force =    -0.00001188   -0.00000961   -1.70483324
     atom    4 type  1   force =    -0.00000516    0.00004630   -0.24770131
     The core correction contribution to forces
     atom    1 type  3   force =     0.00000000   -0.00000000   -0.00059729
     atom    2 type  3   force =    -0.00000000   -0.00000001    0.00023424
     atom    3 type  2   force =     0.00000000    0.00000000    0.00000000
     atom    4 type  1   force =     0.00000000    0.00000000    0.00000000
     The Hubbard contrib.    to forces
     atom    1 type  3   force =     0.00000000    0.00000000    0.00000000
     atom    2 type  3   force =     0.00000000    0.00000000    0.00000000
     atom    3 type  2   force =     0.00000000    0.00000000    0.00000000
     atom    4 type  1   force =     0.00000000    0.00000000    0.00000000
     The SCF correction term to forces
     atom    1 type  3   force =     0.00000000    0.00000000    0.00000000
     atom    2 type  3   force =     0.00000000    0.00000000    0.00000000
     atom    3 type  2   force =     0.00000000    0.00000000    0.00000000
     atom    4 type  1   force =     0.00000000    0.00000000    0.00000000

     Total force =     0.000000     Total SCF correction =     0.000000


     Computing stress (Cartesian axis) and pressure

          total   stress  (Ry/bohr**3)                   (kbar)     P=   10.37
   0.00007376   0.00000000  -0.00000000         10.85      0.00     -0.00
   0.00000000   0.00007376   0.00000001          0.00     10.85      0.00
  -0.00000000   0.00000001   0.00006391         -0.00      0.00      9.40

     kinetic stress (kbar)  27808.07      0.00     -0.00
                                0.00  27808.07      0.00
                               -0.00      0.00  27912.84

     local   stress (kbar)  -7266.42     -0.01      0.00
                               -0.01  -7266.55      0.02
                                0.00      0.02 -13889.48

     nonloc. stress (kbar)   1859.77     -0.00      0.00
                               -0.00   1859.77     -0.00
                                0.00     -0.00   1829.88

     hartree stress (kbar)  43658.45      0.00     -0.00
                                0.00  43658.50     -0.01
                               -0.00     -0.01  46294.71

     exc-cor stress (kbar) -11000.67      0.00      0.00
                                0.00 -11000.67     -0.00
                                0.00     -0.00 -11000.14

     corecor stress (kbar)   -262.00     -0.00     -0.00
                               -0.00   -262.00     -0.00
                               -0.00     -0.00   -262.19

     ewald   stress (kbar) -54786.34      0.01     -0.00
                                0.01 -54786.26     -0.01
                               -0.00     -0.01 -50876.23

     hubbard stress (kbar)      0.00      0.00      0.00
                                0.00      0.00      0.00
                                0.00      0.00      0.00

     london  stress (kbar)      0.00      0.00      0.00
                                0.00      0.00      0.00
                                0.00      0.00      0.00

     DFT-D3  stress (kbar)      0.00      0.00      0.00
                                0.00      0.00      0.00
                                0.00      0.00      0.00

     XDM     stress (kbar)      0.00      0.00      0.00
                                0.00      0.00      0.00
                                0.00      0.00      0.00

     dft-nl  stress (kbar)      0.00      0.00      0.00
                                0.00      0.00      0.00
                                0.00      0.00      0.00

     TS-vdW  stress (kbar)      0.00      0.00      0.00
                                0.00      0.00      0.00
                                0.00      0.00      0.00



     Writing output data file ZnO.save/
 
     init_run     :      0.57s CPU      1.34s WALL (       1 calls)
     electrons    :      5.88s CPU      6.35s WALL (       1 calls)
     forces       :      0.16s CPU      0.17s WALL (       1 calls)
     stress       :      0.29s CPU      0.31s WALL (       1 calls)

     Called by init_run:
     wfcinit      :      0.37s CPU      1.05s WALL (       1 calls)
     wfcinit:atom :      0.00s CPU      0.00s WALL (      65 calls)
     wfcinit:wfcr :      0.35s CPU      1.03s WALL (      65 calls)
     potinit      :      0.07s CPU      0.08s WALL (       1 calls)
     hinit0       :      0.10s CPU      0.16s WALL (       1 calls)

     Called by electrons:
     c_bands      :      4.91s CPU      5.27s WALL (       7 calls)
     sum_band     :      0.67s CPU      0.70s WALL (       7 calls)
     v_of_rho     :      0.25s CPU      0.26s WALL (       8 calls)
     v_h          :      0.00s CPU      0.00s WALL (       8 calls)
     v_xc         :      0.31s CPU      0.32s WALL (      10 calls)
     newd         :      0.06s CPU      0.06s WALL (       8 calls)
     mix_rho      :      0.01s CPU      0.05s WALL (       7 calls)

     Called by c_bands:
     init_us_2    :      0.08s CPU      0.09s WALL (    1105 calls)
     cegterg      :      4.51s CPU      4.74s WALL (     455 calls)

     Called by sum_band:
     sum_band:bec :      0.00s CPU      0.01s WALL (     455 calls)
     addusdens    :      0.05s CPU      0.06s WALL (       7 calls)

     Called by *egterg:
     h_psi        :      2.64s CPU      2.73s WALL (    1667 calls)
     s_psi        :      0.10s CPU      0.10s WALL (    1667 calls)
     g_psi        :      0.01s CPU      0.01s WALL (    1147 calls)
     cdiaghg      :      1.37s CPU      2.10s WALL (    1602 calls)
     cegterg:over :      0.34s CPU      0.40s WALL (    1147 calls)
     cegterg:upda :      0.16s CPU      0.17s WALL (    1147 calls)
     cegterg:last :      0.09s CPU      0.09s WALL (     455 calls)
     cdiaghg:chol :      0.12s CPU      0.39s WALL (    1602 calls)
     cdiaghg:inve :      0.02s CPU      0.06s WALL (    1602 calls)
     cdiaghg:para :      0.13s CPU      0.16s WALL (    3204 calls)

     Called by h_psi:
     h_psi:pot    :      2.63s CPU      2.72s WALL (    1667 calls)
     h_psi:calbec :      0.17s CPU      0.18s WALL (    1667 calls)
     vloc_psi     :      2.35s CPU      2.44s WALL (    1667 calls)
     add_vuspsi   :      0.10s CPU      0.10s WALL (    1667 calls)

     General routines
     calbec       :      0.27s CPU      0.28s WALL (    2447 calls)
     fft          :      0.04s CPU      0.06s WALL (     127 calls)
     ffts         :      0.00s CPU      0.00s WALL (      15 calls)
     fftw         :      2.68s CPU      2.78s WALL (   60489 calls)
     interpolate  :      0.00s CPU      0.00s WALL (       8 calls)
 
     Parallel routines
     fft_scatt_xy :      0.37s CPU      0.39s WALL (   60631 calls)
     fft_scatt_yz :      1.50s CPU      1.56s WALL (   60631 calls)
 
     PWSCF        :      7.70s CPU      9.53s WALL

 
   This run was terminated on:  23:26: 8  15Jun2022            

=------------------------------------------------------------------------------=
   JOB DONE.
=------------------------------------------------------------------------------=
