
     Program PWSCF v.6.4.1 starts on  8Nov2021 at 19:33: 1 

     This program is part of the open-source Quantum ESPRESSO suite
     for quantum simulation of materials; please cite
         "P. Giannozzi et al., J. Phys.:Condens. Matter 21 395502 (2009);
         "P. Giannozzi et al., J. Phys.:Condens. Matter 29 465901 (2017);
          URL http://www.quantum-espresso.org", 
     in publications or presentations arising from this work. More details at
     http://www.quantum-espresso.org/quote

     Parallel version (MPI), running on   128 processors

     MPI processes distributed on     2 nodes
     K-points division:     npool     =       8
     R & G space division:  proc/nbgrp/npool/nimage =      16
     Waiting for input...
     Reading input from standard input
Warning: card &CELL ignored
Warning: card   CELL_DYNAMICS     = 'BFGS' ignored
Warning: card   PRESS_CONV_THR    = 0.5D0 ignored
Warning: card   CELL_DOFREE = 'ALL' ignored
Warning: card / ignored

     Current dimensions of program PWSCF are:
     Max number of different atomic species (ntypx) = 10
     Max number of k-points (npk) =  40000
     Max angular momentum in pseudopotentials (lmaxx) =  3

     Subspace diagonalization in iterative solution of the eigenvalue problem:
     one sub-group per band group will be used
     scalapack distributed-memory algorithm (size of sub-group:  2*  2 procs)

 
     Parallelization info
     --------------------
     sticks:   dense  smooth     PW     G-vecs:    dense   smooth      PW
     Min         820     394    108                64604    21470    3095
     Max         821     395    109                64607    21473    3098
     Sum       13129    6307   1735              1033689   343539   49545
 


     bravais-lattice index     =            0
     lattice parameter (alat)  =      19.5020  a.u.
     unit-cell volume          =    5474.7522 (a.u.)^3
     number of atoms/cell      =           72
     number of atomic types    =            3
     number of electrons       =       856.00
     number of Kohn-Sham states=          514
     kinetic-energy cutoff     =      60.0000  Ry
     charge density cutoff     =     500.0000  Ry
     convergence threshold     =      1.0E-08
     mixing beta               =       0.5000
     number of iterations used =            8  plain     mixing
     Exchange-correlation      = SLA  PW   PSX  PSC ( 1  4 10  8 0 0)
     Using LIBXC version       =    4   3   4
     nstep                     =          200


     celldm(1)=  19.501964  celldm(2)=   0.000000  celldm(3)=   0.000000
     celldm(4)=   0.000000  celldm(5)=   0.000000  celldm(6)=   0.000000

     crystal axes: (cart. coord. in units of alat)
               a(1) = (   1.000000   0.000348   0.000004 )  
               a(2) = (  -0.499697   0.866213   0.000164 )  
               a(3) = (  -0.000014   0.000262   0.851956 )  

     reciprocal axes: (cart. coord. in units 2 pi/alat)
               b(1) = (  0.999799  0.576759 -0.000161 )  
               b(2) = ( -0.000402  1.154218 -0.000355 )  
               b(3) = ( -0.000005 -0.000225  1.173769 )  


     PseudoPot. # 1 for Zn read from file:
     ./GBRV_PBEsol/zn_pbesol_v1.uspp.F.UPF
     MD5 check sum: 7d8615e52efe7c1e2b1899de8658bae2
     Pseudo is Ultrasoft, Zval = 20.0
     Generated by new atomic code, or converted to UPF format
     Using radial grid of  943 points,  6 beta functions with: 
                l(1) =   0
                l(2) =   0
                l(3) =   1
                l(4) =   1
                l(5) =   2
                l(6) =   2
     Q(r) pseudized with  8 coefficients,  rinner =    1.100   1.100   1.100
                                                       1.100   1.100

     PseudoPot. # 2 for O  read from file:
     ./GBRV_PBEsol/o_pbesol_v1.2.uspp.F.UPF
     MD5 check sum: 501638753501ef6325af9037351f7734
     Pseudo is Ultrasoft + core correction, Zval =  6.0
     Generated by new atomic code, or converted to UPF format
     Using radial grid of  737 points,  5 beta functions with: 
                l(1) =   0
                l(2) =   0
                l(3) =   1
                l(4) =   1
                l(5) =   2
     Q(r) pseudized with  8 coefficients,  rinner =    0.900   0.900   0.900
                                                       0.900   0.900

     PseudoPot. # 3 for Mg read from file:
     ./GBRV_PBEsol/mg_pbesol_v1.4.uspp.F.UPF
     MD5 check sum: 4059f37963cf5867752dbf5ab2400678
     Pseudo is Ultrasoft, Zval = 10.0
     Generated by new atomic code, or converted to UPF format
     Using radial grid of  821 points,  7 beta functions with: 
                l(1) =   0
                l(2) =   0
                l(3) =   0
                l(4) =   1
                l(5) =   1
                l(6) =   2
                l(7) =   2
     Q(r) pseudized with  8 coefficients,  rinner =    1.200   1.200   1.200
                                                       1.200   1.200

     atomic species   valence    mass     pseudopotential
        Zn            20.00    65.38000     Zn( 1.00)
        O              6.00    15.99900     O ( 1.00)
        Mg            10.00    24.30500     Mg( 1.00)

     No symmetry found


                                    s                        frac. trans.

      isym =  1     identity                                     

 cryst.   s( 1) = (     1          0          0      )
                  (     0          1          0      )
                  (     0          0          1      )

 cart.    s( 1) = (  1.0000000 -0.0000000 -0.0000000 )
                  (  0.0000000  1.0000000 -0.0000000 )
                  (  0.0000000 -0.0000000  1.0000000 )


   Cartesian axes

     site n.     atom                  positions (alat units)
         1           Zn  tau(   1) = (   0.1671368   0.0963125   0.2175951  )
         2           Zn  tau(   2) = (   0.1678762   0.0953796   0.6402061  )
         3           Zn  tau(   3) = (   0.0001815   0.3855066   0.2160536  )
         4           Zn  tau(   4) = (  -0.0002015   0.3855665   0.6419066  )
         5           Zn  tau(   5) = (  -0.1658783   0.6742339   0.2158612  )
         6           Zn  tau(   6) = (  -0.1661924   0.6741196   0.6425328  )
         7           Zn  tau(   7) = (   0.4993211   0.0966005   0.2156422  )
         8           Zn  tau(   8) = (   0.4998066   0.0956424   0.6423047  )
         9           Zn  tau(   9) = (   0.3331589   0.3854961   0.2152772  )
        10           Mg  tau(  10) = (   0.3357361   0.3841047   0.6410628  )
        11           Mg  tau(  11) = (   0.1671232   0.6761418   0.2163306  )
        12           Zn  tau(  12) = (   0.1668095   0.6744120   0.6421421  )
        13           Zn  tau(  13) = (   0.8334048   0.0961456   0.2142602  )
        14           Zn  tau(  14) = (   0.8325569   0.0960990   0.6427648  )
        15           Mg  tau(  15) = (   0.6666247   0.3866180   0.2153779  )
        16           Zn  tau(  16) = (   0.6661973   0.3861234   0.6409926  )
        17           Zn  tau(  17) = (   0.4997216   0.6748709   0.2157827  )
        18           Mg  tau(  18) = (   0.5011162   0.6738765   0.6415199  )
        19           Mg  tau(  19) = (  -0.0010795   0.1926648   0.4286695  )
        20           Zn  tau(  20) = (   0.0000433   0.1920493   0.0020017  )
        21           Zn  tau(  21) = (  -0.1653863   0.4811137   0.4282083  )
        22           Zn  tau(  22) = (  -0.1669072   0.4806734   0.0033435  )
        23           Zn  tau(  23) = (  -0.3320112   0.7702414   0.4296263  )
        24           Zn  tau(  24) = (  -0.3326296   0.7705130   0.0031454  )
        25           Zn  tau(  25) = (   0.3338081   0.1924209   0.4290797  )
        26           Zn  tau(  26) = (   0.3333626   0.1919208   0.0006197  )
        27           Mg  tau(  27) = (   0.1656181   0.4816311   0.4299164  )
        28           Mg  tau(  28) = (   0.1661746   0.4808904   0.0038464  )
        29           Zn  tau(  29) = (   0.0004243   0.7707073   0.4271649  )
        30           Zn  tau(  30) = (   0.0000103   0.7706353   0.0024723  )
        31           Zn  tau(  31) = (   0.6668095   0.1921289   0.4288622  )
        32           Mg  tau(  32) = (   0.6664150   0.1920805   0.0048935  )
        33           Zn  tau(  33) = (   0.4996692   0.4814241   0.4268901  )
        34           Zn  tau(  34) = (   0.5004526   0.4810049   0.0017553  )
        35           Zn  tau(  35) = (   0.3324539   0.7716356   0.4304296  )
        36           Zn  tau(  36) = (   0.3336425   0.7705842   0.0033100  )
        37           O   tau(  37) = (   0.1663977   0.0964937   0.0031802  )
        38           O   tau(  38) = (   0.1666500   0.0965799   0.4286518  )
        39           O   tau(  39) = (  -0.0000432   0.3843795   0.0020386  )
        40           O   tau(  40) = (   0.0003926   0.3848388   0.4281905  )
        41           O   tau(  41) = (  -0.1661710   0.6733973   0.0033804  )
        42           O   tau(  42) = (  -0.1659387   0.6737563   0.4296086  )
        43           O   tau(  43) = (   0.4999664   0.0962186   0.0030197  )
        44           O   tau(  44) = (   0.5002137   0.0967180   0.4290619  )
        45           O   tau(  45) = (   0.3331574   0.3851364   0.0006569  )
        46           O   tau(  46) = (   0.3326041   0.3852753   0.4298988  )
        47           O   tau(  47) = (   0.1668710   0.6735657   0.0038830  )
        48           O   tau(  48) = (   0.1667821   0.6737283   0.4271469  )
        49           O   tau(  49) = (   0.8334994   0.0965929   0.0023467  )
        50           O   tau(  50) = (   0.8327255   0.0969061   0.4288448  )
        51           O   tau(  51) = (   0.6666879   0.3845813   0.0049301  )
        52           O   tau(  52) = (   0.6669040   0.3851899   0.4268723  )
        53           O   tau(  53) = (   0.5003817   0.6738737   0.0017923  )
        54           O   tau(  54) = (   0.5001834   0.6746803   0.4304117  )
        55           O   tau(  55) = (  -0.0000892   0.1927554   0.2176128  )
        56           O   tau(  56) = (   0.0002511   0.1922051   0.6402241  )
        57           O   tau(  57) = (  -0.1662345   0.4818152   0.2160714  )
        58           O   tau(  58) = (  -0.1669729   0.4812719   0.6419241  )
        59           O   tau(  59) = (  -0.3331389   0.7698739   0.2158789  )
        60           O   tau(  60) = (  -0.3326732   0.7699690   0.6425504  )
        61           O   tau(  61) = (   0.3332328   0.1935340   0.2156602  )
        62           O   tau(  62) = (   0.3336667   0.1921099   0.6423224  )
        63           O   tau(  63) = (   0.1668171   0.4829657   0.2152951  )
        64           O   tau(  64) = (   0.1680389   0.4811124   0.6410808  )
        65           O   tau(  65) = (   0.0000873   0.7708774   0.2163481  )
        66           O   tau(  66) = (   0.0006117   0.7698242   0.6421598  )
        67           O   tau(  67) = (   0.6665723   0.1933609   0.2142780  )
        68           O   tau(  68) = (   0.6662341   0.1934331   0.6427828  )
        69           O   tau(  69) = (   0.4992843   0.4823297   0.2153956  )
        70           O   tau(  70) = (   0.5006845   0.4817794   0.6410103  )
        71           O   tau(  71) = (   0.3339183   0.7708182   0.2158003  )
        72           O   tau(  72) = (   0.3336029   0.7698460   0.6415375  )

   Crystallographic axes

     site n.     atom                  positions (cryst. coord.)
         1           Zn  tau(   1) = (  0.2226174  0.1110211  0.2553839  )
         2           Zn  tau(   2) = (  0.2227507  0.1097939  0.7514320  )
         3           Zn  tau(   3) = (  0.2224911  0.4448818  0.2535104  )
         4           Zn  tau(   4) = (  0.2220744  0.4447999  0.7533635  )
         5           Zn  tau(   5) = (  0.2229908  0.7782030  0.2532204  )
         6           Zn  tau(   6) = (  0.2225423  0.7779197  0.7540344  )
         7           Zn  tau(   7) = (  0.5549014  0.1112206  0.2530901  )
         8           Zn  tau(   8) = (  0.5547657  0.1099630  0.7538936  )
         9           Zn  tau(   9) = (  0.5553957  0.4447361  0.2525975  )
        10           Mg  tau(  10) = (  0.5571015  0.4429778  0.7523718  )
        11           Mg  tau(  11) = (  0.5570257  0.7802711  0.2537694  )
        12           Zn  tau(  12) = (  0.5556461  0.7781234  0.7535742  )
        13           Zn  tau(  13) = (  0.8886558  0.1105617  0.2514665  )
        14           Zn  tau(  14) = (  0.8877123  0.1103560  0.7544319  )
        15           Mg  tau(  15) = (  0.8894415  0.4458968  0.2527139  )
        16           Zn  tau(  16) = (  0.8886606  0.4451750  0.7522874  )
        17           Zn  tau(  17) = (  0.8888243  0.7786706  0.2531250  )
        18           Mg  tau(  18) = (  0.8895768  0.7773710  0.7528424  )
        19           Mg  tau(  19) = (  0.1099730  0.2222253  0.5031157  )
        20           Zn  tau(  20) = (  0.1108091  0.2216661  0.0023064  )
        21           Zn  tau(  21) = (  0.1120648  0.5552246  0.5025103  )
        22           Zn  tau(  22) = (  0.1103585  0.5548679  0.0038172  )
        23           Zn  tau(  23) = (  0.1122301  0.8890075  0.5041106  )
        24           Zn  tau(  24) = (  0.1118370  0.8894727  0.0035204  )
        25           Zn  tau(  25) = (  0.4446526  0.2218090  0.5035957  )
        26           Zn  tau(  26) = (  0.4439876  0.2213842  0.0006827  )
        27           Mg  tau(  27) = (  0.4433009  0.5556881  0.5045136  )
        28           Mg  tau(  28) = (  0.4434984  0.5549842  0.0044059  )
        29           Zn  tau(  29) = (  0.4448679  0.8894125  0.5012198  )
        30           Zn  tau(  30) = (  0.4444807  0.8894804  0.0027287  )
        31           Zn  tau(  31) = (  0.7774188  0.2213381  0.5033389  )
        32           Mg  tau(  32) = (  0.7770645  0.2214330  0.0056976  )
        33           Zn  tau(  33) = (  0.7771659  0.5553157  0.5009599  )
        34           Zn  tau(  34) = (  0.7777756  0.5549826  0.0019498  )
        35           Zn  tau(  35) = (  0.7773657  0.8903492  0.5050500  )
        36           Zn  tau(  36) = (  0.7780163  0.8892869  0.0037104  )
        37           O   tau(  37) = (  0.2220174  0.1113067  0.0037104  )
        38           O   tau(  38) = (  0.2222510  0.1112550  0.5031158  )
        39           O   tau(  39) = (  0.2216508  0.4436571  0.0023065  )
        40           O   tau(  40) = (  0.2222829  0.4440357  0.5025102  )
        41           O   tau(  41) = (  0.2222497  0.7773130  0.0038173  )
        42           O   tau(  42) = (  0.2226206  0.7775759  0.5041107  )
        43           O   tau(  43) = (  0.5553604  0.1108551  0.0035205  )
        44           O   tau(  44) = (  0.5558273  0.1112800  0.5035955  )
        45           O   tau(  45) = (  0.5552213  0.4443972  0.0006829  )
        46           O   tau(  46) = (  0.5546792  0.4444053  0.5045137  )
        47           O   tau(  47) = (  0.5553218  0.7773733  0.0044055  )
        48           O   tau(  48) = (  0.5552588  0.7774106  0.5012196  )
        49           O   tau(  49) = (  0.8890423  0.1111531  0.0027288  )
        50           O   tau(  50) = (  0.8883809  0.1113636  0.5033390  )
        51           O   tau(  51) = (  0.8883639  0.4436208  0.0056972  )
        52           O   tau(  52) = (  0.8888632  0.4441733  0.5009598  )
        53           O   tau(  53) = (  0.8889435  0.7775954  0.0019499  )
        54           O   tau(  54) = (  0.8891416  0.7783741  0.5050500  )
        55           O   tau(  55) = (  0.1110493  0.2224045  0.2553839  )
        56           O   tau(  56) = (  0.1110042  0.2216191  0.7514320  )
        57           O   tau(  57) = (  0.1116554  0.5561099  0.2535104  )
        58           O   tau(  58) = (  0.1105354  0.5553319  0.7533633  )
        59           O   tau(  59) = (  0.1109250  0.8886598  0.2532205  )
        60           O   tau(  60) = (  0.1113769  0.8886177  0.7540343  )
        61           O   tau(  61) = (  0.4447537  0.2231698  0.2530902  )
        62           O   tau(  62) = (  0.4442977  0.2213744  0.7538935  )
        63           O   tau(  63) = (  0.4453039  0.5573042  0.2525974  )
        64           O   tau(  64) = (  0.4453880  0.5550133  0.7523719  )
        65           O   tau(  65) = (  0.4446629  0.8896837  0.2537695  )
        66           O   tau(  66) = (  0.4445115  0.8883167  0.7535743  )
        67           O   tau(  67) = (  0.7779266  0.2228365  0.2514663  )
        68           O   tau(  68) = (  0.7775613  0.2227677  0.7544319  )
        69           O   tau(  69) = (  0.7773373  0.5564364  0.2527139  )
        70           O   tau(  70) = (  0.7783515  0.5556494  0.7522875  )
        71           O   tau(  71) = (  0.7783929  0.8894814  0.2531250  )
        72           O   tau(  72) = (  0.7774484  0.8882082  0.7528423  )

     number of k points=    36  Marzari-Vanderbilt smearing, width (Ry)=  0.0010
                       cart. coord. in units 2pi/alat
        k(    1) = (   0.0000000   0.0000000   0.0000000), wk =   0.0312500
        k(    2) = (  -0.0000012  -0.0000562   0.2934423), wk =   0.0625000
        k(    3) = (   0.0000024   0.0001124  -0.5868846), wk =   0.0312500
        k(    4) = (  -0.0001006   0.2885545  -0.0000888), wk =   0.0625000
        k(    5) = (  -0.0001017   0.2884983   0.2933535), wk =   0.0625000
        k(    6) = (  -0.0000982   0.2886669  -0.5869734), wk =   0.0625000
        k(    7) = (  -0.0000994   0.2886107  -0.2935311), wk =   0.0625000
        k(    8) = (   0.0002011  -0.5771091   0.0001776), wk =   0.0312500
        k(    9) = (   0.0001999  -0.5771653   0.2936199), wk =   0.0625000
        k(   10) = (   0.0002035  -0.5769967  -0.5867069), wk =   0.0312500
        k(   11) = (   0.2499498   0.1441897  -0.0000401), wk =   0.0625000
        k(   12) = (   0.2499486   0.1441335   0.2934021), wk =   0.0625000
        k(   13) = (   0.2499521   0.1443021  -0.5869247), wk =   0.0625000
        k(   14) = (   0.2499510   0.1442459  -0.2934824), wk =   0.0625000
        k(   15) = (   0.2498492   0.4327443  -0.0001290), wk =   0.0625000
        k(   16) = (   0.2498480   0.4326881   0.2933133), wk =   0.0625000
        k(   17) = (   0.2498516   0.4328566  -0.5870135), wk =   0.0625000
        k(   18) = (   0.2498504   0.4328004  -0.2935712), wk =   0.0625000
        k(   19) = (   0.2501509  -0.4329193   0.0001375), wk =   0.0625000
        k(   20) = (   0.2501497  -0.4329755   0.2935798), wk =   0.0625000
        k(   21) = (   0.2501532  -0.4328070  -0.5867471), wk =   0.0625000
        k(   22) = (   0.2501521  -0.4328632  -0.2933048), wk =   0.0625000
        k(   23) = (   0.2500503  -0.1443648   0.0000487), wk =   0.0625000
        k(   24) = (   0.2500491  -0.1444210   0.2934909), wk =   0.0625000
        k(   25) = (   0.2500527  -0.1442524  -0.5868359), wk =   0.0625000
        k(   26) = (   0.2500515  -0.1443086  -0.2933936), wk =   0.0625000
        k(   27) = (  -0.4998995  -0.2883795   0.0000803), wk =   0.0312500
        k(   28) = (  -0.4999007  -0.2884356   0.2935226), wk =   0.0625000
        k(   29) = (  -0.4998972  -0.2882671  -0.5868043), wk =   0.0312500
        k(   30) = (  -0.5000001   0.0001751  -0.0000085), wk =   0.0625000
        k(   31) = (  -0.5000013   0.0001189   0.2934337), wk =   0.0625000
        k(   32) = (  -0.4999977   0.0002874  -0.5868931), wk =   0.0625000
        k(   33) = (  -0.4999989   0.0002313  -0.2934508), wk =   0.0625000
        k(   34) = (  -0.4996984  -0.8654885   0.0002579), wk =   0.0312500
        k(   35) = (  -0.4996996  -0.8655447   0.2937002), wk =   0.0625000
        k(   36) = (  -0.4996961  -0.8653762  -0.5866266), wk =   0.0312500

                       cryst. coord.
        k(    1) = (   0.0000000   0.0000000   0.0000000), wk =   0.0312500
        k(    2) = (  -0.0000000  -0.0000000   0.2500000), wk =   0.0625000
        k(    3) = (   0.0000000   0.0000000  -0.5000000), wk =   0.0312500
        k(    4) = (   0.0000000   0.2500000  -0.0000000), wk =   0.0625000
        k(    5) = (  -0.0000000   0.2500000   0.2500000), wk =   0.0625000
        k(    6) = (  -0.0000000   0.2500000  -0.5000000), wk =   0.0625000
        k(    7) = (   0.0000000   0.2500000  -0.2500000), wk =   0.0625000
        k(    8) = (  -0.0000000  -0.5000000   0.0000000), wk =   0.0312500
        k(    9) = (  -0.0000000  -0.5000000   0.2500000), wk =   0.0625000
        k(   10) = (   0.0000000  -0.5000000  -0.5000000), wk =   0.0312500
        k(   11) = (   0.2500000  -0.0000000  -0.0000000), wk =   0.0625000
        k(   12) = (   0.2500000   0.0000000   0.2500000), wk =   0.0625000
        k(   13) = (   0.2500000  -0.0000000  -0.5000000), wk =   0.0625000
        k(   14) = (   0.2500000  -0.0000000  -0.2500000), wk =   0.0625000
        k(   15) = (   0.2500000   0.2500000  -0.0000000), wk =   0.0625000
        k(   16) = (   0.2500000   0.2500000   0.2500000), wk =   0.0625000
        k(   17) = (   0.2500000   0.2500000  -0.5000000), wk =   0.0625000
        k(   18) = (   0.2500000   0.2500000  -0.2500000), wk =   0.0625000
        k(   19) = (   0.2500000  -0.5000000   0.0000000), wk =   0.0625000
        k(   20) = (   0.2500000  -0.5000000   0.2500000), wk =   0.0625000
        k(   21) = (   0.2500000  -0.5000000  -0.5000000), wk =   0.0625000
        k(   22) = (   0.2500000  -0.5000000  -0.2500000), wk =   0.0625000
        k(   23) = (   0.2500000  -0.2500000   0.0000000), wk =   0.0625000
        k(   24) = (   0.2500000  -0.2500000   0.2500000), wk =   0.0625000
        k(   25) = (   0.2500000  -0.2500000  -0.5000000), wk =   0.0625000
        k(   26) = (   0.2500000  -0.2500000  -0.2500000), wk =   0.0625000
        k(   27) = (  -0.5000000   0.0000000   0.0000000), wk =   0.0312500
        k(   28) = (  -0.5000000   0.0000000   0.2500000), wk =   0.0625000
        k(   29) = (  -0.5000000  -0.0000000  -0.5000000), wk =   0.0312500
        k(   30) = (  -0.5000000   0.2500000   0.0000000), wk =   0.0625000
        k(   31) = (  -0.5000000   0.2500000   0.2500000), wk =   0.0625000
        k(   32) = (  -0.5000000   0.2500000  -0.5000000), wk =   0.0625000
        k(   33) = (  -0.5000000   0.2500000  -0.2500000), wk =   0.0625000
        k(   34) = (  -0.5000000  -0.5000000   0.0000000), wk =   0.0312500
        k(   35) = (  -0.5000000  -0.5000000   0.2500000), wk =   0.0625000
        k(   36) = (  -0.5000000  -0.5000000  -0.5000000), wk =   0.0312500

     Dense  grid:  1033689 G-vectors     FFT dimensions: ( 144, 144, 120)

     Smooth grid:   343539 G-vectors     FFT dimensions: ( 100, 100,  81)

     Dynamical RAM for                 wfc:      21.06 MB

     Dynamical RAM for     wfc (w. buffer):     126.35 MB

     Dynamical RAM for           str. fact:       2.96 MB

     Dynamical RAM for           local pot:       0.00 MB

     Dynamical RAM for          nlocal pot:      46.05 MB

     Dynamical RAM for                qrad:      22.25 MB

     Dynamical RAM for          rho,v,vnew:       6.75 MB

     Dynamical RAM for               rhoin:       2.25 MB

     Dynamical RAM for            rho*nmix:      15.77 MB

     Dynamical RAM for           G-vectors:       3.86 MB

     Dynamical RAM for          h,s,v(r/c):      48.38 MB

     Dynamical RAM for          <psi|beta>:       8.82 MB

     Dynamical RAM for                 psi:      84.23 MB

     Dynamical RAM for                hpsi:      84.23 MB

     Dynamical RAM for                spsi:      84.23 MB

     Dynamical RAM for      wfcinit/wfcrot:      51.78 MB

     Dynamical RAM for           addusdens:      30.56 MB

     Dynamical RAM for          addusforce:      52.43 MB

     Dynamical RAM for         addusstress:      27.54 MB

     Estimated static dynamical RAM per process >     236.52 MB

     Estimated max dynamical RAM per process >     546.41 MB

     Estimated total dynamical RAM >      68.30 GB

     Check: negative core charge=   -0.000002

     Initial potential from superposition of free atoms

     starting charge  853.59448, renormalised to  856.00000
     Starting wfcs are  548 randomized atomic wfcs

     total cpu time spent up to now is       16.8 secs

     Self-consistent Calculation

     iteration #  1     ecut=    60.00 Ry     beta= 0.50
     Davidson diagonalization with overlap
     ethr =  1.00E-02,  avg # of iterations =  5.0

     total cpu time spent up to now is       83.9 secs

     total energy              =  -15072.91156560 Ry
     Harris-Foulkes estimate   =  -15084.39469935 Ry
     estimated scf accuracy    <      17.46074867 Ry

     iteration #  2     ecut=    60.00 Ry     beta= 0.50
     Davidson diagonalization with overlap
     ethr =  2.04E-03,  avg # of iterations =  4.0

     total cpu time spent up to now is      168.6 secs

     total energy              =  -15077.98361816 Ry
     Harris-Foulkes estimate   =  -15081.81686483 Ry
     estimated scf accuracy    <       8.72821807 Ry

     iteration #  3     ecut=    60.00 Ry     beta= 0.50
     Davidson diagonalization with overlap
     ethr =  1.02E-03,  avg # of iterations =  3.0

     total cpu time spent up to now is      233.1 secs

     total energy              =  -15079.57675491 Ry
     Harris-Foulkes estimate   =  -15079.65100579 Ry
     estimated scf accuracy    <       0.19093350 Ry

     iteration #  4     ecut=    60.00 Ry     beta= 0.50
     Davidson diagonalization with overlap
     ethr =  2.23E-05,  avg # of iterations =  5.9

     total cpu time spent up to now is      335.6 secs

     total energy              =  -15079.59458757 Ry
     Harris-Foulkes estimate   =  -15079.62968547 Ry
     estimated scf accuracy    <       0.09868412 Ry

     iteration #  5     ecut=    60.00 Ry     beta= 0.50
     Davidson diagonalization with overlap
     ethr =  1.15E-05,  avg # of iterations =  5.7

     total cpu time spent up to now is      414.9 secs

     total energy              =  -15079.60964323 Ry
     Harris-Foulkes estimate   =  -15079.61081956 Ry
     estimated scf accuracy    <       0.00390384 Ry

     iteration #  6     ecut=    60.00 Ry     beta= 0.50
     Davidson diagonalization with overlap
     ethr =  4.56E-07,  avg # of iterations =  2.1

     total cpu time spent up to now is      473.8 secs

     total energy              =  -15079.61032496 Ry
     Harris-Foulkes estimate   =  -15079.61051336 Ry
     estimated scf accuracy    <       0.00055260 Ry

     iteration #  7     ecut=    60.00 Ry     beta= 0.50
     Davidson diagonalization with overlap
     ethr =  6.46E-08,  avg # of iterations =  2.0

     total cpu time spent up to now is      520.7 secs

     total energy              =  -15079.61044453 Ry
     Harris-Foulkes estimate   =  -15079.61046822 Ry
     estimated scf accuracy    <       0.00011795 Ry

     iteration #  8     ecut=    60.00 Ry     beta= 0.50
     Davidson diagonalization with overlap
     ethr =  1.38E-08,  avg # of iterations =  2.0

     total cpu time spent up to now is      564.4 secs

     total energy              =  -15079.61046908 Ry
     Harris-Foulkes estimate   =  -15079.61046751 Ry
     estimated scf accuracy    <       0.00001616 Ry

     iteration #  9     ecut=    60.00 Ry     beta= 0.50
     Davidson diagonalization with overlap
     ethr =  1.89E-09,  avg # of iterations =  2.0

     total cpu time spent up to now is      616.5 secs

     total energy              =  -15079.61047177 Ry
     Harris-Foulkes estimate   =  -15079.61047243 Ry
     estimated scf accuracy    <       0.00000286 Ry

     iteration # 10     ecut=    60.00 Ry     beta= 0.50
     Davidson diagonalization with overlap
     ethr =  3.34E-10,  avg # of iterations =  2.0

     total cpu time spent up to now is      660.5 secs

     total energy              =  -15079.61047229 Ry
     Harris-Foulkes estimate   =  -15079.61047237 Ry
     estimated scf accuracy    <       0.00000045 Ry

     iteration # 11     ecut=    60.00 Ry     beta= 0.50
     Davidson diagonalization with overlap
     ethr =  5.30E-11,  avg # of iterations =  2.0

     total cpu time spent up to now is      704.3 secs

     total energy              =  -15079.61047238 Ry
     Harris-Foulkes estimate   =  -15079.61047238 Ry
     estimated scf accuracy    <       0.00000004 Ry

     iteration # 12     ecut=    60.00 Ry     beta= 0.50
     Davidson diagonalization with overlap
     ethr =  4.90E-12,  avg # of iterations =  2.0

     total cpu time spent up to now is      756.0 secs

     End of self-consistent calculation

          k = 0.0000 0.0000 0.0000 ( 42997 PWs)   bands (ev):

  -114.3818-114.3790-114.3706-114.3638-114.3625-114.3608-114.3534-114.3531
  -114.3525-114.3510-114.3509-114.3393-114.3383-114.3373-114.3366-114.3350
  -114.3349-114.3346-114.3322-114.3316-114.3243-114.3209-114.3180-114.3165
  -114.3126-114.3114-114.3102-114.3046 -68.7444 -68.7418 -68.7395 -68.7380
   -68.7378 -68.7353 -68.7339 -68.7298 -68.7290 -68.7278 -68.7241 -68.7236
   -68.7213 -68.7208 -68.7199 -68.7195 -68.7188 -68.7186 -68.7178 -68.7173
   -68.7171 -68.7159 -68.7157 -68.7122 -68.7110 -68.7099 -68.7097 -68.7092
   -68.7090 -68.7070 -68.7054 -68.7054 -68.7046 -68.7042 -68.7027 -68.7024
   -68.7019 -68.7013 -68.6999 -68.6975 -68.6974 -68.6969 -68.6961 -68.6959
   -68.6954 -68.6949 -68.6944 -68.6941 -68.6932 -68.6922 -68.6920 -68.6919
   -68.6915 -68.6912 -68.6909 -68.6907 -68.6906 -68.6896 -68.6895 -68.6881
   -68.6872 -68.6868 -68.6842 -68.6824 -68.6808 -68.6791 -68.6784 -68.6775
   -68.6775 -68.6765 -68.6752 -68.6735 -68.6735 -68.6733 -68.6729 -68.6713
   -68.6701 -68.6700 -68.6687 -68.6674 -68.6669 -68.6647 -68.6629 -68.6601
   -64.0013 -63.9845 -63.9783 -63.9758 -63.9614 -63.9585 -63.9513 -63.9444
   -30.9919 -30.9839 -30.9817 -30.9781 -30.9697 -30.9674 -30.9643 -30.9589
   -30.9589 -30.9571 -30.9557 -30.9533 -30.9511 -30.9458 -30.9407 -30.9399
   -30.9387 -30.9378 -30.9321 -30.9315 -30.9313 -30.9284 -30.9251 -30.9231
    -9.2340  -8.7844  -8.7746  -8.7512  -8.7211  -8.6937  -8.6356  -8.5753
    -8.5657  -8.3594  -8.3576  -8.3506  -8.3445  -8.3221  -8.3151  -8.2954
    -8.2791  -8.2752  -8.2502  -8.2365  -8.2288  -8.2058  -8.1947  -8.1853
    -8.1716  -8.1313  -8.1132  -8.1046  -8.0926  -7.9992  -7.9807  -7.9709
    -7.9243  -7.9177  -7.8750  -7.8392   2.4421   2.4735   2.4817   2.4939
     2.5043   2.5443   2.5776   2.5906   2.6442   2.6496   2.6764   2.7299
     2.7337   2.7935   2.8296   2.8538   2.8707   2.8856   2.9435   2.9762
     2.9894   2.9947   3.0455   3.0591   3.0714   3.0744   3.1013   3.1204
     3.1808   3.2107   3.2245   3.2365   3.2794   3.2816   3.2915   3.2929
     3.3005   3.3036   3.3124   3.3242   3.3333   3.3425   3.3576   3.3640
     3.3667   3.3697   3.3818   3.3869   3.3929   3.4156   3.4221   3.4327
     3.4592   3.4690   3.4770   3.4801   3.4867   3.5014   3.5166   3.5295
     3.5366   3.5502   3.5683   3.5740   3.5847   3.5932   3.6171   3.6258
     3.6293   3.6555   3.6684   3.6888   3.7118   3.7206   3.7391   3.7466
     3.7584   3.7874   3.7983   3.8141   3.8358   3.8380   3.8482   3.8675
     3.8754   3.8864   3.9014   3.9074   3.9221   3.9265   3.9385   3.9506
     3.9585   3.9952   4.0041   4.0252   4.0360   4.0414   4.0631   4.0713
     4.0941   4.1040   4.1215   4.1331   4.1453   4.1582   4.1721   4.2037
     4.2108   4.2278   4.2649   4.2973   4.3050   4.3130   4.3243   4.3393
     4.3500   4.3589   4.3683   4.3794   4.3869   4.3952   4.4075   4.4179
     4.4275   4.4401   4.4544   4.4681   4.4741   4.4812   4.5099   4.5176
     4.5222   4.5270   4.5362   4.5439   4.5562   4.5783   4.5958   4.5995
     4.6342   4.6657   4.7881   4.9146   4.9911   5.0334   5.0789   5.1073
     5.1219   5.1659   5.2028   5.2218   5.2502   5.3041   5.3335   5.3367
     5.3770   5.3894   5.4193   5.4717   5.4789   5.5299   5.5341   5.5650
     5.5803   5.6103   5.6169   5.6454   5.6587   5.6719   5.6776   5.6859
     5.6902   5.7146   5.7499   5.7858   5.8065   5.8259   5.8692   6.0259
     6.1150   6.1751   6.2038   6.2349   6.3046   6.3371   6.3567   6.4299
     6.4429   6.4560   6.4740   6.5138   6.5241   6.5438   6.5637   6.5749
     6.6137   6.6232   6.6500   6.9345   6.9880   7.0346   7.0466   7.0830
     7.1162   7.1304   7.1554   7.1694   7.1753   7.1838   7.2008   7.3352
     7.3423   7.3730   7.4146   7.4216   7.4318   7.4957   7.5167   7.5474
     7.6129   7.6308   7.6766   7.7209   7.7540   7.7722   7.8040   7.8316
     7.9036   7.9393   7.9477   8.0529   8.0627   8.0756   8.0857   8.0979
     8.1394   8.3313   8.3698   8.3753   8.3840   8.3979   8.4170   8.4371
     8.6259   8.6405   8.7299   8.7836   9.9789  13.0898  13.1317  13.1453
    13.1871  13.2522  13.3986  13.4105  13.5201  14.0705  14.3996  14.4030
    14.4230  14.4343  14.4595  14.4776  14.4892  14.5112  14.5557  14.5876
    14.6535  14.7406  15.5186  15.5446  15.6413  15.8562  15.9405  16.0755
    16.1819  16.2054  16.2873  16.3878  16.5881  16.6283  16.7554  16.7677
    16.7766  16.7812  16.8603  16.9065  16.9466  17.0343  17.0832  17.1063
    17.1525  17.2442  17.3268  17.7112  17.7198  17.7247  17.7348  17.7380
    17.7476  17.7520  17.7566  17.7669  18.0651  18.1588  18.2406  18.2657
    18.3496  18.4009  18.4359  18.5013  18.6034  18.7222  18.9288  18.9999
    19.2709  19.4627  19.5065  19.5315  19.7396  20.0184  20.0307  20.0880
    20.1383  20.1816  20.1908  20.1978  20.2134  20.2290  20.2469  20.2637
    20.2980  20.3350

     occupation numbers 
     1.0000   1.0000   1.0000   1.0000   1.0000   1.0000   1.0000   1.0000
     1.0000   1.0000   1.0000   1.0000   1.0000   1.0000   1.0000   1.0000
     1.0000   1.0000   1.0000   1.0000   1.0000   1.0000   1.0000   1.0000
     1.0000   1.0000   1.0000   1.0000   1.0000   1.0000   1.0000   1.0000
     1.0000   1.0000   1.0000   1.0000   1.0000   1.0000   1.0000   1.0000
     1.0000   1.0000   1.0000   1.0000   1.0000   1.0000   1.0000   1.0000
     1.0000   1.0000   1.0000   1.0000   1.0000   1.0000   1.0000   1.0000
     1.0000   1.0000   1.0000   1.0000   1.0000   1.0000   1.0000   1.0000
     1.0000   1.0000   1.0000   1.0000   1.0000   1.0000   1.0000   1.0000
     1.0000   1.0000   1.0000   1.0000   1.0000   1.0000   1.0000   1.0000
     1.0000   1.0000   1.0000   1.0000   1.0000   1.0000   1.0000   1.0000
     1.0000   1.0000   1.0000   1.0000   1.0000   1.0000   1.0000   1.0000
     1.0000   1.0000   1.0000   1.0000   1.0000   1.0000   1.0000   1.0000
     1.0000   1.0000   1.0000   1.0000   1.0000   1.0000   1.0000   1.0000
     1.0000   1.0000   1.0000   1.0000   1.0000   1.0000   1.0000   1.0000
     1.0000   1.0000   1.0000   1.0000   1.0000   1.0000   1.0000   1.0000
     1.0000   1.0000   1.0000   1.0000   1.0000   1.0000   1.0000   1.0000
     1.0000   1.0000   1.0000   1.0000   1.0000   1.0000   1.0000   1.0000
     1.0000   1.0000   1.0000   1.0000   1.0000   1.0000   1.0000   1.0000
     1.0000   1.0000   1.0000   1.0000   1.0000   1.0000   1.0000   1.0000
     1.0000   1.0000   1.0000   1.0000   1.0000   1.0000   1.0000   1.0000
     1.0000   1.0000   1.0000   1.0000   1.0000   1.0000   1.0000   1.0000
     1.0000   1.0000   1.0000   1.0000   1.0000   1.0000   1.0000   1.0000
     1.0000   1.0000   1.0000   1.0000   1.0000   1.0000   1.0000   1.0000
     1.0000   1.0000   1.0000   1.0000   1.0000   1.0000   1.0000   1.0000
     1.0000   1.0000   1.0000   1.0000   1.0000   1.0000   1.0000   1.0000
     1.0000   1.0000   1.0000   1.0000   1.0000   1.0000   1.0000   1.0000
     1.0000   1.0000   1.0000   1.0000   1.0000   1.0000   1.0000   1.0000
     1.0000   1.0000   1.0000   1.0000   1.0000   1.0000   1.0000   1.0000
     1.0000   1.0000   1.0000   1.0000   1.0000   1.0000   1.0000   1.0000
     1.0000   1.0000   1.0000   1.0000   1.0000   1.0000   1.0000   1.0000
     1.0000   1.0000   1.0000   1.0000   1.0000   1.0000   1.0000   1.0000
     1.0000   1.0000   1.0000   1.0000   1.0000   1.0000   1.0000   1.0000
     1.0000   1.0000   1.0000   1.0000   1.0000   1.0000   1.0000   1.0000
     1.0000   1.0000   1.0000   1.0000   1.0000   1.0000   1.0000   1.0000
     1.0000   1.0000   1.0000   1.0000   1.0000   1.0000   1.0000   1.0000
     1.0000   1.0000   1.0000   1.0000   1.0000   1.0000   1.0000   1.0000
     1.0000   1.0000   1.0000   1.0000   1.0000   1.0000   1.0000   1.0000
     1.0000   1.0000   1.0000   1.0000   1.0000   1.0000   1.0000   1.0000
     1.0000   1.0000   1.0000   1.0000   1.0000   1.0000   1.0000   1.0000
     1.0000   1.0000   1.0000   1.0000   1.0000   1.0000   1.0000   1.0000
     1.0000   1.0000   1.0000   1.0000   1.0000   1.0000   1.0000   1.0000
     1.0000   1.0000   1.0000   1.0000   1.0000   1.0000   1.0000   1.0000
     1.0000   1.0000   1.0000   1.0000   1.0000   1.0000   1.0000   1.0000
     1.0000   1.0000   1.0000   1.0000   1.0000   1.0000   1.0000   1.0000
     1.0000   1.0000   1.0000   1.0000   1.0000   1.0000   1.0000   1.0000
     1.0000   1.0000   1.0000   1.0000   1.0000   1.0000   1.0000   1.0000
     1.0000   1.0000   1.0000   1.0000   1.0000   1.0000   1.0000   1.0000
     1.0000   1.0000   1.0000   1.0000   1.0000   1.0000   1.0000   1.0000
     1.0000   1.0000   1.0000   1.0000   1.0000   1.0000   1.0000   1.0000
     1.0000   1.0000   1.0000   1.0000   1.0000   1.0000   1.0000   1.0000
     1.0000   1.0000   1.0000   1.0000   1.0000   1.0000   1.0000   1.0000
     1.0000   1.0000   1.0000   1.0000   1.0000   1.0000   1.0000   1.0000
     1.0000   1.0000   1.0000   1.0000   0.0000   0.0000   0.0000   0.0000
     0.0000   0.0000   0.0000   0.0000   0.0000   0.0000   0.0000   0.0000
     0.0000   0.0000   0.0000   0.0000   0.0000   0.0000   0.0000   0.0000
     0.0000   0.0000   0.0000   0.0000   0.0000   0.0000   0.0000   0.0000
     0.0000   0.0000   0.0000   0.0000   0.0000   0.0000   0.0000   0.0000
     0.0000   0.0000   0.0000   0.0000   0.0000   0.0000   0.0000   0.0000
     0.0000   0.0000   0.0000   0.0000   0.0000   0.0000   0.0000   0.0000
     0.0000   0.0000   0.0000   0.0000   0.0000   0.0000   0.0000   0.0000
     0.0000   0.0000   0.0000   0.0000   0.0000   0.0000   0.0000   0.0000
     0.0000   0.0000   0.0000   0.0000   0.0000   0.0000   0.0000   0.0000
     0.0000   0.0000   0.0000   0.0000   0.0000   0.0000   0.0000   0.0000
     0.0000   0.0000

          k =-0.0000-0.0001 0.2934 ( 42901 PWs)   bands (ev):

  -114.3818-114.3790-114.3706-114.3638-114.3625-114.3608-114.3534-114.3531
  -114.3525-114.3510-114.3509-114.3393-114.3383-114.3373-114.3366-114.3350
  -114.3349-114.3346-114.3322-114.3316-114.3243-114.3209-114.3180-114.3165
  -114.3126-114.3114-114.3102-114.3046 -68.7444 -68.7418 -68.7395 -68.7380
   -68.7378 -68.7353 -68.7339 -68.7298 -68.7290 -68.7278 -68.7241 -68.7236
   -68.7213 -68.7208 -68.7199 -68.7195 -68.7188 -68.7186 -68.7178 -68.7173
   -68.7171 -68.7159 -68.7157 -68.7122 -68.7110 -68.7099 -68.7097 -68.7092
   -68.7090 -68.7070 -68.7054 -68.7054 -68.7046 -68.7042 -68.7027 -68.7024
   -68.7019 -68.7012 -68.7000 -68.6975 -68.6974 -68.6969 -68.6962 -68.6959
   -68.6954 -68.6949 -68.6944 -68.6941 -68.6932 -68.6922 -68.6920 -68.6919
   -68.6915 -68.6912 -68.6909 -68.6908 -68.6906 -68.6896 -68.6895 -68.6881
   -68.6872 -68.6868 -68.6842 -68.6824 -68.6808 -68.6791 -68.6784 -68.6775
   -68.6775 -68.6765 -68.6752 -68.6735 -68.6735 -68.6733 -68.6729 -68.6713
   -68.6701 -68.6700 -68.6687 -68.6674 -68.6669 -68.6647 -68.6629 -68.6601
   -64.0013 -63.9845 -63.9783 -63.9758 -63.9614 -63.9585 -63.9513 -63.9444
   -30.9919 -30.9839 -30.9817 -30.9781 -30.9697 -30.9674 -30.9643 -30.9589
   -30.9589 -30.9571 -30.9557 -30.9534 -30.9511 -30.9456 -30.9407 -30.9400
   -30.9387 -30.9378 -30.9321 -30.9315 -30.9313 -30.9284 -30.9251 -30.9231
    -9.1847  -8.8424  -8.7467  -8.7319  -8.7063  -8.6856  -8.6529  -8.6026
    -8.5007  -8.4881  -8.4645  -8.4445  -8.4150  -8.3722  -8.3218  -8.2559
    -8.2314  -8.2232  -8.2100  -8.1919  -8.1899  -8.1804  -8.1668  -8.1435
    -8.1314  -8.1125  -8.0894  -8.0679  -8.0537  -8.0210  -8.0008  -7.9880
    -7.9496  -7.9334  -7.8896  -7.8666   2.4865   2.4953   2.5508   2.5689
     2.6132   2.6398   2.6475   2.6529   2.7327   2.7451   2.7676   2.7806
     2.8053   2.8202   2.8365   2.8593   2.8800   2.8908   2.9320   2.9610
     2.9871   3.0357   3.0528   3.0648   3.0753   3.0904   3.1002   3.1267
     3.1679   3.1807   3.2021   3.2190   3.2245   3.2516   3.2623   3.2827
     3.2928   3.3053   3.3131   3.3267   3.3404   3.3510   3.3582   3.3696
     3.3715   3.3813   3.3874   3.3947   3.4040   3.4068   3.4164   3.4260
     3.4361   3.4419   3.4536   3.4578   3.4715   3.4798   3.4877   3.5006
     3.5060   3.5114   3.5286   3.5365   3.5491   3.5546   3.5683   3.5764
     3.5842   3.5967   3.6060   3.6130   3.6349   3.6474   3.6671   3.6743
     3.6988   3.7150   3.7242   3.7537   3.7762   3.7974   3.8136   3.8242
     3.8341   3.8790   3.8858   3.9000   3.9085   3.9291   3.9412   3.9558
     3.9684   3.9820   3.9915   4.0118   4.0202   4.0470   4.0565   4.0841
     4.1012   4.1217   4.1326   4.1486   4.1615   4.1734   4.1898   4.2197
     4.2356   4.2399   4.2654   4.2793   4.2959   4.3200   4.3238   4.3316
     4.3457   4.3578   4.3646   4.3705   4.3816   4.3891   4.4007   4.4144
     4.4234   4.4378   4.4671   4.4713   4.4875   4.4930   4.5010   4.5117
     4.5195   4.5313   4.5424   4.5622   4.5829   4.5883   4.6107   4.6308
     4.6478   4.6609   4.8871   4.9148   4.9682   5.0213   5.0517   5.0671
     5.1014   5.1214   5.1337   5.1659   5.2045   5.2118   5.2464   5.2553
     5.2879   5.3070   5.3307   5.3489   5.3698   5.4008   5.4174   5.4445
     5.4704   5.5198   5.5479   5.6192   5.6780   5.7128   5.7671   5.7809
     5.8589   5.9282   5.9516   5.9580   5.9736   6.0230   6.0696   6.1326
     6.1506   6.1743   6.2320   6.2824   6.3138   6.3591   6.3934   6.4039
     6.4211   6.4308   6.4435   6.5049   6.5138   6.5374   6.6562   6.7517
     6.7850   6.8393   6.8928   6.8972   6.9153   6.9617   6.9908   7.0373
     7.0618   7.2123   7.2333   7.2633   7.3242   7.3544   7.3746   7.3950
     7.4175   7.4542   7.4955   7.5209   7.5577   7.5707   7.5968   7.6253
     7.6403   7.6507   7.6748   7.6889   7.7152   7.7291   7.7491   7.7636
     7.8009   7.8178   7.8388   7.8525   7.9195   7.9401   8.0602   8.1937
     8.2168   8.2348   8.2781   8.3217   8.3761   8.3839   8.3994   8.4949
     8.5117   8.5448   8.5540   8.5652  10.4201  12.3668  13.1816  13.1982
    13.2533  13.2745  13.3596  13.5323  13.7664  13.7907  13.8197  13.8573
    13.9570  14.0479  14.1003  14.3472  15.0864  15.1152  15.1446  15.1596
    15.2217  15.2915  15.5937  15.6188  15.7048  15.9030  15.9756  16.0942
    16.2172  16.2372  16.3134  16.3969  16.4983  16.5133  16.5840  16.6601
    16.7799  16.8233  16.8746  16.9067  16.9628  17.0095  17.0566  17.1105
    17.1290  17.1409  17.2248  17.4179  17.4647  17.5130  17.5832  17.6113
    17.7233  17.7452  17.7912  17.8364  17.8734  17.9291  17.9914  18.0186
    18.0751  18.1190  18.1530  18.1948  18.5345  18.6361  18.8938  19.0247
    19.2162  19.4133  19.5554  19.5942  19.6871  19.9431  19.9727  19.9985
    20.0148  20.0635  20.0800  20.0955  20.1628  20.2282  20.2750  20.3276
    20.3798  20.5076

     occupation numbers 
     1.0000   1.0000   1.0000   1.0000   1.0000   1.0000   1.0000   1.0000
     1.0000   1.0000   1.0000   1.0000   1.0000   1.0000   1.0000   1.0000
     1.0000   1.0000   1.0000   1.0000   1.0000   1.0000   1.0000   1.0000
     1.0000   1.0000   1.0000   1.0000   1.0000   1.0000   1.0000   1.0000
     1.0000   1.0000   1.0000   1.0000   1.0000   1.0000   1.0000   1.0000
     1.0000   1.0000   1.0000   1.0000   1.0000   1.0000   1.0000   1.0000
     1.0000   1.0000   1.0000   1.0000   1.0000   1.0000   1.0000   1.0000
     1.0000   1.0000   1.0000   1.0000   1.0000   1.0000   1.0000   1.0000
     1.0000   1.0000   1.0000   1.0000   1.0000   1.0000   1.0000   1.0000
     1.0000   1.0000   1.0000   1.0000   1.0000   1.0000   1.0000   1.0000
     1.0000   1.0000   1.0000   1.0000   1.0000   1.0000   1.0000   1.0000
     1.0000   1.0000   1.0000   1.0000   1.0000   1.0000   1.0000   1.0000
     1.0000   1.0000   1.0000   1.0000   1.0000   1.0000   1.0000   1.0000
     1.0000   1.0000   1.0000   1.0000   1.0000   1.0000   1.0000   1.0000
     1.0000   1.0000   1.0000   1.0000   1.0000   1.0000   1.0000   1.0000
     1.0000   1.0000   1.0000   1.0000   1.0000   1.0000   1.0000   1.0000
     1.0000   1.0000   1.0000   1.0000   1.0000   1.0000   1.0000   1.0000
     1.0000   1.0000   1.0000   1.0000   1.0000   1.0000   1.0000   1.0000
     1.0000   1.0000   1.0000   1.0000   1.0000   1.0000   1.0000   1.0000
     1.0000   1.0000   1.0000   1.0000   1.0000   1.0000   1.0000   1.0000
     1.0000   1.0000   1.0000   1.0000   1.0000   1.0000   1.0000   1.0000
     1.0000   1.0000   1.0000   1.0000   1.0000   1.0000   1.0000   1.0000
     1.0000   1.0000   1.0000   1.0000   1.0000   1.0000   1.0000   1.0000
     1.0000   1.0000   1.0000   1.0000   1.0000   1.0000   1.0000   1.0000
     1.0000   1.0000   1.0000   1.0000   1.0000   1.0000   1.0000   1.0000
     1.0000   1.0000   1.0000   1.0000   1.0000   1.0000   1.0000   1.0000
     1.0000   1.0000   1.0000   1.0000   1.0000   1.0000   1.0000   1.0000
     1.0000   1.0000   1.0000   1.0000   1.0000   1.0000   1.0000   1.0000
     1.0000   1.0000   1.0000   1.0000   1.0000   1.0000   1.0000   1.0000
     1.0000   1.0000   1.0000   1.0000   1.0000   1.0000   1.0000   1.0000
     1.0000   1.0000   1.0000   1.0000   1.0000   1.0000   1.0000   1.0000
     1.0000   1.0000   1.0000   1.0000   1.0000   1.0000   1.0000   1.0000
     1.0000   1.0000   1.0000   1.0000   1.0000   1.0000   1.0000   1.0000
     1.0000   1.0000   1.0000   1.0000   1.0000   1.0000   1.0000   1.0000
     1.0000   1.0000   1.0000   1.0000   1.0000   1.0000   1.0000   1.0000
     1.0000   1.0000   1.0000   1.0000   1.0000   1.0000   1.0000   1.0000
     1.0000   1.0000   1.0000   1.0000   1.0000   1.0000   1.0000   1.0000
     1.0000   1.0000   1.0000   1.0000   1.0000   1.0000   1.0000   1.0000
     1.0000   1.0000   1.0000   1.0000   1.0000   1.0000   1.0000   1.0000
     1.0000   1.0000   1.0000   1.0000   1.0000   1.0000   1.0000   1.0000
     1.0000   1.0000   1.0000   1.0000   1.0000   1.0000   1.0000   1.0000
     1.0000   1.0000   1.0000   1.0000   1.0000   1.0000   1.0000   1.0000
     1.0000   1.0000   1.0000   1.0000   1.0000   1.0000   1.0000   1.0000
     1.0000   1.0000   1.0000   1.0000   1.0000   1.0000   1.0000   1.0000
     1.0000   1.0000   1.0000   1.0000   1.0000   1.0000   1.0000   1.0000
     1.0000   1.0000   1.0000   1.0000   1.0000   1.0000   1.0000   1.0000
     1.0000   1.0000   1.0000   1.0000   1.0000   1.0000   1.0000   1.0000
     1.0000   1.0000   1.0000   1.0000   1.0000   1.0000   1.0000   1.0000
     1.0000   1.0000   1.0000   1.0000   1.0000   1.0000   1.0000   1.0000
     1.0000   1.0000   1.0000   1.0000   1.0000   1.0000   1.0000   1.0000
     1.0000   1.0000   1.0000   1.0000   1.0000   1.0000   1.0000   1.0000
     1.0000   1.0000   1.0000   1.0000   1.0000   1.0000   1.0000   1.0000
     1.0000   1.0000   1.0000   1.0000   1.0000   1.0000   1.0000   1.0000
     1.0000   1.0000   1.0000   1.0000   0.0000   0.0000   0.0000   0.0000
     0.0000   0.0000   0.0000   0.0000   0.0000   0.0000   0.0000   0.0000
     0.0000   0.0000   0.0000   0.0000   0.0000   0.0000   0.0000   0.0000
     0.0000   0.0000   0.0000   0.0000   0.0000   0.0000   0.0000   0.0000
     0.0000   0.0000   0.0000   0.0000   0.0000   0.0000   0.0000   0.0000
     0.0000   0.0000   0.0000   0.0000   0.0000   0.0000   0.0000   0.0000
     0.0000   0.0000   0.0000   0.0000   0.0000   0.0000   0.0000   0.0000
     0.0000   0.0000   0.0000   0.0000   0.0000   0.0000   0.0000   0.0000
     0.0000   0.0000   0.0000   0.0000   0.0000   0.0000   0.0000   0.0000
     0.0000   0.0000   0.0000   0.0000   0.0000   0.0000   0.0000   0.0000
     0.0000   0.0000   0.0000   0.0000   0.0000   0.0000   0.0000   0.0000
     0.0000   0.0000

          k = 0.0000 0.0001-0.5869 ( 42898 PWs)   bands (ev):

  -114.3818-114.3790-114.3706-114.3638-114.3625-114.3608-114.3534-114.3531
  -114.3525-114.3510-114.3509-114.3393-114.3383-114.3373-114.3366-114.3350
  -114.3349-114.3346-114.3322-114.3316-114.3243-114.3209-114.3180-114.3165
  -114.3126-114.3114-114.3102-114.3046 -68.7444 -68.7418 -68.7395 -68.7380
   -68.7378 -68.7353 -68.7339 -68.7298 -68.7290 -68.7278 -68.7241 -68.7236
   -68.7213 -68.7208 -68.7199 -68.7195 -68.7188 -68.7186 -68.7178 -68.7173
   -68.7171 -68.7159 -68.7157 -68.7122 -68.7110 -68.7099 -68.7097 -68.7092
   -68.7090 -68.7070 -68.7054 -68.7054 -68.7045 -68.7042 -68.7027 -68.7024
   -68.7019 -68.7011 -68.7001 -68.6975 -68.6974 -68.6968 -68.6962 -68.6959
   -68.6954 -68.6949 -68.6944 -68.6941 -68.6932 -68.6922 -68.6920 -68.6919
   -68.6915 -68.6912 -68.6909 -68.6908 -68.6906 -68.6896 -68.6895 -68.6881
   -68.6872 -68.6868 -68.6842 -68.6824 -68.6808 -68.6791 -68.6784 -68.6775
   -68.6775 -68.6765 -68.6752 -68.6735 -68.6735 -68.6733 -68.6729 -68.6713
   -68.6701 -68.6700 -68.6687 -68.6674 -68.6669 -68.6647 -68.6629 -68.6601
   -64.0013 -63.9845 -63.9783 -63.9758 -63.9614 -63.9585 -63.9513 -63.9444
   -30.9919 -30.9838 -30.9818 -30.9781 -30.9698 -30.9674 -30.9643 -30.9589
   -30.9589 -30.9571 -30.9557 -30.9535 -30.9511 -30.9454 -30.9408 -30.9401
   -30.9387 -30.9378 -30.9321 -30.9315 -30.9313 -30.9284 -30.9251 -30.9231
    -9.0469  -9.0424  -8.6629  -8.6609  -8.6330  -8.6226  -8.6176  -8.6096
    -8.5972  -8.5767  -8.5564  -8.5280  -8.4984  -8.4864  -8.2284  -8.2124
    -8.2105  -8.1959  -8.1872  -8.1828  -8.1761  -8.1586  -8.1411  -8.1387
    -8.0774  -8.0683  -8.0587  -8.0425  -8.0363  -8.0216  -8.0104  -8.0014
    -7.9886  -7.9552  -7.9173  -7.9092   2.6214   2.6360   2.6567   2.6688
     2.6769   2.6890   2.7030   2.7344   2.7494   2.7562   2.8185   2.8423
     2.8756   2.9011   2.9103   2.9222   2.9354   2.9405   2.9614   2.9956
     3.0073   3.0200   3.0380   3.0644   3.0887   3.1002   3.1026   3.1116
     3.1301   3.1500   3.1533   3.1642   3.1770   3.1946   3.1973   3.2108
     3.2307   3.2425   3.2831   3.2983   3.3184   3.3365   3.3508   3.3536
     3.3640   3.3730   3.3803   3.3884   3.3988   3.4028   3.4038   3.4124
     3.4141   3.4214   3.4297   3.4466   3.4550   3.4585   3.4693   3.4946
     3.5053   3.5196   3.5230   3.5260   3.5345   3.5385   3.5423   3.5537
     3.5599   3.5727   3.5750   3.5785   3.5821   3.5932   3.6051   3.6072
     3.6283   3.6451   3.6592   3.6866   3.7099   3.7336   3.7523   3.7739
     3.7983   3.8037   3.8638   3.8696   3.8901   3.9020   3.9109   3.9375
     3.9452   3.9811   3.9849   4.0223   4.0326   4.0371   4.0502   4.0837
     4.1460   4.1649   4.1750   4.1837   4.1906   4.1966   4.2059   4.2200
     4.2317   4.2483   4.2570   4.2690   4.2873   4.3007   4.3048   4.3246
     4.3316   4.3417   4.3556   4.3618   4.3831   4.3843   4.4069   4.4171
     4.4296   4.4535   4.4577   4.4713   4.4778   4.4927   4.5015   4.5161
     4.5265   4.5368   4.5430   4.5669   4.5774   4.5910   4.6162   4.6174
     4.7827   4.7884   4.8323   4.8592   4.9465   4.9724   5.0166   5.0675
     5.0953   5.1090   5.1290   5.1486   5.1637   5.1905   5.1960   5.2120
     5.2265   5.2491   5.2675   5.3142   5.3296   5.3744   5.3904   5.4291
     5.4596   5.4786   5.5319   5.5896   5.6210   5.6554   5.7076   5.7606
     5.7670   5.8548   5.9062   6.0079   6.0170   6.1380   6.2328   6.2356
     6.2406   6.2461   6.3756   6.4071   6.4451   6.4718   6.5013   6.5410
     6.5609   6.5668   6.6137   6.6163   6.6371   6.6639   6.6775   6.7046
     6.7137   6.7376   6.8266   6.8727   6.9444   6.9940   7.0996   7.1376
     7.1393   7.1554   7.1894   7.2160   7.3500   7.4036   7.4242   7.4651
     7.4975   7.5115   7.5293   7.5570   7.5702   7.5847   7.5881   7.6031
     7.6151   7.6330   7.6782   7.7247   7.7531   7.7779   7.7835   7.8142
     7.8188   7.8639   7.9200   7.9383   7.9452   8.0826   8.0922   8.1670
     8.1985   8.2099   8.2314   8.2483   8.2614   8.2761   8.2849   8.2950
     8.3291   8.3375   8.3499   8.3678  11.3445  11.3519  13.3473  13.3656
    13.3792  13.4094  13.4265  13.4336  13.4454  13.4751  13.5297  13.5841
    13.7361  13.8277  14.1887  14.3800  15.5377  15.5674  15.5871  15.5917
    15.6050  15.6380  15.6660  15.6878  15.8184  15.8973  15.9691  15.9919
    16.3174  16.3207  16.3332  16.3373  16.3986  16.4265  16.4919  16.5580
    16.5983  16.6674  16.7624  16.8545  17.0180  17.0272  17.0550  17.0671
    17.1441  17.1691  17.2005  17.2810  17.3288  17.3770  17.4189  17.4339
    17.4487  17.4976  17.5330  17.5666  17.5897  17.6086  17.6284  17.6502
    18.0368  18.1400  18.4009  18.4734  18.5848  18.6343  18.9120  19.0894
    19.1569  19.2537  19.3397  19.4821  19.5996  19.7803  19.8957  19.9290
    19.9535  19.9700  19.9813  19.9974  20.1790  20.2165  20.4738  20.4927
    20.5276  20.5481

     occupation numbers 
     1.0000   1.0000   1.0000   1.0000   1.0000   1.0000   1.0000   1.0000
     1.0000   1.0000   1.0000   1.0000   1.0000   1.0000   1.0000   1.0000
     1.0000   1.0000   1.0000   1.0000   1.0000   1.0000   1.0000   1.0000
     1.0000   1.0000   1.0000   1.0000   1.0000   1.0000   1.0000   1.0000
     1.0000   1.0000   1.0000   1.0000   1.0000   1.0000   1.0000   1.0000
     1.0000   1.0000   1.0000   1.0000   1.0000   1.0000   1.0000   1.0000
     1.0000   1.0000   1.0000   1.0000   1.0000   1.0000   1.0000   1.0000
     1.0000   1.0000   1.0000   1.0000   1.0000   1.0000   1.0000   1.0000
     1.0000   1.0000   1.0000   1.0000   1.0000   1.0000   1.0000   1.0000
     1.0000   1.0000   1.0000   1.0000   1.0000   1.0000   1.0000   1.0000
     1.0000   1.0000   1.0000   1.0000   1.0000   1.0000   1.0000   1.0000
     1.0000   1.0000   1.0000   1.0000   1.0000   1.0000   1.0000   1.0000
     1.0000   1.0000   1.0000   1.0000   1.0000   1.0000   1.0000   1.0000
     1.0000   1.0000   1.0000   1.0000   1.0000   1.0000   1.0000   1.0000
     1.0000   1.0000   1.0000   1.0000   1.0000   1.0000   1.0000   1.0000
     1.0000   1.0000   1.0000   1.0000   1.0000   1.0000   1.0000   1.0000
     1.0000   1.0000   1.0000   1.0000   1.0000   1.0000   1.0000   1.0000
     1.0000   1.0000   1.0000   1.0000   1.0000   1.0000   1.0000   1.0000
     1.0000   1.0000   1.0000   1.0000   1.0000   1.0000   1.0000   1.0000
     1.0000   1.0000   1.0000   1.0000   1.0000   1.0000   1.0000   1.0000
     1.0000   1.0000   1.0000   1.0000   1.0000   1.0000   1.0000   1.0000
     1.0000   1.0000   1.0000   1.0000   1.0000   1.0000   1.0000   1.0000
     1.0000   1.0000   1.0000   1.0000   1.0000   1.0000   1.0000   1.0000
     1.0000   1.0000   1.0000   1.0000   1.0000   1.0000   1.0000   1.0000
     1.0000   1.0000   1.0000   1.0000   1.0000   1.0000   1.0000   1.0000
     1.0000   1.0000   1.0000   1.0000   1.0000   1.0000   1.0000   1.0000
     1.0000   1.0000   1.0000   1.0000   1.0000   1.0000   1.0000   1.0000
     1.0000   1.0000   1.0000   1.0000   1.0000   1.0000   1.0000   1.0000
     1.0000   1.0000   1.0000   1.0000   1.0000   1.0000   1.0000   1.0000
     1.0000   1.0000   1.0000   1.0000   1.0000   1.0000   1.0000   1.0000
     1.0000   1.0000   1.0000   1.0000   1.0000   1.0000   1.0000   1.0000
     1.0000   1.0000   1.0000   1.0000   1.0000   1.0000   1.0000   1.0000
     1.0000   1.0000   1.0000   1.0000   1.0000   1.0000   1.0000   1.0000
     1.0000   1.0000   1.0000   1.0000   1.0000   1.0000   1.0000   1.0000
     1.0000   1.0000   1.0000   1.0000   1.0000   1.0000   1.0000   1.0000
     1.0000   1.0000   1.0000   1.0000   1.0000   1.0000   1.0000   1.0000
     1.0000   1.0000   1.0000   1.0000   1.0000   1.0000   1.0000   1.0000
     1.0000   1.0000   1.0000   1.0000   1.0000   1.0000   1.0000   1.0000
     1.0000   1.0000   1.0000   1.0000   1.0000   1.0000   1.0000   1.0000
     1.0000   1.0000   1.0000   1.0000   1.0000   1.0000   1.0000   1.0000
     1.0000   1.0000   1.0000   1.0000   1.0000   1.0000   1.0000   1.0000
     1.0000   1.0000   1.0000   1.0000   1.0000   1.0000   1.0000   1.0000
     1.0000   1.0000   1.0000   1.0000   1.0000   1.0000   1.0000   1.0000
     1.0000   1.0000   1.0000   1.0000   1.0000   1.0000   1.0000   1.0000
     1.0000   1.0000   1.0000   1.0000   1.0000   1.0000   1.0000   1.0000
     1.0000   1.0000   1.0000   1.0000   1.0000   1.0000   1.0000   1.0000
     1.0000   1.0000   1.0000   1.0000   1.0000   1.0000   1.0000   1.0000
     1.0000   1.0000   1.0000   1.0000   1.0000   1.0000   1.0000   1.0000
     1.0000   1.0000   1.0000   1.0000   1.0000   1.0000   1.0000   1.0000
     1.0000   1.0000   1.0000   1.0000   1.0000   1.0000   1.0000   1.0000
     1.0000   1.0000   1.0000   1.0000   1.0000   1.0000   1.0000   1.0000
     1.0000   1.0000   1.0000   1.0000   1.0000   1.0000   1.0000   1.0000
     1.0000   1.0000   1.0000   1.0000   1.0000   1.0000   1.0000   1.0000
     1.0000   1.0000   1.0000   1.0000   0.0000   0.0000   0.0000   0.0000
     0.0000   0.0000   0.0000   0.0000   0.0000   0.0000   0.0000   0.0000
     0.0000   0.0000   0.0000   0.0000   0.0000   0.0000   0.0000   0.0000
     0.0000   0.0000   0.0000   0.0000   0.0000   0.0000   0.0000   0.0000
     0.0000   0.0000   0.0000   0.0000   0.0000   0.0000   0.0000   0.0000
     0.0000   0.0000   0.0000   0.0000   0.0000   0.0000   0.0000   0.0000
     0.0000   0.0000   0.0000   0.0000   0.0000   0.0000   0.0000   0.0000
     0.0000   0.0000   0.0000   0.0000   0.0000   0.0000   0.0000   0.0000
     0.0000   0.0000   0.0000   0.0000   0.0000   0.0000   0.0000   0.0000
     0.0000   0.0000   0.0000   0.0000   0.0000   0.0000   0.0000   0.0000
     0.0000   0.0000   0.0000   0.0000   0.0000   0.0000   0.0000   0.0000
     0.0000   0.0000

          k =-0.0001 0.2886-0.0001 ( 42973 PWs)   bands (ev):

  -114.3818-114.3790-114.3706-114.3638-114.3625-114.3608-114.3534-114.3531
  -114.3525-114.3510-114.3509-114.3393-114.3383-114.3373-114.3366-114.3350
  -114.3349-114.3346-114.3322-114.3316-114.3243-114.3209-114.3180-114.3165
  -114.3126-114.3114-114.3102-114.3046 -68.7444 -68.7418 -68.7395 -68.7380
   -68.7378 -68.7353 -68.7339 -68.7298 -68.7290 -68.7278 -68.7241 -68.7236
   -68.7213 -68.7208 -68.7199 -68.7195 -68.7188 -68.7186 -68.7178 -68.7173
   -68.7171 -68.7159 -68.7157 -68.7122 -68.7110 -68.7099 -68.7097 -68.7092
   -68.7090 -68.7070 -68.7054 -68.7054 -68.7046 -68.7042 -68.7027 -68.7024
   -68.7019 -68.7013 -68.6999 -68.6975 -68.6974 -68.6969 -68.6961 -68.6959
   -68.6954 -68.6949 -68.6944 -68.6941 -68.6932 -68.6922 -68.6920 -68.6919
   -68.6915 -68.6912 -68.6909 -68.6908 -68.6906 -68.6896 -68.6895 -68.6881
   -68.6872 -68.6868 -68.6842 -68.6824 -68.6808 -68.6791 -68.6784 -68.6775
   -68.6775 -68.6765 -68.6752 -68.6735 -68.6735 -68.6733 -68.6729 -68.6713
   -68.6701 -68.6700 -68.6687 -68.6674 -68.6669 -68.6647 -68.6629 -68.6601
   -64.0013 -63.9845 -63.9783 -63.9758 -63.9614 -63.9585 -63.9513 -63.9444
   -30.9919 -30.9839 -30.9817 -30.9781 -30.9697 -30.9674 -30.9643 -30.9589
   -30.9589 -30.9571 -30.9557 -30.9533 -30.9511 -30.9458 -30.9407 -30.9399
   -30.9387 -30.9378 -30.9321 -30.9315 -30.9313 -30.9284 -30.9251 -30.9231
    -9.1975  -8.9238  -8.8205  -8.7855  -8.6430  -8.6100  -8.5551  -8.5441
    -8.5269  -8.4190  -8.4063  -8.3716  -8.3592  -8.3451  -8.3260  -8.3172
    -8.2993  -8.2656  -8.2570  -8.2368  -8.2219  -8.2050  -8.1875  -8.1399
    -8.1269  -8.1209  -8.1106  -8.1030  -8.0832  -8.0202  -7.9941  -7.9706
    -7.9439  -7.9064  -7.8752  -7.8366   2.4299   2.4513   2.4801   2.4830
     2.5322   2.5647   2.5910   2.5946   2.6504   2.6558   2.6982   2.7317
     2.7556   2.7868   2.8314   2.8677   2.9086   2.9226   2.9480   2.9644
     2.9829   3.0075   3.0323   3.0535   3.0652   3.0756   3.0985   3.1376
     3.1761   3.1947   3.2146   3.2314   3.2411   3.2507   3.2735   3.2802
     3.2854   3.2932   3.3029   3.3138   3.3240   3.3368   3.3413   3.3493
     3.3594   3.3647   3.3746   3.3848   3.3947   3.3987   3.4017   3.4175
     3.4262   3.4418   3.4572   3.4636   3.4835   3.5036   3.5163   3.5260
     3.5352   3.5529   3.5666   3.5767   3.5867   3.6052   3.6170   3.6312
     3.6478   3.6604   3.6823   3.6875   3.6998   3.7062   3.7267   3.7473
     3.7556   3.7713   3.7891   3.8077   3.8169   3.8290   3.8456   3.8586
     3.8721   3.8850   3.8982   3.9049   3.9125   3.9339   3.9432   3.9553
     3.9706   3.9882   4.0036   4.0296   4.0404   4.0599   4.0733   4.0931
     4.0980   4.1101   4.1221   4.1346   4.1473   4.1612   4.1730   4.1987
     4.2142   4.2365   4.2591   4.2865   4.3026   4.3137   4.3216   4.3309
     4.3535   4.3612   4.3741   4.3872   4.3984   4.4088   4.4198   4.4261
     4.4408   4.4505   4.4620   4.4764   4.4904   4.4974   4.5119   4.5137
     4.5324   4.5413   4.5431   4.5655   4.5742   4.5960   4.5993   4.6127
     4.6990   4.7457   4.7998   4.8923   4.9454   5.0228   5.0549   5.0793
     5.1225   5.1387   5.1570   5.1805   5.2007   5.2302   5.2677   5.3274
     5.3370   5.3816   5.3957   5.4561   5.4679   5.4953   5.5414   5.5770
     5.6005   5.6478   5.6872   5.7045   5.7231   5.7384   5.7826   5.7892
     5.8150   5.8335   5.8490   5.8929   5.9134   5.9413   5.9528   6.0082
     6.0401   6.0889   6.1299   6.1532   6.2084   6.2383   6.2935   6.3124
     6.3666   6.4053   6.5241   6.6062   6.6469   6.6758   6.6852   6.7203
     6.7267   6.7765   6.7974   6.8203   6.8577   6.8712   6.9018   6.9174
     6.9388   7.0405   7.0761   7.1603   7.1771   7.2069   7.2335   7.2952
     7.3564   7.3849   7.3974   7.4274   7.4512   7.4714   7.5088   7.5175
     7.5256   7.5581   7.5815   7.6652   7.7513   7.7839   7.8647   7.9155
     7.9219   7.9449   7.9840   8.0015   8.0108   8.0224   8.0416   8.0912
     8.1453   8.2044   8.3298   8.3821   8.3994   8.4445   8.4694   8.4764
     8.6172   8.6297   8.6992   8.7471  10.4255  12.2749  12.8479  12.9575
    13.3778  13.4369  13.8016  13.8875  14.0563  14.1043  14.1512  14.2728
    14.3784  14.4012  14.4387  14.5693  14.7275  14.7418  14.7728  14.8183
    14.8468  14.9186  15.3584  15.4315  15.5783  15.6286  15.7351  15.8746
    16.0179  16.0699  16.0950  16.1335  16.1659  16.2178  16.2779  16.4328
    16.5688  16.7302  16.8244  16.9284  17.0628  17.1555  17.3658  17.5016
    17.5196  17.5676  17.6382  17.6665  17.7053  17.7970  17.8977  17.9177
    17.9859  18.0269  18.0648  18.0812  18.1093  18.1467  18.2722  18.2867
    18.3120  18.4105  18.5205  18.5818  18.6175  18.6991  18.8636  18.9429
    19.1506  19.3350  19.4332  19.5281  19.6238  19.6999  19.8035  19.8541
    19.9090  19.9457  19.9740  20.0181  20.1337  20.1721  20.1816  20.2131
    20.2428  20.2692

     occupation numbers 
     1.0000   1.0000   1.0000   1.0000   1.0000   1.0000   1.0000   1.0000
     1.0000   1.0000   1.0000   1.0000   1.0000   1.0000   1.0000   1.0000
     1.0000   1.0000   1.0000   1.0000   1.0000   1.0000   1.0000   1.0000
     1.0000   1.0000   1.0000   1.0000   1.0000   1.0000   1.0000   1.0000
     1.0000   1.0000   1.0000   1.0000   1.0000   1.0000   1.0000   1.0000
     1.0000   1.0000   1.0000   1.0000   1.0000   1.0000   1.0000   1.0000
     1.0000   1.0000   1.0000   1.0000   1.0000   1.0000   1.0000   1.0000
     1.0000   1.0000   1.0000   1.0000   1.0000   1.0000   1.0000   1.0000
     1.0000   1.0000   1.0000   1.0000   1.0000   1.0000   1.0000   1.0000
     1.0000   1.0000   1.0000   1.0000   1.0000   1.0000   1.0000   1.0000
     1.0000   1.0000   1.0000   1.0000   1.0000   1.0000   1.0000   1.0000
     1.0000   1.0000   1.0000   1.0000   1.0000   1.0000   1.0000   1.0000
     1.0000   1.0000   1.0000   1.0000   1.0000   1.0000   1.0000   1.0000
     1.0000   1.0000   1.0000   1.0000   1.0000   1.0000   1.0000   1.0000
     1.0000   1.0000   1.0000   1.0000   1.0000   1.0000   1.0000   1.0000
     1.0000   1.0000   1.0000   1.0000   1.0000   1.0000   1.0000   1.0000
     1.0000   1.0000   1.0000   1.0000   1.0000   1.0000   1.0000   1.0000
     1.0000   1.0000   1.0000   1.0000   1.0000   1.0000   1.0000   1.0000
     1.0000   1.0000   1.0000   1.0000   1.0000   1.0000   1.0000   1.0000
     1.0000   1.0000   1.0000   1.0000   1.0000   1.0000   1.0000   1.0000
     1.0000   1.0000   1.0000   1.0000   1.0000   1.0000   1.0000   1.0000
     1.0000   1.0000   1.0000   1.0000   1.0000   1.0000   1.0000   1.0000
     1.0000   1.0000   1.0000   1.0000   1.0000   1.0000   1.0000   1.0000
     1.0000   1.0000   1.0000   1.0000   1.0000   1.0000   1.0000   1.0000
     1.0000   1.0000   1.0000   1.0000   1.0000   1.0000   1.0000   1.0000
     1.0000   1.0000   1.0000   1.0000   1.0000   1.0000   1.0000   1.0000
     1.0000   1.0000   1.0000   1.0000   1.0000   1.0000   1.0000   1.0000
     1.0000   1.0000   1.0000   1.0000   1.0000   1.0000   1.0000   1.0000
     1.0000   1.0000   1.0000   1.0000   1.0000   1.0000   1.0000   1.0000
     1.0000   1.0000   1.0000   1.0000   1.0000   1.0000   1.0000   1.0000
     1.0000   1.0000   1.0000   1.0000   1.0000   1.0000   1.0000   1.0000
     1.0000   1.0000   1.0000   1.0000   1.0000   1.0000   1.0000   1.0000
     1.0000   1.0000   1.0000   1.0000   1.0000   1.0000   1.0000   1.0000
     1.0000   1.0000   1.0000   1.0000   1.0000   1.0000   1.0000   1.0000
     1.0000   1.0000   1.0000   1.0000   1.0000   1.0000   1.0000   1.0000
     1.0000   1.0000   1.0000   1.0000   1.0000   1.0000   1.0000   1.0000
     1.0000   1.0000   1.0000   1.0000   1.0000   1.0000   1.0000   1.0000
     1.0000   1.0000   1.0000   1.0000   1.0000   1.0000   1.0000   1.0000
     1.0000   1.0000   1.0000   1.0000   1.0000   1.0000   1.0000   1.0000
     1.0000   1.0000   1.0000   1.0000   1.0000   1.0000   1.0000   1.0000
     1.0000   1.0000   1.0000   1.0000   1.0000   1.0000   1.0000   1.0000
     1.0000   1.0000   1.0000   1.0000   1.0000   1.0000   1.0000   1.0000
     1.0000   1.0000   1.0000   1.0000   1.0000   1.0000   1.0000   1.0000
     1.0000   1.0000   1.0000   1.0000   1.0000   1.0000   1.0000   1.0000
     1.0000   1.0000   1.0000   1.0000   1.0000   1.0000   1.0000   1.0000
     1.0000   1.0000   1.0000   1.0000   1.0000   1.0000   1.0000   1.0000
     1.0000   1.0000   1.0000   1.0000   1.0000   1.0000   1.0000   1.0000
     1.0000   1.0000   1.0000   1.0000   1.0000   1.0000   1.0000   1.0000
     1.0000   1.0000   1.0000   1.0000   1.0000   1.0000   1.0000   1.0000
     1.0000   1.0000   1.0000   1.0000   1.0000   1.0000   1.0000   1.0000
     1.0000   1.0000   1.0000   1.0000   1.0000   1.0000   1.0000   1.0000
     1.0000   1.0000   1.0000   1.0000   1.0000   1.0000   1.0000   1.0000
     1.0000   1.0000   1.0000   1.0000   1.0000   1.0000   1.0000   1.0000
     1.0000   1.0000   1.0000   1.0000   0.0000   0.0000   0.0000   0.0000
     0.0000   0.0000   0.0000   0.0000   0.0000   0.0000   0.0000   0.0000
     0.0000   0.0000   0.0000   0.0000   0.0000   0.0000   0.0000   0.0000
     0.0000   0.0000   0.0000   0.0000   0.0000   0.0000   0.0000   0.0000
     0.0000   0.0000   0.0000   0.0000   0.0000   0.0000   0.0000   0.0000
     0.0000   0.0000   0.0000   0.0000   0.0000   0.0000   0.0000   0.0000
     0.0000   0.0000   0.0000   0.0000   0.0000   0.0000   0.0000   0.0000
     0.0000   0.0000   0.0000   0.0000   0.0000   0.0000   0.0000   0.0000
     0.0000   0.0000   0.0000   0.0000   0.0000   0.0000   0.0000   0.0000
     0.0000   0.0000   0.0000   0.0000   0.0000   0.0000   0.0000   0.0000
     0.0000   0.0000   0.0000   0.0000   0.0000   0.0000   0.0000   0.0000
     0.0000   0.0000

          k =-0.0001 0.2885 0.2934 ( 42964 PWs)   bands (ev):

  -114.3818-114.3790-114.3706-114.3638-114.3625-114.3608-114.3534-114.3531
  -114.3525-114.3510-114.3509-114.3393-114.3383-114.3373-114.3366-114.3350
  -114.3349-114.3346-114.3322-114.3316-114.3243-114.3209-114.3180-114.3165
  -114.3126-114.3114-114.3102-114.3046 -68.7444 -68.7418 -68.7395 -68.7380
   -68.7378 -68.7353 -68.7339 -68.7298 -68.7290 -68.7278 -68.7241 -68.7236
   -68.7213 -68.7208 -68.7199 -68.7195 -68.7188 -68.7186 -68.7178 -68.7173
   -68.7171 -68.7159 -68.7157 -68.7122 -68.7110 -68.7099 -68.7097 -68.7092
   -68.7090 -68.7070 -68.7054 -68.7054 -68.7046 -68.7042 -68.7027 -68.7024
   -68.7019 -68.7012 -68.7000 -68.6975 -68.6974 -68.6969 -68.6962 -68.6959
   -68.6954 -68.6949 -68.6944 -68.6941 -68.6932 -68.6922 -68.6920 -68.6919
   -68.6915 -68.6912 -68.6909 -68.6908 -68.6906 -68.6896 -68.6895 -68.6881
   -68.6872 -68.6868 -68.6842 -68.6824 -68.6808 -68.6791 -68.6784 -68.6775
   -68.6775 -68.6765 -68.6752 -68.6735 -68.6735 -68.6733 -68.6729 -68.6713
   -68.6701 -68.6700 -68.6687 -68.6674 -68.6669 -68.6647 -68.6629 -68.6601
   -64.0013 -63.9845 -63.9783 -63.9758 -63.9614 -63.9585 -63.9513 -63.9444
   -30.9919 -30.9839 -30.9817 -30.9781 -30.9697 -30.9674 -30.9643 -30.9589
   -30.9589 -30.9571 -30.9557 -30.9534 -30.9511 -30.9456 -30.9407 -30.9400
   -30.9387 -30.9378 -30.9321 -30.9315 -30.9313 -30.9284 -30.9251 -30.9231
    -9.1493  -8.8829  -8.8131  -8.7818  -8.7406  -8.6087  -8.5907  -8.5590
    -8.5199  -8.5018  -8.4810  -8.3981  -8.3723  -8.3500  -8.3251  -8.3037
    -8.2905  -8.2379  -8.2273  -8.2025  -8.1905  -8.1573  -8.1483  -8.1328
    -8.1150  -8.0986  -8.0850  -8.0632  -8.0548  -8.0295  -8.0088  -7.9872
    -7.9612  -7.9310  -7.8910  -7.8657   2.4709   2.5080   2.5439   2.5866
     2.6321   2.6427   2.6635   2.6884   2.7237   2.7496   2.7543   2.7783
     2.8179   2.8377   2.8620   2.8759   2.8911   2.9078   2.9341   2.9641
     2.9742   3.0046   3.0397   3.0569   3.0728   3.0888   3.1014   3.1427
     3.1574   3.1742   3.1817   3.2097   3.2187   3.2412   3.2607   3.2832
     3.2849   3.2971   3.3038   3.3189   3.3231   3.3371   3.3433   3.3453
     3.3591   3.3697   3.3739   3.3826   3.3891   3.3962   3.4015   3.4094
     3.4198   3.4274   3.4355   3.4471   3.4650   3.4709   3.4779   3.4927
     3.4968   3.5079   3.5127   3.5337   3.5433   3.5609   3.5687   3.5774
     3.5820   3.5949   3.6054   3.6247   3.6398   3.6456   3.6528   3.6901
     3.6972   3.7174   3.7184   3.7554   3.7833   3.8083   3.8160   3.8238
     3.8507   3.8586   3.8790   3.8955   3.9128   3.9301   3.9500   3.9555
     3.9748   3.9882   4.0040   4.0131   4.0339   4.0544   4.0682   4.0863
     4.1057   4.1197   4.1330   4.1524   4.1675   4.1891   4.1978   4.2073
     4.2324   4.2390   4.2560   4.2703   4.2970   4.3059   4.3278   4.3336
     4.3382   4.3508   4.3567   4.3651   4.3867   4.4034   4.4094   4.4215
     4.4453   4.4531   4.4626   4.4819   4.4861   4.4995   4.5055   4.5133
     4.5243   4.5348   4.5439   4.5508   4.5667   4.5733   4.5883   4.6202
     4.7650   4.8053   4.8813   4.9222   4.9508   5.0224   5.0533   5.0685
     5.0779   5.1135   5.1388   5.1611   5.1868   5.1954   5.2421   5.2578
     5.2858   5.3167   5.3547   5.3641   5.3809   5.4234   5.4418   5.4638
     5.4791   5.5090   5.5676   5.6232   5.6527   5.7036   5.7678   5.8237
     5.8849   5.9197   5.9456   5.9938   6.0498   6.0982   6.1086   6.1285
     6.1404   6.1893   6.2370   6.2949   6.3040   6.3398   6.3726   6.4476
     6.4766   6.5145   6.5510   6.5678   6.5950   6.6124   6.6393   6.6575
     6.7158   6.7770   6.8022   6.8116   6.8608   6.9343   7.0441   7.0587
     7.1126   7.1517   7.1994   7.2167   7.2412   7.3159   7.3303   7.3657
     7.3912   7.4086   7.4424   7.4492   7.4735   7.5206   7.5574   7.5706
     7.6058   7.6224   7.6524   7.6958   7.7015   7.7374   7.7595   7.7993
     7.8276   7.8490   7.8871   7.9028   7.9187   7.9628   8.0411   8.1544
     8.2036   8.2516   8.2752   8.2878   8.3281   8.3451   8.3852   8.4598
     8.5235   8.5517   8.5830   8.6185  10.7477  12.3859  12.4932  12.9292
    13.0426  13.3491  13.6863  13.7610  13.8083  13.9410  14.0650  14.1066
    14.2297  14.3348  14.4494  14.5704  14.8697  15.1379  15.1691  15.1979
    15.3219  15.3567  15.4192  15.4809  15.6434  15.6814  15.7411  15.8173
    15.9084  15.9815  16.0750  16.2172  16.2800  16.3308  16.3913  16.4684
    16.6138  16.7832  16.8679  16.9690  17.0721  17.1337  17.2405  17.2550
    17.3826  17.4047  17.4477  17.4681  17.5325  17.5535  17.6790  17.6996
    17.7228  17.7737  17.8411  17.8813  17.9497  17.9746  18.0455  18.1236
    18.2280  18.2561  18.3664  18.4418  18.5996  18.6927  18.8033  19.0023
    19.2043  19.3067  19.4346  19.6055  19.6746  19.7116  19.7592  19.8172
    19.8467  19.9289  20.0398  20.1406  20.1574  20.1938  20.2666  20.3898
    20.4514  20.5236

     occupation numbers 
     1.0000   1.0000   1.0000   1.0000   1.0000   1.0000   1.0000   1.0000
     1.0000   1.0000   1.0000   1.0000   1.0000   1.0000   1.0000   1.0000
     1.0000   1.0000   1.0000   1.0000   1.0000   1.0000   1.0000   1.0000
     1.0000   1.0000   1.0000   1.0000   1.0000   1.0000   1.0000   1.0000
     1.0000   1.0000   1.0000   1.0000   1.0000   1.0000   1.0000   1.0000
     1.0000   1.0000   1.0000   1.0000   1.0000   1.0000   1.0000   1.0000
     1.0000   1.0000   1.0000   1.0000   1.0000   1.0000   1.0000   1.0000
     1.0000   1.0000   1.0000   1.0000   1.0000   1.0000   1.0000   1.0000
     1.0000   1.0000   1.0000   1.0000   1.0000   1.0000   1.0000   1.0000
     1.0000   1.0000   1.0000   1.0000   1.0000   1.0000   1.0000   1.0000
     1.0000   1.0000   1.0000   1.0000   1.0000   1.0000   1.0000   1.0000
     1.0000   1.0000   1.0000   1.0000   1.0000   1.0000   1.0000   1.0000
     1.0000   1.0000   1.0000   1.0000   1.0000   1.0000   1.0000   1.0000
     1.0000   1.0000   1.0000   1.0000   1.0000   1.0000   1.0000   1.0000
     1.0000   1.0000   1.0000   1.0000   1.0000   1.0000   1.0000   1.0000
     1.0000   1.0000   1.0000   1.0000   1.0000   1.0000   1.0000   1.0000
     1.0000   1.0000   1.0000   1.0000   1.0000   1.0000   1.0000   1.0000
     1.0000   1.0000   1.0000   1.0000   1.0000   1.0000   1.0000   1.0000
     1.0000   1.0000   1.0000   1.0000   1.0000   1.0000   1.0000   1.0000
     1.0000   1.0000   1.0000   1.0000   1.0000   1.0000   1.0000   1.0000
     1.0000   1.0000   1.0000   1.0000   1.0000   1.0000   1.0000   1.0000
     1.0000   1.0000   1.0000   1.0000   1.0000   1.0000   1.0000   1.0000
     1.0000   1.0000   1.0000   1.0000   1.0000   1.0000   1.0000   1.0000
     1.0000   1.0000   1.0000   1.0000   1.0000   1.0000   1.0000   1.0000
     1.0000   1.0000   1.0000   1.0000   1.0000   1.0000   1.0000   1.0000
     1.0000   1.0000   1.0000   1.0000   1.0000   1.0000   1.0000   1.0000
     1.0000   1.0000   1.0000   1.0000   1.0000   1.0000   1.0000   1.0000
     1.0000   1.0000   1.0000   1.0000   1.0000   1.0000   1.0000   1.0000
     1.0000   1.0000   1.0000   1.0000   1.0000   1.0000   1.0000   1.0000
     1.0000   1.0000   1.0000   1.0000   1.0000   1.0000   1.0000   1.0000
     1.0000   1.0000   1.0000   1.0000   1.0000   1.0000   1.0000   1.0000
     1.0000   1.0000   1.0000   1.0000   1.0000   1.0000   1.0000   1.0000
     1.0000   1.0000   1.0000   1.0000   1.0000   1.0000   1.0000   1.0000
     1.0000   1.0000   1.0000   1.0000   1.0000   1.0000   1.0000   1.0000
     1.0000   1.0000   1.0000   1.0000   1.0000   1.0000   1.0000   1.0000
     1.0000   1.0000   1.0000   1.0000   1.0000   1.0000   1.0000   1.0000
     1.0000   1.0000   1.0000   1.0000   1.0000   1.0000   1.0000   1.0000
     1.0000   1.0000   1.0000   1.0000   1.0000   1.0000   1.0000   1.0000
     1.0000   1.0000   1.0000   1.0000   1.0000   1.0000   1.0000   1.0000
     1.0000   1.0000   1.0000   1.0000   1.0000   1.0000   1.0000   1.0000
     1.0000   1.0000   1.0000   1.0000   1.0000   1.0000   1.0000   1.0000
     1.0000   1.0000   1.0000   1.0000   1.0000   1.0000   1.0000   1.0000
     1.0000   1.0000   1.0000   1.0000   1.0000   1.0000   1.0000   1.0000
     1.0000   1.0000   1.0000   1.0000   1.0000   1.0000   1.0000   1.0000
     1.0000   1.0000   1.0000   1.0000   1.0000   1.0000   1.0000   1.0000
     1.0000   1.0000   1.0000   1.0000   1.0000   1.0000   1.0000   1.0000
     1.0000   1.0000   1.0000   1.0000   1.0000   1.0000   1.0000   1.0000
     1.0000   1.0000   1.0000   1.0000   1.0000   1.0000   1.0000   1.0000
     1.0000   1.0000   1.0000   1.0000   1.0000   1.0000   1.0000   1.0000
     1.0000   1.0000   1.0000   1.0000   1.0000   1.0000   1.0000   1.0000
     1.0000   1.0000   1.0000   1.0000   1.0000   1.0000   1.0000   1.0000
     1.0000   1.0000   1.0000   1.0000   1.0000   1.0000   1.0000   1.0000
     1.0000   1.0000   1.0000   1.0000   1.0000   1.0000   1.0000   1.0000
     1.0000   1.0000   1.0000   1.0000   0.0000   0.0000   0.0000   0.0000
     0.0000   0.0000   0.0000   0.0000   0.0000   0.0000   0.0000   0.0000
     0.0000   0.0000   0.0000   0.0000   0.0000   0.0000   0.0000   0.0000
     0.0000   0.0000   0.0000   0.0000   0.0000   0.0000   0.0000   0.0000
     0.0000   0.0000   0.0000   0.0000   0.0000   0.0000   0.0000   0.0000
     0.0000   0.0000   0.0000   0.0000   0.0000   0.0000   0.0000   0.0000
     0.0000   0.0000   0.0000   0.0000   0.0000   0.0000   0.0000   0.0000
     0.0000   0.0000   0.0000   0.0000   0.0000   0.0000   0.0000   0.0000
     0.0000   0.0000   0.0000   0.0000   0.0000   0.0000   0.0000   0.0000
     0.0000   0.0000   0.0000   0.0000   0.0000   0.0000   0.0000   0.0000
     0.0000   0.0000   0.0000   0.0000   0.0000   0.0000   0.0000   0.0000
     0.0000   0.0000

          k =-0.0001 0.2887-0.5870 ( 42949 PWs)   bands (ev):

  -114.3818-114.3790-114.3706-114.3638-114.3625-114.3608-114.3534-114.3531
  -114.3525-114.3510-114.3509-114.3393-114.3383-114.3373-114.3366-114.3350
  -114.3349-114.3346-114.3322-114.3316-114.3243-114.3209-114.3180-114.3165
  -114.3126-114.3114-114.3102-114.3046 -68.7444 -68.7418 -68.7395 -68.7380
   -68.7378 -68.7353 -68.7339 -68.7298 -68.7290 -68.7278 -68.7241 -68.7236
   -68.7213 -68.7208 -68.7199 -68.7195 -68.7188 -68.7186 -68.7178 -68.7173
   -68.7171 -68.7159 -68.7157 -68.7122 -68.7110 -68.7099 -68.7097 -68.7092
   -68.7090 -68.7070 -68.7054 -68.7054 -68.7045 -68.7042 -68.7027 -68.7024
   -68.7019 -68.7011 -68.7001 -68.6975 -68.6974 -68.6968 -68.6962 -68.6959
   -68.6954 -68.6949 -68.6944 -68.6941 -68.6932 -68.6922 -68.6920 -68.6919
   -68.6915 -68.6912 -68.6909 -68.6908 -68.6906 -68.6896 -68.6895 -68.6881
   -68.6872 -68.6868 -68.6842 -68.6824 -68.6808 -68.6791 -68.6784 -68.6775
   -68.6775 -68.6765 -68.6752 -68.6735 -68.6735 -68.6733 -68.6729 -68.6713
   -68.6701 -68.6700 -68.6687 -68.6674 -68.6669 -68.6647 -68.6629 -68.6601
   -64.0013 -63.9845 -63.9783 -63.9758 -63.9614 -63.9585 -63.9513 -63.9444
   -30.9919 -30.9838 -30.9818 -30.9781 -30.9698 -30.9674 -30.9643 -30.9589
   -30.9589 -30.9571 -30.9557 -30.9535 -30.9511 -30.9454 -30.9408 -30.9401
   -30.9387 -30.9378 -30.9321 -30.9315 -30.9313 -30.9284 -30.9251 -30.9231
    -9.0143  -9.0096  -8.7794  -8.7649  -8.6744  -8.6633  -8.6405  -8.6237
    -8.5295  -8.5211  -8.4858  -8.4704  -8.4248  -8.4028  -8.2923  -8.2819
    -8.2611  -8.2577  -8.1749  -8.1568  -8.1474  -8.1302  -8.1251  -8.1094
    -8.0812  -8.0673  -8.0619  -8.0459  -8.0381  -8.0270  -8.0091  -8.0040
    -7.9907  -7.9594  -7.9209  -7.9101   2.6142   2.6346   2.6631   2.6798
     2.7104   2.7274   2.7354   2.7578   2.7802   2.7987   2.8290   2.8518
     2.8765   2.8893   2.8993   2.9150   2.9291   2.9347   2.9444   2.9672
     2.9943   3.0013   3.0237   3.0329   3.0578   3.0667   3.0977   3.1132
     3.1222   3.1354   3.1471   3.1629   3.1874   3.2043   3.2199   3.2293
     3.2343   3.2482   3.2694   3.2874   3.2982   3.3193   3.3227   3.3353
     3.3409   3.3498   3.3639   3.3698   3.3852   3.3904   3.4019   3.4057
     3.4110   3.4209   3.4279   3.4373   3.4474   3.4573   3.4679   3.4794
     3.4838   3.4938   3.5054   3.5106   3.5180   3.5314   3.5344   3.5451
     3.5499   3.5619   3.5754   3.5914   3.5979   3.6034   3.6240   3.6301
     3.6474   3.6600   3.6795   3.7008   3.7086   3.7219   3.7456   3.7564
     3.8021   3.8132   3.8590   3.8735   3.8809   3.9048   3.9314   3.9479
     3.9698   3.9872   3.9966   4.0093   4.0297   4.0441   4.0748   4.0869
[...]
     atom   27 type  3   force =     0.00000000    0.00000000    0.00000000
     atom   28 type  3   force =     0.00000000    0.00000000    0.00000000
     atom   29 type  1   force =     0.00000000    0.00000000    0.00000000
     atom   30 type  1   force =     0.00000000    0.00000000    0.00000000
     atom   31 type  1   force =     0.00000000    0.00000000    0.00000000
     atom   32 type  3   force =     0.00000000    0.00000000    0.00000000
     atom   33 type  1   force =     0.00000000    0.00000000    0.00000000
     atom   34 type  1   force =     0.00000000    0.00000000    0.00000000
     atom   35 type  1   force =     0.00000000    0.00000000    0.00000000
     atom   36 type  1   force =     0.00000000    0.00000000    0.00000000
     atom   37 type  2   force =     0.00000000    0.00000000    0.00000000
     atom   38 type  2   force =     0.00000000    0.00000000    0.00000000
     atom   39 type  2   force =     0.00000000    0.00000000    0.00000000
     atom   40 type  2   force =     0.00000000    0.00000000    0.00000000
     atom   41 type  2   force =     0.00000000    0.00000000    0.00000000
     atom   42 type  2   force =     0.00000000    0.00000000    0.00000000
     atom   43 type  2   force =     0.00000000    0.00000000    0.00000000
     atom   44 type  2   force =     0.00000000    0.00000000    0.00000000
     atom   45 type  2   force =     0.00000000    0.00000000    0.00000000
     atom   46 type  2   force =     0.00000000    0.00000000    0.00000000
     atom   47 type  2   force =     0.00000000    0.00000000    0.00000000
     atom   48 type  2   force =     0.00000000    0.00000000    0.00000000
     atom   49 type  2   force =     0.00000000    0.00000000    0.00000000
     atom   50 type  2   force =     0.00000000    0.00000000    0.00000000
     atom   51 type  2   force =     0.00000000    0.00000000    0.00000000
     atom   52 type  2   force =     0.00000000    0.00000000    0.00000000
     atom   53 type  2   force =     0.00000000    0.00000000    0.00000000
     atom   54 type  2   force =     0.00000000    0.00000000    0.00000000
     atom   55 type  2   force =     0.00000000    0.00000000    0.00000000
     atom   56 type  2   force =     0.00000000    0.00000000    0.00000000
     atom   57 type  2   force =     0.00000000    0.00000000    0.00000000
     atom   58 type  2   force =     0.00000000    0.00000000    0.00000000
     atom   59 type  2   force =     0.00000000    0.00000000    0.00000000
     atom   60 type  2   force =     0.00000000    0.00000000    0.00000000
     atom   61 type  2   force =     0.00000000    0.00000000    0.00000000
     atom   62 type  2   force =     0.00000000    0.00000000    0.00000000
     atom   63 type  2   force =     0.00000000    0.00000000    0.00000000
     atom   64 type  2   force =     0.00000000    0.00000000    0.00000000
     atom   65 type  2   force =     0.00000000    0.00000000    0.00000000
     atom   66 type  2   force =     0.00000000    0.00000000    0.00000000
     atom   67 type  2   force =     0.00000000    0.00000000    0.00000000
     atom   68 type  2   force =     0.00000000    0.00000000    0.00000000
     atom   69 type  2   force =     0.00000000    0.00000000    0.00000000
     atom   70 type  2   force =     0.00000000    0.00000000    0.00000000
     atom   71 type  2   force =     0.00000000    0.00000000    0.00000000
     atom   72 type  2   force =     0.00000000    0.00000000    0.00000000
     The SCF correction term to forces
     atom    1 type  1   force =     0.00000486   -0.00000450    0.00000000
     atom    2 type  1   force =     0.00000337   -0.00000343    0.00000000
     atom    3 type  1   force =    -0.00000462   -0.00000324    0.00000000
     atom    4 type  1   force =    -0.00000248   -0.00000492    0.00000000
     atom    5 type  1   force =    -0.00000681    0.00000387    0.00000000
     atom    6 type  1   force =    -0.00000949    0.00000362    0.00000000
     atom    7 type  1   force =    -0.00000759    0.00000181    0.00000000
     atom    8 type  1   force =    -0.00000778    0.00000846    0.00000000
     atom    9 type  1   force =     0.00000674   -0.00000596    0.00000000
     atom   10 type  3   force =     0.00000085   -0.00000061    0.00000000
     atom   11 type  3   force =     0.00000037    0.00000069    0.00000000
     atom   12 type  1   force =     0.00000441    0.00000472    0.00000000
     atom   13 type  1   force =    -0.00000060    0.00000071    0.00000000
     atom   14 type  1   force =    -0.00000220    0.00000140    0.00000000
     atom   15 type  3   force =    -0.00000122   -0.00000037    0.00000000
     atom   16 type  1   force =    -0.00000632   -0.00000289    0.00000000
     atom   17 type  1   force =     0.00000728   -0.00000075    0.00000000
     atom   18 type  3   force =     0.00000039   -0.00000001    0.00000000
     atom   19 type  3   force =     0.00000001    0.00000041    0.00000000
     atom   20 type  1   force =    -0.00001132    0.00000676    0.00000000
     atom   21 type  1   force =    -0.00000252   -0.00000396    0.00000000
     atom   22 type  1   force =    -0.00000297   -0.00000377    0.00000000
     atom   23 type  1   force =     0.00000710   -0.00000473    0.00000000
     atom   24 type  1   force =     0.00000624   -0.00000581    0.00000000
     atom   25 type  1   force =     0.00001063    0.00000001    0.00000000
     atom   26 type  1   force =     0.00001055    0.00000234    0.00000000
     atom   27 type  3   force =    -0.00000011    0.00000009    0.00000000
     atom   28 type  3   force =     0.00000042    0.00000017    0.00000000
     atom   29 type  1   force =    -0.00000036    0.00000513    0.00000000
     atom   30 type  1   force =     0.00000133    0.00000621    0.00000000
     atom   31 type  1   force =    -0.00000394    0.00000096    0.00000000
     atom   32 type  3   force =    -0.00000083    0.00000077    0.00000000
     atom   33 type  1   force =     0.00000690   -0.00000742    0.00000000
     atom   34 type  1   force =     0.00000799   -0.00000650    0.00000000
     atom   35 type  1   force =    -0.00000573    0.00000354    0.00000000
     atom   36 type  1   force =    -0.00000568    0.00000167    0.00000000
     atom   37 type  2   force =    -0.00000061    0.00000015    0.00000000
     atom   38 type  2   force =    -0.00000053    0.00000040    0.00000000
     atom   39 type  2   force =     0.00000097    0.00000032    0.00000000
     atom   40 type  2   force =     0.00000076   -0.00000008    0.00000000
     atom   41 type  2   force =     0.00000017   -0.00000023    0.00000000
     atom   42 type  2   force =    -0.00000019    0.00000034    0.00000000
     atom   43 type  2   force =    -0.00000104    0.00000118    0.00000000
     atom   44 type  2   force =    -0.00000089    0.00000041    0.00000000
     atom   45 type  2   force =     0.00000098    0.00000063    0.00000000
     atom   46 type  2   force =     0.00000095   -0.00000016    0.00000000
     atom   47 type  2   force =     0.00000048    0.00000058    0.00000000
     atom   48 type  2   force =     0.00000083    0.00000018    0.00000000
     atom   49 type  2   force =    -0.00000118    0.00000020    0.00000000
     atom   50 type  2   force =    -0.00000023    0.00000034    0.00000000
     atom   51 type  2   force =     0.00000083   -0.00000103    0.00000000
     atom   52 type  2   force =     0.00000010   -0.00000056    0.00000000
     atom   53 type  2   force =     0.00000068   -0.00000047    0.00000000
     atom   54 type  2   force =     0.00000086   -0.00000014    0.00000000
     atom   55 type  2   force =    -0.00000125    0.00000019    0.00000000
     atom   56 type  2   force =    -0.00000104    0.00000026    0.00000000
     atom   57 type  2   force =    -0.00000085   -0.00000016    0.00000000
     atom   58 type  2   force =    -0.00000023   -0.00000061    0.00000000
     atom   59 type  2   force =     0.00000090   -0.00000018    0.00000000
     atom   60 type  2   force =    -0.00000021   -0.00000030    0.00000000
     atom   61 type  2   force =    -0.00000035   -0.00000019    0.00000000
     atom   62 type  2   force =    -0.00000049    0.00000099    0.00000000
     atom   63 type  2   force =     0.00000058    0.00000035    0.00000000
     atom   64 type  2   force =     0.00000143    0.00000018    0.00000000
     atom   65 type  2   force =     0.00000022    0.00000010    0.00000000
     atom   66 type  2   force =    -0.00000043    0.00000075    0.00000000
     atom   67 type  2   force =    -0.00000212    0.00000019    0.00000000
     atom   68 type  2   force =    -0.00000141   -0.00000086    0.00000000
     atom   69 type  2   force =     0.00000143   -0.00000087    0.00000000
     atom   70 type  2   force =     0.00000096   -0.00000119    0.00000000
     atom   71 type  2   force =     0.00000019   -0.00000021    0.00000000
     atom   72 type  2   force =     0.00000071   -0.00000035    0.00000000

     Total force =     0.000074     Total SCF correction =     0.000042
     SCF correction compared to forces is large: reduce conv_thr to get better values


     Computing stress (Cartesian axis) and pressure

          total   stress  (Ry/bohr**3)                   (kbar)     P=    1.65
   0.00001254  -0.00000002   0.00000000          1.85     -0.00      0.00
  -0.00000002   0.00001255  -0.00000000         -0.00      1.85     -0.00
   0.00000000  -0.00000000   0.00000862          0.00     -0.00      1.27

     kinetic stress (kbar)  32012.74      0.72      0.07
                                0.72  32012.40     -0.11
                                0.07     -0.11  32235.42

     local   stress (kbar)   1388.07   -810.09   -593.84
                             -810.09    410.85   -104.50
                             -593.84   -104.50 -25489.91

     nonloc. stress (kbar)   -157.60     -0.29      0.01
                               -0.29   -156.49      0.12
                                0.01      0.12   -230.85

     hartree stress (kbar)  53853.18    401.02    291.71
                              401.02  54312.01     46.34
                              291.71     46.34  66566.84

     exc-cor stress (kbar) -13121.92      0.01     -0.00
                                0.01 -13121.91      0.00
                               -0.00      0.00 -13122.93

     corecor stress (kbar)   -261.15     -0.00     -0.00
                               -0.00   -261.15      0.00
                               -0.00      0.00   -261.53

     ewald   stress (kbar) -73711.47    408.63    302.05
                              408.63 -73193.86     58.15
                              302.05     58.15 -59695.77

     hubbard stress (kbar)      0.00      0.00      0.00
                                0.00      0.00      0.00
                                0.00      0.00      0.00

     london  stress (kbar)      0.00      0.00      0.00
                                0.00      0.00      0.00
                                0.00      0.00      0.00

     DFT-D3  stress (kbar)      0.00      0.00      0.00
                                0.00      0.00      0.00
                                0.00      0.00      0.00

     XDM     stress (kbar)      0.00      0.00      0.00
                                0.00      0.00      0.00
                                0.00      0.00      0.00

     dft-nl  stress (kbar)      0.00      0.00      0.00
                                0.00      0.00      0.00
                                0.00      0.00      0.00

     TS-vdW  stress (kbar)      0.00      0.00      0.00
                                0.00      0.00      0.00
                                0.00      0.00      0.00


     Message from routine bfgs:
     history already reset at previous step: stopping

     bfgs converged in   4 scf cycles and   3 bfgs steps
     (criteria: energy <  1.0E-07 Ry, force <  1.0E-06 Ry/Bohr)

     End of BFGS Geometry Optimization

     Final energy   =  -15079.6104724070 Ry
Begin final coordinates

ATOMIC_POSITIONS (crystal)
Zn       0.222618040   0.111020553   0.255383916    1   1   0
Zn       0.222751151   0.109793621   0.751431959    1   1   0
Zn       0.222491200   0.444881538   0.253510403    1   1   0
Zn       0.222073800   0.444799889   0.753363513    1   1   0
Zn       0.222990563   0.778203713   0.253220448    1   1   0
Zn       0.222543276   0.777920494   0.754034399    1   1   0
Zn       0.554904275   0.111221542   0.253090058    1   1   0
Zn       0.554768385   0.109962463   0.753893598    1   1   0
Zn       0.555395329   0.444736334   0.252597536    1   1   0
Mg       0.557100441   0.442976852   0.752371771    1   1   0
Mg       0.557025200   0.780270935   0.253769413    1   1   0
Zn       0.555645101   0.778122228   0.753574177    1   1   0
Zn       0.888656414   0.110561856   0.251466488    1   1   0
Zn       0.887712989   0.110356769   0.754431924    1   1   0
Mg       0.889440912   0.445897040   0.252713938    1   1   0
Zn       0.888660526   0.445175724   0.752287375    1   1   0
Zn       0.888824133   0.778671070   0.253124988    1   1   0
Mg       0.889577806   0.777372081   0.752842405    1   1   0
Mg       0.109973180   0.222223721   0.503115735    1   1   0
Zn       0.110811083   0.221664718   0.002306361    1   1   0
Zn       0.112064806   0.555225082   0.502510313    1   1   0
Zn       0.110358674   0.554868935   0.003817236    1   1   0
Zn       0.112229580   0.889007653   0.504110573    1   1   0
Zn       0.111836397   0.889473576   0.003520437    1   1   0
Zn       0.444652324   0.221808405   0.503595686    1   1   0
Zn       0.443986904   0.221382727   0.000682707    1   1   0
Mg       0.443300774   0.555688687   0.504513605    1   1   0
Mg       0.443496727   0.554983173   0.004405903    1   1   0
Zn       0.444867599   0.889412258   0.501219763    1   1   0
Zn       0.444479853   0.889479113   0.002728737    1   1   0
Zn       0.777419565   0.221338810   0.503338888    1   1   0
Mg       0.777065909   0.221433387   0.005697558    1   1   0
Zn       0.777165094   0.555316141   0.500959864    1   1   0
Zn       0.777773763   0.554983580   0.001949804    1   1   0
Zn       0.777364648   0.890348471   0.505049958    1   1   0
Zn       0.778015403   0.889286183   0.003710401    1   1   0
O        0.222018024   0.111306144   0.003710406    1   1   0
O        0.222252231   0.111253827   0.503115768    1   1   0
O        0.221648980   0.443655976   0.002306466    1   1   0
O        0.222281845   0.444035839   0.502510243    1   1   0
O        0.222249211   0.777313974   0.003817297    1   1   0
O        0.222620460   0.777575842   0.504110708    1   1   0
O        0.555360768   0.110854185   0.003520492    1   1   0
O        0.555828625   0.111280356   0.503595491    1   1   0
O        0.555220839   0.444396478   0.000682921    1   1   0
O        0.554678861   0.444405107   0.504513716    1   1   0
O        0.555321507   0.777372826   0.004405541    1   1   0
O        0.555258288   0.777411070   0.501219626    1   1   0
O        0.889043446   0.111152409   0.002728825    1   1   0
O        0.888379667   0.111363156   0.503339004    1   1   0
O        0.888362779   0.443622486   0.005697239    1   1   0
O        0.888862335   0.444173307   0.500959762    1   1   0
O        0.888943122   0.777595664   0.001949929    1   1   0
O        0.889140744   0.778373951   0.505049998    1   1   0
O        0.111050700   0.222404533   0.255383878    1   1   0
O        0.111005053   0.221619158   0.751432029    1   1   0
O        0.111656565   0.556110200   0.253510385    1   1   0
O        0.110535122   0.555331867   0.753363257    1   1   0
O        0.110924629   0.888660223   0.253220537    1   1   0
O        0.111378121   0.888618390   0.754034313    1   1   0
O        0.444755147   0.223170287   0.253090249    1   1   0
O        0.444298191   0.221373029   0.753893465    1   1   0
O        0.445303068   0.557303478   0.252597407    1   1   0
O        0.445386676   0.555013332   0.752371921    1   1   0
O        0.444662790   0.889684829   0.253769523    1   1   0
O        0.444512619   0.888316139   0.753574316    1   1   0
O        0.777927826   0.222835805   0.251466301    1   1   0
O        0.777563230   0.222769233   0.754431934    1   1   0
O        0.777335576   0.556436881   0.252713893    1   1   0
O        0.778351185   0.555649706   0.752287492    1   1   0
O        0.778392830   0.889482036   0.253124951    1   1   0
O        0.777447112   0.888208960   0.752842344    1   1   0
End final coordinates



     Writing output data file ZnO.save/
 
     init_run     :     14.58s CPU     15.33s WALL (       1 calls)
     electrons    :   1443.79s CPU   1478.64s WALL (       4 calls)
     update_pot   :      5.58s CPU      5.68s WALL (       3 calls)
     forces       :     38.51s CPU     39.69s WALL (       4 calls)
     stress       :    562.50s CPU    568.25s WALL (       4 calls)

     Called by init_run:
     wfcinit      :     12.39s CPU     12.76s WALL (       1 calls)
     wfcinit:atom :      0.10s CPU      0.13s WALL (       5 calls)
     wfcinit:wfcr :     11.88s CPU     12.17s WALL (       5 calls)
     potinit      :      0.98s CPU      1.06s WALL (       1 calls)
     hinit0       :      0.74s CPU      0.91s WALL (       1 calls)

     Called by electrons:
     c_bands      :   1341.47s CPU   1372.31s WALL (      24 calls)
     sum_band     :     90.56s CPU     92.61s WALL (      24 calls)
     v_of_rho     :     10.67s CPU     11.25s WALL (      25 calls)
     v_h          :      0.26s CPU      0.36s WALL (      25 calls)
     v_xc         :     13.69s CPU     14.31s WALL (      33 calls)
     newd         :      2.10s CPU      2.25s WALL (      25 calls)
     mix_rho      :      0.44s CPU      0.59s WALL (      24 calls)

     Called by c_bands:
     init_us_2    :      8.51s CPU      8.69s WALL (     285 calls)
     cegterg      :   1285.60s CPU   1315.57s WALL (     120 calls)

     Called by sum_band:
     sum_band:bec :      0.48s CPU      0.53s WALL (     120 calls)
     addusdens    :      2.10s CPU      2.22s WALL (      24 calls)

     Called by *egterg:
     h_psi        :    396.14s CPU    403.75s WALL (     459 calls)
     s_psi        :     98.85s CPU     99.38s WALL (     459 calls)
     g_psi        :      1.51s CPU      1.52s WALL (     334 calls)
     cdiaghg      :    517.62s CPU    530.37s WALL (     424 calls)
     cegterg:over :    120.60s CPU    123.90s WALL (     334 calls)
     cegterg:upda :     81.33s CPU     82.82s WALL (     334 calls)
     cegterg:last :     43.34s CPU     43.69s WALL (     120 calls)
     cdiaghg:chol :     21.67s CPU     21.79s WALL (     424 calls)
     cdiaghg:inve :      6.73s CPU      6.76s WALL (     424 calls)
     cdiaghg:para :    112.05s CPU    121.66s WALL (     848 calls)

     Called by h_psi:
     h_psi:pot    :    393.16s CPU    398.80s WALL (     459 calls)
     h_psi:calbec :    101.98s CPU    105.27s WALL (     459 calls)
     vloc_psi     :    191.44s CPU    192.97s WALL (     459 calls)
     add_vuspsi   :     99.72s CPU    100.56s WALL (     459 calls)

     General routines
     calbec       :    176.38s CPU    182.04s WALL (     679 calls)
     fft          :      3.11s CPU      4.20s WALL (     423 calls)
     ffts         :      0.10s CPU      0.11s WALL (      49 calls)
     fftw         :    220.08s CPU    221.87s WALL (  365240 calls)
     interpolate  :      0.26s CPU      0.32s WALL (      25 calls)
 
     Parallel routines
     fft_scatt_xy :     27.97s CPU     28.17s WALL (  365712 calls)
     fft_scatt_yz :     59.66s CPU     61.16s WALL (  365712 calls)
 
     PWSCF        :  34m30.15s CPU  35m16.74s WALL

 
   This run was terminated on:  20: 8:18   8Nov2021            

=------------------------------------------------------------------------------=
   JOB DONE.
=------------------------------------------------------------------------------=
