
     Program PWSCF v.6.4.1 starts on  8Nov2021 at 13:38:37 

     This program is part of the open-source Quantum ESPRESSO suite
     for quantum simulation of materials; please cite
         "P. Giannozzi et al., J. Phys.:Condens. Matter 21 395502 (2009);
         "P. Giannozzi et al., J. Phys.:Condens. Matter 29 465901 (2017);
          URL http://www.quantum-espresso.org", 
     in publications or presentations arising from this work. More details at
     http://www.quantum-espresso.org/quote

     Parallel version (MPI), running on   128 processors

     MPI processes distributed on     2 nodes
     K-points division:     npool     =       8
     R & G space division:  proc/nbgrp/npool/nimage =      16
     Waiting for input...
     Reading input from standard input
Warning: card &IONS ignored
Warning: card   UPSCALE           = 100.D0, ignored
Warning: card / ignored
Warning: card &CELL ignored
Warning: card   CELL_DYNAMICS     = 'BFGS' ignored
Warning: card   PRESS_CONV_THR    = 0.5D0 ignored
Warning: card   CELL_DOFREE = 'ALL' ignored
Warning: card / ignored

     Current dimensions of program PWSCF are:
     Max number of different atomic species (ntypx) = 10
     Max number of k-points (npk) =  40000
     Max angular momentum in pseudopotentials (lmaxx) =  3

     Subspace diagonalization in iterative solution of the eigenvalue problem:
     one sub-group per band group will be used
     scalapack distributed-memory algorithm (size of sub-group:  2*  2 procs)

 
     Parallelization info
     --------------------
     sticks:   dense  smooth     PW     G-vecs:    dense   smooth      PW
     Min         731     351     95                67967    22606    3250
     Max         732     352     96                67974    22608    3255
     Sum       11705    5623   1531              1087527   361709   52049
 


     bravais-lattice index     =            0
     lattice parameter (alat)  =      18.4233  a.u.
     unit-cell volume          =    5758.9404 (a.u.)^3
     number of atoms/cell      =           72
     number of atomic types    =            3
     number of electrons       =       796.00
     number of Kohn-Sham states=          478
     kinetic-energy cutoff     =      60.0000  Ry
     charge density cutoff     =     500.0000  Ry
     convergence threshold     =      1.0E-08
     mixing beta               =       0.5000
     number of iterations used =            8  plain     mixing
     Exchange-correlation      = SLA  PW   PSX  PSC ( 1  4 10  8 0 0)
     Using LIBXC version       =    4   3   4

     celldm(1)=  18.423338  celldm(2)=   0.000000  celldm(3)=   0.000000
     celldm(4)=   0.000000  celldm(5)=   0.000000  celldm(6)=   0.000000

     crystal axes: (cart. coord. in units of alat)
               a(1) = (   1.000000   0.000410  -0.000414 )  
               a(2) = (  -0.499644   0.866141   0.000428 )  
               a(3) = (  -0.000442   0.000273   1.063032 )  

     reciprocal axes: (cart. coord. in units 2 pi/alat)
               b(1) = (  0.999764  0.576725  0.000267 )  
               b(2) = ( -0.000473  1.154273 -0.000296 )  
               b(3) = (  0.000389 -0.000240  0.940706 )  


     PseudoPot. # 1 for Zn read from file:
     ./GBRV_PBEsol/zn_pbesol_v1.uspp.F.UPF
     MD5 check sum: 7d8615e52efe7c1e2b1899de8658bae2
     Pseudo is Ultrasoft, Zval = 20.0
     Generated by new atomic code, or converted to UPF format
     Using radial grid of  943 points,  6 beta functions with: 
                l(1) =   0
                l(2) =   0
                l(3) =   1
                l(4) =   1
                l(5) =   2
                l(6) =   2
     Q(r) pseudized with  8 coefficients,  rinner =    1.100   1.100   1.100
                                                       1.100   1.100

     PseudoPot. # 2 for O  read from file:
     ./GBRV_PBEsol/o_pbesol_v1.2.uspp.F.UPF
     MD5 check sum: 501638753501ef6325af9037351f7734
     Pseudo is Ultrasoft + core correction, Zval =  6.0
     Generated by new atomic code, or converted to UPF format
     Using radial grid of  737 points,  5 beta functions with: 
                l(1) =   0
                l(2) =   0
                l(3) =   1
                l(4) =   1
                l(5) =   2
     Q(r) pseudized with  8 coefficients,  rinner =    0.900   0.900   0.900
                                                       0.900   0.900

     PseudoPot. # 3 for Mg read from file:
     ./GBRV_PBEsol/mg_pbesol_v1.4.uspp.F.UPF
     MD5 check sum: 4059f37963cf5867752dbf5ab2400678
     Pseudo is Ultrasoft, Zval = 10.0
     Generated by new atomic code, or converted to UPF format
     Using radial grid of  821 points,  7 beta functions with: 
                l(1) =   0
                l(2) =   0
                l(3) =   0
                l(4) =   1
                l(5) =   1
                l(6) =   2
                l(7) =   2
     Q(r) pseudized with  8 coefficients,  rinner =    1.200   1.200   1.200
                                                       1.200   1.200

     atomic species   valence    mass     pseudopotential
        Zn            20.00    65.38000     Zn( 1.00)
        O              6.00    15.99900     O ( 1.00)
        Mg            10.00    24.30500     Mg( 1.00)

     No symmetry found


                                    s                        frac. trans.

      isym =  1     identity                                     

 cryst.   s( 1) = (     1          0          0      )
                  (     0          1          0      )
                  (     0          0          1      )

 cart.    s( 1) = (  1.0000000 -0.0000000 -0.0000000 )
                  (  0.0000000  1.0000000 -0.0000000 )
                  (  0.0000000  0.0000000  1.0000000 )


   Cartesian axes

     site n.     atom                  positions (alat units)
         1           Zn  tau(   1) = (   0.1663494   0.0972122   0.2689376  )
         2           Zn  tau(   2) = (   0.1675627   0.0961284   0.8000436  )
         3           Zn  tau(   3) = (   0.0018249   0.3862541   0.2693608  )
         4           Zn  tau(   4) = (  -0.0009773   0.3854074   0.7987945  )
         5           Zn  tau(   5) = (  -0.1663160   0.6732740   0.2677230  )
         6           Mg  tau(   6) = (  -0.1656342   0.6764904   0.8035608  )
         7           Zn  tau(   7) = (   0.5009047   0.0965624   0.2671851  )
         8           Zn  tau(   8) = (   0.4994210   0.0973175   0.8020508  )
         9           Mg  tau(   9) = (   0.3329584   0.3860000   0.2709432  )
        10           Mg  tau(  10) = (   0.3333912   0.3850441   0.7976721  )
        11           Mg  tau(  11) = (   0.1650912   0.6728386   0.2689707  )
        12           Zn  tau(  12) = (   0.1670346   0.6754229   0.8006242  )
        13           Mg  tau(  13) = (   0.8338061   0.0980738   0.2692511  )
        14           Mg  tau(  14) = (   0.8343321   0.0965978   0.7975199  )
        15           Zn  tau(  15) = (   0.6668441   0.3855320   0.2686085  )
        16           Mg  tau(  16) = (   0.6658362   0.3867748   0.8001309  )
        17           Zn  tau(  17) = (   0.4979265   0.6739636   0.2680859  )
        18           Zn  tau(  18) = (   0.5014401   0.6742818   0.7990559  )
        19           Zn  tau(  19) = (  -0.0017844   0.1928884   0.5348186  )
        20           Zn  tau(  20) = (   0.0007882   0.1920219   0.0033395  )
        21           Mg  tau(  21) = (  -0.1688423   0.4818629   0.5343219  )
        22           Zn  tau(  22) = (  -0.1646944   0.4809163   0.0013314  )
        23           Zn  tau(  23) = (  -0.3317589   0.7696167   0.5369919  )
        24           Mg  tau(  24) = (  -0.3346521   0.7692062   0.0033222  )
        25           Zn  tau(  25) = (   0.3327572   0.1921032   0.5346424  )
        26           Mg  tau(  26) = (   0.3334324   0.1920708   0.0032739  )
        27           Mg  tau(  27) = (   0.1652659   0.4794913   0.5346316  )
        28           Zn  tau(  28) = (   0.1665910   0.4821715   0.0050240  )
        29           Zn  tau(  29) = (  -0.0018098   0.7704576   0.5311339  )
        30           Zn  tau(  30) = (   0.0025159   0.7692638   0.0017083  )
        31           Mg  tau(  31) = (   0.6647134   0.1943752   0.5337797  )
        32           Zn  tau(  32) = (   0.6676317   0.1911339   0.0001904  )
        33           Zn  tau(  33) = (   0.5018475   0.4803100   0.5375902  )
        34           Zn  tau(  34) = (   0.4985180   0.4824746   0.0032272  )
        35           Mg  tau(  35) = (   0.3350860   0.7707962   0.5340953  )
        36           Mg  tau(  36) = (   0.3322512   0.7677400   0.0033592  )
        37           O   tau(  37) = (   0.1673240   0.0955770   0.0032559  )
        38           O   tau(  38) = (   0.1658820   0.0962152   0.5347245  )
        39           O   tau(  39) = (   0.0009002   0.3846172   0.0033886  )
        40           O   tau(  40) = (  -0.0019838   0.3856033   0.5342283  )
        41           O   tau(  41) = (  -0.1661200   0.6737885   0.0013812  )
        42           O   tau(  42) = (  -0.1666992   0.6732480   0.5368990  )
        43           O   tau(  43) = (   0.5007260   0.0962275   0.0028047  )
        44           O   tau(  44) = (   0.4992477   0.0966360   0.5345491  )
        45           O   tau(  45) = (   0.3327721   0.3844156   0.0033233  )
        46           O   tau(  46) = (   0.3330428   0.3850448   0.5345381  )
        47           O   tau(  47) = (   0.1674554   0.6729116   0.0050723  )
        48           O   tau(  48) = (   0.1675102   0.6735778   0.5310391  )
        49           O   tau(  49) = (   0.8339143   0.0943768   0.0011919  )
        50           O   tau(  50) = (   0.8312163   0.0964555   0.5336858  )
        51           O   tau(  51) = (   0.6670716   0.3848803   0.0002401  )
        52           O   tau(  52) = (   0.6672568   0.3850155   0.5374975  )
        53           O   tau(  53) = (   0.4988931   0.6741112   0.0032759  )
        54           O   tau(  54) = (   0.5009245   0.6738985   0.5340019  )
        55           O   tau(  55) = (  -0.0002770   0.1931455   0.2690311  )
        56           O   tau(  56) = (   0.0002008   0.1928579   0.8001375  )
        57           O   tau(  57) = (  -0.1666454   0.4811963   0.2694547  )
        58           O   tau(  58) = (  -0.1671411   0.4832689   0.7988882  )
        59           O   tau(  59) = (  -0.3335868   0.7696452   0.2678169  )
        60           O   tau(  60) = (  -0.3326687   0.7702553   0.8036539  )
        61           O   tau(  61) = (   0.3337044   0.1933361   0.2672791  )
        62           O   tau(  62) = (   0.3333596   0.1936480   0.8021442  )
        63           O   tau(  63) = (   0.1678124   0.4817537   0.2710360  )
        64           O   tau(  64) = (   0.1667215   0.4822013   0.7977659  )
        65           O   tau(  65) = (  -0.0006851   0.7701417   0.2690641  )
        66           O   tau(  66) = (   0.0014127   0.7710611   0.8007172  )
        67           O   tau(  67) = (   0.6675323   0.1933295   0.2693443  )
        68           O   tau(  68) = (   0.6677418   0.1933547   0.7976135  )
        69           O   tau(  69) = (   0.5001911   0.4812010   0.2687019  )
        70           O   tau(  70) = (   0.4988953   0.4817113   0.8002242  )
        71           O   tau(  71) = (   0.3313741   0.7717280   0.2681798  )
        72           O   tau(  72) = (   0.3338878   0.7707462   0.7991499  )

   Crystallographic axes

     site n.     atom                  positions (cryst. coord.)
         1           Zn  tau(   1) = (  0.2224468  0.1120511  0.2530326  )
         2           Zn  tau(   2) = (  0.2231767  0.1106421  0.7526477  )
         3           Zn  tau(   3) = (  0.2246589  0.4457621  0.2532972  )
         4           Zn  tau(   4) = (  0.2215107  0.4446292  0.7513376  )
         5           Zn  tau(   5) = (  0.2220888  0.7771414  0.2516222  )
         6           Mg  tau(   6) = (  0.2247688  0.7806949  0.7556873  )
         7           Zn  tau(   7) = (  0.5565479  0.1111433  0.2515144  )
         8           Zn  tau(   8) = (  0.5556431  0.1118571  0.7546649  )
         9           Mg  tau(   9) = (  0.5555681  0.4453116  0.2549148  )
        10           Mg  tau(  10) = (  0.5555904  0.4440520  0.7504120  )
        11           Mg  tau(  11) = (  0.5531670  0.7764816  0.2529250  )
        12           Zn  tau(  12) = (  0.5567426  0.7793062  0.7530546  )
        13           Mg  tau(  13) = (  0.8902429  0.1127297  0.2535872  )
        14           Mg  tau(  14) = (  0.8900588  0.1108693  0.7505331  )
        15           Zn  tau(  15) = (  0.8891045  0.4446142  0.2528486  )
        16           Mg  tau(  16) = (  0.8889558  0.4458917  0.7528540  )
        17           Zn  tau(  17) = (  0.8865723  0.7776231  0.2522220  )
        18           Zn  tau(  18) = (  0.8904106  0.7778313  0.7517098  )
        19           Zn  tau(  19) = (  0.1096026  0.2224882  0.5030599  )
        20           Zn  tau(  20) = (  0.1115327  0.2216443  0.0030957  )
        21           Mg  tau(  21) = (  0.1092429  0.5561229  0.5024582  )
        22           Zn  tau(  22) = (  0.1127013  0.5551862  0.0010729  )
        23           Zn  tau(  23) = (  0.1123202  0.8883457  0.5048373  )
        24           Mg  tau(  24) = (  0.1090483  0.8880313  0.0028103  )
        25           Zn  tau(  25) = (  0.4436124  0.2214237  0.5030246  )
        26           Mg  tau(  26) = (  0.4441267  0.2215435  0.0031635  )
        27           Mg  tau(  27) = (  0.4419045  0.5532273  0.5028802  )
        28           Zn  tau(  28) = (  0.4446334  0.5564773  0.0046752  )
        29           Zn  tau(  29) = (  0.4426748  0.8891619  0.4994550  )
        30           Zn  tau(  30) = (  0.4461695  0.8879387  0.0014233  )
        31           Mg  tau(  31) = (  0.7768004  0.2238895  0.5023417  )
        32           Zn  tau(  32) = (  0.7777059  0.2203049  0.0003932  )
        33           Zn  tau(  33) = (  0.7788797  0.5540122  0.5057943  )
        34           Zn  tau(  34) = (  0.7766564  0.5566707  0.0031141  )
        35           Mg  tau(  35) = (  0.7796873  0.8893925  0.5023719  )
        36           Mg  tau(  36) = (  0.7749485  0.8860234  0.0031051  )
        37           O   tau(  37) = (  0.2224070  0.1102418  0.0031051  )
        38           O   tau(  38) = (  0.2214756  0.1108217  0.5030599  )
        39           O   tau(  39) = (  0.2227192  0.4439518  0.0030957  )
        40           O   tau(  40) = (  0.2205466  0.4449341  0.5024582  )
        41           O   tau(  41) = (  0.2225103  0.7778141  0.0010729  )
        42           O   tau(  42) = (  0.2217627  0.7770318  0.5048373  )
        43           O   tau(  43) = (  0.5561054  0.1108351  0.0028103  )
        44           O   tau(  44) = (  0.5550053  0.1111499  0.5030246  )
        45           O   tau(  45) = (  0.5543965  0.4435621  0.0031635  )
        46           O   tau(  46) = (  0.5551721  0.4441310  0.5028802  )
        47           O   tau(  47) = (  0.5555021  0.7766430  0.0046752  )
        48           O   tau(  48) = (  0.5560818  0.7772561  0.4994550  )
        49           O   tau(  49) = (  0.8881473  0.1085418  0.0014233  )
        50           O   tau(  50) = (  0.8867911  0.1107847  0.5023417  )
        51           O   tau(  51) = (  0.8888843  0.4439413  0.0003932  )
        52           O   tau(  52) = (  0.8892911  0.4439381  0.5057943  )
        53           O   tau(  53) = (  0.8875530  0.7778714  0.0031141  )
        54           O   tau(  54) = (  0.8896032  0.7774677  0.5023719  )
        55           O   tau(  55) = (  0.1111869  0.2228631  0.2530326  )
        56           O   tau(  56) = (  0.1116407  0.2223735  0.7526477  )
        57           O   tau(  57) = (  0.1109839  0.5554309  0.2532972  )
        58           O   tau(  58) = (  0.1118253  0.5576667  0.7513376  )
        59           O   tau(  59) = (  0.1104372  0.8884592  0.2516222  )
        60           O   tau(  60) = (  0.1118503  0.8890043  0.7556873  )
        61           O   tau(  61) = (  0.4451989  0.2229256  0.2515144  )
        62           O   tau(  62) = (  0.4451771  0.2231274  0.7546649  )
        63           O   tau(  63) = (  0.4456848  0.5559156  0.2549148  )
        64           O   tau(  64) = (  0.4449931  0.5562767  0.7504120  )
        65           O   tau(  65) = (  0.4435470  0.8888744  0.2529250  )
        66           O   tau(  66) = (  0.4463168  0.8897772  0.7530546  )
        67           O   tau(  67) = (  0.7789447  0.2227594  0.2535872  )
        68           O   tau(  68) = (  0.7793100  0.2226319  0.7505331  )
        69           O   tau(  69) = (  0.7776656  0.5551211  0.2528486  )
        70           O   tau(  70) = (  0.7768066  0.5555533  0.7528540  )
        71           O   tau(  71) = (  0.7764425  0.8905487  0.2522220  )
        72           O   tau(  72) = (  0.7785313  0.8892568  0.7517098  )

     number of k points=    36  Marzari-Vanderbilt smearing, width (Ry)=  0.0010
                       cart. coord. in units 2pi/alat
        k(    1) = (   0.0000000   0.0000000   0.0000000), wk =   0.0312500
        k(    2) = (   0.0000973  -0.0000600   0.2351764), wk =   0.0625000
        k(    3) = (  -0.0001947   0.0001200  -0.4703528), wk =   0.0312500
        k(    4) = (  -0.0001183   0.2885683  -0.0000741), wk =   0.0625000
        k(    5) = (  -0.0000209   0.2885082   0.2351023), wk =   0.0625000
        k(    6) = (  -0.0003129   0.2886883  -0.4704269), wk =   0.0625000
        k(    7) = (  -0.0002156   0.2886283  -0.2352505), wk =   0.0625000
        k(    8) = (   0.0002365  -0.5771365   0.0001481), wk =   0.0312500
        k(    9) = (   0.0003339  -0.5771965   0.2353245), wk =   0.0625000
        k(   10) = (   0.0000418  -0.5770165  -0.4702047), wk =   0.0312500
        k(   11) = (   0.2499410   0.1441813   0.0000669), wk =   0.0625000
        k(   12) = (   0.2500383   0.1441212   0.2352433), wk =   0.0625000
        k(   13) = (   0.2497463   0.1443013  -0.4702860), wk =   0.0625000
        k(   14) = (   0.2498437   0.1442413  -0.2351095), wk =   0.0625000
        k(   15) = (   0.2498227   0.4327495  -0.0000072), wk =   0.0625000
        k(   16) = (   0.2499201   0.4326895   0.2351692), wk =   0.0625000
        k(   17) = (   0.2496281   0.4328696  -0.4703600), wk =   0.0625000
        k(   18) = (   0.2497254   0.4328095  -0.2351836), wk =   0.0625000
        k(   19) = (   0.2501775  -0.4329553   0.0002150), wk =   0.0625000
        k(   20) = (   0.2502749  -0.4330153   0.2353914), wk =   0.0625000
        k(   21) = (   0.2499828  -0.4328352  -0.4701378), wk =   0.0625000
        k(   22) = (   0.2500802  -0.4328952  -0.2349614), wk =   0.0625000
        k(   23) = (   0.2500593  -0.1443870   0.0001409), wk =   0.0625000
        k(   24) = (   0.2501566  -0.1444470   0.2353173), wk =   0.0625000
        k(   25) = (   0.2498646  -0.1442670  -0.4702119), wk =   0.0625000
        k(   26) = (   0.2499619  -0.1443270  -0.2350355), wk =   0.0625000
        k(   27) = (  -0.4998820  -0.2883625  -0.0001337), wk =   0.0312500
        k(   28) = (  -0.4997847  -0.2884225   0.2350427), wk =   0.0625000
        k(   29) = (  -0.5000767  -0.2882425  -0.4704866), wk =   0.0312500
        k(   30) = (  -0.5000003   0.0002057  -0.0002078), wk =   0.0625000
        k(   31) = (  -0.4999029   0.0001457   0.2349686), wk =   0.0625000
        k(   32) = (  -0.5001949   0.0003258  -0.4705606), wk =   0.0625000
        k(   33) = (  -0.5000976   0.0002658  -0.2353842), wk =   0.0625000
        k(   34) = (  -0.4996455  -0.8654990   0.0000144), wk =   0.0312500
        k(   35) = (  -0.4995481  -0.8655591   0.2351908), wk =   0.0625000
        k(   36) = (  -0.4998402  -0.8653790  -0.4703384), wk =   0.0312500

                       cryst. coord.
        k(    1) = (   0.0000000   0.0000000   0.0000000), wk =   0.0312500
        k(    2) = (   0.0000000  -0.0000000   0.2500000), wk =   0.0625000
        k(    3) = (  -0.0000000   0.0000000  -0.5000000), wk =   0.0312500
        k(    4) = (   0.0000000   0.2500000  -0.0000000), wk =   0.0625000
        k(    5) = (   0.0000000   0.2500000   0.2500000), wk =   0.0625000
        k(    6) = (  -0.0000000   0.2500000  -0.5000000), wk =   0.0625000
        k(    7) = (  -0.0000000   0.2500000  -0.2500000), wk =   0.0625000
        k(    8) = (  -0.0000000  -0.5000000   0.0000000), wk =   0.0312500
        k(    9) = (  -0.0000000  -0.5000000   0.2500000), wk =   0.0625000
        k(   10) = (  -0.0000000  -0.5000000  -0.5000000), wk =   0.0312500
        k(   11) = (   0.2500000  -0.0000000  -0.0000000), wk =   0.0625000
        k(   12) = (   0.2500000  -0.0000000   0.2500000), wk =   0.0625000
        k(   13) = (   0.2500000  -0.0000000  -0.5000000), wk =   0.0625000
        k(   14) = (   0.2500000  -0.0000000  -0.2500000), wk =   0.0625000
        k(   15) = (   0.2500000   0.2500000  -0.0000000), wk =   0.0625000
        k(   16) = (   0.2500000   0.2500000   0.2500000), wk =   0.0625000
        k(   17) = (   0.2500000   0.2500000  -0.5000000), wk =   0.0625000
        k(   18) = (   0.2500000   0.2500000  -0.2500000), wk =   0.0625000
        k(   19) = (   0.2500000  -0.5000000  -0.0000000), wk =   0.0625000
        k(   20) = (   0.2500000  -0.5000000   0.2500000), wk =   0.0625000
        k(   21) = (   0.2500000  -0.5000000  -0.5000000), wk =   0.0625000
        k(   22) = (   0.2500000  -0.5000000  -0.2500000), wk =   0.0625000
        k(   23) = (   0.2500000  -0.2500000   0.0000000), wk =   0.0625000
        k(   24) = (   0.2500000  -0.2500000   0.2500000), wk =   0.0625000
        k(   25) = (   0.2500000  -0.2500000  -0.5000000), wk =   0.0625000
        k(   26) = (   0.2500000  -0.2500000  -0.2500000), wk =   0.0625000
        k(   27) = (  -0.5000000   0.0000000   0.0000000), wk =   0.0312500
        k(   28) = (  -0.5000000   0.0000000   0.2500000), wk =   0.0625000
        k(   29) = (  -0.5000000   0.0000000  -0.5000000), wk =   0.0312500
        k(   30) = (  -0.5000000   0.2500000   0.0000000), wk =   0.0625000
        k(   31) = (  -0.5000000   0.2500000   0.2500000), wk =   0.0625000
        k(   32) = (  -0.5000000   0.2500000  -0.5000000), wk =   0.0625000
        k(   33) = (  -0.5000000   0.2500000  -0.2500000), wk =   0.0625000
        k(   34) = (  -0.5000000  -0.5000000   0.0000000), wk =   0.0312500
        k(   35) = (  -0.5000000  -0.5000000   0.2500000), wk =   0.0625000
        k(   36) = (  -0.5000000  -0.5000000  -0.5000000), wk =   0.0312500

     Dense  grid:  1087527 G-vectors     FFT dimensions: ( 135, 135, 144)

     Smooth grid:   361709 G-vectors     FFT dimensions: (  96,  96, 100)

     Dynamical RAM for                 wfc:      20.60 MB

     Dynamical RAM for     wfc (w. buffer):     123.58 MB

     Dynamical RAM for           str. fact:       3.11 MB

     Dynamical RAM for           local pot:       0.00 MB

     Dynamical RAM for          nlocal pot:      48.69 MB

     Dynamical RAM for                qrad:      21.02 MB

     Dynamical RAM for          rho,v,vnew:       6.87 MB

     Dynamical RAM for               rhoin:       2.29 MB

     Dynamical RAM for            rho*nmix:      16.59 MB

     Dynamical RAM for           G-vectors:       4.06 MB

     Dynamical RAM for          h,s,v(r/c):      41.84 MB

     Dynamical RAM for          <psi|beta>:       8.24 MB

     Dynamical RAM for                 psi:      82.39 MB

     Dynamical RAM for                hpsi:      82.39 MB

     Dynamical RAM for                spsi:      82.39 MB

     Dynamical RAM for      wfcinit/wfcrot:      48.82 MB

     Dynamical RAM for           addusdens:      32.15 MB

     Dynamical RAM for          addusforce:      55.15 MB

     Dynamical RAM for         addusstress:      28.97 MB

     Estimated static dynamical RAM per process >     236.62 MB

     Estimated max dynamical RAM per process >     533.87 MB

     Estimated total dynamical RAM >      66.73 GB

     Check: negative core charge=   -0.000002

     Initial potential from superposition of free atoms

     starting charge  791.79390, renormalised to  796.00000
     Starting wfcs are  500 randomized atomic wfcs

     total cpu time spent up to now is       19.7 secs

     Self-consistent Calculation

     iteration #  1     ecut=    60.00 Ry     beta= 0.50
     Davidson diagonalization with overlap
     ethr =  1.00E-02,  avg # of iterations =  4.9

     total cpu time spent up to now is       79.2 secs

     total energy              =  -13054.16065801 Ry
     Harris-Foulkes estimate   =  -13069.51312363 Ry
     estimated scf accuracy    <      22.91627774 Ry

     iteration #  2     ecut=    60.00 Ry     beta= 0.50
     Davidson diagonalization with overlap
     ethr =  2.88E-03,  avg # of iterations =  3.1

     total cpu time spent up to now is      145.9 secs

     total energy              =  -13061.11256751 Ry
     Harris-Foulkes estimate   =  -13066.70519955 Ry
     estimated scf accuracy    <      12.80259103 Ry

     iteration #  3     ecut=    60.00 Ry     beta= 0.50
     Davidson diagonalization with overlap
     ethr =  1.61E-03,  avg # of iterations =  2.0

     total cpu time spent up to now is      191.8 secs

     total energy              =  -13063.36965418 Ry
     Harris-Foulkes estimate   =  -13063.44708598 Ry
     estimated scf accuracy    <       0.21386341 Ry

     iteration #  4     ecut=    60.00 Ry     beta= 0.50
     Davidson diagonalization with overlap
     ethr =  2.69E-05,  avg # of iterations =  5.9

     total cpu time spent up to now is      276.0 secs

     total energy              =  -13063.38716645 Ry
     Harris-Foulkes estimate   =  -13063.43035637 Ry
     estimated scf accuracy    <       0.12160136 Ry

     iteration #  5     ecut=    60.00 Ry     beta= 0.50
     Davidson diagonalization with overlap
     ethr =  1.53E-05,  avg # of iterations =  4.6

     total cpu time spent up to now is      341.2 secs

     total energy              =  -13063.40614181 Ry
     Harris-Foulkes estimate   =  -13063.40640400 Ry
     estimated scf accuracy    <       0.00300536 Ry

     iteration #  6     ecut=    60.00 Ry     beta= 0.50
     Davidson diagonalization with overlap
     ethr =  3.78E-07,  avg # of iterations =  4.9

     total cpu time spent up to now is      420.7 secs

     total energy              =  -13063.40652885 Ry
     Harris-Foulkes estimate   =  -13063.40662010 Ry
     estimated scf accuracy    <       0.00048406 Ry

     iteration #  7     ecut=    60.00 Ry     beta= 0.50
     Davidson diagonalization with overlap
     ethr =  6.08E-08,  avg # of iterations =  2.0

     total cpu time spent up to now is      463.4 secs

     total energy              =  -13063.40663130 Ry
     Harris-Foulkes estimate   =  -13063.40665572 Ry
     estimated scf accuracy    <       0.00013837 Ry

     iteration #  8     ecut=    60.00 Ry     beta= 0.50
     Davidson diagonalization with overlap
     ethr =  1.74E-08,  avg # of iterations =  2.0

     total cpu time spent up to now is      504.5 secs

     total energy              =  -13063.40666094 Ry
     Harris-Foulkes estimate   =  -13063.40665760 Ry
     estimated scf accuracy    <       0.00001402 Ry

     iteration #  9     ecut=    60.00 Ry     beta= 0.50
     Davidson diagonalization with overlap
     ethr =  1.76E-09,  avg # of iterations =  2.0

     total cpu time spent up to now is      546.4 secs

     total energy              =  -13063.40666308 Ry
     Harris-Foulkes estimate   =  -13063.40666305 Ry
     estimated scf accuracy    <       0.00000173 Ry

     iteration # 10     ecut=    60.00 Ry     beta= 0.50
     Davidson diagonalization with overlap
     ethr =  2.17E-10,  avg # of iterations =  2.0

     total cpu time spent up to now is      590.6 secs

     total energy              =  -13063.40666345 Ry
     Harris-Foulkes estimate   =  -13063.40666351 Ry
     estimated scf accuracy    <       0.00000044 Ry

     iteration # 11     ecut=    60.00 Ry     beta= 0.50
     Davidson diagonalization with overlap
     ethr =  5.56E-11,  avg # of iterations =  2.0

     total cpu time spent up to now is      632.0 secs

     total energy              =  -13063.40666354 Ry
     Harris-Foulkes estimate   =  -13063.40666354 Ry
     estimated scf accuracy    <       0.00000003 Ry

     iteration # 12     ecut=    60.00 Ry     beta= 0.50
     Davidson diagonalization with overlap
     ethr =  3.80E-12,  avg # of iterations =  2.0

     total cpu time spent up to now is      678.9 secs

     End of self-consistent calculation

          k = 0.0000 0.0000 0.0000 ( 45179 PWs)   bands (ev):

  -115.7546-115.7373-115.7284-115.7175-115.7140-115.7068-115.6970-115.6793
  -115.6761-115.6754-115.6718-115.6687-115.6663-115.6656-115.6596-115.6485
  -115.6379-115.6344-115.6268-115.6080-115.5802-115.5692 -70.2064 -70.1878
   -70.1812 -70.1683 -70.1622 -70.1540 -70.1492 -70.1354 -70.1247 -70.1222
   -70.1193 -70.1182 -70.1139 -70.1128 -70.1124 -70.0959 -70.0860 -70.0804
   -70.0769 -70.0650 -70.0616 -70.0580 -70.0488 -70.0431 -70.0381 -70.0345
   -70.0314 -70.0290 -70.0249 -70.0240 -70.0234 -70.0227 -70.0200 -70.0124
   -70.0066 -70.0034 -69.9894 -69.9879 -69.9878 -69.9845 -69.9837 -69.9822
   -69.9817 -69.9816 -69.9814 -69.9804 -69.9776 -69.9742 -69.9731 -69.9727
   -69.9701 -69.9651 -69.9606 -69.9578 -69.9516 -69.9483 -69.9443 -69.9425
   -69.9387 -69.9321 -69.9177 -69.9163 -69.8916 -69.8848 -69.8814 -69.8738
   -65.0586 -65.0430 -65.0301 -65.0200 -65.0099 -65.0030 -65.0009 -65.0002
   -64.9702 -64.9699 -64.9520 -64.9490 -64.9009 -64.8980 -32.0963 -32.0798
   -32.0675 -32.0579 -32.0487 -32.0419 -32.0354 -32.0330 -32.0314 -32.0307
   -32.0202 -32.0143 -32.0092 -32.0044 -32.0035 -31.9985 -31.9965 -31.9888
   -31.9843 -31.9837 -31.9832 -31.9793 -31.9769 -31.9765 -31.9755 -31.9750
   -31.9684 -31.9671 -31.9461 -31.9444 -31.9435 -31.9389 -31.9354 -31.9318
   -31.9260 -31.9240 -31.9231 -31.9155 -31.8747 -31.8709 -31.8704 -31.8682
   -10.3087 -10.0275 -10.0141  -9.8521  -9.8414  -9.8283  -9.7965  -9.7607
    -9.7416  -9.6964  -9.6805  -9.6389  -9.6161  -9.5921  -9.5615  -9.5183
    -9.5100  -9.4911  -9.4856  -9.4606  -9.4548  -9.4352  -9.3929  -9.3754
    -9.3277  -9.3137  -9.2935  -9.2695  -9.2413  -9.1636  -9.1504  -9.0936
    -9.0625  -9.0489  -9.0313  -8.9864   1.2577   1.2754   1.2994   1.3459
     1.3563   1.3740   1.4011   1.4333   1.4538   1.4927   1.5126   1.5313
     1.5527   1.5720   1.5874   1.6006   1.6162   1.6658   1.6927   1.7332
     1.7377   1.7895   1.8024   1.8087   1.8198   1.8698   1.9117   1.9464
     1.9486   2.0079   2.0299   2.0372   2.0583   2.0630   2.0830   2.0975
     2.1147   2.1304   2.1451   2.1698   2.1813   2.1962   2.1984   2.2106
     2.2183   2.2279   2.2452   2.2683   2.2760   2.2857   2.2949   2.3173
     2.3427   2.3542   2.3783   2.4073   2.4267   2.4285   2.4379   2.4703
     2.4734   2.4841   2.5070   2.5277   2.5345   2.5411   2.5533   2.5708
     2.5813   2.6051   2.6217   2.6244   2.6401   2.6573   2.6761   2.6851
     2.6980   2.7150   2.7212   2.7397   2.7624   2.7728   2.7904   2.7934
     2.8159   2.8424   2.8471   2.8652   2.8698   2.8804   2.8883   2.9149
     2.9215   2.9370   2.9462   2.9549   2.9645   2.9827   2.9903   2.9913
     2.9993   3.0156   3.0299   3.0306   3.0708   3.0772   3.0873   3.0951
     3.1566   3.1658   3.1864   3.1957   3.2128   3.5988   3.6201   3.6851
     3.7053   3.7158   3.7316   3.7701   3.7922   3.8145   3.8319   3.8542
     3.9014   3.9037   3.9257   3.9425   3.9649   3.9838   4.0064   4.0432
     4.0829   4.1095   4.2596   4.2839   4.3603   4.4001   4.4141   4.4420
     4.4472   4.4790   4.5036   4.5313   4.5464   4.5847   4.5988   4.6332
     4.6595   4.6856   4.7184   4.8032   4.8065   4.8283   4.8396   4.8870
     4.9438   4.9869   5.0489   5.4315   5.4656   5.5822   5.6053   5.6441
     5.6541   5.6908   5.7355   5.7868   5.8048   5.8241   5.8438   5.8671
     5.8798   5.9084   5.9263   5.9362   5.9404   5.9563   5.9770   6.0121
     6.0421   6.0580   6.1203   6.1577   6.1871   6.2276   6.2464   6.2621
     6.2890   6.3134   6.3298   6.3543   6.3729   6.3792   6.4128   6.5029
     6.5205   6.5359   6.5384   6.5532   6.5667   6.5695   6.5883   6.6071
     6.6294   6.6425   6.6623   6.6983   6.8555   6.8801   6.8894   6.9049
     7.0279   7.0414   7.0733   7.0996   7.2241   7.2396   9.0415  11.3948
    11.4507  12.1865  12.2125  12.2598  12.2925  12.3654  12.4408  12.8340
    12.9310  12.9406  12.9672  12.9821  13.0530  13.1068  13.1491  13.2042
    13.2434  13.3287  13.3654  13.5568  14.8409  14.9065  15.0391  15.0846
    15.1019  15.1194  15.1758  15.2487  15.2960  15.3258  15.3761  15.3966
    15.4227  15.4904  15.5056  15.5160  15.5501  15.5728  15.5891  15.6029
    15.6329  15.6575  15.6824  15.7388  15.7926  15.8197  15.8565  15.9074
    16.0318  16.1816  16.2066  16.2916  16.3638  16.4002  16.4198  16.4365
    16.4722  16.5458  16.8471  16.8667  16.9952  17.1317  17.1890  17.2870
    17.3900  17.4728  17.5367  17.6023  17.6378  17.6942  17.7341  17.7528
    17.7817  17.8777  17.8815  17.9189  17.9722  17.9916

     occupation numbers 
     1.0000   1.0000   1.0000   1.0000   1.0000   1.0000   1.0000   1.0000
     1.0000   1.0000   1.0000   1.0000   1.0000   1.0000   1.0000   1.0000
     1.0000   1.0000   1.0000   1.0000   1.0000   1.0000   1.0000   1.0000
     1.0000   1.0000   1.0000   1.0000   1.0000   1.0000   1.0000   1.0000
     1.0000   1.0000   1.0000   1.0000   1.0000   1.0000   1.0000   1.0000
     1.0000   1.0000   1.0000   1.0000   1.0000   1.0000   1.0000   1.0000
     1.0000   1.0000   1.0000   1.0000   1.0000   1.0000   1.0000   1.0000
     1.0000   1.0000   1.0000   1.0000   1.0000   1.0000   1.0000   1.0000
     1.0000   1.0000   1.0000   1.0000   1.0000   1.0000   1.0000   1.0000
     1.0000   1.0000   1.0000   1.0000   1.0000   1.0000   1.0000   1.0000
     1.0000   1.0000   1.0000   1.0000   1.0000   1.0000   1.0000   1.0000
     1.0000   1.0000   1.0000   1.0000   1.0000   1.0000   1.0000   1.0000
     1.0000   1.0000   1.0000   1.0000   1.0000   1.0000   1.0000   1.0000
     1.0000   1.0000   1.0000   1.0000   1.0000   1.0000   1.0000   1.0000
     1.0000   1.0000   1.0000   1.0000   1.0000   1.0000   1.0000   1.0000
     1.0000   1.0000   1.0000   1.0000   1.0000   1.0000   1.0000   1.0000
     1.0000   1.0000   1.0000   1.0000   1.0000   1.0000   1.0000   1.0000
     1.0000   1.0000   1.0000   1.0000   1.0000   1.0000   1.0000   1.0000
     1.0000   1.0000   1.0000   1.0000   1.0000   1.0000   1.0000   1.0000
     1.0000   1.0000   1.0000   1.0000   1.0000   1.0000   1.0000   1.0000
     1.0000   1.0000   1.0000   1.0000   1.0000   1.0000   1.0000   1.0000
     1.0000   1.0000   1.0000   1.0000   1.0000   1.0000   1.0000   1.0000
     1.0000   1.0000   1.0000   1.0000   1.0000   1.0000   1.0000   1.0000
     1.0000   1.0000   1.0000   1.0000   1.0000   1.0000   1.0000   1.0000
     1.0000   1.0000   1.0000   1.0000   1.0000   1.0000   1.0000   1.0000
     1.0000   1.0000   1.0000   1.0000   1.0000   1.0000   1.0000   1.0000
     1.0000   1.0000   1.0000   1.0000   1.0000   1.0000   1.0000   1.0000
     1.0000   1.0000   1.0000   1.0000   1.0000   1.0000   1.0000   1.0000
     1.0000   1.0000   1.0000   1.0000   1.0000   1.0000   1.0000   1.0000
     1.0000   1.0000   1.0000   1.0000   1.0000   1.0000   1.0000   1.0000
     1.0000   1.0000   1.0000   1.0000   1.0000   1.0000   1.0000   1.0000
     1.0000   1.0000   1.0000   1.0000   1.0000   1.0000   1.0000   1.0000
     1.0000   1.0000   1.0000   1.0000   1.0000   1.0000   1.0000   1.0000
     1.0000   1.0000   1.0000   1.0000   1.0000   1.0000   1.0000   1.0000
     1.0000   1.0000   1.0000   1.0000   1.0000   1.0000   1.0000   1.0000
     1.0000   1.0000   1.0000   1.0000   1.0000   1.0000   1.0000   1.0000
     1.0000   1.0000   1.0000   1.0000   1.0000   1.0000   1.0000   1.0000
     1.0000   1.0000   1.0000   1.0000   1.0000   1.0000   1.0000   1.0000
     1.0000   1.0000   1.0000   1.0000   1.0000   1.0000   1.0000   1.0000
     1.0000   1.0000   1.0000   1.0000   1.0000   1.0000   1.0000   1.0000
     1.0000   1.0000   1.0000   1.0000   1.0000   1.0000   1.0000   1.0000
     1.0000   1.0000   1.0000   1.0000   1.0000   1.0000   1.0000   1.0000
     1.0000   1.0000   1.0000   1.0000   1.0000   1.0000   1.0000   1.0000
     1.0000   1.0000   1.0000   1.0000   1.0000   1.0000   1.0000   1.0000
     1.0000   1.0000   1.0000   1.0000   1.0000   1.0000   1.0000   1.0000
     1.0000   1.0000   1.0000   1.0000   1.0000   1.0000   1.0000   1.0000
     1.0000   1.0000   1.0000   1.0000   1.0000   1.0000   1.0000   1.0000
     1.0000   1.0000   1.0000   1.0000   1.0000   1.0000   1.0000   1.0000
     1.0000   1.0000   1.0000   1.0000   1.0000   1.0000   1.0000   1.0000
     1.0000   1.0000   1.0000   1.0000   1.0000   1.0000   0.0000   0.0000
     0.0000   0.0000   0.0000   0.0000   0.0000   0.0000   0.0000   0.0000
     0.0000   0.0000   0.0000   0.0000   0.0000   0.0000   0.0000   0.0000
     0.0000   0.0000   0.0000   0.0000   0.0000   0.0000   0.0000   0.0000
     0.0000   0.0000   0.0000   0.0000   0.0000   0.0000   0.0000   0.0000
     0.0000   0.0000   0.0000   0.0000   0.0000   0.0000   0.0000   0.0000
     0.0000   0.0000   0.0000   0.0000   0.0000   0.0000   0.0000   0.0000
     0.0000   0.0000   0.0000   0.0000   0.0000   0.0000   0.0000   0.0000
     0.0000   0.0000   0.0000   0.0000   0.0000   0.0000   0.0000   0.0000
     0.0000   0.0000   0.0000   0.0000   0.0000   0.0000   0.0000   0.0000
     0.0000   0.0000   0.0000   0.0000   0.0000   0.0000

          k = 0.0001-0.0001 0.2352 ( 45189 PWs)   bands (ev):

  -115.7546-115.7373-115.7284-115.7175-115.7140-115.7068-115.6970-115.6793
  -115.6761-115.6754-115.6718-115.6687-115.6663-115.6656-115.6596-115.6485
  -115.6379-115.6344-115.6268-115.6080-115.5802-115.5692 -70.2064 -70.1878
   -70.1812 -70.1683 -70.1622 -70.1540 -70.1492 -70.1354 -70.1247 -70.1222
   -70.1193 -70.1182 -70.1139 -70.1128 -70.1124 -70.0959 -70.0860 -70.0804
   -70.0769 -70.0650 -70.0616 -70.0580 -70.0488 -70.0431 -70.0381 -70.0345
   -70.0314 -70.0290 -70.0249 -70.0240 -70.0234 -70.0227 -70.0200 -70.0124
   -70.0066 -70.0034 -69.9894 -69.9879 -69.9878 -69.9845 -69.9837 -69.9822
   -69.9817 -69.9816 -69.9814 -69.9804 -69.9776 -69.9742 -69.9731 -69.9727
   -69.9701 -69.9651 -69.9606 -69.9578 -69.9516 -69.9483 -69.9443 -69.9425
   -69.9387 -69.9321 -69.9177 -69.9163 -69.8916 -69.8848 -69.8814 -69.8738
   -65.0586 -65.0430 -65.0301 -65.0200 -65.0099 -65.0030 -65.0009 -65.0002
   -64.9702 -64.9699 -64.9520 -64.9490 -64.9009 -64.8980 -32.0963 -32.0798
   -32.0675 -32.0579 -32.0487 -32.0419 -32.0354 -32.0330 -32.0314 -32.0307
   -32.0202 -32.0143 -32.0092 -32.0044 -32.0035 -31.9985 -31.9965 -31.9888
   -31.9843 -31.9837 -31.9832 -31.9793 -31.9769 -31.9765 -31.9755 -31.9750
   -31.9684 -31.9671 -31.9461 -31.9444 -31.9435 -31.9389 -31.9354 -31.9318
   -31.9260 -31.9240 -31.9231 -31.9155 -31.8747 -31.8709 -31.8704 -31.8682
   -10.2898 -10.1092  -9.9544  -9.8596  -9.8398  -9.8110  -9.7842  -9.7516
    -9.7389  -9.7018  -9.6864  -9.6598  -9.6309  -9.5967  -9.5848  -9.5186
    -9.5120  -9.4843  -9.4671  -9.4566  -9.4350  -9.4226  -9.3992  -9.3744
    -9.3297  -9.3184  -9.2918  -9.2703  -9.2405  -9.1666  -9.1496  -9.0928
    -9.0638  -9.0494  -9.0329  -8.9883   1.2556   1.2739   1.3002   1.3437
     1.3580   1.3740   1.4045   1.4342   1.4541   1.4897   1.5150   1.5414
     1.5586   1.5767   1.5881   1.6035   1.6232   1.6688   1.6909   1.7315
     1.7383   1.7872   1.8067   1.8168   1.8219   1.8779   1.9179   1.9419
     1.9546   2.0030   2.0183   2.0444   2.0597   2.0677   2.0781   2.0927
     2.1179   2.1397   2.1598   2.1752   2.1824   2.2005   2.2059   2.2147
     2.2271   2.2368   2.2428   2.2747   2.2863   2.2921   2.2991   2.3111
     2.3419   2.3523   2.3720   2.3803   2.4094   2.4245   2.4308   2.4543
     2.4622   2.4803   2.4916   2.5121   2.5202   2.5396   2.5499   2.5641
     2.5744   2.5934   2.6151   2.6229   2.6333   2.6522   2.6638   2.6817
     2.6881   2.7036   2.7192   2.7353   2.7509   2.7613   2.7798   2.7934
     2.7987   2.8317   2.8501   2.8672   2.8782   2.8846   2.9082   2.9172
     2.9218   2.9387   2.9507   2.9568   2.9650   2.9749   2.9823   3.0029
     3.0101   3.0166   3.0270   3.0303   3.0592   3.0740   3.0842   3.1027
     3.1802   3.1929   3.2265   3.2492   3.2979   3.5160   3.5656   3.6136
     3.6928   3.7186   3.7365   3.7701   3.7840   3.7974   3.8242   3.8509
     3.8813   3.8950   3.9122   3.9366   3.9612   3.9851   3.9924   4.0419
     4.0897   4.1179   4.2330   4.2622   4.2905   4.3441   4.3648   4.4024
     4.4357   4.4651   4.4961   4.5061   4.5379   4.5849   4.6556   4.6881
     4.7246   4.7949   4.8110   4.8385   4.8618   4.9061   4.9602   4.9815
     5.0112   5.0526   5.3062   5.4167   5.4654   5.5433   5.5730   5.6004
     5.6259   5.6439   5.6777   5.7154   5.7244   5.7611   5.7662   5.8169
     5.8675   5.8751   5.9134   5.9610   5.9784   6.0075   6.0158   6.0328
     6.0383   6.0725   6.0863   6.1048   6.1394   6.1503   6.1888   6.2347
     6.2629   6.2767   6.3286   6.3504   6.3725   6.3815   6.4050   6.4306
     6.4794   6.5202   6.5501   6.5741   6.6075   6.6301   6.6458   6.6670
     6.6741   6.7070   6.7179   6.7444   6.7573   6.8100   6.8868   6.8990
     7.0012   7.0164   7.1049   7.1232   7.2192   7.2341   9.3168  10.7007
    11.9508  12.1948  12.2244  12.2772  12.2989  12.4333  12.4515  12.5382
    12.5658  12.6526  12.7191  12.7865  12.9171  13.2146  13.4933  13.5364
    13.6437  13.6783  13.7857  13.8879  14.6127  14.6717  14.7423  14.7891
    14.8606  15.0252  15.0893  15.1594  15.3566  15.4067  15.4199  15.4250
    15.4507  15.4715  15.5044  15.5242  15.5633  15.5864  15.6374  15.6437
    15.6706  15.7195  15.7572  15.8059  15.8361  15.8743  15.9282  16.0935
    16.1461  16.1799  16.2094  16.2633  16.2924  16.3482  16.4208  16.4357
    16.4685  16.5773  16.7444  16.8943  16.9253  16.9918  17.0426  17.1594
    17.3282  17.4318  17.4803  17.5043  17.5568  17.6214  17.6637  17.7306
    17.7932  17.8328  17.9050  17.9250  18.0197  18.0463

     occupation numbers 
     1.0000   1.0000   1.0000   1.0000   1.0000   1.0000   1.0000   1.0000
     1.0000   1.0000   1.0000   1.0000   1.0000   1.0000   1.0000   1.0000
     1.0000   1.0000   1.0000   1.0000   1.0000   1.0000   1.0000   1.0000
     1.0000   1.0000   1.0000   1.0000   1.0000   1.0000   1.0000   1.0000
     1.0000   1.0000   1.0000   1.0000   1.0000   1.0000   1.0000   1.0000
     1.0000   1.0000   1.0000   1.0000   1.0000   1.0000   1.0000   1.0000
     1.0000   1.0000   1.0000   1.0000   1.0000   1.0000   1.0000   1.0000
     1.0000   1.0000   1.0000   1.0000   1.0000   1.0000   1.0000   1.0000
     1.0000   1.0000   1.0000   1.0000   1.0000   1.0000   1.0000   1.0000
     1.0000   1.0000   1.0000   1.0000   1.0000   1.0000   1.0000   1.0000
     1.0000   1.0000   1.0000   1.0000   1.0000   1.0000   1.0000   1.0000
     1.0000   1.0000   1.0000   1.0000   1.0000   1.0000   1.0000   1.0000
     1.0000   1.0000   1.0000   1.0000   1.0000   1.0000   1.0000   1.0000
     1.0000   1.0000   1.0000   1.0000   1.0000   1.0000   1.0000   1.0000
     1.0000   1.0000   1.0000   1.0000   1.0000   1.0000   1.0000   1.0000
     1.0000   1.0000   1.0000   1.0000   1.0000   1.0000   1.0000   1.0000
     1.0000   1.0000   1.0000   1.0000   1.0000   1.0000   1.0000   1.0000
     1.0000   1.0000   1.0000   1.0000   1.0000   1.0000   1.0000   1.0000
     1.0000   1.0000   1.0000   1.0000   1.0000   1.0000   1.0000   1.0000
     1.0000   1.0000   1.0000   1.0000   1.0000   1.0000   1.0000   1.0000
     1.0000   1.0000   1.0000   1.0000   1.0000   1.0000   1.0000   1.0000
     1.0000   1.0000   1.0000   1.0000   1.0000   1.0000   1.0000   1.0000
     1.0000   1.0000   1.0000   1.0000   1.0000   1.0000   1.0000   1.0000
     1.0000   1.0000   1.0000   1.0000   1.0000   1.0000   1.0000   1.0000
     1.0000   1.0000   1.0000   1.0000   1.0000   1.0000   1.0000   1.0000
     1.0000   1.0000   1.0000   1.0000   1.0000   1.0000   1.0000   1.0000
     1.0000   1.0000   1.0000   1.0000   1.0000   1.0000   1.0000   1.0000
     1.0000   1.0000   1.0000   1.0000   1.0000   1.0000   1.0000   1.0000
     1.0000   1.0000   1.0000   1.0000   1.0000   1.0000   1.0000   1.0000
     1.0000   1.0000   1.0000   1.0000   1.0000   1.0000   1.0000   1.0000
     1.0000   1.0000   1.0000   1.0000   1.0000   1.0000   1.0000   1.0000
     1.0000   1.0000   1.0000   1.0000   1.0000   1.0000   1.0000   1.0000
     1.0000   1.0000   1.0000   1.0000   1.0000   1.0000   1.0000   1.0000
     1.0000   1.0000   1.0000   1.0000   1.0000   1.0000   1.0000   1.0000
     1.0000   1.0000   1.0000   1.0000   1.0000   1.0000   1.0000   1.0000
     1.0000   1.0000   1.0000   1.0000   1.0000   1.0000   1.0000   1.0000
     1.0000   1.0000   1.0000   1.0000   1.0000   1.0000   1.0000   1.0000
     1.0000   1.0000   1.0000   1.0000   1.0000   1.0000   1.0000   1.0000
     1.0000   1.0000   1.0000   1.0000   1.0000   1.0000   1.0000   1.0000
     1.0000   1.0000   1.0000   1.0000   1.0000   1.0000   1.0000   1.0000
     1.0000   1.0000   1.0000   1.0000   1.0000   1.0000   1.0000   1.0000
     1.0000   1.0000   1.0000   1.0000   1.0000   1.0000   1.0000   1.0000
     1.0000   1.0000   1.0000   1.0000   1.0000   1.0000   1.0000   1.0000
     1.0000   1.0000   1.0000   1.0000   1.0000   1.0000   1.0000   1.0000
     1.0000   1.0000   1.0000   1.0000   1.0000   1.0000   1.0000   1.0000
     1.0000   1.0000   1.0000   1.0000   1.0000   1.0000   1.0000   1.0000
     1.0000   1.0000   1.0000   1.0000   1.0000   1.0000   1.0000   1.0000
     1.0000   1.0000   1.0000   1.0000   1.0000   1.0000   1.0000   1.0000
     1.0000   1.0000   1.0000   1.0000   1.0000   1.0000   1.0000   1.0000
     1.0000   1.0000   1.0000   1.0000   1.0000   1.0000   0.0000   0.0000
     0.0000   0.0000   0.0000   0.0000   0.0000   0.0000   0.0000   0.0000
     0.0000   0.0000   0.0000   0.0000   0.0000   0.0000   0.0000   0.0000
     0.0000   0.0000   0.0000   0.0000   0.0000   0.0000   0.0000   0.0000
     0.0000   0.0000   0.0000   0.0000   0.0000   0.0000   0.0000   0.0000
     0.0000   0.0000   0.0000   0.0000   0.0000   0.0000   0.0000   0.0000
     0.0000   0.0000   0.0000   0.0000   0.0000   0.0000   0.0000   0.0000
     0.0000   0.0000   0.0000   0.0000   0.0000   0.0000   0.0000   0.0000
     0.0000   0.0000   0.0000   0.0000   0.0000   0.0000   0.0000   0.0000
     0.0000   0.0000   0.0000   0.0000   0.0000   0.0000   0.0000   0.0000
     0.0000   0.0000   0.0000   0.0000   0.0000   0.0000

          k =-0.0002 0.0001-0.4704 ( 45246 PWs)   bands (ev):

  -115.7546-115.7373-115.7284-115.7175-115.7140-115.7068-115.6970-115.6793
  -115.6761-115.6754-115.6718-115.6687-115.6663-115.6656-115.6596-115.6485
  -115.6379-115.6344-115.6268-115.6080-115.5802-115.5692 -70.2064 -70.1878
   -70.1812 -70.1683 -70.1622 -70.1540 -70.1492 -70.1354 -70.1247 -70.1222
   -70.1193 -70.1182 -70.1139 -70.1128 -70.1124 -70.0959 -70.0860 -70.0804
   -70.0769 -70.0650 -70.0616 -70.0580 -70.0488 -70.0431 -70.0381 -70.0345
   -70.0314 -70.0290 -70.0249 -70.0240 -70.0234 -70.0227 -70.0200 -70.0124
   -70.0066 -70.0034 -69.9894 -69.9879 -69.9878 -69.9845 -69.9837 -69.9822
   -69.9817 -69.9816 -69.9814 -69.9804 -69.9776 -69.9742 -69.9731 -69.9727
   -69.9701 -69.9651 -69.9606 -69.9578 -69.9516 -69.9483 -69.9443 -69.9425
   -69.9387 -69.9321 -69.9177 -69.9163 -69.8916 -69.8848 -69.8814 -69.8738
   -65.0586 -65.0430 -65.0301 -65.0200 -65.0099 -65.0030 -65.0009 -65.0002
   -64.9702 -64.9699 -64.9520 -64.9490 -64.9009 -64.8980 -32.0963 -32.0798
   -32.0675 -32.0579 -32.0487 -32.0420 -32.0354 -32.0330 -32.0314 -32.0306
   -32.0202 -32.0143 -32.0092 -32.0044 -32.0035 -31.9985 -31.9965 -31.9888
   -31.9843 -31.9837 -31.9832 -31.9793 -31.9769 -31.9765 -31.9755 -31.9750
   -31.9684 -31.9671 -31.9461 -31.9444 -31.9435 -31.9389 -31.9354 -31.9318
   -31.9260 -31.9240 -31.9231 -31.9155 -31.8747 -31.8709 -31.8704 -31.8682
   -10.2593 -10.1664  -9.9281  -9.8671  -9.8367  -9.7929  -9.7654  -9.7566
    -9.7350  -9.7126  -9.6866  -9.6611  -9.6577  -9.6056  -9.6033  -9.5189
    -9.5096  -9.4754  -9.4622  -9.4437  -9.4295  -9.4085  -9.3975  -9.3753
    -9.3331  -9.3229  -9.2911  -9.2716  -9.2389  -9.1696  -9.1490  -9.0919
    -9.0652  -9.0498  -9.0346  -8.9902   1.2536   1.2726   1.3009   1.3418
     1.3589   1.3752   1.4069   1.4351   1.4547   1.4882   1.5194   1.5457
     1.5651   1.5807   1.5908   1.6072   1.6308   1.6726   1.6880   1.7290
     1.7390   1.7854   1.8082   1.8234   1.8295   1.8992   1.9093   1.9540
     1.9571   1.9758   2.0039   2.0566   2.0595   2.0735   2.0800   2.0926
     2.1164   2.1533   2.1702   2.1788   2.1875   2.2003   2.2019   2.2294
     2.2441   2.2448   2.2610   2.2772   2.2898   2.2971   2.3058   2.3121
     2.3353   2.3439   2.3509   2.3735   2.4020   2.4095   2.4178   2.4366
     2.4551   2.4755   2.4815   2.5002   2.5182   2.5273   2.5394   2.5461
     2.5517   2.5658   2.6148   2.6244   2.6388   2.6462   2.6580   2.6686
     2.6761   2.7004   2.7097   2.7343   2.7495   2.7623   2.7763   2.7919
     2.8016   2.8290   2.8500   2.8669   2.8714   2.8971   2.9038   2.9116
     2.9213   2.9404   2.9529   2.9576   2.9639   2.9796   2.9957   3.0005
     3.0035   3.0158   3.0210   3.0339   3.0557   3.0752   3.0847   3.1034
     3.1827   3.1995   3.3228   3.3543   3.3997   3.4330   3.4742   3.5643
     3.6637   3.7057   3.7322   3.7509   3.7807   3.7948   3.8271   3.8491
     3.8572   3.8862   3.8937   3.9036   3.9389   3.9565   3.9699   4.0375
     4.1325   4.1749   4.1981   4.2536   4.2786   4.3174   4.3203   4.3490
     4.3970   4.4426   4.4748   4.4982   4.5404   4.5762   4.6476   4.6966
     4.7341   4.8196   4.8577   4.8944   5.1012   5.1417   5.1740   5.2256
     5.2511   5.2593   5.3055   5.3362   5.3594   5.3908   5.4360   5.4568
     5.5408   5.6002   5.6075   5.6293   5.6817   5.7144   5.7329   5.7870
     5.8480   5.8579   5.8862   5.8909   5.9173   5.9507   5.9774   6.0267
     6.0819   6.1114   6.1581   6.1678   6.1838   6.2089   6.2354   6.2514
     6.2623   6.2899   6.2937   6.3145   6.3366   6.3732   6.3756   6.4111
     6.4455   6.4611   6.5207   6.5446   6.5673   6.6270   6.6808   6.6972
     6.7122   6.7216   6.7513   6.7627   6.7750   6.7927   6.8908   6.9103
     6.9839   6.9961   7.1276   7.1423   7.2125   7.2271   9.8950  10.0064
    12.1732  12.2079  12.2461  12.2703  12.3083  12.3326  12.3625  12.4427
    12.4997  12.5621  12.5961  12.6742  12.9275  12.9987  14.0511  14.0842
    14.1075  14.1341  14.1628  14.1981  14.2434  14.2876  14.3411  14.3867
    14.4806  14.5154  15.2088  15.2368  15.2718  15.3267  15.4395  15.4560
    15.4648  15.4780  15.5357  15.5662  15.6037  15.6395  15.6760  15.7148
    15.7552  15.7638  15.8265  15.8628  15.8769  15.9032  16.0190  16.0923
    16.1615  16.2353  16.2657  16.2864  16.3362  16.3441  16.3658  16.4323
    16.4827  16.5346  16.6417  16.6652  16.7010  16.8697  17.0824  17.1829
    17.3010  17.3604  17.4395  17.5348  17.5521  17.5910  17.6102  17.6644
    17.6872  17.7451  17.9015  17.9361  17.9925  18.0155

     occupation numbers 
     1.0000   1.0000   1.0000   1.0000   1.0000   1.0000   1.0000   1.0000
     1.0000   1.0000   1.0000   1.0000   1.0000   1.0000   1.0000   1.0000
     1.0000   1.0000   1.0000   1.0000   1.0000   1.0000   1.0000   1.0000
     1.0000   1.0000   1.0000   1.0000   1.0000   1.0000   1.0000   1.0000
     1.0000   1.0000   1.0000   1.0000   1.0000   1.0000   1.0000   1.0000
     1.0000   1.0000   1.0000   1.0000   1.0000   1.0000   1.0000   1.0000
     1.0000   1.0000   1.0000   1.0000   1.0000   1.0000   1.0000   1.0000
     1.0000   1.0000   1.0000   1.0000   1.0000   1.0000   1.0000   1.0000
     1.0000   1.0000   1.0000   1.0000   1.0000   1.0000   1.0000   1.0000
     1.0000   1.0000   1.0000   1.0000   1.0000   1.0000   1.0000   1.0000
     1.0000   1.0000   1.0000   1.0000   1.0000   1.0000   1.0000   1.0000
     1.0000   1.0000   1.0000   1.0000   1.0000   1.0000   1.0000   1.0000
     1.0000   1.0000   1.0000   1.0000   1.0000   1.0000   1.0000   1.0000
     1.0000   1.0000   1.0000   1.0000   1.0000   1.0000   1.0000   1.0000
     1.0000   1.0000   1.0000   1.0000   1.0000   1.0000   1.0000   1.0000
     1.0000   1.0000   1.0000   1.0000   1.0000   1.0000   1.0000   1.0000
     1.0000   1.0000   1.0000   1.0000   1.0000   1.0000   1.0000   1.0000
     1.0000   1.0000   1.0000   1.0000   1.0000   1.0000   1.0000   1.0000
     1.0000   1.0000   1.0000   1.0000   1.0000   1.0000   1.0000   1.0000
     1.0000   1.0000   1.0000   1.0000   1.0000   1.0000   1.0000   1.0000
     1.0000   1.0000   1.0000   1.0000   1.0000   1.0000   1.0000   1.0000
     1.0000   1.0000   1.0000   1.0000   1.0000   1.0000   1.0000   1.0000
     1.0000   1.0000   1.0000   1.0000   1.0000   1.0000   1.0000   1.0000
     1.0000   1.0000   1.0000   1.0000   1.0000   1.0000   1.0000   1.0000
     1.0000   1.0000   1.0000   1.0000   1.0000   1.0000   1.0000   1.0000
     1.0000   1.0000   1.0000   1.0000   1.0000   1.0000   1.0000   1.0000
     1.0000   1.0000   1.0000   1.0000   1.0000   1.0000   1.0000   1.0000
     1.0000   1.0000   1.0000   1.0000   1.0000   1.0000   1.0000   1.0000
     1.0000   1.0000   1.0000   1.0000   1.0000   1.0000   1.0000   1.0000
     1.0000   1.0000   1.0000   1.0000   1.0000   1.0000   1.0000   1.0000
     1.0000   1.0000   1.0000   1.0000   1.0000   1.0000   1.0000   1.0000
     1.0000   1.0000   1.0000   1.0000   1.0000   1.0000   1.0000   1.0000
     1.0000   1.0000   1.0000   1.0000   1.0000   1.0000   1.0000   1.0000
     1.0000   1.0000   1.0000   1.0000   1.0000   1.0000   1.0000   1.0000
     1.0000   1.0000   1.0000   1.0000   1.0000   1.0000   1.0000   1.0000
     1.0000   1.0000   1.0000   1.0000   1.0000   1.0000   1.0000   1.0000
     1.0000   1.0000   1.0000   1.0000   1.0000   1.0000   1.0000   1.0000
     1.0000   1.0000   1.0000   1.0000   1.0000   1.0000   1.0000   1.0000
     1.0000   1.0000   1.0000   1.0000   1.0000   1.0000   1.0000   1.0000
     1.0000   1.0000   1.0000   1.0000   1.0000   1.0000   1.0000   1.0000
     1.0000   1.0000   1.0000   1.0000   1.0000   1.0000   1.0000   1.0000
     1.0000   1.0000   1.0000   1.0000   1.0000   1.0000   1.0000   1.0000
     1.0000   1.0000   1.0000   1.0000   1.0000   1.0000   1.0000   1.0000
     1.0000   1.0000   1.0000   1.0000   1.0000   1.0000   1.0000   1.0000
     1.0000   1.0000   1.0000   1.0000   1.0000   1.0000   1.0000   1.0000
     1.0000   1.0000   1.0000   1.0000   1.0000   1.0000   1.0000   1.0000
     1.0000   1.0000   1.0000   1.0000   1.0000   1.0000   1.0000   1.0000
     1.0000   1.0000   1.0000   1.0000   1.0000   1.0000   1.0000   1.0000
     1.0000   1.0000   1.0000   1.0000   1.0000   1.0000   1.0000   1.0000
     1.0000   1.0000   1.0000   1.0000   1.0000   1.0000   0.0000   0.0000
     0.0000   0.0000   0.0000   0.0000   0.0000   0.0000   0.0000   0.0000
     0.0000   0.0000   0.0000   0.0000   0.0000   0.0000   0.0000   0.0000
     0.0000   0.0000   0.0000   0.0000   0.0000   0.0000   0.0000   0.0000
     0.0000   0.0000   0.0000   0.0000   0.0000   0.0000   0.0000   0.0000
     0.0000   0.0000   0.0000   0.0000   0.0000   0.0000   0.0000   0.0000
     0.0000   0.0000   0.0000   0.0000   0.0000   0.0000   0.0000   0.0000
     0.0000   0.0000   0.0000   0.0000   0.0000   0.0000   0.0000   0.0000
     0.0000   0.0000   0.0000   0.0000   0.0000   0.0000   0.0000   0.0000
     0.0000   0.0000   0.0000   0.0000   0.0000   0.0000   0.0000   0.0000
     0.0000   0.0000   0.0000   0.0000   0.0000   0.0000

          k =-0.0001 0.2886-0.0001 ( 45162 PWs)   bands (ev):

  -115.7546-115.7373-115.7284-115.7175-115.7140-115.7068-115.6970-115.6793
  -115.6761-115.6754-115.6718-115.6687-115.6663-115.6656-115.6596-115.6485
  -115.6379-115.6344-115.6268-115.6080-115.5802-115.5692 -70.2064 -70.1878
   -70.1812 -70.1683 -70.1622 -70.1540 -70.1492 -70.1354 -70.1247 -70.1222
   -70.1193 -70.1182 -70.1139 -70.1128 -70.1124 -70.0959 -70.0860 -70.0804
   -70.0769 -70.0650 -70.0616 -70.0580 -70.0488 -70.0431 -70.0381 -70.0345
   -70.0314 -70.0290 -70.0249 -70.0240 -70.0234 -70.0227 -70.0200 -70.0124
   -70.0066 -70.0034 -69.9894 -69.9879 -69.9878 -69.9845 -69.9837 -69.9822
   -69.9817 -69.9816 -69.9814 -69.9804 -69.9776 -69.9742 -69.9731 -69.9727
   -69.9701 -69.9651 -69.9606 -69.9578 -69.9516 -69.9483 -69.9443 -69.9425
   -69.9387 -69.9321 -69.9177 -69.9163 -69.8916 -69.8848 -69.8814 -69.8738
   -65.0586 -65.0430 -65.0301 -65.0200 -65.0099 -65.0030 -65.0009 -65.0002
   -64.9702 -64.9699 -64.9520 -64.9490 -64.9009 -64.8980 -32.0963 -32.0798
   -32.0675 -32.0579 -32.0487 -32.0419 -32.0354 -32.0330 -32.0314 -32.0307
   -32.0202 -32.0143 -32.0092 -32.0044 -32.0035 -31.9985 -31.9965 -31.9888
   -31.9843 -31.9837 -31.9832 -31.9793 -31.9769 -31.9765 -31.9755 -31.9750
   -31.9684 -31.9671 -31.9461 -31.9444 -31.9435 -31.9389 -31.9354 -31.9318
   -31.9260 -31.9240 -31.9231 -31.9155 -31.8747 -31.8709 -31.8704 -31.8682
   -10.2711 -10.0484  -9.9962  -9.9273  -9.8777  -9.8388  -9.7820  -9.7302
    -9.7241  -9.6961  -9.6730  -9.6374  -9.6229  -9.5916  -9.5682  -9.5340
    -9.5080  -9.4903  -9.4770  -9.4650  -9.4310  -9.4227  -9.3852  -9.3742
    -9.3340  -9.3192  -9.2946  -9.2661  -9.2366  -9.1718  -9.1391  -9.0925
    -9.0787  -9.0410  -9.0362  -8.9790   1.2680   1.2936   1.3226   1.3647
     1.3715   1.3869   1.4117   1.4416   1.4575   1.4938   1.5090   1.5254
     1.5497   1.5757   1.5945   1.6246   1.6429   1.6675   1.6820   1.7017
     1.7618   1.7940   1.8099   1.8293   1.8372   1.8727   1.8970   1.9150
     1.9519   1.9765   2.0014   2.0154   2.0269   2.0431   2.0722   2.1086
     2.1209   2.1314   2.1450   2.1577   2.1798   2.1921   2.1968   2.2092
     2.2228   2.2428   2.2558   2.2740   2.2805   2.2885   2.3052   2.3296
     2.3424   2.3589   2.3673   2.3901   2.4066   2.4228   2.4319   2.4517
     2.4573   2.4802   2.4914   2.5073   2.5146   2.5262   2.5381   2.5591
     2.5692   2.5834   2.5979   2.6121   2.6185   2.6271   2.6446   2.6636
     2.6749   2.6832   2.7169   2.7239   2.7410   2.7629   2.7807   2.7955
     2.8071   2.8170   2.8252   2.8395   2.8581   2.8636   2.8738   2.8857
     2.9031   2.9104   2.9225   2.9332   2.9514   2.9549   2.9701   2.9800
     2.9935   3.0059   3.0194   3.0294   3.0367   3.0624   3.0771   3.1102
     3.1485   3.1956   3.2635   3.4180   3.4453   3.5776   3.6049   3.6317
     3.6654   3.6859   3.6998   3.7272   3.7454   3.7616   3.8078   3.8514
     3.8734   3.8866   3.9407   3.9557   4.0272   4.0394   4.1050   4.1319
     4.1554   4.2045   4.2350   4.2528   4.2626   4.3435   4.3580   4.4157
     4.4744   4.5194   4.5952   4.6183   4.6573   4.6699   4.7250   4.7644
     4.8039   4.8221   4.8789   4.8880   4.9191   4.9617   5.0073   5.0267
     5.0851   5.1133   5.2128   5.2854   5.3806   5.4194   5.4716   5.4997
     5.5291   5.5426   5.5814   5.6004   5.6454   5.6535   5.6838   5.7126
     5.7962   5.8511   5.9067   5.9500   5.9808   5.9993   6.0445   6.0724
     6.1201   6.1343   6.1626   6.1763   6.1884   6.2167   6.2502   6.2909
     6.3061   6.3306   6.3674   6.3874   6.4149   6.4441   6.4679   6.4740
     6.4988   6.5295   6.5461   6.5664   6.5772   6.6017   6.6087   6.6342
     6.6587   6.6739   6.6863   6.7107   6.7274   6.8157   6.8217   6.8730
     6.8760   6.9384   6.9681   6.9718   7.0247   7.1603   9.4638  11.2603
    11.5997  11.6498  11.8963  12.0835  12.6182  12.6579  12.7890  12.8557
    12.9032  12.9960  13.0822  13.1163  13.1757  13.2674  13.3026  13.3360
    13.3642  13.5096  13.5669  13.7317  14.3705  14.4117  14.6426  14.6788
    14.7089  14.8349  14.9206  14.9949  15.0812  15.1037  15.2269  15.3216
    15.3616  15.4054  15.4512  15.4754  15.5411  15.5581  15.5935  15.6278
    15.6960  15.7471  15.8997  15.9561  16.0479  16.0626  16.1324  16.1987
    16.2855  16.3339  16.3583  16.4198  16.4385  16.4791  16.5029  16.5736
    16.6093  16.7397  16.8394  16.9245  17.1213  17.1530  17.3175  17.3541
    17.4133  17.4435  17.4839  17.5024  17.5674  17.6395  17.7222  17.7698
    17.8251  17.8601  17.9354  17.9709  18.0347  18.0974

     occupation numbers 
     1.0000   1.0000   1.0000   1.0000   1.0000   1.0000   1.0000   1.0000
     1.0000   1.0000   1.0000   1.0000   1.0000   1.0000   1.0000   1.0000
     1.0000   1.0000   1.0000   1.0000   1.0000   1.0000   1.0000   1.0000
     1.0000   1.0000   1.0000   1.0000   1.0000   1.0000   1.0000   1.0000
     1.0000   1.0000   1.0000   1.0000   1.0000   1.0000   1.0000   1.0000
     1.0000   1.0000   1.0000   1.0000   1.0000   1.0000   1.0000   1.0000
     1.0000   1.0000   1.0000   1.0000   1.0000   1.0000   1.0000   1.0000
     1.0000   1.0000   1.0000   1.0000   1.0000   1.0000   1.0000   1.0000
     1.0000   1.0000   1.0000   1.0000   1.0000   1.0000   1.0000   1.0000
     1.0000   1.0000   1.0000   1.0000   1.0000   1.0000   1.0000   1.0000
     1.0000   1.0000   1.0000   1.0000   1.0000   1.0000   1.0000   1.0000
     1.0000   1.0000   1.0000   1.0000   1.0000   1.0000   1.0000   1.0000
     1.0000   1.0000   1.0000   1.0000   1.0000   1.0000   1.0000   1.0000
     1.0000   1.0000   1.0000   1.0000   1.0000   1.0000   1.0000   1.0000
     1.0000   1.0000   1.0000   1.0000   1.0000   1.0000   1.0000   1.0000
     1.0000   1.0000   1.0000   1.0000   1.0000   1.0000   1.0000   1.0000
     1.0000   1.0000   1.0000   1.0000   1.0000   1.0000   1.0000   1.0000
     1.0000   1.0000   1.0000   1.0000   1.0000   1.0000   1.0000   1.0000
     1.0000   1.0000   1.0000   1.0000   1.0000   1.0000   1.0000   1.0000
     1.0000   1.0000   1.0000   1.0000   1.0000   1.0000   1.0000   1.0000
     1.0000   1.0000   1.0000   1.0000   1.0000   1.0000   1.0000   1.0000
     1.0000   1.0000   1.0000   1.0000   1.0000   1.0000   1.0000   1.0000
     1.0000   1.0000   1.0000   1.0000   1.0000   1.0000   1.0000   1.0000
     1.0000   1.0000   1.0000   1.0000   1.0000   1.0000   1.0000   1.0000
     1.0000   1.0000   1.0000   1.0000   1.0000   1.0000   1.0000   1.0000
     1.0000   1.0000   1.0000   1.0000   1.0000   1.0000   1.0000   1.0000
     1.0000   1.0000   1.0000   1.0000   1.0000   1.0000   1.0000   1.0000
     1.0000   1.0000   1.0000   1.0000   1.0000   1.0000   1.0000   1.0000
     1.0000   1.0000   1.0000   1.0000   1.0000   1.0000   1.0000   1.0000
     1.0000   1.0000   1.0000   1.0000   1.0000   1.0000   1.0000   1.0000
     1.0000   1.0000   1.0000   1.0000   1.0000   1.0000   1.0000   1.0000
     1.0000   1.0000   1.0000   1.0000   1.0000   1.0000   1.0000   1.0000
     1.0000   1.0000   1.0000   1.0000   1.0000   1.0000   1.0000   1.0000
     1.0000   1.0000   1.0000   1.0000   1.0000   1.0000   1.0000   1.0000
     1.0000   1.0000   1.0000   1.0000   1.0000   1.0000   1.0000   1.0000
     1.0000   1.0000   1.0000   1.0000   1.0000   1.0000   1.0000   1.0000
     1.0000   1.0000   1.0000   1.0000   1.0000   1.0000   1.0000   1.0000
     1.0000   1.0000   1.0000   1.0000   1.0000   1.0000   1.0000   1.0000
     1.0000   1.0000   1.0000   1.0000   1.0000   1.0000   1.0000   1.0000
     1.0000   1.0000   1.0000   1.0000   1.0000   1.0000   1.0000   1.0000
     1.0000   1.0000   1.0000   1.0000   1.0000   1.0000   1.0000   1.0000
     1.0000   1.0000   1.0000   1.0000   1.0000   1.0000   1.0000   1.0000
     1.0000   1.0000   1.0000   1.0000   1.0000   1.0000   1.0000   1.0000
     1.0000   1.0000   1.0000   1.0000   1.0000   1.0000   1.0000   1.0000
     1.0000   1.0000   1.0000   1.0000   1.0000   1.0000   1.0000   1.0000
     1.0000   1.0000   1.0000   1.0000   1.0000   1.0000   1.0000   1.0000
     1.0000   1.0000   1.0000   1.0000   1.0000   1.0000   1.0000   1.0000
     1.0000   1.0000   1.0000   1.0000   1.0000   1.0000   1.0000   1.0000
     1.0000   1.0000   1.0000   1.0000   1.0000   1.0000   1.0000   1.0000
     1.0000   1.0000   1.0000   1.0000   1.0000   1.0000   0.0000   0.0000
     0.0000   0.0000   0.0000   0.0000   0.0000   0.0000   0.0000   0.0000
     0.0000   0.0000   0.0000   0.0000   0.0000   0.0000   0.0000   0.0000
     0.0000   0.0000   0.0000   0.0000   0.0000   0.0000   0.0000   0.0000
     0.0000   0.0000   0.0000   0.0000   0.0000   0.0000   0.0000   0.0000
     0.0000   0.0000   0.0000   0.0000   0.0000   0.0000   0.0000   0.0000
     0.0000   0.0000   0.0000   0.0000   0.0000   0.0000   0.0000   0.0000
     0.0000   0.0000   0.0000   0.0000   0.0000   0.0000   0.0000   0.0000
     0.0000   0.0000   0.0000   0.0000   0.0000   0.0000   0.0000   0.0000
     0.0000   0.0000   0.0000   0.0000   0.0000   0.0000   0.0000   0.0000
     0.0000   0.0000   0.0000   0.0000   0.0000   0.0000

          k =-0.0000 0.2885 0.2351 ( 45207 PWs)   bands (ev):

  -115.7546-115.7373-115.7284-115.7175-115.7140-115.7068-115.6970-115.6793
  -115.6761-115.6754-115.6718-115.6687-115.6663-115.6656-115.6596-115.6485
  -115.6379-115.6344-115.6268-115.6080-115.5802-115.5692 -70.2064 -70.1878
   -70.1812 -70.1683 -70.1622 -70.1540 -70.1492 -70.1354 -70.1247 -70.1222
   -70.1193 -70.1182 -70.1139 -70.1128 -70.1124 -70.0959 -70.0860 -70.0804
   -70.0769 -70.0650 -70.0616 -70.0580 -70.0488 -70.0431 -70.0381 -70.0345
   -70.0314 -70.0290 -70.0249 -70.0240 -70.0234 -70.0227 -70.0200 -70.0124
   -70.0066 -70.0034 -69.9894 -69.9879 -69.9878 -69.9845 -69.9837 -69.9822
   -69.9817 -69.9816 -69.9814 -69.9804 -69.9776 -69.9742 -69.9731 -69.9727
   -69.9701 -69.9651 -69.9606 -69.9578 -69.9516 -69.9483 -69.9443 -69.9425
   -69.9387 -69.9321 -69.9177 -69.9163 -69.8916 -69.8848 -69.8814 -69.8738
   -65.0586 -65.0430 -65.0301 -65.0200 -65.0099 -65.0030 -65.0009 -65.0002
   -64.9702 -64.9699 -64.9520 -64.9490 -64.9009 -64.8980 -32.0963 -32.0798
   -32.0675 -32.0579 -32.0487 -32.0419 -32.0354 -32.0330 -32.0314 -32.0307
   -32.0202 -32.0143 -32.0092 -32.0044 -32.0035 -31.9985 -31.9965 -31.9888
   -31.9843 -31.9837 -31.9832 -31.9793 -31.9769 -31.9765 -31.9755 -31.9750
   -31.9684 -31.9671 -31.9461 -31.9444 -31.9435 -31.9389 -31.9354 -31.9318
   -31.9260 -31.9240 -31.9231 -31.9155 -31.8747 -31.8709 -31.8704 -31.8682
   -10.2528 -10.0934  -9.9855  -9.9093  -9.8683  -9.8439  -9.7932  -9.7419
    -9.7218  -9.6967  -9.6807  -9.6336  -9.6144  -9.5910  -9.5619  -9.5395
    -9.5076  -9.5009  -9.4659  -9.4555  -9.4305  -9.4094  -9.3889  -9.3723
    -9.3411  -9.3223  -9.2937  -9.2675  -9.2327  -9.1748  -9.1399  -9.0915
    -9.0781  -9.0425  -9.0392  -8.9793   1.2664   1.2921   1.3231   1.3655
     1.3735   1.3838   1.4144   1.4370   1.4629   1.4957   1.5118   1.5323
     1.5575   1.5808   1.5926   1.6242   1.6471   1.6671   1.6816   1.7024
     1.7610   1.7932   1.8172   1.8319   1.8396   1.8811   1.9037   1.9168
     1.9624   1.9708   1.9997   2.0259   2.0278   2.0486   2.0750   2.1078
     2.1307   2.1369   2.1593   2.1656   2.1758   2.1889   2.2031   2.2082
     2.2309   2.2489   2.2560   2.2783   2.2862   2.2960   2.3046   2.3220
     2.3412   2.3515   2.3578   2.3742   2.3828   2.4057   2.4161   2.4373
     2.4537   2.4730   2.4787   2.4948   2.5123   2.5249   2.5333   2.5387
     2.5583   2.5753   2.5834   2.6028   2.6104   2.6250   2.6326   2.6590
     2.6809   2.6942   2.7164   2.7315   2.7411   2.7628   2.7711   2.7875
     2.7961   2.8147   2.8304   2.8432   2.8585   2.8638   2.8837   2.8910
     2.9086   2.9151   2.9287   2.9395   2.9475   2.9543   2.9672   2.9812
     2.9869   3.0056   3.0192   3.0321   3.0435   3.0601   3.0805   3.1123
     3.1211   3.1818   3.3408   3.4413   3.4866   3.5640   3.5934   3.6336
     3.6530   3.6785   3.7058   3.7298   3.7460   3.7765   3.8018   3.8214
     3.8603   3.8722   3.9086   3.9257   3.9765   3.9988   4.0697   4.0817
     4.1450   4.1637   4.2557   4.2935   4.3166   4.3414   4.4079   4.4236
     4.4450   4.4870   4.5754   4.6131   4.6508   4.6780   4.7111   4.7680
     4.8076   4.8612   4.9168   4.9470   4.9830   5.0540   5.0931   5.1062
     5.1649   5.2210   5.2802   5.3053   5.3874   5.4103   5.4379   5.4747
     5.5199   5.5512   5.5870   5.6303   5.6606   5.6881   5.6935   5.7611
     5.7753   5.8151   5.8677   5.8934   5.9228   5.9560   5.9809   6.0305
     6.0662   6.0792   6.1015   6.1153   6.1649   6.1886   6.2227   6.2760
     6.2927   6.3129   6.3235   6.3668   6.3956   6.4131   6.4487   6.4892
     6.5083   6.5220   6.5364   6.5682   6.5976   6.6094   6.6401   6.6551
     6.6750   6.6883   6.7178   6.7387   6.7505   6.7902   6.8298   6.8542
     6.8685   6.9419   6.9745   7.0423   7.0518   7.1535   9.6785  10.9055
    11.3804  11.9162  12.0338  12.0949  12.3076  12.3923  12.5653  12.8370
    12.9407  13.0484  13.0633  13.1196  13.2467  13.3373  13.4472  13.5053
    13.6827  13.7667  13.8051  14.0231  14.2870  14.4674  14.5670  14.6071
    14.6589  14.7032  14.7805  14.8167  14.8614  14.9316  15.0783  15.1293
    15.2876  15.4189  15.4840  15.5133  15.5957  15.6359  15.7379  15.7727
    15.8095  15.8472  15.9307  15.9889  16.0298  16.0646  16.1536  16.1733
    16.2028  16.2605  16.3269  16.3814  16.4924  16.4957  16.5730  16.5933
    16.6763  16.7353  16.8451  16.9326  17.0586  17.1062  17.1831  17.2406
    17.2975  17.3466  17.4260  17.4975  17.5758  17.6721  17.6821  17.7454
    17.8258  17.8813  17.9418  17.9881  18.0188  18.0740

     occupation numbers 
     1.0000   1.0000   1.0000   1.0000   1.0000   1.0000   1.0000   1.0000
     1.0000   1.0000   1.0000   1.0000   1.0000   1.0000   1.0000   1.0000
     1.0000   1.0000   1.0000   1.0000   1.0000   1.0000   1.0000   1.0000
     1.0000   1.0000   1.0000   1.0000   1.0000   1.0000   1.0000   1.0000
     1.0000   1.0000   1.0000   1.0000   1.0000   1.0000   1.0000   1.0000
     1.0000   1.0000   1.0000   1.0000   1.0000   1.0000   1.0000   1.0000
     1.0000   1.0000   1.0000   1.0000   1.0000   1.0000   1.0000   1.0000
     1.0000   1.0000   1.0000   1.0000   1.0000   1.0000   1.0000   1.0000
     1.0000   1.0000   1.0000   1.0000   1.0000   1.0000   1.0000   1.0000
     1.0000   1.0000   1.0000   1.0000   1.0000   1.0000   1.0000   1.0000
     1.0000   1.0000   1.0000   1.0000   1.0000   1.0000   1.0000   1.0000
     1.0000   1.0000   1.0000   1.0000   1.0000   1.0000   1.0000   1.0000
     1.0000   1.0000   1.0000   1.0000   1.0000   1.0000   1.0000   1.0000
     1.0000   1.0000   1.0000   1.0000   1.0000   1.0000   1.0000   1.0000
     1.0000   1.0000   1.0000   1.0000   1.0000   1.0000   1.0000   1.0000
     1.0000   1.0000   1.0000   1.0000   1.0000   1.0000   1.0000   1.0000
     1.0000   1.0000   1.0000   1.0000   1.0000   1.0000   1.0000   1.0000
     1.0000   1.0000   1.0000   1.0000   1.0000   1.0000   1.0000   1.0000
     1.0000   1.0000   1.0000   1.0000   1.0000   1.0000   1.0000   1.0000
     1.0000   1.0000   1.0000   1.0000   1.0000   1.0000   1.0000   1.0000
     1.0000   1.0000   1.0000   1.0000   1.0000   1.0000   1.0000   1.0000
     1.0000   1.0000   1.0000   1.0000   1.0000   1.0000   1.0000   1.0000
     1.0000   1.0000   1.0000   1.0000   1.0000   1.0000   1.0000   1.0000
     1.0000   1.0000   1.0000   1.0000   1.0000   1.0000   1.0000   1.0000
     1.0000   1.0000   1.0000   1.0000   1.0000   1.0000   1.0000   1.0000
     1.0000   1.0000   1.0000   1.0000   1.0000   1.0000   1.0000   1.0000
     1.0000   1.0000   1.0000   1.0000   1.0000   1.0000   1.0000   1.0000
     1.0000   1.0000   1.0000   1.0000   1.0000   1.0000   1.0000   1.0000
     1.0000   1.0000   1.0000   1.0000   1.0000   1.0000   1.0000   1.0000
     1.0000   1.0000   1.0000   1.0000   1.0000   1.0000   1.0000   1.0000
     1.0000   1.0000   1.0000   1.0000   1.0000   1.0000   1.0000   1.0000
     1.0000   1.0000   1.0000   1.0000   1.0000   1.0000   1.0000   1.0000
     1.0000   1.0000   1.0000   1.0000   1.0000   1.0000   1.0000   1.0000
     1.0000   1.0000   1.0000   1.0000   1.0000   1.0000   1.0000   1.0000
     1.0000   1.0000   1.0000   1.0000   1.0000   1.0000   1.0000   1.0000
     1.0000   1.0000   1.0000   1.0000   1.0000   1.0000   1.0000   1.0000
     1.0000   1.0000   1.0000   1.0000   1.0000   1.0000   1.0000   1.0000
     1.0000   1.0000   1.0000   1.0000   1.0000   1.0000   1.0000   1.0000
     1.0000   1.0000   1.0000   1.0000   1.0000   1.0000   1.0000   1.0000
     1.0000   1.0000   1.0000   1.0000   1.0000   1.0000   1.0000   1.0000
     1.0000   1.0000   1.0000   1.0000   1.0000   1.0000   1.0000   1.0000
     1.0000   1.0000   1.0000   1.0000   1.0000   1.0000   1.0000   1.0000
     1.0000   1.0000   1.0000   1.0000   1.0000   1.0000   1.0000   1.0000
     1.0000   1.0000   1.0000   1.0000   1.0000   1.0000   1.0000   1.0000
     1.0000   1.0000   1.0000   1.0000   1.0000   1.0000   1.0000   1.0000
     1.0000   1.0000   1.0000   1.0000   1.0000   1.0000   1.0000   1.0000
     1.0000   1.0000   1.0000   1.0000   1.0000   1.0000   1.0000   1.0000
     1.0000   1.0000   1.0000   1.0000   1.0000   1.0000   1.0000   1.0000
     1.0000   1.0000   1.0000   1.0000   1.0000   1.0000   1.0000   1.0000
     1.0000   1.0000   1.0000   1.0000   1.0000   1.0000   0.0000   0.0000
     0.0000   0.0000   0.0000   0.0000   0.0000   0.0000   0.0000   0.0000
     0.0000   0.0000   0.0000   0.0000   0.0000   0.0000   0.0000   0.0000
     0.0000   0.0000   0.0000   0.0000   0.0000   0.0000   0.0000   0.0000
     0.0000   0.0000   0.0000   0.0000   0.0000   0.0000   0.0000   0.0000
     0.0000   0.0000   0.0000   0.0000   0.0000   0.0000   0.0000   0.0000
     0.0000   0.0000   0.0000   0.0000   0.0000   0.0000   0.0000   0.0000
     0.0000   0.0000   0.0000   0.0000   0.0000   0.0000   0.0000   0.0000
     0.0000   0.0000   0.0000   0.0000   0.0000   0.0000   0.0000   0.0000
     0.0000   0.0000   0.0000   0.0000   0.0000   0.0000   0.0000   0.0000
     0.0000   0.0000   0.0000   0.0000   0.0000   0.0000

          k =-0.0003 0.2887-0.4704 ( 45213 PWs)   bands (ev):

  -115.7546-115.7373-115.7284-115.7175-115.7140-115.7068-115.6970-115.6793
  -115.6761-115.6754-115.6718-115.6687-115.6663-115.6656-115.6596-115.6485
  -115.6379-115.6344-115.6268-115.6080-115.5802-115.5692 -70.2064 -70.1878
   -70.1812 -70.1683 -70.1622 -70.1540 -70.1492 -70.1354 -70.1247 -70.1222
   -70.1193 -70.1182 -70.1139 -70.1128 -70.1124 -70.0959 -70.0860 -70.0804
   -70.0769 -70.0650 -70.0616 -70.0580 -70.0488 -70.0431 -70.0381 -70.0345
   -70.0314 -70.0290 -70.0249 -70.0240 -70.0234 -70.0227 -70.0200 -70.0124
   -70.0066 -70.0034 -69.9894 -69.9879 -69.9878 -69.9845 -69.9837 -69.9822
   -69.9817 -69.9816 -69.9814 -69.9804 -69.9776 -69.9742 -69.9731 -69.9727
   -69.9701 -69.9651 -69.9606 -69.9578 -69.9516 -69.9483 -69.9443 -69.9425
   -69.9387 -69.9321 -69.9177 -69.9163 -69.8916 -69.8848 -69.8814 -69.8738
   -65.0586 -65.0430 -65.0301 -65.0200 -65.0099 -65.0030 -65.0009 -65.0002
   -64.9702 -64.9699 -64.9520 -64.9490 -64.9009 -64.8980 -32.0963 -32.0798
   -32.0675 -32.0579 -32.0487 -32.0420 -32.0354 -32.0330 -32.0314 -32.0306
   -32.0202 -32.0143 -32.0092 -32.0044 -32.0035 -31.9985 -31.9965 -31.9888
   -31.9843 -31.9837 -31.9832 -31.9793 -31.9769 -31.9765 -31.9755 -31.9750
   -31.9684 -31.9671 -31.9461 -31.9444 -31.9435 -31.9389 -31.9354 -31.9318
   -31.9260 -31.9240 -31.9231 -31.9155 -31.8747 -31.8709 -31.8704 -31.8682
   -10.2263 -10.1329  -9.9777  -9.9279  -9.8476  -9.8330  -9.7991  -9.7532
    -9.7210  -9.6965  -9.6659  -9.6471  -9.6175  -9.5903  -9.5729  -9.5322
    -9.5107  -9.4963  -9.4558  -9.4430  -9.4383  -9.4105  -9.3839  -9.3704
    -9.3413  -9.3220  -9.2945  -9.2670  -9.2356  -9.1719  -9.1443  -9.0919
    -9.0787  -9.0458  -9.0384  -8.9799   1.2653   1.2926   1.3229   1.3650
     1.3713   1.3830   1.4155   1.4393   1.4628   1.4935   1.5205   1.5432
     1.5662   1.5696   1.5999   1.6274   1.6514   1.6685   1.6807   1.7001
     1.7611   1.7944   1.8238   1.8312   1.8427   1.8910   1.9029   1.9254
     1.9679   1.9824   2.0038   2.0236   2.0349   2.0495   2.0824   2.1010
     2.1173   2.1470   2.1564   2.1720   2.1877   2.1938   2.2090   2.2244
     2.2320   2.2485   2.2622   2.2774   2.2899   2.2963   2.3066   2.3217
     2.3391   2.3447   2.3616   2.3628   2.3792   2.3965   2.4101   2.4287
     2.4396   2.4555   2.4634   2.4755   2.4864   2.5110   2.5194   2.5298
     2.5350   2.5524   2.5801   2.5947   2.6099   2.6265   2.6415   2.6547
     2.6738   2.6956   2.7186   2.7255   2.7490   2.7639   2.7712   2.7881
     2.7974   2.8103   2.8337   2.8402   2.8573   2.8710   2.8843   2.8975
     2.9058   2.9184   2.9271   2.9397   2.9460   2.9544   2.9673   2.9817
     2.9894   3.0047   3.0162   3.0333   3.0445   3.0552   3.0833   3.1119
     3.1310   3.1758   3.4038   3.4604   3.5065   3.5352   3.6129   3.6303
     3.6442   3.6903   3.7199   3.7385   3.7704   3.7821   3.7972   3.8117
     3.8406   3.8570   3.8801   3.8965   3.9095   3.9506   4.0149   4.0624
     4.1174   4.1587   4.2345   4.2911   4.3259   4.3664   4.3977   4.4416
     4.4664   4.4882   4.5480   4.6102   4.6378   4.6833   4.7085   4.7461
     4.8757   4.9207   4.9465   4.9971   5.0873   5.1694   5.2040   5.2210
     5.2394   5.2839   5.3207   5.3484   5.3753   5.4149   5.4358   5.4665
     5.5108   5.5364   5.5553   5.6151   5.6665   5.6901   5.7001   5.7378
     5.7716   5.7992   5.8316   5.8519   5.9048   5.9221   5.9569   5.9821
     6.0155   6.0287   6.0516   6.0767   6.0941   6.1038   6.2058   6.2243
     6.2336   6.2492   6.3308   6.3624   6.3737   6.4043   6.4451   6.4794
     6.5250   6.5448   6.5473   6.5868   6.5948   6.6439   6.6721   6.6804
     6.6950   6.7140   6.7443   6.7556   6.7699   6.7884   6.8128   6.8415
     6.8521   6.9200   7.0019   7.0747   7.0785   7.1475  10.1699  10.2737
    11.5835  11.6721  12.0453  12.1034  12.2109  12.2897  12.6677  12.8043
    12.8772  12.9599  12.9963  13.0825  13.1591  13.2779  13.9254  14.0286
    14.0866  14.1276  14.1695  14.1961  14.2398  14.2646  14.3277  14.3765
    14.4748  14.4990  14.5783  14.5936  14.7581  14.8013  15.0257  15.0504
    15.1943  15.2181  15.6823  15.7028  15.7362  15.7652  15.7857  15.8472
    15.8652  15.8859  15.9266  15.9670  15.9947  16.0121  16.0418  16.1062
    16.1781  16.1915  16.3490  16.4343  16.4858  16.5335  16.5800  16.6458
    16.6958  16.7215  16.8536  16.8988  16.9720  17.0882  17.1834  17.2423
    17.2944  17.3634  17.3981  17.4343  17.4813  17.5506  17.6373  17.6803
    17.7547  17.7971  17.9526  18.0058  18.0828  18.1278

     occupation numbers 
     1.0000   1.0000   1.0000   1.0000   1.0000   1.0000   1.0000   1.0000
     1.0000   1.0000   1.0000   1.0000   1.0000   1.0000   1.0000   1.0000
     1.0000   1.0000   1.0000   1.0000   1.0000   1.0000   1.0000   1.0000
     1.0000   1.0000   1.0000   1.0000   1.0000   1.0000   1.0000   1.0000
     1.0000   1.0000   1.0000   1.0000   1.0000   1.0000   1.0000   1.0000
     1.0000   1.0000   1.0000   1.0000   1.0000   1.0000   1.0000   1.0000
     1.0000   1.0000   1.0000   1.0000   1.0000   1.0000   1.0000   1.0000
     1.0000   1.0000   1.0000   1.0000   1.0000   1.0000   1.0000   1.0000
     1.0000   1.0000   1.0000   1.0000   1.0000   1.0000   1.0000   1.0000
     1.0000   1.0000   1.0000   1.0000   1.0000   1.0000   1.0000   1.0000
     1.0000   1.0000   1.0000   1.0000   1.0000   1.0000   1.0000   1.0000
     1.0000   1.0000   1.0000   1.0000   1.0000   1.0000   1.0000   1.0000
     1.0000   1.0000   1.0000   1.0000   1.0000   1.0000   1.0000   1.0000
     1.0000   1.0000   1.0000   1.0000   1.0000   1.0000   1.0000   1.0000
     1.0000   1.0000   1.0000   1.0000   1.0000   1.0000   1.0000   1.0000
     1.0000   1.0000   1.0000   1.0000   1.0000   1.0000   1.0000   1.0000
     1.0000   1.0000   1.0000   1.0000   1.0000   1.0000   1.0000   1.0000
     1.0000   1.0000   1.0000   1.0000   1.0000   1.0000   1.0000   1.0000
     1.0000   1.0000   1.0000   1.0000   1.0000   1.0000   1.0000   1.0000
     1.0000   1.0000   1.0000   1.0000   1.0000   1.0000   1.0000   1.0000
[...]
     atom   34 type  1   force =     0.00000000    0.00000000    0.00000000
     atom   35 type  3   force =     0.00000000    0.00000000    0.00000000
     atom   36 type  3   force =     0.00000000    0.00000000    0.00000000
     atom   37 type  2   force =     0.00201945   -0.00115667   -0.00001348
     atom   38 type  2   force =    -0.00010397    0.00001774   -0.00007485
     atom   39 type  2   force =     0.00006994   -0.00013209   -0.00008149
     atom   40 type  2   force =    -0.00007175    0.00235289    0.00004855
     atom   41 type  2   force =    -0.00202885    0.00125150    0.00047838
     atom   42 type  2   force =     0.00009784   -0.00256076   -0.00024620
     atom   43 type  2   force =    -0.00215535    0.00117143    0.00006976
     atom   44 type  2   force =     0.00217121    0.00111035    0.00016514
     atom   45 type  2   force =    -0.00000788   -0.00246981   -0.00006697
     atom   46 type  2   force =    -0.00200428    0.00127923   -0.00007756
     atom   47 type  2   force =     0.00214803    0.00124743   -0.00041782
     atom   48 type  2   force =     0.00189447   -0.00109742    0.00047610
     atom   49 type  2   force =     0.00015538   -0.00245561   -0.00006694
     atom   50 type  2   force =    -0.00207815   -0.00111797   -0.00000421
     atom   51 type  2   force =    -0.00007800    0.00006942    0.00036146
     atom   52 type  2   force =     0.00216076   -0.00120796   -0.00031527
     atom   53 type  2   force =    -0.00000962    0.00237458   -0.00006548
     atom   54 type  2   force =    -0.00202581    0.00111196   -0.00017606
     atom   55 type  2   force =    -0.00206722   -0.00113572    0.00002308
     atom   56 type  2   force =    -0.00201209   -0.00117466    0.00008839
     atom   57 type  2   force =     0.00006052   -0.00009485   -0.00042553
     atom   58 type  2   force =    -0.00193915    0.00118792    0.00025667
     atom   59 type  2   force =    -0.00005368    0.00000431    0.00046669
     atom   60 type  2   force =     0.00212174   -0.00123136   -0.00024815
     atom   61 type  2   force =     0.00002971    0.00229188    0.00040216
     atom   62 type  2   force =    -0.00004148    0.00244798   -0.00037753
     atom   63 type  2   force =     0.00206481    0.00117852   -0.00030493
     atom   64 type  2   force =     0.00193879   -0.00118475    0.00041434
     atom   65 type  2   force =     0.00204375   -0.00111907    0.00004815
     atom   66 type  2   force =    -0.00207255   -0.00117546   -0.00029970
     atom   67 type  2   force =     0.00209153   -0.00122881   -0.00045097
     atom   68 type  2   force =     0.00198026    0.00109268    0.00022785
     atom   69 type  2   force =    -0.00202480   -0.00118499    0.00007139
     atom   70 type  2   force =    -0.00005453   -0.00227640    0.00014725
     atom   71 type  2   force =    -0.00204019    0.00119677    0.00004989
     atom   72 type  2   force =     0.00006639    0.00233635   -0.00001247
     The Hubbard contrib.    to forces
     atom    1 type  1   force =     0.00000000    0.00000000    0.00000000
     atom    2 type  1   force =     0.00000000    0.00000000    0.00000000
     atom    3 type  1   force =     0.00000000    0.00000000    0.00000000
     atom    4 type  1   force =     0.00000000    0.00000000    0.00000000
     atom    5 type  1   force =     0.00000000    0.00000000    0.00000000
     atom    6 type  3   force =     0.00000000    0.00000000    0.00000000
     atom    7 type  1   force =     0.00000000    0.00000000    0.00000000
     atom    8 type  1   force =     0.00000000    0.00000000    0.00000000
     atom    9 type  3   force =     0.00000000    0.00000000    0.00000000
     atom   10 type  3   force =     0.00000000    0.00000000    0.00000000
     atom   11 type  3   force =     0.00000000    0.00000000    0.00000000
     atom   12 type  1   force =     0.00000000    0.00000000    0.00000000
     atom   13 type  3   force =     0.00000000    0.00000000    0.00000000
     atom   14 type  3   force =     0.00000000    0.00000000    0.00000000
     atom   15 type  1   force =     0.00000000    0.00000000    0.00000000
     atom   16 type  3   force =     0.00000000    0.00000000    0.00000000
     atom   17 type  1   force =     0.00000000    0.00000000    0.00000000
     atom   18 type  1   force =     0.00000000    0.00000000    0.00000000
     atom   19 type  1   force =     0.00000000    0.00000000    0.00000000
     atom   20 type  1   force =     0.00000000    0.00000000    0.00000000
     atom   21 type  3   force =     0.00000000    0.00000000    0.00000000
     atom   22 type  1   force =     0.00000000    0.00000000    0.00000000
     atom   23 type  1   force =     0.00000000    0.00000000    0.00000000
     atom   24 type  3   force =     0.00000000    0.00000000    0.00000000
     atom   25 type  1   force =     0.00000000    0.00000000    0.00000000
     atom   26 type  3   force =     0.00000000    0.00000000    0.00000000
     atom   27 type  3   force =     0.00000000    0.00000000    0.00000000
     atom   28 type  1   force =     0.00000000    0.00000000    0.00000000
     atom   29 type  1   force =     0.00000000    0.00000000    0.00000000
     atom   30 type  1   force =     0.00000000    0.00000000    0.00000000
     atom   31 type  3   force =     0.00000000    0.00000000    0.00000000
     atom   32 type  1   force =     0.00000000    0.00000000    0.00000000
     atom   33 type  1   force =     0.00000000    0.00000000    0.00000000
     atom   34 type  1   force =     0.00000000    0.00000000    0.00000000
     atom   35 type  3   force =     0.00000000    0.00000000    0.00000000
     atom   36 type  3   force =     0.00000000    0.00000000    0.00000000
     atom   37 type  2   force =     0.00000000    0.00000000    0.00000000
     atom   38 type  2   force =     0.00000000    0.00000000    0.00000000
     atom   39 type  2   force =     0.00000000    0.00000000    0.00000000
     atom   40 type  2   force =     0.00000000    0.00000000    0.00000000
     atom   41 type  2   force =     0.00000000    0.00000000    0.00000000
     atom   42 type  2   force =     0.00000000    0.00000000    0.00000000
     atom   43 type  2   force =     0.00000000    0.00000000    0.00000000
     atom   44 type  2   force =     0.00000000    0.00000000    0.00000000
     atom   45 type  2   force =     0.00000000    0.00000000    0.00000000
     atom   46 type  2   force =     0.00000000    0.00000000    0.00000000
     atom   47 type  2   force =     0.00000000    0.00000000    0.00000000
     atom   48 type  2   force =     0.00000000    0.00000000    0.00000000
     atom   49 type  2   force =     0.00000000    0.00000000    0.00000000
     atom   50 type  2   force =     0.00000000    0.00000000    0.00000000
     atom   51 type  2   force =     0.00000000    0.00000000    0.00000000
     atom   52 type  2   force =     0.00000000    0.00000000    0.00000000
     atom   53 type  2   force =     0.00000000    0.00000000    0.00000000
     atom   54 type  2   force =     0.00000000    0.00000000    0.00000000
     atom   55 type  2   force =     0.00000000    0.00000000    0.00000000
     atom   56 type  2   force =     0.00000000    0.00000000    0.00000000
     atom   57 type  2   force =     0.00000000    0.00000000    0.00000000
     atom   58 type  2   force =     0.00000000    0.00000000    0.00000000
     atom   59 type  2   force =     0.00000000    0.00000000    0.00000000
     atom   60 type  2   force =     0.00000000    0.00000000    0.00000000
     atom   61 type  2   force =     0.00000000    0.00000000    0.00000000
     atom   62 type  2   force =     0.00000000    0.00000000    0.00000000
     atom   63 type  2   force =     0.00000000    0.00000000    0.00000000
     atom   64 type  2   force =     0.00000000    0.00000000    0.00000000
     atom   65 type  2   force =     0.00000000    0.00000000    0.00000000
     atom   66 type  2   force =     0.00000000    0.00000000    0.00000000
     atom   67 type  2   force =     0.00000000    0.00000000    0.00000000
     atom   68 type  2   force =     0.00000000    0.00000000    0.00000000
     atom   69 type  2   force =     0.00000000    0.00000000    0.00000000
     atom   70 type  2   force =     0.00000000    0.00000000    0.00000000
     atom   71 type  2   force =     0.00000000    0.00000000    0.00000000
     atom   72 type  2   force =     0.00000000    0.00000000    0.00000000
     The SCF correction term to forces
     atom    1 type  1   force =     0.00000133   -0.00001468   -0.00004162
     atom    2 type  1   force =     0.00000505    0.00002120    0.00003269
     atom    3 type  1   force =    -0.00005116    0.00001150    0.00000419
     atom    4 type  1   force =    -0.00001279   -0.00001826   -0.00001025
     atom    5 type  1   force =    -0.00003613   -0.00005192   -0.00000273
     atom    6 type  3   force =    -0.00001575   -0.00000727   -0.00000498
     atom    7 type  1   force =     0.00001060    0.00002985    0.00001101
     atom    8 type  1   force =    -0.00001382    0.00003750   -0.00001945
     atom    9 type  3   force =    -0.00000628   -0.00000999    0.00000504
     atom   10 type  3   force =    -0.00001129   -0.00002685   -0.00000210
     atom   11 type  3   force =     0.00000801    0.00000019    0.00001163
     atom   12 type  1   force =     0.00001212   -0.00000048   -0.00002194
     atom   13 type  3   force =    -0.00000914    0.00001369    0.00000446
     atom   14 type  3   force =     0.00000680    0.00001003   -0.00001023
     atom   15 type  1   force =     0.00006868   -0.00000532    0.00002000
     atom   16 type  3   force =     0.00001817   -0.00000738   -0.00001912
     atom   17 type  1   force =     0.00002856    0.00002838   -0.00002103
     atom   18 type  1   force =     0.00001426    0.00003009    0.00002309
     atom   19 type  1   force =    -0.00002521   -0.00000524    0.00000980
     atom   20 type  1   force =    -0.00003175    0.00001401   -0.00000553
     atom   21 type  3   force =     0.00000338    0.00000805    0.00002030
     atom   22 type  1   force =    -0.00002140   -0.00003855   -0.00002429
     atom   23 type  1   force =    -0.00000284   -0.00002125    0.00000705
     atom   24 type  3   force =     0.00001051   -0.00000316   -0.00000242
     atom   25 type  1   force =     0.00002087    0.00004350    0.00000458
     atom   26 type  3   force =     0.00002246    0.00000500   -0.00000373
     atom   27 type  3   force =     0.00002778    0.00002086   -0.00000377
     atom   28 type  1   force =    -0.00000921   -0.00002846    0.00001091
     atom   29 type  1   force =     0.00004466   -0.00001382    0.00001632
     atom   30 type  1   force =     0.00000193    0.00002576   -0.00001359
     atom   31 type  3   force =     0.00000014   -0.00001827    0.00002188
     atom   32 type  1   force =    -0.00000229    0.00002820   -0.00003232
     atom   33 type  1   force =    -0.00005459   -0.00000377    0.00003247
     atom   34 type  1   force =     0.00003212   -0.00006766   -0.00002292
     atom   35 type  3   force =    -0.00002351   -0.00001594   -0.00000091
     atom   36 type  3   force =    -0.00000912    0.00002438   -0.00000221
     atom   37 type  2   force =     0.00000266    0.00000429    0.00000357
     atom   38 type  2   force =     0.00000786   -0.00000275   -0.00000191
     atom   39 type  2   force =    -0.00000650    0.00000080    0.00000269
     atom   40 type  2   force =     0.00000237    0.00001020   -0.00000156
     atom   41 type  2   force =    -0.00000101   -0.00000799   -0.00000021
     atom   42 type  2   force =    -0.00000180   -0.00000187    0.00000271
     atom   43 type  2   force =    -0.00000606    0.00000520   -0.00000194
     atom   44 type  2   force =    -0.00000189    0.00000320    0.00000335
     atom   45 type  2   force =    -0.00000274   -0.00000986   -0.00000133
     atom   46 type  2   force =    -0.00001193   -0.00000150    0.00000117
     atom   47 type  2   force =    -0.00000109   -0.00000010    0.00000043
     atom   48 type  2   force =     0.00000624   -0.00000556   -0.00000234
     atom   49 type  2   force =     0.00000270   -0.00000041   -0.00000234
     atom   50 type  2   force =    -0.00001055   -0.00000350    0.00000396
     atom   51 type  2   force =     0.00001078    0.00000055   -0.00000080
     atom   52 type  2   force =     0.00000705   -0.00000485    0.00000795
     atom   53 type  2   force =    -0.00000125    0.00000553    0.00000288
     atom   54 type  2   force =    -0.00000264    0.00000891   -0.00000254
     atom   55 type  2   force =    -0.00000528    0.00000759   -0.00000649
     atom   56 type  2   force =    -0.00000830    0.00000299    0.00000589
     atom   57 type  2   force =     0.00000111   -0.00000224   -0.00000667
     atom   58 type  2   force =    -0.00000121   -0.00000354   -0.00000029
     atom   59 type  2   force =     0.00000354   -0.00000560   -0.00000329
     atom   60 type  2   force =     0.00000875   -0.00000335    0.00000450
     atom   61 type  2   force =    -0.00000200    0.00000390   -0.00000325
     atom   62 type  2   force =    -0.00000301    0.00001193    0.00000240
     atom   63 type  2   force =    -0.00000510   -0.00000464    0.00000072
     atom   64 type  2   force =    -0.00000139   -0.00000781    0.00000153
     atom   65 type  2   force =    -0.00000288   -0.00000867   -0.00000135
     atom   66 type  2   force =    -0.00000143   -0.00000390    0.00000000
     atom   67 type  2   force =     0.00001257    0.00000595    0.00000266
     atom   68 type  2   force =     0.00001119    0.00000419   -0.00000619
     atom   69 type  2   force =     0.00000384   -0.00000501   -0.00000371
     atom   70 type  2   force =     0.00000008   -0.00001236    0.00000234
     atom   71 type  2   force =    -0.00000533    0.00000610   -0.00000180
     atom   72 type  2   force =    -0.00000312    0.00001087    0.00000199

     Total force =     0.082769     Total SCF correction =     0.000240


     Computing stress (Cartesian axis) and pressure

          total   stress  (Ry/bohr**3)                   (kbar)     P=   61.18
   0.00086820   0.00000072  -0.00000007        127.72      0.11     -0.01
   0.00000072   0.00086418  -0.00000063          0.11    127.13     -0.09
  -0.00000007  -0.00000063  -0.00048468         -0.01     -0.09    -71.30

     kinetic stress (kbar)  27940.84      0.82     -0.11
                                0.82  27940.64     -0.03
                               -0.11     -0.03  28325.09

     local   stress (kbar) -20664.67   -325.86   1687.01
                             -325.86 -25280.31  -1194.21
                             1687.01  -1194.21  11100.41

     nonloc. stress (kbar)   1137.17     -0.20     -0.19
                               -0.20   1138.42      0.06
                               -0.19      0.06    827.86

     hartree stress (kbar)  51977.04    152.24   -823.45
                              152.24  54233.09    582.77
                             -823.45    582.77  40484.26

     exc-cor stress (kbar) -11244.08      0.02     -0.00
                                0.02 -11244.09      0.00
                               -0.00      0.00 -11261.90

     corecor stress (kbar)   -248.59     -0.00     -0.00
                               -0.00   -248.59      0.00
                               -0.00      0.00   -248.94

     ewald   stress (kbar) -48769.99    173.10   -863.27
                              173.10 -46412.05    611.32
                             -863.27    611.32 -69298.07

     hubbard stress (kbar)      0.00      0.00      0.00
                                0.00      0.00      0.00
                                0.00      0.00      0.00

     london  stress (kbar)      0.00      0.00      0.00
                                0.00      0.00      0.00
                                0.00      0.00      0.00

     DFT-D3  stress (kbar)      0.00      0.00      0.00
                                0.00      0.00      0.00
                                0.00      0.00      0.00

     XDM     stress (kbar)      0.00      0.00      0.00
                                0.00      0.00      0.00
                                0.00      0.00      0.00

     dft-nl  stress (kbar)      0.00      0.00      0.00
                                0.00      0.00      0.00
                                0.00      0.00      0.00

     TS-vdW  stress (kbar)      0.00      0.00      0.00
                                0.00      0.00      0.00
                                0.00      0.00      0.00



     Writing output data file ZnO.save/
 
     init_run     :     13.83s CPU     17.09s WALL (       1 calls)
     electrons    :    645.45s CPU    659.54s WALL (       1 calls)
     forces       :      9.56s CPU      9.88s WALL (       1 calls)
     stress       :    138.54s CPU    138.78s WALL (       1 calls)

     Called by init_run:
     wfcinit      :     11.62s CPU     13.31s WALL (       1 calls)
     wfcinit:atom :      0.09s CPU      0.12s WALL (       5 calls)
     wfcinit:wfcr :     11.15s CPU     12.76s WALL (       5 calls)
     potinit      :      1.02s CPU      1.44s WALL (       1 calls)
     hinit0       :      0.77s CPU      1.54s WALL (       1 calls)

     Called by electrons:
     c_bands      :    594.49s CPU    606.81s WALL (      12 calls)
     sum_band     :     44.10s CPU     44.97s WALL (      12 calls)
     v_of_rho     :      5.51s CPU      6.17s WALL (      13 calls)
     v_h          :      0.13s CPU      0.19s WALL (      13 calls)
     v_xc         :      6.18s CPU      6.74s WALL (      15 calls)
     newd         :      1.16s CPU      1.38s WALL (      13 calls)
     mix_rho      :      0.31s CPU      0.63s WALL (      12 calls)

     Called by c_bands:
     init_us_2    :      4.41s CPU      4.45s WALL (     135 calls)
     cegterg      :    533.40s CPU    545.32s WALL (      60 calls)

     Called by sum_band:
     sum_band:bec :      0.24s CPU      0.24s WALL (      60 calls)
     addusdens    :      1.08s CPU      1.17s WALL (      12 calls)

     Called by *egterg:
     h_psi        :    192.36s CPU    195.44s WALL (     245 calls)
     s_psi        :     48.30s CPU     48.37s WALL (     245 calls)
     g_psi        :      0.77s CPU      0.77s WALL (     180 calls)
     cdiaghg      :    179.40s CPU    185.83s WALL (     240 calls)
     cegterg:over :     52.33s CPU     53.64s WALL (     180 calls)
     cegterg:upda :     33.60s CPU     33.97s WALL (     180 calls)
     cegterg:last :     19.26s CPU     19.33s WALL (      60 calls)
     cdiaghg:chol :      8.61s CPU      9.25s WALL (     240 calls)
     cdiaghg:inve :      2.69s CPU      2.75s WALL (     240 calls)
     cdiaghg:para :     43.51s CPU     47.69s WALL (     480 calls)

     Called by h_psi:
     h_psi:pot    :    190.74s CPU    192.85s WALL (     245 calls)
     h_psi:calbec :     49.65s CPU     51.11s WALL (     245 calls)
     vloc_psi     :     92.50s CPU     92.95s WALL (     245 calls)
     add_vuspsi   :     48.59s CPU     48.79s WALL (     245 calls)

     General routines
     calbec       :     77.35s CPU     79.52s WALL (     330 calls)
     fft          :      1.38s CPU      2.46s WALL (     192 calls)
     ffts         :      0.06s CPU      0.08s WALL (      25 calls)
     fftw         :    105.88s CPU    106.40s WALL (  169948 calls)
     interpolate  :      0.15s CPU      0.20s WALL (      13 calls)
 
     Parallel routines
     fft_scatt_xy :     17.60s CPU     17.68s WALL (  170165 calls)
     fft_scatt_yz :     28.36s CPU     29.06s WALL (  170165 calls)
 
     PWSCF        :  13m29.31s CPU  13m57.52s WALL

 
   This run was terminated on:  13:52:34   8Nov2021            

=------------------------------------------------------------------------------=
   JOB DONE.
=------------------------------------------------------------------------------=
