
     Program PWSCF v.6.4.1 starts on 15Jun2022 at 23:25:30 

     This program is part of the open-source Quantum ESPRESSO suite
     for quantum simulation of materials; please cite
         "P. Giannozzi et al., J. Phys.:Condens. Matter 21 395502 (2009);
         "P. Giannozzi et al., J. Phys.:Condens. Matter 29 465901 (2017);
          URL http://www.quantum-espresso.org", 
     in publications or presentations arising from this work. More details at
     http://www.quantum-espresso.org/quote

     Parallel version (MPI), running on    64 processors

     MPI processes distributed on     1 nodes
     K-points division:     npool     =       4
     R & G space division:  proc/nbgrp/npool/nimage =      16
     Waiting for input...
     Reading input from standard input
Warning: card &IONS ignored
Warning: card   UPSCALE           = 100.D0, ignored
Warning: card / ignored
Warning: card &CELL ignored
Warning: card   CELL_DYNAMICS     = 'BFGS' ignored
Warning: card   PRESS_CONV_THR    = 0.5D0 ignored
Warning: card   CELL_DOFREE = 'ALL' ignored
Warning: card / ignored

     Current dimensions of program PWSCF are:
     Max number of different atomic species (ntypx) = 10
     Max number of k-points (npk) =  40000
     Max angular momentum in pseudopotentials (lmaxx) =  3

     Subspace diagonalization in iterative solution of the eigenvalue problem:
     one sub-group per band group will be used
     scalapack distributed-memory algorithm (size of sub-group:  2*  2 procs)

 
     Parallelization info
     --------------------
     sticks:   dense  smooth     PW     G-vecs:    dense   smooth      PW
     Min         106      57     17                 4785     1865     323
     Max         107      58     18                 4787     1870     328
     Sum        1711     913    283                76585    29881    5205
 


     bravais-lattice index     =            0
     lattice parameter (alat)  =       6.4219  a.u.
     unit-cell volume          =     308.9849 (a.u.)^3
     number of atoms/cell      =            4
     number of atomic types    =            3
     number of electrons       =        42.00
     number of Kohn-Sham states=           21
     kinetic-energy cutoff     =      80.0000  Ry
     charge density cutoff     =     600.0000  Ry
     convergence threshold     =      1.0E-06
     mixing beta               =       0.5000
     number of iterations used =            8  plain     mixing
     Exchange-correlation      = SLA  PW   PSX  PSC ( 1  4 10  8 0 0)
     Using LIBXC version       =    4   3   4

     celldm(1)=   6.421911  celldm(2)=   0.000000  celldm(3)=   0.000000
     celldm(4)=   0.000000  celldm(5)=   0.000000  celldm(6)=   0.000000

     crystal axes: (cart. coord. in units of alat)
               a(1) = (   1.000000   0.000000   0.000000 )  
               a(2) = (  -0.500000   0.866025   0.000000 )  
               a(3) = (   0.000000   0.000000   1.347144 )  

     reciprocal axes: (cart. coord. in units 2 pi/alat)
               b(1) = (  1.000000  0.577351 -0.000000 )  
               b(2) = ( -0.000000  1.154701 -0.000000 )  
               b(3) = ( -0.000000 -0.000000  0.742311 )  


     PseudoPot. # 1 for Mg read from file:
     ./GBRV_PBEsol/mg_pbesol_v1.4.uspp.F.UPF
     MD5 check sum: 4059f37963cf5867752dbf5ab2400678
     Pseudo is Ultrasoft, Zval = 10.0
     Generated by new atomic code, or converted to UPF format
     Using radial grid of  821 points,  7 beta functions with: 
                l(1) =   0
                l(2) =   0
                l(3) =   0
                l(4) =   1
                l(5) =   1
                l(6) =   2
                l(7) =   2
     Q(r) pseudized with  8 coefficients,  rinner =    1.200   1.200   1.200
                                                       1.200   1.200

     PseudoPot. # 2 for Zn read from file:
     ./GBRV_PBEsol/zn_pbesol_v1.uspp.F.UPF
     MD5 check sum: 7d8615e52efe7c1e2b1899de8658bae2
     Pseudo is Ultrasoft, Zval = 20.0
     Generated by new atomic code, or converted to UPF format
     Using radial grid of  943 points,  6 beta functions with: 
                l(1) =   0
                l(2) =   0
                l(3) =   1
                l(4) =   1
                l(5) =   2
                l(6) =   2
     Q(r) pseudized with  8 coefficients,  rinner =    1.100   1.100   1.100
                                                       1.100   1.100

     PseudoPot. # 3 for O  read from file:
     ./GBRV_PBEsol/o_pbesol_v1.2.uspp.F.UPF
     MD5 check sum: 501638753501ef6325af9037351f7734
     Pseudo is Ultrasoft + core correction, Zval =  6.0
     Generated by new atomic code, or converted to UPF format
     Using radial grid of  737 points,  5 beta functions with: 
                l(1) =   0
                l(2) =   0
                l(3) =   1
                l(4) =   1
                l(5) =   2
     Q(r) pseudized with  8 coefficients,  rinner =    0.900   0.900   0.900
                                                       0.900   0.900

     atomic species   valence    mass     pseudopotential
        Mg            10.00    24.30500     Mg( 1.00)
        Zn            20.00    65.38000     Zn( 1.00)
        O              6.00    15.99900     O ( 1.00)

     No symmetry found


                                    s                        frac. trans.

      isym =  1     identity                                     

 cryst.   s( 1) = (     1          0          0      )
                  (     0          1          0      )
                  (     0          0          1      )

 cart.    s( 1) = (  1.0000000  0.0000000  0.0000000 )
                  ( -0.0000000  1.0000000 -0.0000000 )
                  ( -0.0000000 -0.0000000  1.0000000 )


   Cartesian axes

     site n.     atom                  positions (alat units)
         1           O   tau(   1) = (   0.5000001   0.2886753   0.0098960  )
         2           O   tau(   2) = (   0.0000001   0.5773491   0.6834678  )
         3           Zn  tau(   3) = (   0.5000000   0.2886747   0.6115952  )
         4           Mg  tau(   4) = (  -0.0000001   0.5773509   1.2895920  )

   Crystallographic axes

     site n.     atom                  positions (cryst. coord.)
         1           O   tau(   1) = (  0.6666670  0.3333337  0.0073459  )
         2           O   tau(   2) = (  0.3333329  0.6666657  0.5073458  )
         3           Zn  tau(   3) = (  0.6666664  0.3333329  0.4539939  )
         4           Mg  tau(   4) = (  0.3333337  0.6666677  0.9572785  )

     number of k points=   260
                       cart. coord. in units 2pi/alat
        k(    1) = (   0.0000000   0.0000000   0.0000000), wk =   0.0039062
        k(    2) = (  -0.0000000  -0.0000000   0.0927889), wk =   0.0078125
        k(    3) = (  -0.0000000  -0.0000000   0.1855778), wk =   0.0078125
        k(    4) = (  -0.0000000  -0.0000000   0.2783667), wk =   0.0078125
        k(    5) = (   0.0000000   0.0000000  -0.3711556), wk =   0.0039062
        k(    6) = (  -0.0000000   0.1443376  -0.0000000), wk =   0.0078125
        k(    7) = (  -0.0000000   0.1443376   0.0927889), wk =   0.0078125
        k(    8) = (  -0.0000000   0.1443376   0.1855778), wk =   0.0078125
        k(    9) = (  -0.0000000   0.1443376   0.2783667), wk =   0.0078125
        k(   10) = (   0.0000000   0.1443377  -0.3711556), wk =   0.0078125
        k(   11) = (   0.0000000   0.1443377  -0.2783667), wk =   0.0078125
        k(   12) = (   0.0000000   0.1443377  -0.1855778), wk =   0.0078125
        k(   13) = (   0.0000000   0.1443376  -0.0927889), wk =   0.0078125
        k(   14) = (  -0.0000000   0.2886753  -0.0000000), wk =   0.0078125
        k(   15) = (  -0.0000000   0.2886753   0.0927889), wk =   0.0078125
        k(   16) = (  -0.0000000   0.2886753   0.1855778), wk =   0.0078125
        k(   17) = (  -0.0000000   0.2886753   0.2783667), wk =   0.0078125
        k(   18) = (   0.0000000   0.2886753  -0.3711556), wk =   0.0078125
        k(   19) = (   0.0000000   0.2886753  -0.2783667), wk =   0.0078125
        k(   20) = (   0.0000000   0.2886753  -0.1855778), wk =   0.0078125
        k(   21) = (   0.0000000   0.2886753  -0.0927889), wk =   0.0078125
        k(   22) = (  -0.0000000   0.4330129  -0.0000000), wk =   0.0078125
        k(   23) = (  -0.0000000   0.4330129   0.0927889), wk =   0.0078125
        k(   24) = (  -0.0000000   0.4330129   0.1855778), wk =   0.0078125
        k(   25) = (  -0.0000000   0.4330129   0.2783667), wk =   0.0078125
        k(   26) = (   0.0000000   0.4330129  -0.3711556), wk =   0.0078125
        k(   27) = (   0.0000000   0.4330129  -0.2783667), wk =   0.0078125
        k(   28) = (   0.0000000   0.4330129  -0.1855778), wk =   0.0078125
        k(   29) = (   0.0000000   0.4330129  -0.0927889), wk =   0.0078125
        k(   30) = (   0.0000000  -0.5773506   0.0000000), wk =   0.0039062
        k(   31) = (  -0.0000000  -0.5773506   0.0927889), wk =   0.0078125
        k(   32) = (  -0.0000000  -0.5773506   0.1855778), wk =   0.0078125
        k(   33) = (  -0.0000000  -0.5773506   0.2783667), wk =   0.0078125
        k(   34) = (   0.0000000  -0.5773505  -0.3711556), wk =   0.0039062
        k(   35) = (   0.1250000   0.0721688  -0.0000000), wk =   0.0078125
        k(   36) = (   0.1250000   0.0721688   0.0927889), wk =   0.0078125
        k(   37) = (   0.1250000   0.0721688   0.1855778), wk =   0.0078125
        k(   38) = (   0.1250000   0.0721688   0.2783667), wk =   0.0078125
        k(   39) = (   0.1250000   0.0721688  -0.3711556), wk =   0.0078125
        k(   40) = (   0.1250000   0.0721688  -0.2783667), wk =   0.0078125
        k(   41) = (   0.1250000   0.0721688  -0.1855778), wk =   0.0078125
        k(   42) = (   0.1250000   0.0721688  -0.0927889), wk =   0.0078125
        k(   43) = (   0.1250000   0.2165065  -0.0000000), wk =   0.0078125
        k(   44) = (   0.1250000   0.2165065   0.0927889), wk =   0.0078125
        k(   45) = (   0.1250000   0.2165064   0.1855778), wk =   0.0078125
        k(   46) = (   0.1250000   0.2165064   0.2783667), wk =   0.0078125
        k(   47) = (   0.1250000   0.2165065  -0.3711556), wk =   0.0078125
        k(   48) = (   0.1250000   0.2165065  -0.2783667), wk =   0.0078125
        k(   49) = (   0.1250000   0.2165065  -0.1855778), wk =   0.0078125
        k(   50) = (   0.1250000   0.2165065  -0.0927889), wk =   0.0078125
        k(   51) = (   0.1250000   0.3608441  -0.0000000), wk =   0.0078125
        k(   52) = (   0.1250000   0.3608441   0.0927889), wk =   0.0078125
        k(   53) = (   0.1250000   0.3608441   0.1855778), wk =   0.0078125
        k(   54) = (   0.1250000   0.3608441   0.2783667), wk =   0.0078125
        k(   55) = (   0.1250000   0.3608441  -0.3711556), wk =   0.0078125
        k(   56) = (   0.1250000   0.3608441  -0.2783667), wk =   0.0078125
        k(   57) = (   0.1250000   0.3608441  -0.1855778), wk =   0.0078125
        k(   58) = (   0.1250000   0.3608441  -0.0927889), wk =   0.0078125
        k(   59) = (   0.1250000   0.5051817  -0.0000000), wk =   0.0078125
        k(   60) = (   0.1250000   0.5051817   0.0927889), wk =   0.0078125
        k(   61) = (   0.1250000   0.5051817   0.1855778), wk =   0.0078125
        k(   62) = (   0.1250000   0.5051817   0.2783667), wk =   0.0078125
        k(   63) = (   0.1250000   0.5051818  -0.3711556), wk =   0.0078125
        k(   64) = (   0.1250000   0.5051818  -0.2783667), wk =   0.0078125
        k(   65) = (   0.1250000   0.5051817  -0.1855778), wk =   0.0078125
        k(   66) = (   0.1250000   0.5051817  -0.0927889), wk =   0.0078125
        k(   67) = (   0.1250000  -0.5051817  -0.0000000), wk =   0.0078125
        k(   68) = (   0.1250000  -0.5051817   0.0927889), wk =   0.0078125
        k(   69) = (   0.1250000  -0.5051817   0.1855778), wk =   0.0078125
        k(   70) = (   0.1250000  -0.5051818   0.2783667), wk =   0.0078125
        k(   71) = (   0.1250000  -0.5051817  -0.3711556), wk =   0.0078125
        k(   72) = (   0.1250000  -0.5051817  -0.2783667), wk =   0.0078125
        k(   73) = (   0.1250000  -0.5051817  -0.1855778), wk =   0.0078125
        k(   74) = (   0.1250000  -0.5051817  -0.0927889), wk =   0.0078125
        k(   75) = (   0.1250000  -0.3608441  -0.0000000), wk =   0.0078125
        k(   76) = (   0.1250000  -0.3608441   0.0927889), wk =   0.0078125
        k(   77) = (   0.1250000  -0.3608441   0.1855778), wk =   0.0078125
        k(   78) = (   0.1250000  -0.3608441   0.2783667), wk =   0.0078125
        k(   79) = (   0.1250000  -0.3608441  -0.3711556), wk =   0.0078125
        k(   80) = (   0.1250000  -0.3608441  -0.2783667), wk =   0.0078125
        k(   81) = (   0.1250000  -0.3608441  -0.1855778), wk =   0.0078125
        k(   82) = (   0.1250000  -0.3608441  -0.0927889), wk =   0.0078125
        k(   83) = (   0.1250000  -0.2165065  -0.0000000), wk =   0.0078125
        k(   84) = (   0.1250000  -0.2165065   0.0927889), wk =   0.0078125
        k(   85) = (   0.1250000  -0.2165065   0.1855778), wk =   0.0078125
        k(   86) = (   0.1250000  -0.2165065   0.2783667), wk =   0.0078125
        k(   87) = (   0.1250000  -0.2165064  -0.3711556), wk =   0.0078125
        k(   88) = (   0.1250000  -0.2165064  -0.2783667), wk =   0.0078125
        k(   89) = (   0.1250000  -0.2165064  -0.1855778), wk =   0.0078125
        k(   90) = (   0.1250000  -0.2165065  -0.0927889), wk =   0.0078125
        k(   91) = (   0.1250000  -0.0721688  -0.0000000), wk =   0.0078125
        k(   92) = (   0.1250000  -0.0721688   0.0927889), wk =   0.0078125
        k(   93) = (   0.1250000  -0.0721688   0.1855778), wk =   0.0078125
        k(   94) = (   0.1250000  -0.0721688   0.2783667), wk =   0.0078125
        k(   95) = (   0.1250000  -0.0721688  -0.3711556), wk =   0.0078125
        k(   96) = (   0.1250000  -0.0721688  -0.2783667), wk =   0.0078125
        k(   97) = (   0.1250000  -0.0721688  -0.1855778), wk =   0.0078125
        k(   98) = (   0.1250000  -0.0721688  -0.0927889), wk =   0.0078125
        k(   99) = (   0.2500000   0.1443376  -0.0000000), wk =   0.0078125
        k(  100) = (   0.2500000   0.1443376   0.0927889), wk =   0.0078125
        k(  101) = (   0.2500000   0.1443376   0.1855778), wk =   0.0078125
        k(  102) = (   0.2500000   0.1443376   0.2783667), wk =   0.0078125
        k(  103) = (   0.2500000   0.1443377  -0.3711556), wk =   0.0078125
        k(  104) = (   0.2500000   0.1443377  -0.2783667), wk =   0.0078125
        k(  105) = (   0.2500000   0.1443377  -0.1855778), wk =   0.0078125
        k(  106) = (   0.2500000   0.1443376  -0.0927889), wk =   0.0078125
        k(  107) = (   0.2500000   0.2886753  -0.0000000), wk =   0.0078125
        k(  108) = (   0.2500000   0.2886753   0.0927889), wk =   0.0078125
        k(  109) = (   0.2500000   0.2886753   0.1855778), wk =   0.0078125
        k(  110) = (   0.2500000   0.2886753   0.2783667), wk =   0.0078125
        k(  111) = (   0.2500000   0.2886753  -0.3711556), wk =   0.0078125
        k(  112) = (   0.2500000   0.2886753  -0.2783667), wk =   0.0078125
        k(  113) = (   0.2500000   0.2886753  -0.1855778), wk =   0.0078125
        k(  114) = (   0.2500000   0.2886753  -0.0927889), wk =   0.0078125
        k(  115) = (   0.2500000   0.4330129  -0.0000000), wk =   0.0078125
        k(  116) = (   0.2500000   0.4330129   0.0927889), wk =   0.0078125
        k(  117) = (   0.2500000   0.4330129   0.1855778), wk =   0.0078125
        k(  118) = (   0.2500000   0.4330129   0.2783667), wk =   0.0078125
        k(  119) = (   0.2500000   0.4330129  -0.3711556), wk =   0.0078125
        k(  120) = (   0.2500000   0.4330129  -0.2783667), wk =   0.0078125
        k(  121) = (   0.2500000   0.4330129  -0.1855778), wk =   0.0078125
        k(  122) = (   0.2500000   0.4330129  -0.0927889), wk =   0.0078125
        k(  123) = (   0.2500000   0.5773506  -0.0000000), wk =   0.0078125
        k(  124) = (   0.2500000   0.5773505   0.0927889), wk =   0.0078125
        k(  125) = (   0.2500000   0.5773505   0.1855778), wk =   0.0078125
        k(  126) = (   0.2500000   0.5773505   0.2783667), wk =   0.0078125
        k(  127) = (   0.2500000   0.5773506  -0.3711556), wk =   0.0078125
        k(  128) = (   0.2500000   0.5773506  -0.2783667), wk =   0.0078125
        k(  129) = (   0.2500000   0.5773506  -0.1855778), wk =   0.0078125
        k(  130) = (   0.2500000   0.5773506  -0.0927889), wk =   0.0078125
        k(  131) = (   0.2500000  -0.4330129  -0.0000000), wk =   0.0078125
        k(  132) = (   0.2500000  -0.4330129   0.0927889), wk =   0.0078125
        k(  133) = (   0.2500000  -0.4330129   0.1855778), wk =   0.0078125
        k(  134) = (   0.2500000  -0.4330129   0.2783667), wk =   0.0078125
        k(  135) = (   0.2500000  -0.4330129  -0.3711556), wk =   0.0078125
        k(  136) = (   0.2500000  -0.4330129  -0.2783667), wk =   0.0078125
        k(  137) = (   0.2500000  -0.4330129  -0.1855778), wk =   0.0078125
        k(  138) = (   0.2500000  -0.4330129  -0.0927889), wk =   0.0078125
        k(  139) = (   0.2500000  -0.2886753  -0.0000000), wk =   0.0078125
        k(  140) = (   0.2500000  -0.2886753   0.0927889), wk =   0.0078125
        k(  141) = (   0.2500000  -0.2886753   0.1855778), wk =   0.0078125
        k(  142) = (   0.2500000  -0.2886753   0.2783667), wk =   0.0078125
        k(  143) = (   0.2500000  -0.2886753  -0.3711556), wk =   0.0078125
        k(  144) = (   0.2500000  -0.2886753  -0.2783667), wk =   0.0078125
        k(  145) = (   0.2500000  -0.2886753  -0.1855778), wk =   0.0078125
        k(  146) = (   0.2500000  -0.2886753  -0.0927889), wk =   0.0078125
        k(  147) = (   0.2500000  -0.1443376  -0.0000000), wk =   0.0078125
        k(  148) = (   0.2500000  -0.1443376   0.0927889), wk =   0.0078125
        k(  149) = (   0.2500000  -0.1443377   0.1855778), wk =   0.0078125
        k(  150) = (   0.2500000  -0.1443377   0.2783667), wk =   0.0078125
        k(  151) = (   0.2500000  -0.1443376  -0.3711556), wk =   0.0078125
        k(  152) = (   0.2500000  -0.1443376  -0.2783667), wk =   0.0078125
        k(  153) = (   0.2500000  -0.1443376  -0.1855778), wk =   0.0078125
        k(  154) = (   0.2500000  -0.1443376  -0.0927889), wk =   0.0078125
        k(  155) = (   0.2500000  -0.0000000  -0.0000000), wk =   0.0078125
        k(  156) = (   0.2500000  -0.0000000   0.0927889), wk =   0.0078125
        k(  157) = (   0.2500000  -0.0000000   0.1855778), wk =   0.0078125
        k(  158) = (   0.2500000  -0.0000000   0.2783667), wk =   0.0078125
        k(  159) = (   0.2500000   0.0000000  -0.3711556), wk =   0.0078125
        k(  160) = (   0.2500000   0.0000000  -0.2783667), wk =   0.0078125
        k(  161) = (   0.2500000   0.0000000  -0.1855778), wk =   0.0078125
        k(  162) = (   0.2500000   0.0000000  -0.0927889), wk =   0.0078125
        k(  163) = (   0.3750000   0.2165065  -0.0000000), wk =   0.0078125
        k(  164) = (   0.3750000   0.2165065   0.0927889), wk =   0.0078125
        k(  165) = (   0.3750000   0.2165064   0.1855778), wk =   0.0078125
        k(  166) = (   0.3750000   0.2165064   0.2783666), wk =   0.0078125
        k(  167) = (   0.3750000   0.2165065  -0.3711556), wk =   0.0078125
        k(  168) = (   0.3750000   0.2165065  -0.2783667), wk =   0.0078125
        k(  169) = (   0.3750000   0.2165065  -0.1855778), wk =   0.0078125
        k(  170) = (   0.3750000   0.2165065  -0.0927889), wk =   0.0078125
        k(  171) = (   0.3750000   0.3608441  -0.0000000), wk =   0.0078125
        k(  172) = (   0.3750000   0.3608441   0.0927889), wk =   0.0078125
        k(  173) = (   0.3750000   0.3608441   0.1855778), wk =   0.0078125
        k(  174) = (   0.3750000   0.3608441   0.2783666), wk =   0.0078125
        k(  175) = (   0.3750000   0.3608441  -0.3711556), wk =   0.0078125
        k(  176) = (   0.3750000   0.3608441  -0.2783667), wk =   0.0078125
        k(  177) = (   0.3750000   0.3608441  -0.1855778), wk =   0.0078125
        k(  178) = (   0.3750000   0.3608441  -0.0927889), wk =   0.0078125
        k(  179) = (   0.3750000   0.5051817  -0.0000000), wk =   0.0078125
        k(  180) = (   0.3750000   0.5051817   0.0927889), wk =   0.0078125
        k(  181) = (   0.3750000   0.5051817   0.1855777), wk =   0.0078125
        k(  182) = (   0.3750000   0.5051817   0.2783666), wk =   0.0078125
        k(  183) = (   0.3750000   0.5051818  -0.3711556), wk =   0.0078125
        k(  184) = (   0.3750000   0.5051818  -0.2783667), wk =   0.0078125
        k(  185) = (   0.3750000   0.5051817  -0.1855778), wk =   0.0078125
        k(  186) = (   0.3750000   0.5051817  -0.0927889), wk =   0.0078125
        k(  187) = (   0.3750000   0.6495194  -0.0000000), wk =   0.0078125
        k(  188) = (   0.3750000   0.6495194   0.0927889), wk =   0.0078125
        k(  189) = (   0.3750000   0.6495194   0.1855777), wk =   0.0078125
        k(  190) = (   0.3750000   0.6495194   0.2783666), wk =   0.0078125
        k(  191) = (   0.3750000   0.6495194  -0.3711556), wk =   0.0078125
        k(  192) = (   0.3750000   0.6495194  -0.2783667), wk =   0.0078125
        k(  193) = (   0.3750000   0.6495194  -0.1855778), wk =   0.0078125
        k(  194) = (   0.3750000   0.6495194  -0.0927889), wk =   0.0078125
        k(  195) = (   0.3750000  -0.3608441  -0.0000000), wk =   0.0078125
        k(  196) = (   0.3750000  -0.3608441   0.0927889), wk =   0.0078125
        k(  197) = (   0.3750000  -0.3608441   0.1855778), wk =   0.0078125
        k(  198) = (   0.3750000  -0.3608441   0.2783667), wk =   0.0078125
        k(  199) = (   0.3750000  -0.3608441  -0.3711556), wk =   0.0078125
        k(  200) = (   0.3750000  -0.3608441  -0.2783667), wk =   0.0078125
        k(  201) = (   0.3750000  -0.3608441  -0.1855778), wk =   0.0078125
        k(  202) = (   0.3750000  -0.3608441  -0.0927889), wk =   0.0078125
        k(  203) = (   0.3750000  -0.2165065  -0.0000000), wk =   0.0078125
        k(  204) = (   0.3750000  -0.2165065   0.0927889), wk =   0.0078125
        k(  205) = (   0.3750000  -0.2165065   0.1855778), wk =   0.0078125
        k(  206) = (   0.3750000  -0.2165065   0.2783667), wk =   0.0078125
        k(  207) = (   0.3750000  -0.2165064  -0.3711556), wk =   0.0078125
        k(  208) = (   0.3750000  -0.2165064  -0.2783667), wk =   0.0078125
        k(  209) = (   0.3750000  -0.2165064  -0.1855778), wk =   0.0078125
        k(  210) = (   0.3750000  -0.2165065  -0.0927889), wk =   0.0078125
        k(  211) = (   0.3750000  -0.0721688  -0.0000000), wk =   0.0078125
        k(  212) = (   0.3750000  -0.0721688   0.0927889), wk =   0.0078125
        k(  213) = (   0.3750000  -0.0721688   0.1855778), wk =   0.0078125
        k(  214) = (   0.3750000  -0.0721688   0.2783667), wk =   0.0078125
        k(  215) = (   0.3750000  -0.0721688  -0.3711556), wk =   0.0078125
        k(  216) = (   0.3750000  -0.0721688  -0.2783667), wk =   0.0078125
        k(  217) = (   0.3750000  -0.0721688  -0.1855778), wk =   0.0078125
        k(  218) = (   0.3750000  -0.0721688  -0.0927889), wk =   0.0078125
        k(  219) = (   0.3750000   0.0721688  -0.0000000), wk =   0.0078125
        k(  220) = (   0.3750000   0.0721688   0.0927889), wk =   0.0078125
        k(  221) = (   0.3750000   0.0721688   0.1855778), wk =   0.0078125
        k(  222) = (   0.3750000   0.0721688   0.2783667), wk =   0.0078125
        k(  223) = (   0.3750000   0.0721688  -0.3711556), wk =   0.0078125
        k(  224) = (   0.3750000   0.0721688  -0.2783667), wk =   0.0078125
        k(  225) = (   0.3750000   0.0721688  -0.1855778), wk =   0.0078125
        k(  226) = (   0.3750000   0.0721688  -0.0927889), wk =   0.0078125
        k(  227) = (  -0.5000000  -0.2886753   0.0000000), wk =   0.0039062
        k(  228) = (  -0.5000000  -0.2886753   0.0927889), wk =   0.0078125
        k(  229) = (  -0.5000000  -0.2886753   0.1855778), wk =   0.0078125
        k(  230) = (  -0.5000000  -0.2886753   0.2783667), wk =   0.0078125
        k(  231) = (  -0.5000000  -0.2886753  -0.3711555), wk =   0.0039062
        k(  232) = (  -0.5000000  -0.1443376   0.0000000), wk =   0.0078125
        k(  233) = (  -0.5000000  -0.1443376   0.0927889), wk =   0.0078125
        k(  234) = (  -0.5000000  -0.1443377   0.1855778), wk =   0.0078125
        k(  235) = (  -0.5000000  -0.1443377   0.2783667), wk =   0.0078125
        k(  236) = (  -0.5000000  -0.1443376  -0.3711555), wk =   0.0078125
        k(  237) = (  -0.5000000  -0.1443376  -0.2783666), wk =   0.0078125
        k(  238) = (  -0.5000000  -0.1443376  -0.1855777), wk =   0.0078125
        k(  239) = (  -0.5000000  -0.1443376  -0.0927889), wk =   0.0078125
        k(  240) = (  -0.5000000   0.0000000   0.0000000), wk =   0.0078125
        k(  241) = (  -0.5000000  -0.0000000   0.0927889), wk =   0.0078125
        k(  242) = (  -0.5000000  -0.0000000   0.1855778), wk =   0.0078125
        k(  243) = (  -0.5000000  -0.0000000   0.2783667), wk =   0.0078125
        k(  244) = (  -0.5000000   0.0000000  -0.3711555), wk =   0.0078125
        k(  245) = (  -0.5000000   0.0000000  -0.2783666), wk =   0.0078125
        k(  246) = (  -0.5000000   0.0000000  -0.1855777), wk =   0.0078125
        k(  247) = (  -0.5000000   0.0000000  -0.0927889), wk =   0.0078125
        k(  248) = (  -0.5000000   0.1443376   0.0000000), wk =   0.0078125
        k(  249) = (  -0.5000000   0.1443376   0.0927889), wk =   0.0078125
        k(  250) = (  -0.5000000   0.1443376   0.1855778), wk =   0.0078125
        k(  251) = (  -0.5000000   0.1443376   0.2783667), wk =   0.0078125
        k(  252) = (  -0.5000000   0.1443377  -0.3711555), wk =   0.0078125
        k(  253) = (  -0.5000000   0.1443377  -0.2783666), wk =   0.0078125
        k(  254) = (  -0.5000000   0.1443377  -0.1855778), wk =   0.0078125
        k(  255) = (  -0.5000000   0.1443376  -0.0927889), wk =   0.0078125
        k(  256) = (  -0.5000000  -0.8660258   0.0000001), wk =   0.0039062
        k(  257) = (  -0.5000000  -0.8660258   0.0927889), wk =   0.0078125
        k(  258) = (  -0.5000000  -0.8660258   0.1855778), wk =   0.0078125
        k(  259) = (  -0.5000000  -0.8660258   0.2783667), wk =   0.0078125
        k(  260) = (  -0.5000000  -0.8660258  -0.3711555), wk =   0.0039062

                       cryst. coord.
        k(    1) = (   0.0000000   0.0000000   0.0000000), wk =   0.0039062
        k(    2) = (   0.0000000   0.0000000   0.1250000), wk =   0.0078125
        k(    3) = (   0.0000000   0.0000000   0.2500000), wk =   0.0078125
        k(    4) = (  -0.0000000   0.0000000   0.3750000), wk =   0.0078125
        k(    5) = (  -0.0000000  -0.0000000  -0.5000000), wk =   0.0039062
        k(    6) = (  -0.0000000   0.1250000  -0.0000000), wk =   0.0078125
        k(    7) = (   0.0000000   0.1250000   0.1250000), wk =   0.0078125
        k(    8) = (  -0.0000000   0.1250000   0.2500000), wk =   0.0078125
        k(    9) = (  -0.0000000   0.1250000   0.3750000), wk =   0.0078125
        k(   10) = (  -0.0000000   0.1250000  -0.5000000), wk =   0.0078125
        k(   11) = (  -0.0000000   0.1250000  -0.3750000), wk =   0.0078125
        k(   12) = (  -0.0000000   0.1250000  -0.2500000), wk =   0.0078125
        k(   13) = (   0.0000000   0.1250000  -0.1250000), wk =   0.0078125
        k(   14) = (  -0.0000000   0.2500000  -0.0000000), wk =   0.0078125
        k(   15) = (   0.0000000   0.2500000   0.1250000), wk =   0.0078125
        k(   16) = (   0.0000000   0.2500000   0.2500000), wk =   0.0078125
        k(   17) = (  -0.0000000   0.2500000   0.3750000), wk =   0.0078125
        k(   18) = (  -0.0000000   0.2500000  -0.5000000), wk =   0.0078125
        k(   19) = (   0.0000000   0.2500000  -0.3750000), wk =   0.0078125
        k(   20) = (   0.0000000   0.2500000  -0.2500000), wk =   0.0078125
        k(   21) = (   0.0000000   0.2500000  -0.1250000), wk =   0.0078125
        k(   22) = (  -0.0000000   0.3750000  -0.0000000), wk =   0.0078125
        k(   23) = (   0.0000000   0.3750000   0.1250000), wk =   0.0078125
        k(   24) = (  -0.0000000   0.3750000   0.2500000), wk =   0.0078125
        k(   25) = (  -0.0000000   0.3750000   0.3750000), wk =   0.0078125
        k(   26) = (   0.0000000   0.3750000  -0.5000000), wk =   0.0078125
        k(   27) = (   0.0000000   0.3750000  -0.3750000), wk =   0.0078125
        k(   28) = (  -0.0000000   0.3750000  -0.2500000), wk =   0.0078125
        k(   29) = (  -0.0000000   0.3750000  -0.1250000), wk =   0.0078125
        k(   30) = (   0.0000000  -0.5000000   0.0000000), wk =   0.0039062
        k(   31) = (   0.0000000  -0.5000000   0.1250000), wk =   0.0078125
        k(   32) = (  -0.0000000  -0.5000000   0.2500000), wk =   0.0078125
        k(   33) = (  -0.0000000  -0.5000000   0.3750000), wk =   0.0078125
        k(   34) = (  -0.0000000  -0.5000000  -0.5000000), wk =   0.0039062
        k(   35) = (   0.1250000   0.0000000  -0.0000000), wk =   0.0078125
        k(   36) = (   0.1250000  -0.0000000   0.1250000), wk =   0.0078125
        k(   37) = (   0.1250000  -0.0000000   0.2500000), wk =   0.0078125
        k(   38) = (   0.1250000  -0.0000000   0.3750000), wk =   0.0078125
        k(   39) = (   0.1250000  -0.0000000  -0.5000000), wk =   0.0078125
        k(   40) = (   0.1250000  -0.0000000  -0.3750000), wk =   0.0078125
        k(   41) = (   0.1250000   0.0000000  -0.2500000), wk =   0.0078125
        k(   42) = (   0.1250000  -0.0000000  -0.1250000), wk =   0.0078125
        k(   43) = (   0.1250000   0.1250000   0.0000000), wk =   0.0078125
        k(   44) = (   0.1250000   0.1250000   0.1250000), wk =   0.0078125
        k(   45) = (   0.1250000   0.1250000   0.2500000), wk =   0.0078125
        k(   46) = (   0.1250000   0.1250000   0.3750000), wk =   0.0078125
        k(   47) = (   0.1250000   0.1250000  -0.5000000), wk =   0.0078125
        k(   48) = (   0.1250000   0.1250000  -0.3750000), wk =   0.0078125
        k(   49) = (   0.1250000   0.1250000  -0.2500000), wk =   0.0078125
        k(   50) = (   0.1250000   0.1250000  -0.1250000), wk =   0.0078125
        k(   51) = (   0.1250000   0.2500000  -0.0000000), wk =   0.0078125
        k(   52) = (   0.1250000   0.2500000   0.1250000), wk =   0.0078125
        k(   53) = (   0.1250000   0.2500000   0.2500000), wk =   0.0078125
        k(   54) = (   0.1250000   0.2500000   0.3750000), wk =   0.0078125
        k(   55) = (   0.1250000   0.2500000  -0.5000000), wk =   0.0078125
        k(   56) = (   0.1250000   0.2500000  -0.3750000), wk =   0.0078125
        k(   57) = (   0.1250000   0.2500000  -0.2500000), wk =   0.0078125
        k(   58) = (   0.1250000   0.2500000  -0.1250000), wk =   0.0078125
        k(   59) = (   0.1250000   0.3750000  -0.0000000), wk =   0.0078125
        k(   60) = (   0.1250000   0.3750000   0.1250000), wk =   0.0078125
        k(   61) = (   0.1250000   0.3750000   0.2500000), wk =   0.0078125
        k(   62) = (   0.1250000   0.3750000   0.3750000), wk =   0.0078125
        k(   63) = (   0.1250000   0.3750000  -0.5000000), wk =   0.0078125
        k(   64) = (   0.1250000   0.3750000  -0.3750000), wk =   0.0078125
        k(   65) = (   0.1250000   0.3750000  -0.2500000), wk =   0.0078125
        k(   66) = (   0.1250000   0.3750000  -0.1250000), wk =   0.0078125
        k(   67) = (   0.1250000  -0.5000000   0.0000000), wk =   0.0078125
        k(   68) = (   0.1250000  -0.5000000   0.1250000), wk =   0.0078125
        k(   69) = (   0.1250000  -0.5000000   0.2500000), wk =   0.0078125
        k(   70) = (   0.1250000  -0.5000000   0.3750000), wk =   0.0078125
        k(   71) = (   0.1250000  -0.5000000  -0.5000000), wk =   0.0078125
        k(   72) = (   0.1250000  -0.5000000  -0.3750000), wk =   0.0078125
        k(   73) = (   0.1250000  -0.5000000  -0.2500000), wk =   0.0078125
        k(   74) = (   0.1250000  -0.5000000  -0.1250000), wk =   0.0078125
        k(   75) = (   0.1250000  -0.3750000   0.0000000), wk =   0.0078125
        k(   76) = (   0.1250000  -0.3750000   0.1250000), wk =   0.0078125
        k(   77) = (   0.1250000  -0.3750000   0.2500000), wk =   0.0078125
        k(   78) = (   0.1250000  -0.3750000   0.3750000), wk =   0.0078125
        k(   79) = (   0.1250000  -0.3750000  -0.5000000), wk =   0.0078125
        k(   80) = (   0.1250000  -0.3750000  -0.3750000), wk =   0.0078125
        k(   81) = (   0.1250000  -0.3750000  -0.2500000), wk =   0.0078125
        k(   82) = (   0.1250000  -0.3750000  -0.1250000), wk =   0.0078125
        k(   83) = (   0.1250000  -0.2500000   0.0000000), wk =   0.0078125
        k(   84) = (   0.1250000  -0.2500000   0.1250000), wk =   0.0078125
        k(   85) = (   0.1250000  -0.2500000   0.2500000), wk =   0.0078125
        k(   86) = (   0.1250000  -0.2500000   0.3750000), wk =   0.0078125
        k(   87) = (   0.1250000  -0.2500000  -0.5000000), wk =   0.0078125
        k(   88) = (   0.1250000  -0.2500000  -0.3750000), wk =   0.0078125
        k(   89) = (   0.1250000  -0.2500000  -0.2500000), wk =   0.0078125
        k(   90) = (   0.1250000  -0.2500000  -0.1250000), wk =   0.0078125
        k(   91) = (   0.1250000  -0.1250000   0.0000000), wk =   0.0078125
        k(   92) = (   0.1250000  -0.1250000   0.1250000), wk =   0.0078125
        k(   93) = (   0.1250000  -0.1250000   0.2500000), wk =   0.0078125
        k(   94) = (   0.1250000  -0.1250000   0.3750000), wk =   0.0078125
        k(   95) = (   0.1250000  -0.1250000  -0.5000000), wk =   0.0078125
        k(   96) = (   0.1250000  -0.1250000  -0.3750000), wk =   0.0078125
        k(   97) = (   0.1250000  -0.1250000  -0.2500000), wk =   0.0078125
        k(   98) = (   0.1250000  -0.1250000  -0.1250000), wk =   0.0078125
        k(   99) = (   0.2500000   0.0000000  -0.0000000), wk =   0.0078125
        k(  100) = (   0.2500000   0.0000000   0.1250000), wk =   0.0078125
        k(  101) = (   0.2500000  -0.0000000   0.2500000), wk =   0.0078125
        k(  102) = (   0.2500000   0.0000000   0.3750000), wk =   0.0078125
        k(  103) = (   0.2500000   0.0000000  -0.5000000), wk =   0.0078125
        k(  104) = (   0.2500000  -0.0000000  -0.3750000), wk =   0.0078125
        k(  105) = (   0.2500000  -0.0000000  -0.2500000), wk =   0.0078125
        k(  106) = (   0.2500000  -0.0000000  -0.1250000), wk =   0.0078125
        k(  107) = (   0.2500000   0.1250000   0.0000000), wk =   0.0078125
        k(  108) = (   0.2500000   0.1250000   0.1250000), wk =   0.0078125
        k(  109) = (   0.2500000   0.1250000   0.2500000), wk =   0.0078125
        k(  110) = (   0.2500000   0.1250000   0.3750000), wk =   0.0078125
        k(  111) = (   0.2500000   0.1250000  -0.5000000), wk =   0.0078125
        k(  112) = (   0.2500000   0.1250000  -0.3750000), wk =   0.0078125
        k(  113) = (   0.2500000   0.1250000  -0.2500000), wk =   0.0078125
        k(  114) = (   0.2500000   0.1250000  -0.1250000), wk =   0.0078125
        k(  115) = (   0.2500000   0.2500000   0.0000000), wk =   0.0078125
        k(  116) = (   0.2500000   0.2500000   0.1250000), wk =   0.0078125
        k(  117) = (   0.2500000   0.2500000   0.2500000), wk =   0.0078125
        k(  118) = (   0.2500000   0.2500000   0.3750000), wk =   0.0078125
        k(  119) = (   0.2500000   0.2500000  -0.5000000), wk =   0.0078125
        k(  120) = (   0.2500000   0.2500000  -0.3750000), wk =   0.0078125
        k(  121) = (   0.2500000   0.2500000  -0.2500000), wk =   0.0078125
        k(  122) = (   0.2500000   0.2500000  -0.1250000), wk =   0.0078125
        k(  123) = (   0.2500000   0.3750000  -0.0000000), wk =   0.0078125
        k(  124) = (   0.2500000   0.3750000   0.1250000), wk =   0.0078125
        k(  125) = (   0.2500000   0.3750000   0.2500000), wk =   0.0078125
        k(  126) = (   0.2500000   0.3750000   0.3750000), wk =   0.0078125
        k(  127) = (   0.2500000   0.3750000  -0.5000000), wk =   0.0078125
        k(  128) = (   0.2500000   0.3750000  -0.3750000), wk =   0.0078125
        k(  129) = (   0.2500000   0.3750000  -0.2500000), wk =   0.0078125
        k(  130) = (   0.2500000   0.3750000  -0.1250000), wk =   0.0078125
        k(  131) = (   0.2500000  -0.5000000   0.0000000), wk =   0.0078125
        k(  132) = (   0.2500000  -0.5000000   0.1250000), wk =   0.0078125
        k(  133) = (   0.2500000  -0.5000000   0.2500000), wk =   0.0078125
        k(  134) = (   0.2500000  -0.5000000   0.3750000), wk =   0.0078125
        k(  135) = (   0.2500000  -0.5000000  -0.5000000), wk =   0.0078125
        k(  136) = (   0.2500000  -0.5000000  -0.3750000), wk =   0.0078125
        k(  137) = (   0.2500000  -0.5000000  -0.2500000), wk =   0.0078125
        k(  138) = (   0.2500000  -0.5000000  -0.1250000), wk =   0.0078125
        k(  139) = (   0.2500000  -0.3750000   0.0000000), wk =   0.0078125
        k(  140) = (   0.2500000  -0.3750000   0.1250000), wk =   0.0078125
        k(  141) = (   0.2500000  -0.3750000   0.2500000), wk =   0.0078125
        k(  142) = (   0.2500000  -0.3750000   0.3750000), wk =   0.0078125
        k(  143) = (   0.2500000  -0.3750000  -0.5000000), wk =   0.0078125
        k(  144) = (   0.2500000  -0.3750000  -0.3750000), wk =   0.0078125
        k(  145) = (   0.2500000  -0.3750000  -0.2500000), wk =   0.0078125
        k(  146) = (   0.2500000  -0.3750000  -0.1250000), wk =   0.0078125
        k(  147) = (   0.2500000  -0.2500000   0.0000000), wk =   0.0078125
        k(  148) = (   0.2500000  -0.2500000   0.1250000), wk =   0.0078125
        k(  149) = (   0.2500000  -0.2500000   0.2500000), wk =   0.0078125
        k(  150) = (   0.2500000  -0.2500000   0.3750000), wk =   0.0078125
        k(  151) = (   0.2500000  -0.2500000  -0.5000000), wk =   0.0078125
        k(  152) = (   0.2500000  -0.2500000  -0.3750000), wk =   0.0078125
        k(  153) = (   0.2500000  -0.2500000  -0.2500000), wk =   0.0078125
        k(  154) = (   0.2500000  -0.2500000  -0.1250000), wk =   0.0078125
        k(  155) = (   0.2500000  -0.1250000   0.0000000), wk =   0.0078125
        k(  156) = (   0.2500000  -0.1250000   0.1250000), wk =   0.0078125
        k(  157) = (   0.2500000  -0.1250000   0.2500000), wk =   0.0078125
        k(  158) = (   0.2500000  -0.1250000   0.3750000), wk =   0.0078125
        k(  159) = (   0.2500000  -0.1250000  -0.5000000), wk =   0.0078125
        k(  160) = (   0.2500000  -0.1250000  -0.3750000), wk =   0.0078125
        k(  161) = (   0.2500000  -0.1250000  -0.2500000), wk =   0.0078125
        k(  162) = (   0.2500000  -0.1250000  -0.1250000), wk =   0.0078125
        k(  163) = (   0.3750000   0.0000000  -0.0000000), wk =   0.0078125
        k(  164) = (   0.3750000   0.0000000   0.1250000), wk =   0.0078125
        k(  165) = (   0.3750000   0.0000000   0.2500000), wk =   0.0078125
        k(  166) = (   0.3750000   0.0000000   0.3750000), wk =   0.0078125
        k(  167) = (   0.3750000   0.0000000  -0.5000000), wk =   0.0078125
        k(  168) = (   0.3750000  -0.0000000  -0.3750000), wk =   0.0078125
        k(  169) = (   0.3750000   0.0000000  -0.2500000), wk =   0.0078125
        k(  170) = (   0.3750000  -0.0000000  -0.1250000), wk =   0.0078125
        k(  171) = (   0.3750000   0.1250000   0.0000000), wk =   0.0078125
        k(  172) = (   0.3750000   0.1250000   0.1250000), wk =   0.0078125
        k(  173) = (   0.3750000   0.1250000   0.2500000), wk =   0.0078125
        k(  174) = (   0.3750000   0.1250000   0.3750000), wk =   0.0078125
        k(  175) = (   0.3750000   0.1250000  -0.5000000), wk =   0.0078125
        k(  176) = (   0.3750000   0.1250000  -0.3750000), wk =   0.0078125
        k(  177) = (   0.3750000   0.1250000  -0.2500000), wk =   0.0078125
        k(  178) = (   0.3750000   0.1250000  -0.1250000), wk =   0.0078125
        k(  179) = (   0.3750000   0.2500000  -0.0000000), wk =   0.0078125
        k(  180) = (   0.3750000   0.2500000   0.1250000), wk =   0.0078125
        k(  181) = (   0.3750000   0.2500000   0.2500000), wk =   0.0078125
        k(  182) = (   0.3750000   0.2500000   0.3750000), wk =   0.0078125
        k(  183) = (   0.3750000   0.2500000  -0.5000000), wk =   0.0078125
        k(  184) = (   0.3750000   0.2500000  -0.3750000), wk =   0.0078125
        k(  185) = (   0.3750000   0.2500000  -0.2500000), wk =   0.0078125
        k(  186) = (   0.3750000   0.2500000  -0.1250000), wk =   0.0078125
        k(  187) = (   0.3750000   0.3750000  -0.0000000), wk =   0.0078125
        k(  188) = (   0.3750000   0.3750000   0.1250000), wk =   0.0078125
        k(  189) = (   0.3750000   0.3750000   0.2500000), wk =   0.0078125
        k(  190) = (   0.3750000   0.3750000   0.3750000), wk =   0.0078125
        k(  191) = (   0.3750000   0.3750000  -0.5000000), wk =   0.0078125
        k(  192) = (   0.3750000   0.3750000  -0.3750000), wk =   0.0078125
        k(  193) = (   0.3750000   0.3750000  -0.2500000), wk =   0.0078125
        k(  194) = (   0.3750000   0.3750000  -0.1250000), wk =   0.0078125
        k(  195) = (   0.3750000  -0.5000000  -0.0000000), wk =   0.0078125
        k(  196) = (   0.3750000  -0.5000000   0.1250000), wk =   0.0078125
        k(  197) = (   0.3750000  -0.5000000   0.2500000), wk =   0.0078125
        k(  198) = (   0.3750000  -0.5000000   0.3750000), wk =   0.0078125
        k(  199) = (   0.3750000  -0.5000000  -0.5000000), wk =   0.0078125
        k(  200) = (   0.3750000  -0.5000000  -0.3750000), wk =   0.0078125
        k(  201) = (   0.3750000  -0.5000000  -0.2500000), wk =   0.0078125
        k(  202) = (   0.3750000  -0.5000000  -0.1250000), wk =   0.0078125
        k(  203) = (   0.3750000  -0.3750000  -0.0000000), wk =   0.0078125
        k(  204) = (   0.3750000  -0.3750000   0.1250000), wk =   0.0078125
        k(  205) = (   0.3750000  -0.3750000   0.2500000), wk =   0.0078125
        k(  206) = (   0.3750000  -0.3750000   0.3750000), wk =   0.0078125
        k(  207) = (   0.3750000  -0.3750000  -0.5000000), wk =   0.0078125
        k(  208) = (   0.3750000  -0.3750000  -0.3750000), wk =   0.0078125
        k(  209) = (   0.3750000  -0.3750000  -0.2500000), wk =   0.0078125
        k(  210) = (   0.3750000  -0.3750000  -0.1250000), wk =   0.0078125
        k(  211) = (   0.3750000  -0.2500000  -0.0000000), wk =   0.0078125
        k(  212) = (   0.3750000  -0.2500000   0.1250000), wk =   0.0078125
        k(  213) = (   0.3750000  -0.2500000   0.2500000), wk =   0.0078125
        k(  214) = (   0.3750000  -0.2500000   0.3750000), wk =   0.0078125
        k(  215) = (   0.3750000  -0.2500000  -0.5000000), wk =   0.0078125
        k(  216) = (   0.3750000  -0.2500000  -0.3750000), wk =   0.0078125
        k(  217) = (   0.3750000  -0.2500000  -0.2500000), wk =   0.0078125
        k(  218) = (   0.3750000  -0.2500000  -0.1250000), wk =   0.0078125
        k(  219) = (   0.3750000  -0.1250000  -0.0000000), wk =   0.0078125
        k(  220) = (   0.3750000  -0.1250000   0.1250000), wk =   0.0078125
        k(  221) = (   0.3750000  -0.1250000   0.2500000), wk =   0.0078125
        k(  222) = (   0.3750000  -0.1250000   0.3750000), wk =   0.0078125
        k(  223) = (   0.3750000  -0.1250000  -0.5000000), wk =   0.0078125
        k(  224) = (   0.3750000  -0.1250000  -0.3750000), wk =   0.0078125
        k(  225) = (   0.3750000  -0.1250000  -0.2500000), wk =   0.0078125
        k(  226) = (   0.3750000  -0.1250000  -0.1250000), wk =   0.0078125
        k(  227) = (  -0.5000000  -0.0000000   0.0000000), wk =   0.0039062
        k(  228) = (  -0.5000000   0.0000000   0.1250000), wk =   0.0078125
        k(  229) = (  -0.5000000   0.0000000   0.2500000), wk =   0.0078125
        k(  230) = (  -0.5000000  -0.0000000   0.3750000), wk =   0.0078125
        k(  231) = (  -0.5000000   0.0000000  -0.5000000), wk =   0.0039062
        k(  232) = (  -0.5000000   0.1250000  -0.0000000), wk =   0.0078125
        k(  233) = (  -0.5000000   0.1250000   0.1250000), wk =   0.0078125
        k(  234) = (  -0.5000000   0.1250000   0.2500000), wk =   0.0078125
        k(  235) = (  -0.5000000   0.1250000   0.3750000), wk =   0.0078125
        k(  236) = (  -0.5000000   0.1250000  -0.5000000), wk =   0.0078125
        k(  237) = (  -0.5000000   0.1250000  -0.3750000), wk =   0.0078125
        k(  238) = (  -0.5000000   0.1250000  -0.2500000), wk =   0.0078125
        k(  239) = (  -0.5000000   0.1250000  -0.1250000), wk =   0.0078125
        k(  240) = (  -0.5000000   0.2500000  -0.0000000), wk =   0.0078125
        k(  241) = (  -0.5000000   0.2500000   0.1250000), wk =   0.0078125
        k(  242) = (  -0.5000000   0.2500000   0.2500000), wk =   0.0078125
        k(  243) = (  -0.5000000   0.2500000   0.3750000), wk =   0.0078125
        k(  244) = (  -0.5000000   0.2500000  -0.5000000), wk =   0.0078125
        k(  245) = (  -0.5000000   0.2500000  -0.3750000), wk =   0.0078125
        k(  246) = (  -0.5000000   0.2500000  -0.2500000), wk =   0.0078125
        k(  247) = (  -0.5000000   0.2500000  -0.1250000), wk =   0.0078125
        k(  248) = (  -0.5000000   0.3750000   0.0000000), wk =   0.0078125
        k(  249) = (  -0.5000000   0.3750000   0.1250000), wk =   0.0078125
        k(  250) = (  -0.5000000   0.3750000   0.2500000), wk =   0.0078125
        k(  251) = (  -0.5000000   0.3750000   0.3750000), wk =   0.0078125
        k(  252) = (  -0.5000000   0.3750000  -0.5000000), wk =   0.0078125
        k(  253) = (  -0.5000000   0.3750000  -0.3750000), wk =   0.0078125
        k(  254) = (  -0.5000000   0.3750000  -0.2500000), wk =   0.0078125
        k(  255) = (  -0.5000000   0.3750000  -0.1250000), wk =   0.0078125
        k(  256) = (  -0.5000000  -0.5000000  -0.0000000), wk =   0.0039062
        k(  257) = (  -0.5000000  -0.5000000   0.1250000), wk =   0.0078125
        k(  258) = (  -0.5000000  -0.5000000   0.2500000), wk =   0.0078125
        k(  259) = (  -0.5000000  -0.5000000   0.3750000), wk =   0.0078125
        k(  260) = (  -0.5000000  -0.5000000  -0.5000000), wk =   0.0039062

     Dense  grid:    76585 G-vectors     FFT dimensions: (  54,  54,  72)

     Smooth grid:    29881 G-vectors     FFT dimensions: (  40,  40,  50)

     Dynamical RAM for                 wfc:       0.07 MB

     Dynamical RAM for     wfc (w. buffer):       4.93 MB

     Dynamical RAM for           str. fact:       0.22 MB

     Dynamical RAM for           local pot:       0.00 MB

     Dynamical RAM for          nlocal pot:       0.22 MB

     Dynamical RAM for                qrad:       8.03 MB

     Dynamical RAM for          rho,v,vnew:       0.55 MB

     Dynamical RAM for               rhoin:       0.18 MB

     Dynamical RAM for            rho*nmix:       1.17 MB

     Dynamical RAM for           G-vectors:       0.29 MB

     Dynamical RAM for          h,s,v(r/c):       0.08 MB

     Dynamical RAM for          <psi|beta>:       0.02 MB

     Dynamical RAM for                 psi:       0.30 MB

     Dynamical RAM for                hpsi:       0.30 MB

     Dynamical RAM for                spsi:       0.30 MB

     Dynamical RAM for      wfcinit/wfcrot:       0.20 MB

     Dynamical RAM for           addusdens:       3.83 MB

     Dynamical RAM for          addusforce:       3.98 MB

     Dynamical RAM for         addusstress:       4.04 MB

     Estimated static dynamical RAM per process >      16.45 MB

     Estimated max dynamical RAM per process >      20.49 MB

     Estimated total dynamical RAM >       1.28 GB

     Check: negative core charge=   -0.000003

     Initial potential from superposition of free atoms

     starting charge   41.69964, renormalised to   42.00000
     Starting wfcs are   26 randomized atomic wfcs

     total cpu time spent up to now is        1.8 secs

     Self-consistent Calculation

     iteration #  1     ecut=    80.00 Ry     beta= 0.50
     Davidson diagonalization with overlap
     ethr =  1.00E-02,  avg # of iterations =  2.0

     total cpu time spent up to now is        2.6 secs

     total energy              =    -650.63297218 Ry
     Harris-Foulkes estimate   =    -651.44829975 Ry
     estimated scf accuracy    <       1.22178053 Ry

     iteration #  2     ecut=    80.00 Ry     beta= 0.50
     Davidson diagonalization with overlap
     ethr =  2.91E-03,  avg # of iterations =  3.0

     total cpu time spent up to now is        3.7 secs

     total energy              =    -651.01731512 Ry
     Harris-Foulkes estimate   =    -651.29387363 Ry
     estimated scf accuracy    <       0.63483090 Ry

     iteration #  3     ecut=    80.00 Ry     beta= 0.50
     Davidson diagonalization with overlap
     ethr =  1.51E-03,  avg # of iterations =  2.0

     total cpu time spent up to now is        4.6 secs

     total energy              =    -651.12459237 Ry
     Harris-Foulkes estimate   =    -651.12807690 Ry
     estimated scf accuracy    <       0.01008546 Ry

     iteration #  4     ecut=    80.00 Ry     beta= 0.50
     Davidson diagonalization with overlap
     ethr =  2.40E-05,  avg # of iterations =  3.0

     total cpu time spent up to now is        5.6 secs

     total energy              =    -651.12533337 Ry
     Harris-Foulkes estimate   =    -651.12659559 Ry
     estimated scf accuracy    <       0.00319696 Ry

     iteration #  5     ecut=    80.00 Ry     beta= 0.50
     Davidson diagonalization with overlap
     ethr =  7.61E-06,  avg # of iterations =  2.8

     total cpu time spent up to now is        6.6 secs

     total energy              =    -651.12593500 Ry
     Harris-Foulkes estimate   =    -651.12596988 Ry
     estimated scf accuracy    <       0.00016463 Ry

     iteration #  6     ecut=    80.00 Ry     beta= 0.50
     Davidson diagonalization with overlap
     ethr =  3.92E-07,  avg # of iterations =  2.4

     total cpu time spent up to now is        7.6 secs

     total energy              =    -651.12596032 Ry
     Harris-Foulkes estimate   =    -651.12595644 Ry
     estimated scf accuracy    <       0.00001104 Ry

     iteration #  7     ecut=    80.00 Ry     beta= 0.50
     Davidson diagonalization with overlap
     ethr =  2.63E-08,  avg # of iterations =  2.0

     total cpu time spent up to now is        8.4 secs

     End of self-consistent calculation

          k = 0.0000 0.0000 0.0000 (  3715 PWs)   bands (ev):

  -115.5252 -69.8943 -69.8785 -69.8785 -64.9188 -31.9225 -31.8819 -31.8819
   -10.1289  -8.8499   1.8185   1.8185   2.8432   3.0793   3.0793   3.2212
     5.7448   5.7448   7.0024   7.2219   7.2219

     occupation numbers 
     1.0000   1.0000   1.0000   1.0000   1.0000   1.0000   1.0000   1.0000
     1.0000   1.0000   1.0000   1.0000   1.0000   1.0000   1.0000   1.0000
     1.0000   1.0000   1.0000   1.0000   1.0000

          k =-0.0000-0.0000 0.0928 (  3709 PWs)   bands (ev):

  -115.5252 -69.8943 -69.8785 -69.8785 -64.9188 -31.9226 -31.8819 -31.8819
   -10.0929  -8.8871   1.8186   1.8186   2.6200   3.0663   3.0663   3.4666
     5.7797   5.7797   6.7265   7.2068   7.2068

     occupation numbers 
     1.0000   1.0000   1.0000   1.0000   1.0000   1.0000   1.0000   1.0000
     1.0000   1.0000   1.0000   1.0000   1.0000   1.0000   1.0000   1.0000
     1.0000   1.0000   1.0000   1.0000   1.0000

          k =-0.0000-0.0000 0.1856 (  3721 PWs)   bands (ev):

  -115.5252 -69.8943 -69.8785 -69.8785 -64.9188 -31.9228 -31.8819 -31.8819
    -9.9949  -8.9885   1.8191   1.8191   2.3478   3.0357   3.0357   3.7977
     5.8663   5.8663   6.2429   7.1672   7.1672

     occupation numbers 
     1.0000   1.0000   1.0000   1.0000   1.0000   1.0000   1.0000   1.0000
     1.0000   1.0000   1.0000   1.0000   1.0000   1.0000   1.0000   1.0000
     1.0000   1.0000   1.0000   1.0000   1.0000

          k =-0.0000-0.0000 0.2784 (  3720 PWs)   bands (ev):

  -115.5252 -69.8943 -69.8785 -69.8785 -64.9188 -31.9231 -31.8819 -31.8819
    -9.8707  -9.1162   1.8195   1.8195   2.1712   3.0063   3.0063   4.0451
     5.8631   5.9573   5.9573   7.1220   7.1220

     occupation numbers 
     1.0000   1.0000   1.0000   1.0000   1.0000   1.0000   1.0000   1.0000
     1.0000   1.0000   1.0000   1.0000   1.0000   1.0000   1.0000   1.0000
     1.0000   1.0000   1.0000   1.0000   1.0000

          k = 0.0000 0.0000-0.3712 (  3744 PWs)   bands (ev):

  -115.5252 -69.8943 -69.8785 -69.8785 -64.9188 -31.9232 -31.8819 -31.8819
    -9.8044  -9.1841   1.8197   1.8197   2.1112   2.9944   2.9944   4.1398
     5.7187   5.9968   5.9968   7.1012   7.1012

     occupation numbers 
     1.0000   1.0000   1.0000   1.0000   1.0000   1.0000   1.0000   1.0000
     1.0000   1.0000   1.0000   1.0000   1.0000   1.0000   1.0000   1.0000
     1.0000   1.0000   1.0000   1.0000   1.0000

          k =-0.0000 0.1443-0.0000 (  3718 PWs)   bands (ev):

  -115.5252 -69.8943 -69.8787 -69.8785 -64.9186 -31.9222 -31.8852 -31.8826
   -10.0480  -8.8348   1.7891   1.9005   2.6990   3.0729   3.2232   3.3547
     5.4147   5.6656   6.5513   6.9200   7.0647

     occupation numbers 
     1.0000   1.0000   1.0000   1.0000   1.0000   1.0000   1.0000   1.0000
     1.0000   1.0000   1.0000   1.0000   1.0000   1.0000   1.0000   1.0000
     1.0000   1.0000   1.0000   1.0000   1.0000

          k =-0.0000 0.1443 0.0928 (  3726 PWs)   bands (ev):

  -115.5252 -69.8943 -69.8787 -69.8785 -64.9186 -31.9223 -31.8852 -31.8826
   -10.0141  -8.8683   1.7872   1.9014   2.5816   3.0388   3.0589   3.6416
     5.4688   5.7007   6.3166   7.0276   7.0484

     occupation numbers 
     1.0000   1.0000   1.0000   1.0000   1.0000   1.0000   1.0000   1.0000
     1.0000   1.0000   1.0000   1.0000   1.0000   1.0000   1.0000   1.0000
     1.0000   1.0000   1.0000   1.0000   1.0000

          k =-0.0000 0.1443 0.1856 (  3720 PWs)   bands (ev):

  -115.5252 -69.8943 -69.8787 -69.8785 -64.9186 -31.9225 -31.8852 -31.8826
    -9.9222  -8.9591   1.7816   1.9025   2.3542   2.9128   3.0273   3.9692
     5.5628   5.7970   5.9816   6.9949   7.1075

     occupation numbers 
     1.0000   1.0000   1.0000   1.0000   1.0000   1.0000   1.0000   1.0000
     1.0000   1.0000   1.0000   1.0000   1.0000   1.0000   1.0000   1.0000
     1.0000   1.0000   1.0000   1.0000   1.0000

          k =-0.0000 0.1443 0.2784 (  3721 PWs)   bands (ev):

  -115.5252 -69.8943 -69.8787 -69.8785 -64.9186 -31.9228 -31.8852 -31.8826
    -9.8075  -9.0731   1.7723   1.9030   2.1888   2.8319   2.9973   4.2064
     5.4784   5.9058   5.9220   6.9270   7.1006

     occupation numbers 
     1.0000   1.0000   1.0000   1.0000   1.0000   1.0000   1.0000   1.0000
     1.0000   1.0000   1.0000   1.0000   1.0000   1.0000   1.0000   1.0000
     1.0000   1.0000   1.0000   1.0000   1.0000

          k = 0.0000 0.1443-0.3712 (  3718 PWs)   bands (ev):

  -115.5252 -69.8943 -69.8787 -69.8785 -64.9186 -31.9229 -31.8852 -31.8826
    -9.7474  -9.1330   1.7659   1.9026   2.1346   2.8007   2.9857   4.3053
     5.3615   5.9597   5.9810   6.8889   7.0883

     occupation numbers 
     1.0000   1.0000   1.0000   1.0000   1.0000   1.0000   1.0000   1.0000
     1.0000   1.0000   1.0000   1.0000   1.0000   1.0000   1.0000   1.0000
     1.0000   1.0000   1.0000   1.0000   1.0000

          k = 0.0000 0.1443-0.2784 (  3721 PWs)   bands (ev):

  -115.5252 -69.8943 -69.8787 -69.8785 -64.9186 -31.9228 -31.8852 -31.8826
    -9.8075  -9.0731   1.7709   1.9017   2.1913   2.8303   2.9985   4.2248
     5.4114   5.9165   5.9579   6.9144   7.1188

     occupation numbers 
     1.0000   1.0000   1.0000   1.0000   1.0000   1.0000   1.0000   1.0000
     1.0000   1.0000   1.0000   1.0000   1.0000   1.0000   1.0000   1.0000
     1.0000   1.0000   1.0000   1.0000   1.0000

          k = 0.0000 0.1443-0.1856 (  3720 PWs)   bands (ev):

  -115.5252 -69.8943 -69.8787 -69.8785 -64.9186 -31.9225 -31.8852 -31.8826
    -9.9223  -8.9591   1.7811   1.9006   2.3550   2.9105   3.0289   3.9882
     5.4920   5.8098   6.0112   6.9795   7.1391

     occupation numbers 
     1.0000   1.0000   1.0000   1.0000   1.0000   1.0000   1.0000   1.0000
     1.0000   1.0000   1.0000   1.0000   1.0000   1.0000   1.0000   1.0000
     1.0000   1.0000   1.0000   1.0000   1.0000

          k = 0.0000 0.1443-0.0928 (  3726 PWs)   bands (ev):

  -115.5252 -69.8943 -69.8787 -69.8785 -64.9186 -31.9223 -31.8852 -31.8826
   -10.0141  -8.8682   1.7875   1.9002   2.5802   3.0357   3.0600   3.6544
     5.4453   5.7087   6.3015   7.0387   7.0637

     occupation numbers 
     1.0000   1.0000   1.0000   1.0000   1.0000   1.0000   1.0000   1.0000
     1.0000   1.0000   1.0000   1.0000   1.0000   1.0000   1.0000   1.0000
     1.0000   1.0000   1.0000   1.0000   1.0000

          k =-0.0000 0.2887-0.0000 (  3744 PWs)   bands (ev):

  -115.5252 -69.8943 -69.8791 -69.8787 -64.9182 -31.9215 -31.8932 -31.8844
    -9.8380  -8.8090   1.7598   2.1224   2.5638   3.0593   3.2424   3.8137
     4.7118   5.4338   5.5800   6.6751   6.7200

     occupation numbers 
     1.0000   1.0000   1.0000   1.0000   1.0000   1.0000   1.0000   1.0000
     1.0000   1.0000   1.0000   1.0000   1.0000   1.0000   1.0000   1.0000
     1.0000   1.0000   1.0000   1.0000   1.0000

          k =-0.0000 0.2887 0.0928 (  3738 PWs)   bands (ev):

  -115.5252 -69.8943 -69.8791 -69.8787 -64.9182 -31.9216 -31.8932 -31.8844
    -9.8104  -8.8316   1.7542   2.1241   2.4988   3.0440   3.0453   3.9246
     4.8644   5.4763   5.5135   6.6928   6.7630

     occupation numbers 
     1.0000   1.0000   1.0000   1.0000   1.0000   1.0000   1.0000   1.0000
     1.0000   1.0000   1.0000   1.0000   1.0000   1.0000   1.0000   1.0000
     1.0000   1.0000   1.0000   1.0000   1.0000

          k =-0.0000 0.2887 0.1856 (  3734 PWs)   bands (ev):

  -115.5252 -69.8942 -69.8791 -69.8787 -64.9182 -31.9218 -31.8932 -31.8844
    -9.7371  -8.8931   1.7408   2.1258   2.3385   2.7545   3.0106   4.1073
     5.0293   5.4700   5.6008   6.6017   6.9640

     occupation numbers 
     1.0000   1.0000   1.0000   1.0000   1.0000   1.0000   1.0000   1.0000
     1.0000   1.0000   1.0000   1.0000   1.0000   1.0000   1.0000   1.0000
     1.0000   1.0000   1.0000   1.0000   1.0000

          k =-0.0000 0.2887 0.2784 (  3726 PWs)   bands (ev):

  -115.5252 -69.8942 -69.8791 -69.8787 -64.9182 -31.9221 -31.8931 -31.8844
    -9.6496  -8.9688   1.7189   2.1263   2.1984   2.5587   2.9795   4.2581
     4.8901   5.7248   5.7602   6.4731   7.0819

     occupation numbers 
     1.0000   1.0000   1.0000   1.0000   1.0000   1.0000   1.0000   1.0000
     1.0000   1.0000   1.0000   1.0000   1.0000   1.0000   1.0000   1.0000
     1.0000   1.0000   1.0000   1.0000   1.0000

          k = 0.0000 0.2887-0.3712 (  3718 PWs)   bands (ev):

  -115.5252 -69.8942 -69.8791 -69.8787 -64.9182 -31.9222 -31.8931 -31.8844
    -9.6067  -9.0070   1.7019   2.1254   2.1566   2.4858   2.9682   4.3882
     4.7190   5.8577   5.8668   6.3869   7.1240

     occupation numbers 
     1.0000   1.0000   1.0000   1.0000   1.0000   1.0000   1.0000   1.0000
     1.0000   1.0000   1.0000   1.0000   1.0000   1.0000   1.0000   1.0000
     1.0000   1.0000   1.0000   1.0000   1.0000

          k = 0.0000 0.2887-0.2784 (  3726 PWs)   bands (ev):

  -115.5252 -69.8942 -69.8791 -69.8787 -64.9182 -31.9221 -31.8931 -31.8844
    -9.6497  -8.9687   1.7125   2.1235   2.2072   2.5540   2.9821   4.4050
     4.6868   5.7426   5.7826   6.4483   7.1372

     occupation numbers 
     1.0000   1.0000   1.0000   1.0000   1.0000   1.0000   1.0000   1.0000
     1.0000   1.0000   1.0000   1.0000   1.0000   1.0000   1.0000   1.0000
     1.0000   1.0000   1.0000   1.0000   1.0000

          k = 0.0000 0.2887-0.1856 (  3734 PWs)   bands (ev):

  -115.5252 -69.8942 -69.8791 -69.8787 -64.9182 -31.9218 -31.8932 -31.8844
    -9.7372  -8.8929   1.7394   2.1219   2.3336   2.7517   3.0141   4.2544
     4.7952   5.4989   5.6228   6.5763   7.0508

     occupation numbers 
     1.0000   1.0000   1.0000   1.0000   1.0000   1.0000   1.0000   1.0000
     1.0000   1.0000   1.0000   1.0000   1.0000   1.0000   1.0000   1.0000
     1.0000   1.0000   1.0000   1.0000   1.0000

          k = 0.0000 0.2887-0.0928 (  3738 PWs)   bands (ev):

  -115.5252 -69.8943 -69.8791 -69.8787 -64.9182 -31.9216 -31.8932 -31.8844
    -9.8105  -8.8315   1.7564   2.1215   2.4886   3.0326   3.0464   4.0292
     4.7620   5.4656   5.4888   6.6779   6.8426

     occupation numbers 
     1.0000   1.0000   1.0000   1.0000   1.0000   1.0000   1.0000   1.0000
     1.0000   1.0000   1.0000   1.0000   1.0000   1.0000   1.0000   1.0000
     1.0000   1.0000   1.0000   1.0000   1.0000

          k =-0.0000 0.4330-0.0000 (  3734 PWs)   bands (ev):

  -115.5252 -69.8942 -69.8796 -69.8788 -64.9178 -31.9208 -31.9011 -31.8862
    -9.5965  -8.8082   1.8130   2.3924   2.4907   3.0535   3.1996   4.0351
     4.3890   4.8409   5.1134   6.3205   6.4326

     occupation numbers 
     1.0000   1.0000   1.0000   1.0000   1.0000   1.0000   1.0000   1.0000
     1.0000   1.0000   1.0000   1.0000   1.0000   1.0000   1.0000   1.0000
     1.0000   1.0000   1.0000   1.0000   1.0000

          k =-0.0000 0.4330 0.0928 (  3748 PWs)   bands (ev):

  -115.5252 -69.8942 -69.8796 -69.8788 -64.9178 -31.9209 -31.9011 -31.8862
    -9.5787  -8.8163   1.8000   2.3936   2.4342   3.0379   3.0808   3.7748
     4.5305   5.0978   5.1630   6.3948   6.4349

     occupation numbers 
     1.0000   1.0000   1.0000   1.0000   1.0000   1.0000   1.0000   1.0000
     1.0000   1.0000   1.0000   1.0000   1.0000   1.0000   1.0000   1.0000
     1.0000   1.0000   1.0000   1.0000   1.0000

          k =-0.0000 0.4330 0.1856 (  3740 PWs)   bands (ev):

  -115.5252 -69.8942 -69.8796 -69.8788 -64.9178 -31.9211 -31.9011 -31.8862
    -9.5333  -8.8383   1.7777   2.2900   2.3932   2.7336   3.0048   3.6921
     4.5828   5.3060   5.4649   6.2773   6.7706

     occupation numbers 
     1.0000   1.0000   1.0000   1.0000   1.0000   1.0000   1.0000   1.0000
     1.0000   1.0000   1.0000   1.0000   1.0000   1.0000   1.0000   1.0000
     1.0000   1.0000   1.0000   1.0000   1.0000

          k =-0.0000 0.4330 0.2784 (  3736 PWs)   bands (ev):

  -115.5252 -69.8942 -69.8796 -69.8788 -64.9178 -31.9213 -31.9011 -31.8862
    -9.4835  -8.8646   1.7521   2.1496   2.3914   2.4559   2.9749   3.6984
     4.5586   5.5006   5.7835   6.1059   7.0645

     occupation numbers 
     1.0000   1.0000   1.0000   1.0000   1.0000   1.0000   1.0000   1.0000
     1.0000   1.0000   1.0000   1.0000   1.0000   1.0000   1.0000   1.0000
     1.0000   1.0000   1.0000   1.0000   1.0000

          k = 0.0000 0.4330-0.3712 (  3746 PWs)   bands (ev):

  -115.5252 -69.8942 -69.8796 -69.8788 -64.9178 -31.9214 -31.9011 -31.8862
    -9.4613  -8.8770   1.7371   2.0931   2.3607   2.3891   2.9644   3.7174
     4.5288   5.6395   5.9003   5.9753   7.1890

     occupation numbers 
     1.0000   1.0000   1.0000   1.0000   1.0000   1.0000   1.0000   1.0000
     1.0000   1.0000   1.0000   1.0000   1.0000   1.0000   1.0000   1.0000
     1.0000   1.0000   1.0000   1.0000   1.0000

          k = 0.0000 0.4330-0.2784 (  3736 PWs)   bands (ev):

  -115.5252 -69.8942 -69.8796 -69.8788 -64.9178 -31.9213 -31.9011 -31.8862
    -9.4837  -8.8644   1.7540   2.1418   2.3879   2.4555   2.9782   3.7394
     4.5195   5.5194   5.7401   6.0854   7.1274

     occupation numbers 
     1.0000   1.0000   1.0000   1.0000   1.0000   1.0000   1.0000   1.0000
     1.0000   1.0000   1.0000   1.0000   1.0000   1.0000   1.0000   1.0000
     1.0000   1.0000   1.0000   1.0000   1.0000

          k = 0.0000 0.4330-0.1856 (  3740 PWs)   bands (ev):

  -115.5252 -69.8942 -69.8796 -69.8788 -64.9178 -31.9211 -31.9011 -31.8862
    -9.5334  -8.8381   1.7917   2.2566   2.3884   2.7302   3.0092   3.7780
     4.5434   5.3222   5.3596   6.2590   6.8710

     occupation numbers 
     1.0000   1.0000   1.0000   1.0000   1.0000   1.0000   1.0000   1.0000
     1.0000   1.0000   1.0000   1.0000   1.0000   1.0000   1.0000   1.0000
     1.0000   1.0000   1.0000   1.0000   1.0000

          k = 0.0000 0.4330-0.0928 (  3748 PWs)   bands (ev):

  -115.5252 -69.8942 -69.8796 -69.8788 -64.9178 -31.9209 -31.9011 -31.8862
    -9.5788  -8.8162   1.8128   2.3903   2.4068   3.0409   3.0490   3.8926
     4.5871   4.8908   5.1719   6.3844   6.5253

     occupation numbers 
     1.0000   1.0000   1.0000   1.0000   1.0000   1.0000   1.0000   1.0000
     1.0000   1.0000   1.0000   1.0000   1.0000   1.0000   1.0000   1.0000
     1.0000   1.0000   1.0000   1.0000   1.0000

          k = 0.0000-0.5774 0.0000 (  3734 PWs)   bands (ev):

  -115.5252 -69.8942 -69.8797 -69.8789 -64.9177 -31.9205 -31.9044 -31.8870
    -9.4800  -8.8223   1.8774   2.4711   2.5244   3.0584   3.1153   3.8624
     4.4931   4.7025   4.9412   6.0986   6.3317

     occupation numbers 
     1.0000   1.0000   1.0000   1.0000   1.0000   1.0000   1.0000   1.0000
     1.0000   1.0000   1.0000   1.0000   1.0000   1.0000   1.0000   1.0000
     1.0000   1.0000   1.0000   1.0000   1.0000

          k =-0.0000-0.5774 0.0928 (  3744 PWs)   bands (ev):

  -115.5252 -69.8942 -69.8797 -69.8789 -64.9177 -31.9206 -31.9044 -31.8870
    -9.4687  -8.8219   1.8655   2.4045   2.5225   3.0451   3.0689   3.5717
     4.4077   4.9956   5.1070   6.2778   6.2874

     occupation numbers 
     1.0000   1.0000   1.0000   1.0000   1.0000   1.0000   1.0000   1.0000
     1.0000   1.0000   1.0000   1.0000   1.0000   1.0000   1.0000   1.0000
     1.0000   1.0000   1.0000   1.0000   1.0000

          k =-0.0000-0.5774 0.1856 (  3752 PWs)   bands (ev):

  -115.5252 -69.8942 -69.8798 -69.8789 -64.9177 -31.9208 -31.9044 -31.8870
    -9.4408  -8.8213   1.8284   2.2748   2.5180   2.7847   3.0151   3.3391
     4.4307   5.1417   5.5391   6.1642   6.7041

     occupation numbers 
     1.0000   1.0000   1.0000   1.0000   1.0000   1.0000   1.0000   1.0000
     1.0000   1.0000   1.0000   1.0000   1.0000   1.0000   1.0000   1.0000
     1.0000   1.0000   1.0000   1.0000   1.0000

          k =-0.0000-0.5774 0.2784 (  3748 PWs)   bands (ev):

  -115.5252 -69.8942 -69.8798 -69.8789 -64.9177 -31.9210 -31.9044 -31.8869
    -9.4119  -8.8216   1.7818   2.1653   2.4640   2.5131   2.9875   3.3033
     4.4562   5.3315   5.8381   5.9952   7.0814

     occupation numbers 
     1.0000   1.0000   1.0000   1.0000   1.0000   1.0000   1.0000   1.0000
     1.0000   1.0000   1.0000   1.0000   1.0000   1.0000   1.0000   1.0000
     1.0000   1.0000   1.0000   1.0000   1.0000

          k = 0.0000-0.5774-0.3712 (  3740 PWs)   bands (ev):

  -115.5252 -69.8942 -69.8798 -69.8788 -64.9177 -31.9211 -31.9044 -31.8869
    -9.3996  -8.8220   1.7622   2.1102   2.3576   2.5110   2.9767   3.2986
     4.4643   5.4467   5.8882   5.9527   7.2184

     occupation numbers 
     1.0000   1.0000   1.0000   1.0000   1.0000   1.0000   1.0000   1.0000
     1.0000   1.0000   1.0000   1.0000   1.0000   1.0000   1.0000   1.0000
     1.0000   1.0000   1.0000   1.0000   1.0000

          k = 0.1250 0.0722-0.0000 (  3718 PWs)   bands (ev):

  -115.5252 -69.8943 -69.8787 -69.8785 -64.9186 -31.9222 -31.8852 -31.8826
   -10.0480  -8.8348   1.7891   1.9005   2.6990   3.0729   3.2232   3.3547
     5.4147   5.6656   6.5513   6.9200   7.0647

     occupation numbers 
     1.0000   1.0000   1.0000   1.0000   1.0000   1.0000   1.0000   1.0000
     1.0000   1.0000   1.0000   1.0000   1.0000   1.0000   1.0000   1.0000
     1.0000   1.0000   1.0000   1.0000   1.0000

          k = 0.1250 0.0722 0.0928 (  3726 PWs)   bands (ev):

  -115.5252 -69.8943 -69.8787 -69.8785 -64.9186 -31.9223 -31.8852 -31.8826
   -10.0141  -8.8682   1.7875   1.9002   2.5802   3.0357   3.0600   3.6544
     5.4453   5.7087   6.3015   7.0387   7.0637

     occupation numbers 
     1.0000   1.0000   1.0000   1.0000   1.0000   1.0000   1.0000   1.0000
     1.0000   1.0000   1.0000   1.0000   1.0000   1.0000   1.0000   1.0000
     1.0000   1.0000   1.0000   1.0000   1.0000

          k = 0.1250 0.0722 0.1856 (  3720 PWs)   bands (ev):

  -115.5252 -69.8943 -69.8787 -69.8785 -64.9186 -31.9225 -31.8852 -31.8826
    -9.9223  -8.9591   1.7811   1.9006   2.3550   2.9105   3.0289   3.9882
     5.4920   5.8098   6.0112   6.9795   7.1391

     occupation numbers 
     1.0000   1.0000   1.0000   1.0000   1.0000   1.0000   1.0000   1.0000
     1.0000   1.0000   1.0000   1.0000   1.0000   1.0000   1.0000   1.0000
     1.0000   1.0000   1.0000   1.0000   1.0000

          k = 0.1250 0.0722 0.2784 (  3721 PWs)   bands (ev):

  -115.5252 -69.8943 -69.8787 -69.8785 -64.9186 -31.9228 -31.8852 -31.8826
    -9.8075  -9.0731   1.7709   1.9017   2.1913   2.8303   2.9985   4.2248
     5.4114   5.9165   5.9580   6.9144   7.1188

     occupation numbers 
     1.0000   1.0000   1.0000   1.0000   1.0000   1.0000   1.0000   1.0000
     1.0000   1.0000   1.0000   1.0000   1.0000   1.0000   1.0000   1.0000
     1.0000   1.0000   1.0000   1.0000   1.0000

          k = 0.1250 0.0722-0.3712 (  3718 PWs)   bands (ev):

  -115.5252 -69.8943 -69.8787 -69.8785 -64.9186 -31.9229 -31.8852 -31.8826
    -9.7474  -9.1330   1.7659   1.9026   2.1346   2.8007   2.9857   4.3053
     5.3615   5.9597   5.9810   6.8889   7.0883

     occupation numbers 
     1.0000   1.0000   1.0000   1.0000   1.0000   1.0000   1.0000   1.0000
     1.0000   1.0000   1.0000   1.0000   1.0000   1.0000   1.0000   1.0000
     1.0000   1.0000   1.0000   1.0000   1.0000

          k = 0.1250 0.0722-0.2784 (  3721 PWs)   bands (ev):

  -115.5252 -69.8943 -69.8787 -69.8785 -64.9186 -31.9228 -31.8852 -31.8826
    -9.8075  -9.0731   1.7723   1.9030   2.1888   2.8319   2.9973   4.2064
     5.4784   5.9058   5.9220   6.9270   7.1006

     occupation numbers 
     1.0000   1.0000   1.0000   1.0000   1.0000   1.0000   1.0000   1.0000
     1.0000   1.0000   1.0000   1.0000   1.0000   1.0000   1.0000   1.0000
     1.0000   1.0000   1.0000   1.0000   1.0000

          k = 0.1250 0.0722-0.1856 (  3720 PWs)   bands (ev):

  -115.5252 -69.8943 -69.8787 -69.8785 -64.9186 -31.9225 -31.8852 -31.8826
    -9.9222  -8.9591   1.7816   1.9025   2.3542   2.9128   3.0273   3.9692
     5.5628   5.7970   5.9816   6.9949   7.1075

     occupation numbers 
     1.0000   1.0000   1.0000   1.0000   1.0000   1.0000   1.0000   1.0000
     1.0000   1.0000   1.0000   1.0000   1.0000   1.0000   1.0000   1.0000
     1.0000   1.0000   1.0000   1.0000   1.0000

          k = 0.1250 0.0722-0.0928 (  3726 PWs)   bands (ev):

  -115.5252 -69.8943 -69.8787 -69.8785 -64.9186 -31.9223 -31.8852 -31.8826
   -10.0141  -8.8683   1.7872   1.9014   2.5816   3.0388   3.0589   3.6416
     5.4688   5.7007   6.3166   7.0276   7.0484

     occupation numbers 
     1.0000   1.0000   1.0000   1.0000   1.0000   1.0000   1.0000   1.0000
     1.0000   1.0000   1.0000   1.0000   1.0000   1.0000   1.0000   1.0000
     1.0000   1.0000   1.0000   1.0000   1.0000

          k = 0.1250 0.2165-0.0000 (  3731 PWs)   bands (ev):

  -115.5252 -69.8943 -69.8790 -69.8786 -64.9183 -31.9217 -31.8905 -31.8842
    -9.9022  -8.8146   1.7695   2.0475   2.5971   3.0564   3.2413   3.6862
     4.9654   5.3769   5.9402   6.6978   6.8018

     occupation numbers 
     1.0000   1.0000   1.0000   1.0000   1.0000   1.0000   1.0000   1.0000
     1.0000   1.0000   1.0000   1.0000   1.0000   1.0000   1.0000   1.0000
     1.0000   1.0000   1.0000   1.0000   1.0000

          k = 0.1250 0.2165 0.0928 (  3733 PWs)   bands (ev):

  -115.5252 -69.8943 -69.8790 -69.8786 -64.9183 -31.9218 -31.8905 -31.8842
    -9.8725  -8.8406   1.7658   2.0474   2.5224   3.0346   3.0435   3.9010
     5.0241   5.4330   5.8117   6.6975   6.9041

     occupation numbers 
     1.0000   1.0000   1.0000   1.0000   1.0000   1.0000   1.0000   1.0000
     1.0000   1.0000   1.0000   1.0000   1.0000   1.0000   1.0000   1.0000
     1.0000   1.0000   1.0000   1.0000   1.0000

          k = 0.1250 0.2165 0.1856 (  3730 PWs)   bands (ev):

  -115.5252 -69.8943 -69.8790 -69.8786 -64.9183 -31.9220 -31.8905 -31.8842
    -9.7931  -8.9115   1.7526   2.0471   2.3527   2.7898   3.0075   4.1692
     5.0753   5.5875   5.7070   6.6148   7.0809

     occupation numbers 
     1.0000   1.0000   1.0000   1.0000   1.0000   1.0000   1.0000   1.0000
     1.0000   1.0000   1.0000   1.0000   1.0000   1.0000   1.0000   1.0000
     1.0000   1.0000   1.0000   1.0000   1.0000

          k = 0.1250 0.2165 0.2784 (  3722 PWs)   bands (ev):

  -115.5252 -69.8943 -69.8790 -69.8787 -64.9183 -31.9223 -31.8905 -31.8842
    -9.6968  -8.9994   1.7308   2.0464   2.2119   2.6289   2.9747   4.3566
     4.9711   5.7259   5.8669   6.5004   7.1546

     occupation numbers 
     1.0000   1.0000   1.0000   1.0000   1.0000   1.0000   1.0000   1.0000
     1.0000   1.0000   1.0000   1.0000   1.0000   1.0000   1.0000   1.0000
     1.0000   1.0000   1.0000   1.0000   1.0000

          k = 0.1250 0.2165-0.3712 (  3718 PWs)   bands (ev):

  -115.5252 -69.8942 -69.8790 -69.8787 -64.9183 -31.9224 -31.8905 -31.8842
    -9.6484  -9.0443   1.7181   2.0459   2.1639   2.5712   2.9615   4.4365
     4.8932   5.7949   5.9742   6.4388   7.1592

     occupation numbers 
     1.0000   1.0000   1.0000   1.0000   1.0000   1.0000   1.0000   1.0000
     1.0000   1.0000   1.0000   1.0000   1.0000   1.0000   1.0000   1.0000
     1.0000   1.0000   1.0000   1.0000   1.0000

          k = 0.1250 0.2165-0.2784 (  3722 PWs)   bands (ev):

  -115.5252 -69.8943 -69.8790 -69.8787 -64.9183 -31.9223 -31.8905 -31.8842
    -9.6968  -8.9994   1.7308   2.0464   2.2119   2.6289   2.9747   4.3566
     4.9711   5.7259   5.8669   6.5004   7.1546

     occupation numbers 
     1.0000   1.0000   1.0000   1.0000   1.0000   1.0000   1.0000   1.0000
     1.0000   1.0000   1.0000   1.0000   1.0000   1.0000   1.0000   1.0000
     1.0000   1.0000   1.0000   1.0000   1.0000

          k = 0.1250 0.2165-0.1856 (  3730 PWs)   bands (ev):

  -115.5252 -69.8943 -69.8790 -69.8786 -64.9183 -31.9220 -31.8905 -31.8842
    -9.7931  -8.9115   1.7526   2.0471   2.3527   2.7898   3.0075   4.1692
     5.0753   5.5875   5.7070   6.6148   7.0809

     occupation numbers 
     1.0000   1.0000   1.0000   1.0000   1.0000   1.0000   1.0000   1.0000
     1.0000   1.0000   1.0000   1.0000   1.0000   1.0000   1.0000   1.0000
     1.0000   1.0000   1.0000   1.0000   1.0000

          k = 0.1250 0.2165-0.0928 (  3733 PWs)   bands (ev):

  -115.5252 -69.8943 -69.8790 -69.8786 -64.9183 -31.9218 -31.8905 -31.8842
    -9.8725  -8.8406   1.7658   2.0474   2.5224   3.0346   3.0435   3.9010
     5.0241   5.4330   5.8117   6.6975   6.9041

     occupation numbers 
     1.0000   1.0000   1.0000   1.0000   1.0000   1.0000   1.0000   1.0000
     1.0000   1.0000   1.0000   1.0000   1.0000   1.0000   1.0000   1.0000
     1.0000   1.0000   1.0000   1.0000   1.0000

          k = 0.1250 0.3608-0.0000 (  3729 PWs)   bands (ev):

  -115.5252 -69.8942 -69.8794 -69.8788 -64.9180 -31.9210 -31.8978 -31.8867
    -9.6733  -8.8036   1.8207   2.2868   2.5275   3.0334   3.2326   4.1292
     4.3998   4.8733   5.3359   6.3191   6.4772

     occupation numbers 
     1.0000   1.0000   1.0000   1.0000   1.0000   1.0000   1.0000   1.0000
     1.0000   1.0000   1.0000   1.0000   1.0000   1.0000   1.0000   1.0000
     1.0000   1.0000   1.0000   1.0000   1.0000

          k = 0.1250 0.3608 0.0928 (  3746 PWs)   bands (ev):

  -115.5252 -69.8942 -69.8794 -69.8788 -64.9180 -31.9211 -31.8978 -31.8867
    -9.6519  -8.8168   1.8138   2.2813   2.4737   3.0153   3.0670   3.9915
     4.5655   5.0890   5.3038   6.2752   6.6123

     occupation numbers 
     1.0000   1.0000   1.0000   1.0000   1.0000   1.0000   1.0000   1.0000
     1.0000   1.0000   1.0000   1.0000   1.0000   1.0000   1.0000   1.0000
     1.0000   1.0000   1.0000   1.0000   1.0000

          k = 0.1250 0.3608 0.1856 (  3730 PWs)   bands (ev):

  -115.5252 -69.8942 -69.8794 -69.8788 -64.9180 -31.9213 -31.8978 -31.8867
    -9.5966  -8.8523   1.7988   2.2366   2.3724   2.7300   2.9784   3.9838
     4.6538   5.2631   5.5229   6.1610   6.9151

     occupation numbers 
     1.0000   1.0000   1.0000   1.0000   1.0000   1.0000   1.0000   1.0000
     1.0000   1.0000   1.0000   1.0000   1.0000   1.0000   1.0000   1.0000
     1.0000   1.0000   1.0000   1.0000   1.0000

          k = 0.1250 0.3608 0.2784 (  3729 PWs)   bands (ev):

  -115.5252 -69.8942 -69.8794 -69.8788 -64.9180 -31.9215 -31.8977 -31.8867
    -9.5339  -8.8952   1.7736   2.1423   2.3303   2.4833   2.9429   4.0229
     4.6328   5.3893   5.8144   6.0396   7.1641

     occupation numbers 
     1.0000   1.0000   1.0000   1.0000   1.0000   1.0000   1.0000   1.0000
     1.0000   1.0000   1.0000   1.0000   1.0000   1.0000   1.0000   1.0000
     1.0000   1.0000   1.0000   1.0000   1.0000

          k = 0.1250 0.3608-0.3712 (  3740 PWs)   bands (ev):

  -115.5252 -69.8942 -69.8794 -69.8788 -64.9180 -31.9216 -31.8977 -31.8867
    -9.5049  -8.9159   1.7551   2.1039   2.3147   2.4027   2.9295   4.0597
     4.5841   5.5352   5.7509   6.0879   7.2606

     occupation numbers 
     1.0000   1.0000   1.0000   1.0000   1.0000   1.0000   1.0000   1.0000
     1.0000   1.0000   1.0000   1.0000   1.0000   1.0000   1.0000   1.0000
     1.0000   1.0000   1.0000   1.0000   1.0000

          k = 0.1250 0.3608-0.2784 (  3729 PWs)   bands (ev):

  -115.5252 -69.8942 -69.8794 -69.8788 -64.9180 -31.9215 -31.8977 -31.8867
    -9.5340  -8.8951   1.7724   2.1395   2.3316   2.4816   2.9447   4.0754
     4.5645   5.4030   5.8045   6.0313   7.1946

     occupation numbers 
     1.0000   1.0000   1.0000   1.0000   1.0000   1.0000   1.0000   1.0000
     1.0000   1.0000   1.0000   1.0000   1.0000   1.0000   1.0000   1.0000
     1.0000   1.0000   1.0000   1.0000   1.0000

          k = 0.1250 0.3608-0.1856 (  3730 PWs)   bands (ev):

  -115.5252 -69.8942 -69.8794 -69.8788 -64.9180 -31.9213 -31.8978 -31.8867
    -9.5967  -8.8522   1.8046   2.2217   2.3695   2.7300   2.9809   4.0725
     4.5635   5.2622   5.4937   6.1677   6.9590

     occupation numbers 
     1.0000   1.0000   1.0000   1.0000   1.0000   1.0000   1.0000   1.0000
     1.0000   1.0000   1.0000   1.0000   1.0000   1.0000   1.0000   1.0000
     1.0000   1.0000   1.0000   1.0000   1.0000

          k = 0.1250 0.3608-0.0928 (  3746 PWs)   bands (ev):

  -115.5252 -69.8942 -69.8794 -69.8788 -64.9180 -31.9211 -31.8978 -31.8867
    -9.6520  -8.8167   1.8199   2.2745   2.4648   3.0154   3.0563   4.0963
     4.5067   5.0428   5.2797   6.2996   6.6383

     occupation numbers 
     1.0000   1.0000   1.0000   1.0000   1.0000   1.0000   1.0000   1.0000
     1.0000   1.0000   1.0000   1.0000   1.0000   1.0000   1.0000   1.0000
     1.0000   1.0000   1.0000   1.0000   1.0000

          k = 0.1250 0.5052-0.0000 (  3733 PWs)   bands (ev):

  -115.5252 -69.8942 -69.8797 -69.8789 -64.9177 -31.9205 -31.9029 -31.8885
    -9.4839  -8.8196   1.9511   2.4569   2.5482   3.0316   3.1405   3.8898
     4.4680   4.7326   4.8766   6.0781   6.1620

     occupation numbers 
     1.0000   1.0000   1.0000   1.0000   1.0000   1.0000   1.0000   1.0000
     1.0000   1.0000   1.0000   1.0000   1.0000   1.0000   1.0000   1.0000
     1.0000   1.0000   1.0000   1.0000   1.0000

          k = 0.1250 0.5052 0.0928 (  3730 PWs)   bands (ev):

  -115.5252 -69.8942 -69.8797 -69.8789 -64.9177 -31.9206 -31.9029 -31.8885
    -9.4722  -8.8197   1.9367   2.4086   2.5409   3.0137   3.0900   3.6200
     4.3507   4.8507   5.2511   6.0499   6.2972

     occupation numbers 
     1.0000   1.0000   1.0000   1.0000   1.0000   1.0000   1.0000   1.0000
     1.0000   1.0000   1.0000   1.0000   1.0000   1.0000   1.0000   1.0000
     1.0000   1.0000   1.0000   1.0000   1.0000

          k = 0.1250 0.5052 0.1856 (  3736 PWs)   bands (ev):

  -115.5252 -69.8942 -69.8797 -69.8789 -64.9177 -31.9208 -31.9028 -31.8885
    -9.4434  -8.8203   1.9068   2.2850   2.5314   2.7781   2.9868   3.4261
     4.4260   4.8889   5.6819   5.9586   6.7242

     occupation numbers 
     1.0000   1.0000   1.0000   1.0000   1.0000   1.0000   1.0000   1.0000
     1.0000   1.0000   1.0000   1.0000   1.0000   1.0000   1.0000   1.0000
[...]
    -9.4435  -8.8202   1.9269   2.2461   2.5336   2.7776   2.9847   3.4649
     4.4239   4.8727   5.6439   5.9638   6.7620

     occupation numbers 
     1.0000   1.0000   1.0000   1.0000   1.0000   1.0000   1.0000   1.0000
     1.0000   1.0000   1.0000   1.0000   1.0000   1.0000   1.0000   1.0000
     1.0000   1.0000   1.0000   1.0000   1.0000

          k =-0.5000-0.1443-0.0928 (  3730 PWs)   bands (ev):

  -115.5252 -69.8942 -69.8797 -69.8789 -64.9177 -31.9206 -31.9029 -31.8885
    -9.4723  -8.8196   1.9509   2.3798   2.5444   3.0164   3.0670   3.6745
     4.3825   4.8036   5.1993   6.0807   6.3142

     occupation numbers 
     1.0000   1.0000   1.0000   1.0000   1.0000   1.0000   1.0000   1.0000
     1.0000   1.0000   1.0000   1.0000   1.0000   1.0000   1.0000   1.0000
     1.0000   1.0000   1.0000   1.0000   1.0000

          k =-0.5000 0.0000 0.0000 (  3739 PWs)   bands (ev):

  -115.5252 -69.8942 -69.8795 -69.8791 -64.9177 -31.9205 -31.9009 -31.8905
    -9.4877  -8.8169   2.0348   2.4313   2.5737   3.0097   3.1744   3.9872
     4.2395   4.7810   4.9601   5.8816   6.1277

     occupation numbers 
     1.0000   1.0000   1.0000   1.0000   1.0000   1.0000   1.0000   1.0000
     1.0000   1.0000   1.0000   1.0000   1.0000   1.0000   1.0000   1.0000
     1.0000   1.0000   1.0000   1.0000   1.0000

          k =-0.5000-0.0000 0.0928 (  3736 PWs)   bands (ev):

  -115.5252 -69.8942 -69.8795 -69.8791 -64.9177 -31.9206 -31.9009 -31.8905
    -9.4758  -8.8174   2.0351   2.3719   2.5614   2.9879   3.0895   3.8613
     4.0568   4.9041   5.2621   5.8361   6.3091

     occupation numbers 
     1.0000   1.0000   1.0000   1.0000   1.0000   1.0000   1.0000   1.0000
     1.0000   1.0000   1.0000   1.0000   1.0000   1.0000   1.0000   1.0000
     1.0000   1.0000   1.0000   1.0000   1.0000

          k =-0.5000-0.0000 0.1856 (  3739 PWs)   bands (ev):

  -115.5252 -69.8942 -69.8795 -69.8791 -64.9177 -31.9208 -31.9009 -31.8905
    -9.4462  -8.8193   2.0317   2.2344   2.5397   2.7678   2.9623   3.6440
     4.2036   4.8448   5.6230   5.8420   6.7669

     occupation numbers 
     1.0000   1.0000   1.0000   1.0000   1.0000   1.0000   1.0000   1.0000
     1.0000   1.0000   1.0000   1.0000   1.0000   1.0000   1.0000   1.0000
     1.0000   1.0000   1.0000   1.0000   1.0000

          k =-0.5000-0.0000 0.2784 (  3732 PWs)   bands (ev):

  -115.5252 -69.8942 -69.8795 -69.8791 -64.9177 -31.9210 -31.9008 -31.8905
    -9.4153  -8.8222   2.0130   2.1117   2.4636   2.5272   2.9307   3.5989
     4.3840   4.8167   5.4429   6.1497   7.2146

     occupation numbers 
     1.0000   1.0000   1.0000   1.0000   1.0000   1.0000   1.0000   1.0000
     1.0000   1.0000   1.0000   1.0000   1.0000   1.0000   1.0000   1.0000
     1.0000   1.0000   1.0000   1.0000   1.0000

          k =-0.5000 0.0000-0.3712 (  3738 PWs)   bands (ev):

  -115.5252 -69.8942 -69.8795 -69.8791 -64.9177 -31.9211 -31.9008 -31.8905
    -9.4021  -8.8238   1.9938   2.0664   2.3628   2.5165   2.9199   3.5918
     4.4709   4.8254   5.3289   6.2652   7.3934

     occupation numbers 
     1.0000   1.0000   1.0000   1.0000   1.0000   1.0000   1.0000   1.0000
     1.0000   1.0000   1.0000   1.0000   1.0000   1.0000   1.0000   1.0000
     1.0000   1.0000   1.0000   1.0000   1.0000

          k =-0.5000 0.0000-0.2784 (  3732 PWs)   bands (ev):

  -115.5252 -69.8942 -69.8795 -69.8791 -64.9177 -31.9210 -31.9008 -31.8905
    -9.4153  -8.8222   2.0130   2.1117   2.4636   2.5272   2.9307   3.5989
     4.3840   4.8167   5.4429   6.1497   7.2146

     occupation numbers 
     1.0000   1.0000   1.0000   1.0000   1.0000   1.0000   1.0000   1.0000
     1.0000   1.0000   1.0000   1.0000   1.0000   1.0000   1.0000   1.0000
     1.0000   1.0000   1.0000   1.0000   1.0000

          k =-0.5000 0.0000-0.1856 (  3739 PWs)   bands (ev):

  -115.5252 -69.8942 -69.8795 -69.8791 -64.9177 -31.9208 -31.9009 -31.8905
    -9.4462  -8.8193   2.0317   2.2344   2.5397   2.7678   2.9623   3.6440
     4.2036   4.8448   5.6230   5.8420   6.7669

     occupation numbers 
     1.0000   1.0000   1.0000   1.0000   1.0000   1.0000   1.0000   1.0000
     1.0000   1.0000   1.0000   1.0000   1.0000   1.0000   1.0000   1.0000
     1.0000   1.0000   1.0000   1.0000   1.0000

          k =-0.5000 0.0000-0.0928 (  3736 PWs)   bands (ev):

  -115.5252 -69.8942 -69.8795 -69.8791 -64.9177 -31.9206 -31.9009 -31.8905
    -9.4758  -8.8174   2.0351   2.3719   2.5614   2.9879   3.0895   3.8613
     4.0568   4.9041   5.2621   5.8361   6.3091

     occupation numbers 
     1.0000   1.0000   1.0000   1.0000   1.0000   1.0000   1.0000   1.0000
     1.0000   1.0000   1.0000   1.0000   1.0000   1.0000   1.0000   1.0000
     1.0000   1.0000   1.0000   1.0000   1.0000

          k =-0.5000 0.1443 0.0000 (  3733 PWs)   bands (ev):

  -115.5252 -69.8942 -69.8796 -69.8789 -64.9177 -31.9205 -31.9029 -31.8885
    -9.4839  -8.8196   1.9511   2.4569   2.5482   3.0316   3.1405   3.8898
     4.4680   4.7326   4.8766   6.0781   6.1620

     occupation numbers 
     1.0000   1.0000   1.0000   1.0000   1.0000   1.0000   1.0000   1.0000
     1.0000   1.0000   1.0000   1.0000   1.0000   1.0000   1.0000   1.0000
     1.0000   1.0000   1.0000   1.0000   1.0000

          k =-0.5000 0.1443 0.0928 (  3730 PWs)   bands (ev):

  -115.5252 -69.8942 -69.8797 -69.8789 -64.9177 -31.9206 -31.9029 -31.8885
    -9.4723  -8.8196   1.9509   2.3798   2.5444   3.0164   3.0670   3.6745
     4.3825   4.8036   5.1993   6.0807   6.3142

     occupation numbers 
     1.0000   1.0000   1.0000   1.0000   1.0000   1.0000   1.0000   1.0000
     1.0000   1.0000   1.0000   1.0000   1.0000   1.0000   1.0000   1.0000
     1.0000   1.0000   1.0000   1.0000   1.0000

          k =-0.5000 0.1443 0.1856 (  3736 PWs)   bands (ev):

  -115.5252 -69.8942 -69.8797 -69.8789 -64.9177 -31.9208 -31.9028 -31.8885
    -9.4435  -8.8202   1.9269   2.2461   2.5336   2.7776   2.9847   3.4649
     4.4239   4.8727   5.6439   5.9638   6.7620

     occupation numbers 
     1.0000   1.0000   1.0000   1.0000   1.0000   1.0000   1.0000   1.0000
     1.0000   1.0000   1.0000   1.0000   1.0000   1.0000   1.0000   1.0000
     1.0000   1.0000   1.0000   1.0000   1.0000

          k =-0.5000 0.1443 0.2784 (  3743 PWs)   bands (ev):

  -115.5252 -69.8942 -69.8797 -69.8789 -64.9177 -31.9210 -31.9028 -31.8885
    -9.4136  -8.8219   1.8784   2.1499   2.4626   2.5313   2.9560   3.4174
     4.4822   5.0082   5.6577   6.0712   7.1705

     occupation numbers 
     1.0000   1.0000   1.0000   1.0000   1.0000   1.0000   1.0000   1.0000
     1.0000   1.0000   1.0000   1.0000   1.0000   1.0000   1.0000   1.0000
     1.0000   1.0000   1.0000   1.0000   1.0000

          k =-0.5000 0.1443-0.3712 (  3736 PWs)   bands (ev):

  -115.5252 -69.8942 -69.8797 -69.8789 -64.9177 -31.9211 -31.9028 -31.8885
    -9.4008  -8.8229   1.8521   2.1124   2.3576   2.5238   2.9450   3.4052
     4.5051   5.1154   5.5421   6.1806   7.3194

     occupation numbers 
     1.0000   1.0000   1.0000   1.0000   1.0000   1.0000   1.0000   1.0000
     1.0000   1.0000   1.0000   1.0000   1.0000   1.0000   1.0000   1.0000
     1.0000   1.0000   1.0000   1.0000   1.0000

          k =-0.5000 0.1443-0.2784 (  3743 PWs)   bands (ev):

  -115.5252 -69.8942 -69.8797 -69.8789 -64.9177 -31.9210 -31.9028 -31.8885
    -9.4136  -8.8219   1.8687   2.1706   2.4567   2.5312   2.9562   3.4024
     4.4919   5.0094   5.6587   6.0865   7.1477

     occupation numbers 
     1.0000   1.0000   1.0000   1.0000   1.0000   1.0000   1.0000   1.0000
     1.0000   1.0000   1.0000   1.0000   1.0000   1.0000   1.0000   1.0000
     1.0000   1.0000   1.0000   1.0000   1.0000

          k =-0.5000 0.1443-0.1856 (  3736 PWs)   bands (ev):

  -115.5252 -69.8942 -69.8797 -69.8789 -64.9177 -31.9208 -31.9028 -31.8885
    -9.4434  -8.8203   1.9068   2.2850   2.5314   2.7781   2.9868   3.4261
     4.4260   4.8889   5.6819   5.9586   6.7242

     occupation numbers 
     1.0000   1.0000   1.0000   1.0000   1.0000   1.0000   1.0000   1.0000
     1.0000   1.0000   1.0000   1.0000   1.0000   1.0000   1.0000   1.0000
     1.0000   1.0000   1.0000   1.0000   1.0000

          k =-0.5000 0.1443-0.0928 (  3730 PWs)   bands (ev):

  -115.5252 -69.8942 -69.8797 -69.8789 -64.9177 -31.9206 -31.9029 -31.8885
    -9.4722  -8.8197   1.9367   2.4086   2.5409   3.0137   3.0900   3.6200
     4.3507   4.8507   5.2511   6.0499   6.2972

     occupation numbers 
     1.0000   1.0000   1.0000   1.0000   1.0000   1.0000   1.0000   1.0000
     1.0000   1.0000   1.0000   1.0000   1.0000   1.0000   1.0000   1.0000
     1.0000   1.0000   1.0000   1.0000   1.0000

          k =-0.5000-0.8660 0.0000 (  3734 PWs)   bands (ev):

  -115.5252 -69.8942 -69.8797 -69.8789 -64.9177 -31.9205 -31.9044 -31.8870
    -9.4800  -8.8223   1.8774   2.4711   2.5244   3.0584   3.1153   3.8624
     4.4931   4.7025   4.9412   6.0985   6.3317

     occupation numbers 
     1.0000   1.0000   1.0000   1.0000   1.0000   1.0000   1.0000   1.0000
     1.0000   1.0000   1.0000   1.0000   1.0000   1.0000   1.0000   1.0000
     1.0000   1.0000   1.0000   1.0000   1.0000

          k =-0.5000-0.8660 0.0928 (  3744 PWs)   bands (ev):

  -115.5252 -69.8942 -69.8797 -69.8789 -64.9177 -31.9206 -31.9044 -31.8870
    -9.4687  -8.8219   1.8655   2.4045   2.5225   3.0451   3.0689   3.5717
     4.4077   4.9956   5.1070   6.2778   6.2874

     occupation numbers 
     1.0000   1.0000   1.0000   1.0000   1.0000   1.0000   1.0000   1.0000
     1.0000   1.0000   1.0000   1.0000   1.0000   1.0000   1.0000   1.0000
     1.0000   1.0000   1.0000   1.0000   1.0000

          k =-0.5000-0.8660 0.1856 (  3752 PWs)   bands (ev):

  -115.5252 -69.8942 -69.8798 -69.8789 -64.9177 -31.9208 -31.9044 -31.8870
    -9.4408  -8.8213   1.8284   2.2748   2.5180   2.7847   3.0151   3.3391
     4.4307   5.1417   5.5391   6.1642   6.7041

     occupation numbers 
     1.0000   1.0000   1.0000   1.0000   1.0000   1.0000   1.0000   1.0000
     1.0000   1.0000   1.0000   1.0000   1.0000   1.0000   1.0000   1.0000
     1.0000   1.0000   1.0000   1.0000   1.0000

          k =-0.5000-0.8660 0.2784 (  3748 PWs)   bands (ev):

  -115.5252 -69.8942 -69.8798 -69.8789 -64.9177 -31.9210 -31.9044 -31.8869
    -9.4119  -8.8216   1.7818   2.1653   2.4640   2.5131   2.9875   3.3033
     4.4562   5.3315   5.8381   5.9952   7.0814

     occupation numbers 
     1.0000   1.0000   1.0000   1.0000   1.0000   1.0000   1.0000   1.0000
     1.0000   1.0000   1.0000   1.0000   1.0000   1.0000   1.0000   1.0000
     1.0000   1.0000   1.0000   1.0000   1.0000

          k =-0.5000-0.8660-0.3712 (  3740 PWs)   bands (ev):

  -115.5252 -69.8942 -69.8798 -69.8788 -64.9177 -31.9211 -31.9044 -31.8869
    -9.3996  -8.8220   1.7622   2.1101   2.3576   2.5110   2.9767   3.2986
     4.4643   5.4467   5.8882   5.9527   7.2184

     occupation numbers 
     1.0000   1.0000   1.0000   1.0000   1.0000   1.0000   1.0000   1.0000
     1.0000   1.0000   1.0000   1.0000   1.0000   1.0000   1.0000   1.0000
     1.0000   1.0000   1.0000   1.0000   1.0000

     highest occupied level (ev):     7.4354

!    total energy              =    -651.12596164 Ry
     Harris-Foulkes estimate   =    -651.12596127 Ry
     estimated scf accuracy    <       0.00000039 Ry

     The total energy is the sum of the following terms:

     one-electron contribution =    -527.10657304 Ry
     hartree contribution      =     277.40904977 Ry
     xc contribution           =     -73.08675139 Ry
     ewald contribution        =    -328.34168698 Ry

     convergence has been achieved in   7 iterations

     Forces acting on atoms (cartesian axes, Ry/au):

     atom    1 type  3   force =     0.00000025    0.00000079   -0.00288618
     atom    2 type  3   force =     0.00000093    0.00000141    0.00180798
     atom    3 type  2   force =    -0.00000151   -0.00000040   -0.00094419
     atom    4 type  1   force =     0.00000034   -0.00000180    0.00202240
     The non-local contrib.  to forces
     atom    1 type  3   force =    -0.00000017   -0.00000173    0.18379258
     atom    2 type  3   force =    -0.00000021    0.00000131    0.00722828
     atom    3 type  2   force =     0.00000037   -0.00000346    0.29878648
     atom    4 type  1   force =     0.00000157   -0.00000218    0.11469760
     The ionic contribution  to forces
     atom    1 type  3   force =    -0.00000896    0.00003598   -4.37320658
     atom    2 type  3   force =    -0.00000397    0.00000260    1.87192203
     atom    3 type  2   force =     0.00000177   -0.00001029    2.08090452
     atom    4 type  1   force =     0.00001117   -0.00002829    0.42038003
     The local contribution  to forces
     atom    1 type  3   force =     0.00000819   -0.00003396    4.18784158
     atom    2 type  3   force =     0.00000509   -0.00000182   -1.87791034
     atom    3 type  2   force =    -0.00000192    0.00001270   -2.38004808
     atom    4 type  1   force =    -0.00001212    0.00002978   -0.53323146
     The core correction contribution to forces
     atom    1 type  3   force =     0.00000000   -0.00000000   -0.00123564
     atom    2 type  3   force =     0.00000001   -0.00000000    0.00041193
     atom    3 type  2   force =     0.00000000    0.00000000    0.00000000
     atom    4 type  1   force =     0.00000000    0.00000000    0.00000000
     The Hubbard contrib.    to forces
     atom    1 type  3   force =     0.00000000    0.00000000    0.00000000
     atom    2 type  3   force =     0.00000000    0.00000000    0.00000000
     atom    3 type  2   force =     0.00000000    0.00000000    0.00000000
     atom    4 type  1   force =     0.00000000    0.00000000    0.00000000
     The SCF correction term to forces
     atom    1 type  3   force =     0.00000000    0.00000000    0.00000000
     atom    2 type  3   force =     0.00000000    0.00000000    0.00000000
     atom    3 type  2   force =     0.00000000    0.00000000    0.00000000
     atom    4 type  1   force =     0.00000000    0.00000000    0.00000000

     Total force =     0.000000     Total SCF correction =     0.000000


     Computing stress (Cartesian axis) and pressure

          total   stress  (Ry/bohr**3)                   (kbar)     P=    0.87
   0.00000874   0.00000001  -0.00000001          1.29      0.00     -0.00
   0.00000001   0.00000875  -0.00000000          0.00      1.29     -0.00
  -0.00000001  -0.00000000   0.00000016         -0.00     -0.00      0.02

     kinetic stress (kbar)  27278.44      0.00      0.00
                                0.00  27278.44     -0.00
                                0.00     -0.00  27440.96

     local   stress (kbar) -12273.10     -0.02      0.01
                               -0.02 -12273.16     -0.02
                                0.01     -0.02  -5484.67

     nonloc. stress (kbar)   1840.43     -0.00      0.00
                               -0.00   1840.43      0.00
                                0.00      0.00   1773.26

     hartree stress (kbar)  45066.48      0.01     -0.00
                                0.01  45066.51      0.01
                               -0.00      0.01  41939.07

     exc-cor stress (kbar) -10798.42      0.00      0.00
                                0.00 -10798.42      0.00
                                0.00      0.00 -10800.99

     corecor stress (kbar)   -257.24     -0.00      0.00
                               -0.00   -257.24     -0.00
                                0.00     -0.00   -257.52

     ewald   stress (kbar) -50855.30      0.01     -0.01
                                0.01 -50855.27      0.01
                               -0.01      0.01 -54610.08

     hubbard stress (kbar)      0.00      0.00      0.00
                                0.00      0.00      0.00
                                0.00      0.00      0.00

     london  stress (kbar)      0.00      0.00      0.00
                                0.00      0.00      0.00
                                0.00      0.00      0.00

     DFT-D3  stress (kbar)      0.00      0.00      0.00
                                0.00      0.00      0.00
                                0.00      0.00      0.00

     XDM     stress (kbar)      0.00      0.00      0.00
                                0.00      0.00      0.00
                                0.00      0.00      0.00

     dft-nl  stress (kbar)      0.00      0.00      0.00
                                0.00      0.00      0.00
                                0.00      0.00      0.00

     TS-vdW  stress (kbar)      0.00      0.00      0.00
                                0.00      0.00      0.00
                                0.00      0.00      0.00



     Writing output data file ZnO.save/
 
     init_run     :      0.52s CPU      1.17s WALL (       1 calls)
     electrons    :      6.18s CPU      6.65s WALL (       1 calls)
     forces       :      0.16s CPU      0.17s WALL (       1 calls)
     stress       :      0.29s CPU      0.30s WALL (       1 calls)

     Called by init_run:
     wfcinit      :      0.33s CPU      0.79s WALL (       1 calls)
     wfcinit:atom :      0.00s CPU      0.00s WALL (      65 calls)
     wfcinit:wfcr :      0.31s CPU      0.77s WALL (      65 calls)
     potinit      :      0.07s CPU      0.09s WALL (       1 calls)
     hinit0       :      0.10s CPU      0.24s WALL (       1 calls)

     Called by electrons:
     c_bands      :      5.14s CPU      5.54s WALL (       7 calls)
     sum_band     :      0.74s CPU      0.78s WALL (       7 calls)
     v_of_rho     :      0.26s CPU      0.27s WALL (       8 calls)
     v_h          :      0.00s CPU      0.00s WALL (       8 calls)
     v_xc         :      0.31s CPU      0.33s WALL (      10 calls)
     newd         :      0.05s CPU      0.06s WALL (       8 calls)
     mix_rho      :      0.01s CPU      0.02s WALL (       7 calls)

     Called by c_bands:
     init_us_2    :      0.08s CPU      0.09s WALL (    1105 calls)
     cegterg      :      4.79s CPU      5.06s WALL (     455 calls)

     Called by sum_band:
     sum_band:bec :      0.01s CPU      0.01s WALL (     455 calls)
     addusdens    :      0.04s CPU      0.05s WALL (       7 calls)

     Called by *egterg:
     h_psi        :      2.94s CPU      3.07s WALL (    1648 calls)
     s_psi        :      0.09s CPU      0.10s WALL (    1648 calls)
     g_psi        :      0.01s CPU      0.01s WALL (    1128 calls)
     cdiaghg      :      1.32s CPU      1.84s WALL (    1583 calls)
     cegterg:over :      0.34s CPU      0.40s WALL (    1128 calls)
     cegterg:upda :      0.16s CPU      0.17s WALL (    1128 calls)
     cegterg:last :      0.09s CPU      0.09s WALL (     455 calls)
     cdiaghg:chol :      0.08s CPU      0.30s WALL (    1583 calls)
     cdiaghg:inve :      0.02s CPU      0.05s WALL (    1583 calls)
     cdiaghg:para :      0.13s CPU      0.14s WALL (    3166 calls)

     Called by h_psi:
     h_psi:pot    :      2.94s CPU      3.06s WALL (    1648 calls)
     h_psi:calbec :      0.17s CPU      0.18s WALL (    1648 calls)
     vloc_psi     :      2.67s CPU      2.77s WALL (    1648 calls)
     add_vuspsi   :      0.10s CPU      0.10s WALL (    1648 calls)

     General routines
     calbec       :      0.26s CPU      0.28s WALL (    2428 calls)
     fft          :      0.04s CPU      0.08s WALL (     127 calls)
     ffts         :      0.00s CPU      0.00s WALL (      15 calls)
     fftw         :      3.04s CPU      3.16s WALL (   60379 calls)
     interpolate  :      0.00s CPU      0.01s WALL (       8 calls)
 
     Parallel routines
     fft_scatt_xy :      0.49s CPU      0.51s WALL (   60521 calls)
     fft_scatt_yz :      1.51s CPU      1.57s WALL (   60521 calls)
 
     PWSCF        :      7.45s CPU     10.14s WALL

 
   This run was terminated on:  23:25:40  15Jun2022            

=------------------------------------------------------------------------------=
   JOB DONE.
=------------------------------------------------------------------------------=
