
     Program PWSCF v.6.4.1 starts on  8Nov2021 at 16: 7:58 

     This program is part of the open-source Quantum ESPRESSO suite
     for quantum simulation of materials; please cite
         "P. Giannozzi et al., J. Phys.:Condens. Matter 21 395502 (2009);
         "P. Giannozzi et al., J. Phys.:Condens. Matter 29 465901 (2017);
          URL http://www.quantum-espresso.org", 
     in publications or presentations arising from this work. More details at
     http://www.quantum-espresso.org/quote

     Parallel version (MPI), running on   128 processors

     MPI processes distributed on     2 nodes
     K-points division:     npool     =       8
     R & G space division:  proc/nbgrp/npool/nimage =      16
     Waiting for input...
     Reading input from standard input
Warning: card &IONS ignored
Warning: card   UPSCALE           = 100.D0, ignored
Warning: card / ignored
Warning: card &CELL ignored
Warning: card   CELL_DYNAMICS     = 'BFGS' ignored
Warning: card   PRESS_CONV_THR    = 0.5D0 ignored
Warning: card   CELL_DOFREE = 'ALL' ignored
Warning: card / ignored

     Current dimensions of program PWSCF are:
     Max number of different atomic species (ntypx) = 10
     Max number of k-points (npk) =  40000
     Max angular momentum in pseudopotentials (lmaxx) =  3

     Subspace diagonalization in iterative solution of the eigenvalue problem:
     one sub-group per band group will be used
     scalapack distributed-memory algorithm (size of sub-group:  2*  2 procs)

 
     Parallelization info
     --------------------
     sticks:   dense  smooth     PW     G-vecs:    dense   smooth      PW
     Min         732     352     96                67989    22609    3250
     Max         733     353     97                67994    22612    3254
     Sum       11725    5643   1539              1087865   361761   52039
 


     bravais-lattice index     =            0
     lattice parameter (alat)  =      18.4447  a.u.
     unit-cell volume          =    5760.2657 (a.u.)^3
     number of atoms/cell      =           72
     number of atomic types    =            3
     number of electrons       =       776.00
     number of Kohn-Sham states=          466
     kinetic-energy cutoff     =      60.0000  Ry
     charge density cutoff     =     500.0000  Ry
     convergence threshold     =      1.0E-08
     mixing beta               =       0.5000
     number of iterations used =            8  plain     mixing
     Exchange-correlation      = SLA  PW   PSX  PSC ( 1  4 10  8 0 0)
     Using LIBXC version       =    4   3   4

     celldm(1)=  18.444651  celldm(2)=   0.000000  celldm(3)=   0.000000
     celldm(4)=   0.000000  celldm(5)=   0.000000  celldm(6)=   0.000000

     crystal axes: (cart. coord. in units of alat)
               a(1) = (   1.000000  -0.000668   0.000654 )  
               a(2) = (  -0.500577   0.867025  -0.000259 )  
               a(3) = (   0.000697   0.000083   1.059175 )  

     reciprocal axes: (cart. coord. in units 2 pi/alat)
               b(1) = (  1.000387  0.577573 -0.000703 )  
               b(2) = (  0.000771  1.153815 -0.000090 )  
               b(3) = ( -0.000617 -0.000074  0.944132 )  


     PseudoPot. # 1 for Zn read from file:
     ./GBRV_PBEsol/zn_pbesol_v1.uspp.F.UPF
     MD5 check sum: 7d8615e52efe7c1e2b1899de8658bae2
     Pseudo is Ultrasoft, Zval = 20.0
     Generated by new atomic code, or converted to UPF format
     Using radial grid of  943 points,  6 beta functions with: 
                l(1) =   0
                l(2) =   0
                l(3) =   1
                l(4) =   1
                l(5) =   2
                l(6) =   2
     Q(r) pseudized with  8 coefficients,  rinner =    1.100   1.100   1.100
                                                       1.100   1.100

     PseudoPot. # 2 for O  read from file:
     ./GBRV_PBEsol/o_pbesol_v1.2.uspp.F.UPF
     MD5 check sum: 501638753501ef6325af9037351f7734
     Pseudo is Ultrasoft + core correction, Zval =  6.0
     Generated by new atomic code, or converted to UPF format
     Using radial grid of  737 points,  5 beta functions with: 
                l(1) =   0
                l(2) =   0
                l(3) =   1
                l(4) =   1
                l(5) =   2
     Q(r) pseudized with  8 coefficients,  rinner =    0.900   0.900   0.900
                                                       0.900   0.900

     PseudoPot. # 3 for Mg read from file:
     ./GBRV_PBEsol/mg_pbesol_v1.4.uspp.F.UPF
     MD5 check sum: 4059f37963cf5867752dbf5ab2400678
     Pseudo is Ultrasoft, Zval = 10.0
     Generated by new atomic code, or converted to UPF format
     Using radial grid of  821 points,  7 beta functions with: 
                l(1) =   0
                l(2) =   0
                l(3) =   0
                l(4) =   1
                l(5) =   1
                l(6) =   2
                l(7) =   2
     Q(r) pseudized with  8 coefficients,  rinner =    1.200   1.200   1.200
                                                       1.200   1.200

     atomic species   valence    mass     pseudopotential
        Zn            20.00    65.38000     Zn( 1.00)
        O              6.00    15.99900     O ( 1.00)
        Mg            10.00    24.30500     Mg( 1.00)

     No symmetry found


                                    s                        frac. trans.

      isym =  1     identity                                     

 cryst.   s( 1) = (     1          0          0      )
                  (     0          1          0      )
                  (     0          0          1      )

 cart.    s( 1) = (  1.0000000  0.0000000 -0.0000000 )
                  ( -0.0000000  1.0000000 -0.0000000 )
                  (  0.0000000  0.0000000  1.0000000 )


   Cartesian axes

     site n.     atom                  positions (alat units)
         1           Zn  tau(   1) = (   0.1647120   0.0954718   0.2078329  )
         2           Zn  tau(   2) = (   0.3320790   0.3844047   0.2052132  )
         3           Zn  tau(   3) = (   0.6690750   0.3848183   0.2051876  )
         4           Zn  tau(   4) = (   0.1678470   0.0960901   0.7372997  )
         5           Zn  tau(   5) = (   0.5011901   0.0961282   0.7345505  )
         6           Zn  tau(   6) = (   0.8319612   0.0963055   0.7329174  )
         7           Zn  tau(   7) = (  -0.0002046   0.3867416   0.7341109  )
         8           Zn  tau(   8) = (   0.6662173   0.3851733   0.7353027  )
         9           Zn  tau(   9) = (   0.1654008   0.6740006   0.7349371  )
        10           Zn  tau(  10) = (   0.5002050   0.6718029   0.7327590  )
        11           Zn  tau(  11) = (   0.3320711   0.1938145   0.4716930  )
        12           Zn  tau(  12) = (   0.6671353   0.1931400   0.4693792  )
        13           Zn  tau(  13) = (   0.1670431   0.4804274   0.4701941  )
        14           Zn  tau(  14) = (   0.4994338   0.4798577   0.4687616  )
        15           Zn  tau(  15) = (  -0.0023124   0.7689245   0.4688917  )
        16           Zn  tau(  16) = (  -0.0006412   0.1924415   0.9998976  )
        17           Zn  tau(  17) = (   0.3339125   0.1902784   1.0014151  )
        18           Zn  tau(  18) = (   0.1655105   0.4818474   1.0009923  )
        19           Zn  tau(  19) = (  -0.3345861   0.7696509   0.9996010  )
        20           Zn  tau(  20) = (   0.0006899   0.7716148   1.0015546  )
        21           Mg  tau(  21) = (   0.4982255   0.0971561   0.2092373  )
        22           Mg  tau(  22) = (   0.8355017   0.0954626   0.2077967  )
        23           Mg  tau(  23) = (   0.0019994   0.3827286   0.2067701  )
        24           Mg  tau(  24) = (  -0.1676165   0.6757007   0.2046812  )
        25           Mg  tau(  25) = (   0.1669051   0.6743014   0.2075027  )
        26           Mg  tau(  26) = (   0.4998559   0.6754137   0.2078843  )
        27           Mg  tau(  27) = (   0.3337316   0.3851637   0.7371368  )
        28           Mg  tau(  28) = (  -0.1651790   0.6751293   0.7357037  )
        29           Mg  tau(  29) = (   0.0022704   0.1932812   0.4738237  )
        30           Mg  tau(  30) = (  -0.1667793   0.4822471   0.4699548  )
        31           Mg  tau(  31) = (  -0.3315930   0.7718202   0.4722079  )
        32           Mg  tau(  32) = (   0.3313163   0.7692654   0.4720584  )
        33           Mg  tau(  33) = (   0.6674667   0.1920582   1.0016283  )
        34           Mg  tau(  34) = (  -0.1649222   0.4805438   0.9991652  )
        35           Mg  tau(  35) = (   0.5021922   0.4820648   1.0028026  )
        36           Mg  tau(  36) = (   0.3349259   0.7708505   0.9980084  )
        37           O   tau(  37) = (   0.1654548   0.0953101   0.0034336  )
        38           O   tau(  38) = (   0.5004256   0.0965052   0.0063237  )
        39           O   tau(  39) = (   0.8325426   0.0947778   0.0046009  )
        40           O   tau(  40) = (  -0.0005456   0.3844431   0.0043650  )
        41           O   tau(  41) = (   0.3332828   0.3847988   0.0008484  )
        42           O   tau(  42) = (   0.6677184   0.3845976   0.0014223  )
        43           O   tau(  43) = (  -0.1673179   0.6732016   0.0014193  )
        44           O   tau(  44) = (   0.1676152   0.6748358   0.0041312  )
        45           O   tau(  45) = (   0.4983641   0.6737758   0.0051431  )
        46           O   tau(  46) = (   0.1671258   0.0960513   0.5340735  )
        47           O   tau(  47) = (   0.5000989   0.0958865   0.5305233  )
        48           O   tau(  48) = (   0.8340642   0.0956576   0.5299479  )
        49           O   tau(  49) = (  -0.0007555   0.3856472   0.5305379  )
        50           O   tau(  50) = (   0.3334862   0.3856026   0.5347608  )
        51           O   tau(  51) = (   0.6665873   0.3850750   0.5319480  )
        52           O   tau(  52) = (  -0.1677176   0.6733306   0.5332726  )
        53           O   tau(  53) = (   0.1649297   0.6734088   0.5312610  )
        54           O   tau(  54) = (   0.5000501   0.6739094   0.5290457  )
        55           O   tau(  55) = (  -0.0001940   0.1925305   0.2712907  )
        56           O   tau(  56) = (   0.3316159   0.1928922   0.2685194  )
        57           O   tau(  57) = (   0.6673360   0.1917535   0.2654932  )
        58           O   tau(  58) = (  -0.1642334   0.4827542   0.2666707  )
        59           O   tau(  59) = (   0.1666877   0.4818308   0.2670142  )
        60           O   tau(  60) = (   0.5004238   0.4809818   0.2648534  )
        61           O   tau(  61) = (  -0.3331802   0.7700120   0.2697253  )
        62           O   tau(  62) = (  -0.0006208   0.7706829   0.2657176  )
        63           O   tau(  63) = (   0.3329327   0.7703811   0.2689241  )
        64           O   tau(  64) = (  -0.0003945   0.1931229   0.7956233  )
        65           O   tau(  65) = (   0.3345820   0.1924428   0.7978189  )
        66           O   tau(  66) = (   0.6669551   0.1925657   0.7986511  )
        67           O   tau(  67) = (  -0.1665853   0.4826752   0.7964465  )
        68           O   tau(  68) = (   0.1667356   0.4816414   0.7972889  )
        69           O   tau(  69) = (   0.4998385   0.4811445   0.7997630  )
        70           O   tau(  70) = (  -0.3334938   0.7697050   0.7954613  )
        71           O   tau(  71) = (   0.0004818   0.7714589   0.7978191  )
        72           O   tau(  72) = (   0.3336335   0.7701395   0.7948876  )

   Crystallographic axes

     site n.     atom                  positions (cryst. coord.)
         1           Zn  tau(   1) = (  0.2197716  0.1102650  0.1961128  )
         2           Zn  tau(   2) = (  0.5540851  0.4437693  0.1935147  )
         3           Zn  tau(   3) = (  0.8914504  0.4445064  0.1932825  )
         4           Zn  tau(   4) = (  0.2228925  0.1109330  0.6959972  )
         5           Zn  tau(   5) = (  0.5563884  0.1112342  0.6931959  )
         6           Zn  tau(   6) = (  0.8873911  0.1116940  0.6914499  )
         7           Zn  tau(   7) = (  0.2226507  0.4461616  0.6930687  )
         8           Zn  tau(   8) = (  0.8884238  0.4448659  0.6937827  )
         9           Zn  tau(   9) = (  0.5542327  0.7777329  0.6937251  )
        10           Zn  tau(  10) = (  0.8878986  0.7754554  0.6914623  )
        11           Zn  tau(  11) = (  0.4438099  0.2238395  0.4451210  )
        12           Zn  tau(  12) = (  0.7786158  0.2233198  0.4427297  )
        13           Zn  tau(  13) = (  0.4442591  0.5544105  0.4437862  )
        14           Zn  tau(  14) = (  0.7764504  0.5540096  0.4422287  )
        15           Zn  tau(  15) = (  0.4414673  0.8871522  0.4426396  )
        16           Zn  tau(  16) = (  0.1098044  0.2219509  0.9440210  )
        17           Zn  tau(  17) = (  0.4432371  0.2197129  0.9452475  )
        18           Zn  tau(  18) = (  0.4431727  0.5559997  0.9449305  )
        19           Zn  tau(  19) = (  0.1091113  0.8876861  0.9439042  )
        20           Zn  tau(  20) = (  0.4456500  0.8902104  0.9455416  )
        21           Mg  tau(  21) = (  0.5543858  0.1124654  0.1972329  )
        22           Mg  tau(  22) = (  0.8908155  0.1107716  0.1956646  )
        23           Mg  tau(  23) = (  0.2229086  0.4415807  0.1951885  )
        24           Mg  tau(  24) = (  0.2224415  0.7794856  0.1932991  )
        25           Mg  tau(  25) = (  0.5562823  0.7781287  0.1957566  )
        26           Mg  tau(  26) = (  0.8900041  0.7796689  0.1959114  )
        27           Mg  tau(  27) = (  0.5558026  0.4445982  0.6957195  )
        28           Mg  tau(  28) = (  0.2241764  0.7787801  0.6946528  )
        29           Mg  tau(  29) = (  0.1135721  0.2229695  0.4473361  )
        30           Mg  tau(  30) = (  0.1113587  0.5562527  0.4437662  )
        31           Mg  tau(  31) = (  0.1137293  0.8902390  0.4459736  )
        32           Mg  tau(  32) = (  0.7754196  0.8878024  0.4454235  )
        33           Mg  tau(  33) = (  0.7779482  0.2220237  0.9452427  )
        34           Mg  tau(  34) = (  0.1118605  0.5542409  0.9434096  )
        35           Mg  tau(  35) = (  0.7801090  0.5565100  0.9464318  )
        36           Mg  tau(  36) = (  0.7795763  0.8895866  0.9419873  )
        37           O   tau(  37) = (  0.2205650  0.1100975  0.0031325  )
        38           O   tau(  38) = (  0.5563537  0.1117345  0.0056544  )
        39           O   tau(  39) = (  0.8876025  0.1099976  0.0038230  )
        40           O   tau(  40) = (  0.2214952  0.4435753  0.0040928  )
        41           O   tau(  41) = (  0.5556607  0.4442434  0.0005666  )
        42           O   tau(  42) = (  0.8901090  0.4442691  0.0009021  )
        43           O   tau(  43) = (  0.2214397  0.7766207  0.0013932  )
        44           O   tau(  44) = (  0.5574444  0.7787643  0.0037467  )
        45           O   tau(  45) = (  0.8877082  0.7777962  0.0044980  )
        46           O   tau(  46) = (  0.2222915  0.1109060  0.5041254  )
        47           O   tau(  47) = (  0.5553007  0.1109729  0.5005681  )
        48           O   tau(  48) = (  0.8892634  0.1109664  0.4998187  )
        49           O   tau(  49) = (  0.2216107  0.4449168  0.5008694  )
        50           O   tau(  50) = (  0.5559529  0.4451228  0.5046501  )
        51           O   tau(  51) = (  0.8888801  0.4447711  0.5017888  )
        52           O   tau(  52) = (  0.2207403  0.7767211  0.5035329  )
        53           O   tau(  53) = (  0.5535628  0.7770680  0.5014284  )
        54           O   tau(  54) = (  0.8891036  0.7779043  0.4991300  )
        55           O   tau(  55) = (  0.1108156  0.2221198  0.2561199  )
        56           O   tau(  56) = (  0.4429647  0.2227933  0.2532986  )
        57           O   tau(  57) = (  0.7781592  0.2217386  0.2502344  )
        58           O   tau(  58) = (  0.1143414  0.5568580  0.2518377  )
        59           O   tau(  59) = (  0.4448571  0.5560479  0.2519578  )
        60           O   tau(  60) = (  0.7782335  0.5553258  0.2497118  )
        61           O   tau(  61) = (  0.1112396  0.8881697  0.2548045  )
        62           O   tau(  62) = (  0.4443181  0.8892007  0.2508154  )
        63           O   tau(  63) = (  0.7778240  0.8891094  0.2536369  )
        64           O   tau(  64) = (  0.1105884  0.2227557  0.7511590  )
        65           O   tau(  65) = (  0.4453001  0.2222292  0.7530253  )
        66           O   tau(  66) = (  0.7778722  0.2226273  0.7536058  )
        67           O   tau(  67) = (  0.1115705  0.5567172  0.7520172  )
        68           O   tau(  68) = (  0.4444226  0.5557814  0.7526070  )
        69           O   tau(  69) = (  0.7773656  0.5554647  0.7547373  )
        70           O   tau(  70) = (  0.1103788  0.8877677  0.7511687  )
        71           O   tau(  71) = (  0.4454950  0.8900487  0.7531885  )
        72           O   tau(  72) = (  0.7780155  0.8887836  0.7502153  )

     number of k points=    36  Marzari-Vanderbilt smearing, width (Ry)=  0.0010
                       cart. coord. in units 2pi/alat
        k(    1) = (   0.0000000   0.0000000   0.0000000), wk =   0.0312500
        k(    2) = (  -0.0001543  -0.0000186   0.2360329), wk =   0.0625000
        k(    3) = (   0.0003086   0.0000372  -0.4720658), wk =   0.0312500
        k(    4) = (   0.0001928   0.2884536  -0.0000226), wk =   0.0625000
        k(    5) = (   0.0000385   0.2884350   0.2360103), wk =   0.0625000
        k(    6) = (   0.0005014   0.2884909  -0.4720884), wk =   0.0625000
        k(    7) = (   0.0003471   0.2884723  -0.2360555), wk =   0.0625000
        k(    8) = (  -0.0003856  -0.5769073   0.0000452), wk =   0.0312500
        k(    9) = (  -0.0005399  -0.5769259   0.2360781), wk =   0.0625000
        k(   10) = (  -0.0000770  -0.5768701  -0.4720206), wk =   0.0312500
        k(   11) = (   0.2500967   0.1443934  -0.0001758), wk =   0.0625000
        k(   12) = (   0.2499424   0.1443747   0.2358571), wk =   0.0625000
        k(   13) = (   0.2504053   0.1444306  -0.4722417), wk =   0.0625000
        k(   14) = (   0.2502510   0.1444120  -0.2362088), wk =   0.0625000
        k(   15) = (   0.2502895   0.4328470  -0.0001984), wk =   0.0625000
        k(   16) = (   0.2501352   0.4328284   0.2358345), wk =   0.0625000
        k(   17) = (   0.2505981   0.4328842  -0.4722643), wk =   0.0625000
        k(   18) = (   0.2504438   0.4328656  -0.2362314), wk =   0.0625000
        k(   19) = (   0.2497111  -0.4325139  -0.0001306), wk =   0.0625000
        k(   20) = (   0.2495568  -0.4325326   0.2359023), wk =   0.0625000
        k(   21) = (   0.2500197  -0.4324767  -0.4721965), wk =   0.0625000
        k(   22) = (   0.2498654  -0.4324953  -0.2361635), wk =   0.0625000
        k(   23) = (   0.2499039  -0.1440603  -0.0001532), wk =   0.0625000
        k(   24) = (   0.2497496  -0.1440789   0.2358797), wk =   0.0625000
        k(   25) = (   0.2502125  -0.1440231  -0.4722191), wk =   0.0625000
        k(   26) = (   0.2500582  -0.1440417  -0.2361861), wk =   0.0625000
        k(   27) = (  -0.5001934  -0.2887867   0.0003517), wk =   0.0312500
        k(   28) = (  -0.5003477  -0.2888053   0.2363846), wk =   0.0625000
        k(   29) = (  -0.4998848  -0.2887495  -0.4717142), wk =   0.0312500
        k(   30) = (  -0.5000007  -0.0003331   0.0003291), wk =   0.0625000
        k(   31) = (  -0.5001550  -0.0003517   0.2363620), wk =   0.0625000
        k(   32) = (  -0.4996921  -0.0002958  -0.4717368), wk =   0.0625000
        k(   33) = (  -0.4998464  -0.0003144  -0.2357039), wk =   0.0625000
        k(   34) = (  -0.5005790  -0.8656940   0.0003969), wk =   0.0312500
        k(   35) = (  -0.5007333  -0.8657126   0.2364298), wk =   0.0625000
        k(   36) = (  -0.5002704  -0.8656568  -0.4716690), wk =   0.0312500

                       cryst. coord.
        k(    1) = (   0.0000000   0.0000000   0.0000000), wk =   0.0312500
        k(    2) = (   0.0000000   0.0000000   0.2500000), wk =   0.0625000
        k(    3) = (  -0.0000000  -0.0000000  -0.5000000), wk =   0.0312500
        k(    4) = (  -0.0000000   0.2500000  -0.0000000), wk =   0.0625000
        k(    5) = (   0.0000000   0.2500000   0.2500000), wk =   0.0625000
        k(    6) = (   0.0000000   0.2500000  -0.5000000), wk =   0.0625000
        k(    7) = (  -0.0000000   0.2500000  -0.2500000), wk =   0.0625000
        k(    8) = (   0.0000000  -0.5000000   0.0000000), wk =   0.0312500
        k(    9) = (   0.0000000  -0.5000000   0.2500000), wk =   0.0625000
        k(   10) = (  -0.0000000  -0.5000000  -0.5000000), wk =   0.0312500
        k(   11) = (   0.2500000   0.0000000  -0.0000000), wk =   0.0625000
        k(   12) = (   0.2500000   0.0000000   0.2500000), wk =   0.0625000
        k(   13) = (   0.2500000   0.0000000  -0.5000000), wk =   0.0625000
        k(   14) = (   0.2500000   0.0000000  -0.2500000), wk =   0.0625000
        k(   15) = (   0.2500000   0.2500000  -0.0000000), wk =   0.0625000
        k(   16) = (   0.2500000   0.2500000   0.2500000), wk =   0.0625000
        k(   17) = (   0.2500000   0.2500000  -0.5000000), wk =   0.0625000
        k(   18) = (   0.2500000   0.2500000  -0.2500000), wk =   0.0625000
        k(   19) = (   0.2500000  -0.5000000   0.0000000), wk =   0.0625000
        k(   20) = (   0.2500000  -0.5000000   0.2500000), wk =   0.0625000
        k(   21) = (   0.2500000  -0.5000000  -0.5000000), wk =   0.0625000
        k(   22) = (   0.2500000  -0.5000000  -0.2500000), wk =   0.0625000
        k(   23) = (   0.2500000  -0.2500000  -0.0000000), wk =   0.0625000
        k(   24) = (   0.2500000  -0.2500000   0.2500000), wk =   0.0625000
        k(   25) = (   0.2500000  -0.2500000  -0.5000000), wk =   0.0625000
        k(   26) = (   0.2500000  -0.2500000  -0.2500000), wk =   0.0625000
        k(   27) = (  -0.5000000  -0.0000000   0.0000000), wk =   0.0312500
        k(   28) = (  -0.5000000   0.0000000   0.2500000), wk =   0.0625000
        k(   29) = (  -0.5000000  -0.0000000  -0.5000000), wk =   0.0312500
        k(   30) = (  -0.5000000   0.2500000   0.0000000), wk =   0.0625000
        k(   31) = (  -0.5000000   0.2500000   0.2500000), wk =   0.0625000
        k(   32) = (  -0.5000000   0.2500000  -0.5000000), wk =   0.0625000
        k(   33) = (  -0.5000000   0.2500000  -0.2500000), wk =   0.0625000
        k(   34) = (  -0.5000000  -0.5000000   0.0000000), wk =   0.0312500
        k(   35) = (  -0.5000000  -0.5000000   0.2500000), wk =   0.0625000
        k(   36) = (  -0.5000000  -0.5000000  -0.5000000), wk =   0.0312500

     Dense  grid:  1087865 G-vectors     FFT dimensions: ( 135, 135, 144)

     Smooth grid:   361761 G-vectors     FFT dimensions: (  96,  96, 100)

     Dynamical RAM for                 wfc:      20.09 MB

     Dynamical RAM for     wfc (w. buffer):     120.52 MB

     Dynamical RAM for           str. fact:       3.11 MB

     Dynamical RAM for           local pot:       0.00 MB

     Dynamical RAM for          nlocal pot:      48.80 MB

     Dynamical RAM for                qrad:      21.05 MB

     Dynamical RAM for          rho,v,vnew:       6.87 MB

     Dynamical RAM for               rhoin:       2.29 MB

     Dynamical RAM for            rho*nmix:      16.60 MB

     Dynamical RAM for           G-vectors:       4.06 MB

     Dynamical RAM for          h,s,v(r/c):      39.76 MB

     Dynamical RAM for          <psi|beta>:       8.05 MB

     Dynamical RAM for                 psi:      80.35 MB

     Dynamical RAM for                hpsi:      80.35 MB

     Dynamical RAM for                spsi:      80.35 MB

     Dynamical RAM for      wfcinit/wfcrot:      47.09 MB

     Dynamical RAM for           addusdens:      32.16 MB

     Dynamical RAM for          addusforce:      55.17 MB

     Dynamical RAM for         addusstress:      28.98 MB

     Estimated static dynamical RAM per process >     233.70 MB

     Estimated max dynamical RAM per process >     522.57 MB

     Estimated total dynamical RAM >      65.32 GB

     Check: negative core charge=   -0.000002

     Initial potential from superposition of free atoms

     starting charge  771.19370, renormalised to  776.00000
     Starting wfcs are  484 randomized atomic wfcs

     total cpu time spent up to now is       18.4 secs

     Self-consistent Calculation

     iteration #  1     ecut=    60.00 Ry     beta= 0.50
     Davidson diagonalization with overlap
     ethr =  1.00E-02,  avg # of iterations =  4.8

     total cpu time spent up to now is       77.0 secs

     total energy              =  -12379.47605281 Ry
     Harris-Foulkes estimate   =  -12398.53111430 Ry
     estimated scf accuracy    <      27.77488240 Ry

     iteration #  2     ecut=    60.00 Ry     beta= 0.50
     Davidson diagonalization with overlap
     ethr =  3.58E-03,  avg # of iterations =  3.1

     total cpu time spent up to now is      141.0 secs

     total energy              =  -12386.36195779 Ry
     Harris-Foulkes estimate   =  -12398.20163189 Ry
     estimated scf accuracy    <      29.39707478 Ry

     iteration #  3     ecut=    60.00 Ry     beta= 0.50
     Davidson diagonalization with overlap
     ethr =  3.58E-03,  avg # of iterations =  3.2

     total cpu time spent up to now is      197.7 secs

     total energy              =  -12392.01041643 Ry
     Harris-Foulkes estimate   =  -12392.73823445 Ry
     estimated scf accuracy    <       2.12582230 Ry

     iteration #  4     ecut=    60.00 Ry     beta= 0.50
     Davidson diagonalization with overlap
     ethr =  2.74E-04,  avg # of iterations =  4.4

     total cpu time spent up to now is      253.2 secs

     total energy              =  -12392.20132096 Ry
     Harris-Foulkes estimate   =  -12392.27482554 Ry
     estimated scf accuracy    <       0.20097728 Ry

     iteration #  5     ecut=    60.00 Ry     beta= 0.50
     Davidson diagonalization with overlap
     ethr =  2.59E-05,  avg # of iterations =  5.1

     total cpu time spent up to now is      333.6 secs

     total energy              =  -12392.21967956 Ry
     Harris-Foulkes estimate   =  -12392.24418417 Ry
     estimated scf accuracy    <       0.05840165 Ry

     iteration #  6     ecut=    60.00 Ry     beta= 0.50
     Davidson diagonalization with overlap
     ethr =  7.53E-06,  avg # of iterations =  3.8

     total cpu time spent up to now is      402.4 secs

     total energy              =  -12392.23065089 Ry
     Harris-Foulkes estimate   =  -12392.23321464 Ry
     estimated scf accuracy    <       0.00972708 Ry

     iteration #  7     ecut=    60.00 Ry     beta= 0.50
     Davidson diagonalization with overlap
     ethr =  1.25E-06,  avg # of iterations =  2.8

     total cpu time spent up to now is      451.1 secs

     total energy              =  -12392.23200529 Ry
     Harris-Foulkes estimate   =  -12392.23230248 Ry
     estimated scf accuracy    <       0.00105154 Ry

     iteration #  8     ecut=    60.00 Ry     beta= 0.50
     Davidson diagonalization with overlap
     ethr =  1.36E-07,  avg # of iterations =  2.0

     total cpu time spent up to now is      496.0 secs

     total energy              =  -12392.23218462 Ry
     Harris-Foulkes estimate   =  -12392.23222274 Ry
     estimated scf accuracy    <       0.00011495 Ry

     iteration #  9     ecut=    60.00 Ry     beta= 0.50
     Davidson diagonalization with overlap
     ethr =  1.48E-08,  avg # of iterations =  2.0

     total cpu time spent up to now is      540.4 secs

     total energy              =  -12392.23221174 Ry
     Harris-Foulkes estimate   =  -12392.23221335 Ry
     estimated scf accuracy    <       0.00002233 Ry

     iteration # 10     ecut=    60.00 Ry     beta= 0.50
     Davidson diagonalization with overlap
     ethr =  2.88E-09,  avg # of iterations =  2.0

     total cpu time spent up to now is      580.4 secs

     total energy              =  -12392.23221562 Ry
     Harris-Foulkes estimate   =  -12392.23221566 Ry
     estimated scf accuracy    <       0.00000300 Ry

     iteration # 11     ecut=    60.00 Ry     beta= 0.50
     Davidson diagonalization with overlap
     ethr =  3.87E-10,  avg # of iterations =  2.0

     total cpu time spent up to now is      625.5 secs

     total energy              =  -12392.23221619 Ry
     Harris-Foulkes estimate   =  -12392.23221620 Ry
     estimated scf accuracy    <       0.00000033 Ry

     iteration # 12     ecut=    60.00 Ry     beta= 0.50
     Davidson diagonalization with overlap
     ethr =  4.24E-11,  avg # of iterations =  2.0

     total cpu time spent up to now is      669.0 secs

     total energy              =  -12392.23221626 Ry
     Harris-Foulkes estimate   =  -12392.23221626 Ry
     estimated scf accuracy    <       0.00000006 Ry

     iteration # 13     ecut=    60.00 Ry     beta= 0.50
     Davidson diagonalization with overlap
     ethr =  7.63E-12,  avg # of iterations =  2.0

     total cpu time spent up to now is      713.5 secs

     total energy              =  -12392.23221627 Ry
     Harris-Foulkes estimate   =  -12392.23221627 Ry
     estimated scf accuracy    <       0.00000001 Ry

     iteration # 14     ecut=    60.00 Ry     beta= 0.50
     Davidson diagonalization with overlap
     ethr =  1.42E-12,  avg # of iterations =  2.0

     total cpu time spent up to now is      755.5 secs

     End of self-consistent calculation

          k = 0.0000 0.0000 0.0000 ( 45169 PWs)   bands (ev):

  -115.7460-115.7400-115.7391-115.7374-115.7359-115.7340-115.7339-115.7329
  -115.7309-115.7305-115.7302-115.7291-115.7269-115.7242-115.7219-115.7199
  -115.7162-115.7121-115.7112-115.6965 -70.1073 -70.1029 -70.1002 -70.0999
   -70.0968 -70.0966 -70.0965 -70.0961 -70.0957 -70.0953 -70.0943 -70.0936
   -70.0929 -70.0927 -70.0926 -70.0918 -70.0912 -70.0909 -70.0909 -70.0908
   -70.0903 -70.0902 -70.0902 -70.0883 -70.0881 -70.0881 -70.0876 -70.0873
   -70.0870 -70.0865 -70.0853 -70.0851 -70.0843 -70.0843 -70.0843 -70.0831
   -70.0814 -70.0812 -70.0802 -70.0801 -70.0796 -70.0779 -70.0777 -70.0775
   -70.0764 -70.0760 -70.0754 -70.0743 -70.0738 -70.0735 -70.0715 -70.0710
   -70.0695 -70.0691 -70.0675 -70.0623 -70.0600 -70.0588 -70.0531 -70.0468
   -65.2031 -65.1940 -65.1790 -65.1769 -65.1633 -65.1555 -65.1522 -65.1478
   -65.1441 -65.1396 -65.1365 -65.1316 -65.1278 -65.1275 -65.1157 -65.1075
   -32.1944 -32.1872 -32.1869 -32.1866 -32.1811 -32.1783 -32.1697 -32.1687
   -32.1659 -32.1646 -32.1628 -32.1598 -32.1564 -32.1514 -32.1508 -32.1480
   -32.1452 -32.1443 -32.1439 -32.1419 -32.1387 -32.1378 -32.1359 -32.1320
   -32.1311 -32.1302 -32.1299 -32.1285 -32.1278 -32.1252 -32.1236 -32.1229
   -32.1216 -32.1211 -32.1190 -32.1167 -32.1159 -32.1158 -32.1127 -32.1123
   -32.1086 -32.1078 -32.1072 -32.1010 -32.0972 -32.0953 -32.0907 -32.0873
   -10.3311 -10.0186  -9.9742  -9.9066  -9.8849  -9.8528  -9.8193  -9.8142
    -9.7583  -9.7262  -9.6832  -9.6594  -9.6430  -9.6242  -9.6108  -9.5697
    -9.5665  -9.5345  -9.5199  -9.5069  -9.4974  -9.4656  -9.4464  -9.4332
    -9.4185  -9.3884  -9.3709  -9.3404  -9.3126  -9.2640  -9.2407  -9.2293
    -9.1997  -9.1667  -9.1546  -9.0154   1.4586   1.4955   1.5196   1.5257
     1.5495   1.5673   1.5925   1.6035   1.6273   1.6480   1.6754   1.6833
     1.7473   1.7620   1.7825   1.7944   1.8017   1.8194   1.8315   1.8475
     1.8646   1.8852   1.9001   1.9282   1.9407   1.9606   1.9696   1.9815
     1.9876   2.0029   2.0070   2.0216   2.0296   2.0606   2.0634   2.0722
     2.0824   2.0979   2.1134   2.1219   2.1226   2.1465   2.1621   2.1658
     2.1796   2.1876   2.2096   2.2339   2.2524   2.2771   2.3051   2.3350
     2.3508   2.3692   2.3922   2.4041   2.4181   2.4302   2.4396   2.4676
     2.4809   2.5009   2.5222   2.5357   2.5482   2.5545   2.5674   2.5831
     2.5984   2.6241   2.6295   2.6452   2.6548   2.6780   2.6916   2.7015
     2.7321   2.7541   2.7693   2.7762   2.7858   2.8025   2.8233   2.8384
     2.8503   2.8610   2.8750   2.8848   2.9031   2.9152   2.9303   2.9511
     2.9581   2.9652   2.9783   2.9910   3.0034   3.0101   3.0389   3.0511
     3.0583   3.1660   3.2649   3.3034   3.3551   3.3709   3.3904   3.4506
     3.4739   3.4874   3.5220   3.5446   3.5948   3.6147   3.6598   3.6829
     3.7254   3.7572   3.7916   3.8356   3.8682   3.9124   4.0014   4.0340
     4.0587   4.0685   4.1010   4.1430   4.1591   4.2159   4.2350   4.2812
     4.3085   4.3286   4.3594   4.4491   4.4916   4.5018   4.5227   4.6031
     4.6807   4.7273   4.7996   4.8295   4.8683   4.9948   5.0440   5.1653
     5.1965   5.2123   5.2164   5.2505   5.2950   5.3043   5.3345   5.3799
     5.3943   5.4115   5.4309   5.4659   5.4803   5.5588   5.6061   5.6333
     5.6524   5.6842   5.7026   5.7213   5.7330   5.7497   5.7750   5.8108
     5.8349   5.8563   5.8756   5.8925   5.9148   5.9552   5.9862   5.9893
     6.0024   6.0491   6.0693   6.0862   6.1255   6.1468   6.1619   6.1857
     6.2220   6.2588   6.2948   6.3248   6.3446   6.3635   6.3930   6.4043
     6.4217   6.4281   6.4518   6.5134   6.5666   6.6497   6.6656   6.6852
     6.7380   6.9509   6.9762   6.9956   8.7405  11.1921  11.2307  11.8177
    11.8696  11.9372  12.0188  12.1133  12.2804  12.6966  12.7669  12.7911
    12.8162  12.8678  12.8940  12.9477  12.9671  13.0337  13.1147  13.2049
    13.2567  13.5698  14.6526  14.6602  14.8068  14.8641  14.8993  14.9215
    14.9506  14.9663  14.9831  15.0421  15.0540  15.0887  15.1265  15.1403
    15.1589  15.2003  15.2571  15.2692  15.3221  15.3902  15.4628  15.5583
    15.5878  15.6645  15.7232  15.7618  15.7867  15.8724  15.9422  16.0435
    16.0544  16.0986  16.1372  16.1725  16.1795  16.3184  16.3828  16.6081
    16.6363  16.8622  17.0633  17.0972  17.1562  17.3097  17.3525  17.4063
    17.4517  17.4715  17.6699  17.7277  17.8498  18.0886  18.1200  18.1702
    18.2124  18.3611

     occupation numbers 
     1.0000   1.0000   1.0000   1.0000   1.0000   1.0000   1.0000   1.0000
     1.0000   1.0000   1.0000   1.0000   1.0000   1.0000   1.0000   1.0000
     1.0000   1.0000   1.0000   1.0000   1.0000   1.0000   1.0000   1.0000
     1.0000   1.0000   1.0000   1.0000   1.0000   1.0000   1.0000   1.0000
     1.0000   1.0000   1.0000   1.0000   1.0000   1.0000   1.0000   1.0000
     1.0000   1.0000   1.0000   1.0000   1.0000   1.0000   1.0000   1.0000
     1.0000   1.0000   1.0000   1.0000   1.0000   1.0000   1.0000   1.0000
     1.0000   1.0000   1.0000   1.0000   1.0000   1.0000   1.0000   1.0000
     1.0000   1.0000   1.0000   1.0000   1.0000   1.0000   1.0000   1.0000
     1.0000   1.0000   1.0000   1.0000   1.0000   1.0000   1.0000   1.0000
     1.0000   1.0000   1.0000   1.0000   1.0000   1.0000   1.0000   1.0000
     1.0000   1.0000   1.0000   1.0000   1.0000   1.0000   1.0000   1.0000
     1.0000   1.0000   1.0000   1.0000   1.0000   1.0000   1.0000   1.0000
     1.0000   1.0000   1.0000   1.0000   1.0000   1.0000   1.0000   1.0000
     1.0000   1.0000   1.0000   1.0000   1.0000   1.0000   1.0000   1.0000
     1.0000   1.0000   1.0000   1.0000   1.0000   1.0000   1.0000   1.0000
     1.0000   1.0000   1.0000   1.0000   1.0000   1.0000   1.0000   1.0000
     1.0000   1.0000   1.0000   1.0000   1.0000   1.0000   1.0000   1.0000
     1.0000   1.0000   1.0000   1.0000   1.0000   1.0000   1.0000   1.0000
     1.0000   1.0000   1.0000   1.0000   1.0000   1.0000   1.0000   1.0000
     1.0000   1.0000   1.0000   1.0000   1.0000   1.0000   1.0000   1.0000
     1.0000   1.0000   1.0000   1.0000   1.0000   1.0000   1.0000   1.0000
     1.0000   1.0000   1.0000   1.0000   1.0000   1.0000   1.0000   1.0000
     1.0000   1.0000   1.0000   1.0000   1.0000   1.0000   1.0000   1.0000
     1.0000   1.0000   1.0000   1.0000   1.0000   1.0000   1.0000   1.0000
     1.0000   1.0000   1.0000   1.0000   1.0000   1.0000   1.0000   1.0000
     1.0000   1.0000   1.0000   1.0000   1.0000   1.0000   1.0000   1.0000
     1.0000   1.0000   1.0000   1.0000   1.0000   1.0000   1.0000   1.0000
     1.0000   1.0000   1.0000   1.0000   1.0000   1.0000   1.0000   1.0000
     1.0000   1.0000   1.0000   1.0000   1.0000   1.0000   1.0000   1.0000
     1.0000   1.0000   1.0000   1.0000   1.0000   1.0000   1.0000   1.0000
     1.0000   1.0000   1.0000   1.0000   1.0000   1.0000   1.0000   1.0000
     1.0000   1.0000   1.0000   1.0000   1.0000   1.0000   1.0000   1.0000
     1.0000   1.0000   1.0000   1.0000   1.0000   1.0000   1.0000   1.0000
     1.0000   1.0000   1.0000   1.0000   1.0000   1.0000   1.0000   1.0000
     1.0000   1.0000   1.0000   1.0000   1.0000   1.0000   1.0000   1.0000
     1.0000   1.0000   1.0000   1.0000   1.0000   1.0000   1.0000   1.0000
     1.0000   1.0000   1.0000   1.0000   1.0000   1.0000   1.0000   1.0000
     1.0000   1.0000   1.0000   1.0000   1.0000   1.0000   1.0000   1.0000
     1.0000   1.0000   1.0000   1.0000   1.0000   1.0000   1.0000   1.0000
     1.0000   1.0000   1.0000   1.0000   1.0000   1.0000   1.0000   1.0000
     1.0000   1.0000   1.0000   1.0000   1.0000   1.0000   1.0000   1.0000
     1.0000   1.0000   1.0000   1.0000   1.0000   1.0000   1.0000   1.0000
     1.0000   1.0000   1.0000   1.0000   1.0000   1.0000   1.0000   1.0000
     1.0000   1.0000   1.0000   1.0000   1.0000   1.0000   1.0000   1.0000
     1.0000   1.0000   1.0000   1.0000   1.0000   1.0000   1.0000   1.0000
     1.0000   1.0000   1.0000   1.0000   1.0000   1.0000   1.0000   1.0000
     1.0000   1.0000   1.0000   1.0000   1.0000   1.0000   1.0000   1.0000
     1.0000   1.0000   1.0000   1.0000   0.0000   0.0000   0.0000   0.0000
     0.0000   0.0000   0.0000   0.0000   0.0000   0.0000   0.0000   0.0000
     0.0000   0.0000   0.0000   0.0000   0.0000   0.0000   0.0000   0.0000
     0.0000   0.0000   0.0000   0.0000   0.0000   0.0000   0.0000   0.0000
     0.0000   0.0000   0.0000   0.0000   0.0000   0.0000   0.0000   0.0000
     0.0000   0.0000   0.0000   0.0000   0.0000   0.0000   0.0000   0.0000
     0.0000   0.0000   0.0000   0.0000   0.0000   0.0000   0.0000   0.0000
     0.0000   0.0000   0.0000   0.0000   0.0000   0.0000   0.0000   0.0000
     0.0000   0.0000   0.0000   0.0000   0.0000   0.0000   0.0000   0.0000
     0.0000   0.0000   0.0000   0.0000   0.0000   0.0000   0.0000   0.0000
     0.0000   0.0000

          k =-0.0002-0.0000 0.2360 ( 45221 PWs)   bands (ev):

  -115.7460-115.7400-115.7391-115.7374-115.7359-115.7340-115.7339-115.7329
  -115.7309-115.7305-115.7302-115.7291-115.7269-115.7242-115.7219-115.7199
  -115.7162-115.7121-115.7112-115.6965 -70.1073 -70.1029 -70.1002 -70.0999
   -70.0968 -70.0966 -70.0965 -70.0961 -70.0957 -70.0953 -70.0943 -70.0936
   -70.0929 -70.0927 -70.0926 -70.0918 -70.0912 -70.0909 -70.0909 -70.0908
   -70.0903 -70.0902 -70.0902 -70.0883 -70.0881 -70.0881 -70.0876 -70.0873
   -70.0870 -70.0865 -70.0853 -70.0851 -70.0843 -70.0843 -70.0843 -70.0831
   -70.0814 -70.0812 -70.0802 -70.0801 -70.0796 -70.0779 -70.0777 -70.0775
   -70.0764 -70.0760 -70.0754 -70.0743 -70.0738 -70.0735 -70.0715 -70.0710
   -70.0695 -70.0691 -70.0675 -70.0623 -70.0600 -70.0588 -70.0531 -70.0468
   -65.2031 -65.1940 -65.1790 -65.1769 -65.1633 -65.1555 -65.1522 -65.1478
   -65.1441 -65.1396 -65.1365 -65.1316 -65.1278 -65.1275 -65.1157 -65.1075
   -32.1944 -32.1872 -32.1869 -32.1866 -32.1811 -32.1783 -32.1697 -32.1687
   -32.1659 -32.1646 -32.1628 -32.1598 -32.1564 -32.1514 -32.1509 -32.1480
   -32.1452 -32.1443 -32.1439 -32.1419 -32.1387 -32.1378 -32.1359 -32.1321
   -32.1311 -32.1302 -32.1299 -32.1285 -32.1278 -32.1252 -32.1236 -32.1229
   -32.1216 -32.1211 -32.1190 -32.1167 -32.1159 -32.1157 -32.1127 -32.1123
   -32.1086 -32.1078 -32.1072 -32.1010 -32.0972 -32.0953 -32.0907 -32.0873
   -10.3098 -10.1003  -9.9324  -9.9003  -9.8727  -9.8431  -9.8210  -9.7847
    -9.7572  -9.7369  -9.7060  -9.6892  -9.6636  -9.6191  -9.5994  -9.5663
    -9.5582  -9.5414  -9.5307  -9.5007  -9.4935  -9.4485  -9.4401  -9.4229
    -9.4068  -9.3904  -9.3709  -9.3405  -9.3138  -9.2681  -9.2413  -9.2310
    -9.2030  -9.1700  -9.1581  -9.0167   1.4643   1.5131   1.5255   1.5378
     1.5561   1.5813   1.6044   1.6174   1.6383   1.6588   1.6802   1.7011
     1.7530   1.7654   1.7855   1.7996   1.8118   1.8232   1.8343   1.8520
     1.8678   1.8938   1.8988   1.9257   1.9392   1.9474   1.9621   1.9721
     1.9936   2.0017   2.0133   2.0180   2.0279   2.0490   2.0606   2.0684
     2.0871   2.0990   2.1035   2.1224   2.1337   2.1493   2.1555   2.1617
     2.1777   2.1889   2.2001   2.2261   2.2455   2.2773   2.2945   2.3195
     2.3437   2.3491   2.3779   2.3848   2.4019   2.4104   2.4239   2.4438
     2.4630   2.4762   2.4909   2.5195   2.5270   2.5361   2.5587   2.5662
     2.5870   2.5919   2.6119   2.6313   2.6519   2.6604   2.6796   2.7025
     2.7201   2.7387   2.7577   2.7720   2.7912   2.8093   2.8139   2.8350
     2.8564   2.8611   2.8801   2.8834   2.9074   2.9161   2.9357   2.9494
     2.9633   2.9668   2.9794   2.9915   2.9993   3.0185   3.0390   3.0552
     3.1049   3.1789   3.2659   3.3464   3.3664   3.3976   3.4208   3.4490
     3.4850   3.5055   3.5401   3.5739   3.6036   3.6366   3.6762   3.7041
     3.7372   3.7559   3.8050   3.8493   3.9150   3.9346   4.0010   4.0289
     4.0641   4.1031   4.1253   4.1609   4.1794   4.2085   4.2308   4.2765
     4.2903   4.3304   4.3573   4.3937   4.4247   4.4636   4.6267   4.6889
     4.7601   4.8054   4.8187   4.8642   4.9411   4.9817   5.0842   5.1407
     5.1772   5.2192   5.2350   5.2612   5.2762   5.3029   5.3185   5.3380
     5.3507   5.3659   5.3896   5.4164   5.4381   5.4594   5.4911   5.5304
     5.5516   5.5932   5.6428   5.6618   5.6997   5.7245   5.7551   5.7662
     5.8260   5.8480   5.8667   5.9094   5.9708   5.9912   6.0183   6.0288
     6.0433   6.0809   6.1009   6.1248   6.1455   6.1798   6.2155   6.2278
     6.2476   6.2858   6.3230   6.3440   6.3652   6.3809   6.4100   6.4297
     6.4415   6.4664   6.4812   6.5143   6.5419   6.5901   6.6389   6.7253
     6.7648   6.7771   6.9665   6.9862   9.0433  10.4777  11.7465  11.8389
    11.8909  11.9717  12.0421  12.1517  12.2838  12.3313  12.4389  12.4874
    12.5782  12.6455  12.8272  13.1588  13.3577  13.4433  13.4803  13.5175
    13.6211  13.7049  14.4598  14.5230  14.5989  14.6130  14.6788  14.7176
    14.7406  14.7616  14.9216  14.9322  15.0113  15.0217  15.1214  15.1378
    15.1546  15.3101  15.3539  15.4379  15.4956  15.5363  15.5558  15.6293
    15.6622  15.7211  15.7504  15.7732  15.8945  15.9591  16.0051  16.0273
    16.0860  16.1139  16.1410  16.2482  16.2638  16.3840  16.4775  16.5208
    16.6946  16.8265  16.9120  17.0147  17.1302  17.2026  17.2526  17.3129
    17.3582  17.4281  17.5055  17.7129  17.8366  17.8982  17.9851  18.0904
    18.2270  18.2921

     occupation numbers 
     1.0000   1.0000   1.0000   1.0000   1.0000   1.0000   1.0000   1.0000
     1.0000   1.0000   1.0000   1.0000   1.0000   1.0000   1.0000   1.0000
     1.0000   1.0000   1.0000   1.0000   1.0000   1.0000   1.0000   1.0000
     1.0000   1.0000   1.0000   1.0000   1.0000   1.0000   1.0000   1.0000
     1.0000   1.0000   1.0000   1.0000   1.0000   1.0000   1.0000   1.0000
     1.0000   1.0000   1.0000   1.0000   1.0000   1.0000   1.0000   1.0000
     1.0000   1.0000   1.0000   1.0000   1.0000   1.0000   1.0000   1.0000
     1.0000   1.0000   1.0000   1.0000   1.0000   1.0000   1.0000   1.0000
     1.0000   1.0000   1.0000   1.0000   1.0000   1.0000   1.0000   1.0000
     1.0000   1.0000   1.0000   1.0000   1.0000   1.0000   1.0000   1.0000
     1.0000   1.0000   1.0000   1.0000   1.0000   1.0000   1.0000   1.0000
     1.0000   1.0000   1.0000   1.0000   1.0000   1.0000   1.0000   1.0000
     1.0000   1.0000   1.0000   1.0000   1.0000   1.0000   1.0000   1.0000
     1.0000   1.0000   1.0000   1.0000   1.0000   1.0000   1.0000   1.0000
     1.0000   1.0000   1.0000   1.0000   1.0000   1.0000   1.0000   1.0000
     1.0000   1.0000   1.0000   1.0000   1.0000   1.0000   1.0000   1.0000
     1.0000   1.0000   1.0000   1.0000   1.0000   1.0000   1.0000   1.0000
     1.0000   1.0000   1.0000   1.0000   1.0000   1.0000   1.0000   1.0000
     1.0000   1.0000   1.0000   1.0000   1.0000   1.0000   1.0000   1.0000
     1.0000   1.0000   1.0000   1.0000   1.0000   1.0000   1.0000   1.0000
     1.0000   1.0000   1.0000   1.0000   1.0000   1.0000   1.0000   1.0000
     1.0000   1.0000   1.0000   1.0000   1.0000   1.0000   1.0000   1.0000
     1.0000   1.0000   1.0000   1.0000   1.0000   1.0000   1.0000   1.0000
     1.0000   1.0000   1.0000   1.0000   1.0000   1.0000   1.0000   1.0000
     1.0000   1.0000   1.0000   1.0000   1.0000   1.0000   1.0000   1.0000
     1.0000   1.0000   1.0000   1.0000   1.0000   1.0000   1.0000   1.0000
     1.0000   1.0000   1.0000   1.0000   1.0000   1.0000   1.0000   1.0000
     1.0000   1.0000   1.0000   1.0000   1.0000   1.0000   1.0000   1.0000
     1.0000   1.0000   1.0000   1.0000   1.0000   1.0000   1.0000   1.0000
     1.0000   1.0000   1.0000   1.0000   1.0000   1.0000   1.0000   1.0000
     1.0000   1.0000   1.0000   1.0000   1.0000   1.0000   1.0000   1.0000
     1.0000   1.0000   1.0000   1.0000   1.0000   1.0000   1.0000   1.0000
     1.0000   1.0000   1.0000   1.0000   1.0000   1.0000   1.0000   1.0000
     1.0000   1.0000   1.0000   1.0000   1.0000   1.0000   1.0000   1.0000
     1.0000   1.0000   1.0000   1.0000   1.0000   1.0000   1.0000   1.0000
     1.0000   1.0000   1.0000   1.0000   1.0000   1.0000   1.0000   1.0000
     1.0000   1.0000   1.0000   1.0000   1.0000   1.0000   1.0000   1.0000
     1.0000   1.0000   1.0000   1.0000   1.0000   1.0000   1.0000   1.0000
     1.0000   1.0000   1.0000   1.0000   1.0000   1.0000   1.0000   1.0000
     1.0000   1.0000   1.0000   1.0000   1.0000   1.0000   1.0000   1.0000
     1.0000   1.0000   1.0000   1.0000   1.0000   1.0000   1.0000   1.0000
     1.0000   1.0000   1.0000   1.0000   1.0000   1.0000   1.0000   1.0000
     1.0000   1.0000   1.0000   1.0000   1.0000   1.0000   1.0000   1.0000
     1.0000   1.0000   1.0000   1.0000   1.0000   1.0000   1.0000   1.0000
     1.0000   1.0000   1.0000   1.0000   1.0000   1.0000   1.0000   1.0000
     1.0000   1.0000   1.0000   1.0000   1.0000   1.0000   1.0000   1.0000
     1.0000   1.0000   1.0000   1.0000   1.0000   1.0000   1.0000   1.0000
     1.0000   1.0000   1.0000   1.0000   1.0000   1.0000   1.0000   1.0000
     1.0000   1.0000   1.0000   1.0000   0.0000   0.0000   0.0000   0.0000
     0.0000   0.0000   0.0000   0.0000   0.0000   0.0000   0.0000   0.0000
     0.0000   0.0000   0.0000   0.0000   0.0000   0.0000   0.0000   0.0000
     0.0000   0.0000   0.0000   0.0000   0.0000   0.0000   0.0000   0.0000
     0.0000   0.0000   0.0000   0.0000   0.0000   0.0000   0.0000   0.0000
     0.0000   0.0000   0.0000   0.0000   0.0000   0.0000   0.0000   0.0000
     0.0000   0.0000   0.0000   0.0000   0.0000   0.0000   0.0000   0.0000
     0.0000   0.0000   0.0000   0.0000   0.0000   0.0000   0.0000   0.0000
     0.0000   0.0000   0.0000   0.0000   0.0000   0.0000   0.0000   0.0000
     0.0000   0.0000   0.0000   0.0000   0.0000   0.0000   0.0000   0.0000
     0.0000   0.0000

          k = 0.0003 0.0000-0.4721 ( 45248 PWs)   bands (ev):

  -115.7460-115.7400-115.7391-115.7374-115.7359-115.7340-115.7339-115.7329
  -115.7309-115.7305-115.7302-115.7291-115.7269-115.7242-115.7219-115.7199
  -115.7162-115.7121-115.7112-115.6965 -70.1073 -70.1029 -70.1002 -70.0999
   -70.0968 -70.0966 -70.0965 -70.0961 -70.0957 -70.0953 -70.0943 -70.0936
   -70.0929 -70.0927 -70.0926 -70.0918 -70.0912 -70.0909 -70.0909 -70.0908
   -70.0903 -70.0902 -70.0902 -70.0883 -70.0881 -70.0881 -70.0876 -70.0873
   -70.0870 -70.0865 -70.0853 -70.0851 -70.0843 -70.0843 -70.0843 -70.0831
   -70.0814 -70.0812 -70.0802 -70.0801 -70.0796 -70.0779 -70.0777 -70.0775
   -70.0764 -70.0760 -70.0754 -70.0743 -70.0738 -70.0735 -70.0715 -70.0710
   -70.0695 -70.0691 -70.0675 -70.0623 -70.0600 -70.0588 -70.0531 -70.0468
   -65.2031 -65.1940 -65.1790 -65.1769 -65.1633 -65.1555 -65.1522 -65.1478
   -65.1441 -65.1396 -65.1365 -65.1316 -65.1278 -65.1275 -65.1157 -65.1075
   -32.1944 -32.1872 -32.1869 -32.1866 -32.1811 -32.1783 -32.1697 -32.1687
   -32.1659 -32.1646 -32.1628 -32.1598 -32.1564 -32.1513 -32.1509 -32.1480
   -32.1452 -32.1442 -32.1439 -32.1420 -32.1387 -32.1378 -32.1359 -32.1321
   -32.1312 -32.1302 -32.1299 -32.1285 -32.1278 -32.1252 -32.1236 -32.1229
   -32.1216 -32.1211 -32.1190 -32.1167 -32.1159 -32.1157 -32.1127 -32.1123
   -32.1086 -32.1078 -32.1072 -32.1010 -32.0972 -32.0953 -32.0907 -32.0873
   -10.2755 -10.1660  -9.9155  -9.8864  -9.8605  -9.8332  -9.8179  -9.7964
    -9.7503  -9.7382  -9.7274  -9.7037  -9.6480  -9.6298  -9.6155  -9.5652
    -9.5599  -9.5402  -9.5333  -9.4986  -9.4847  -9.4390  -9.4162  -9.4129
    -9.4112  -9.3933  -9.3690  -9.3376  -9.3169  -9.2721  -9.2417  -9.2328
    -9.2063  -9.1736  -9.1619  -9.0180   1.4697   1.5249   1.5322   1.5490
     1.5663   1.6046   1.6157   1.6337   1.6427   1.6621   1.7024   1.7212
     1.7576   1.7830   1.7909   1.8085   1.8143   1.8180   1.8434   1.8658
     1.8736   1.8842   1.8988   1.9152   1.9341   1.9406   1.9533   1.9651
     1.9810   1.9998   2.0100   2.0183   2.0213   2.0457   2.0615   2.0653
     2.0917   2.0965   2.1122   2.1262   2.1387   2.1477   2.1541   2.1646
     2.1841   2.1955   2.2073   2.2158   2.2320   2.2498   2.2723   2.2927
     2.3057   2.3378   2.3509   2.3693   2.3792   2.3956   2.4100   2.4181
     2.4338   2.4569   2.4831   2.5001   2.5126   2.5270   2.5357   2.5608
     2.5767   2.5832   2.5924   2.6282   2.6460   2.6481   2.6671   2.6871
     2.7185   2.7365   2.7520   2.7707   2.7913   2.8023   2.8160   2.8399
     2.8576   2.8631   2.8765   2.8841   2.9151   2.9270   2.9401   2.9459
     2.9637   2.9726   2.9806   2.9866   3.0062   3.0251   3.0443   3.0523
     3.1519   3.2033   3.2891   3.3568   3.3875   3.4151   3.4169   3.4550
     3.5080   3.5483   3.5791   3.6052   3.6249   3.6517   3.6800   3.7051
     3.7210   3.7700   3.7918   3.8189   3.8756   3.9157   3.9533   4.0135
     4.0778   4.1052   4.1302   4.1464   4.1900   4.2488   4.2864   4.3200
     4.3266   4.4069   4.4142   4.4741   4.4989   4.5615   4.6493   4.7713
     4.7938   4.8350   4.8655   4.9064   4.9293   4.9659   4.9739   5.0011
     5.0262   5.0896   5.1118   5.1748   5.2054   5.2431   5.2912   5.3415
     5.3724   5.3970   5.4203   5.4409   5.4814   5.5118   5.5381   5.5563
     5.5815   5.5952   5.6110   5.6378   5.6462   5.6772   5.6988   5.7041
     5.7168   5.7652   5.8426   5.9341   5.9807   6.0019   6.0361   6.0607
     6.0724   6.1093   6.1297   6.1478   6.1652   6.2084   6.2280   6.2699
     6.2930   6.2985   6.3256   6.3678   6.3907   6.4099   6.4152   6.4526
     6.4670   6.4832   6.5062   6.5121   6.5291   6.5523   6.5772   6.6163
     6.7800   6.8063   6.9547   6.9748   9.5913   9.8303  11.8328  11.8961
    11.9651  12.0010  12.0689  12.1223  12.1981  12.2244  12.3028  12.3368
    12.4817  12.6637  12.7217  12.9999  13.8966  13.9289  13.9599  13.9750
    14.0036  14.0463  14.0765  14.0973  14.1435  14.1956  14.2393  14.3119
    14.7657  14.7696  14.8735  14.8799  15.0045  15.0125  15.1142  15.1401
    15.1574  15.3528  15.4450  15.4965  15.5177  15.5496  15.6308  15.7022
    15.7259  15.7680  15.8646  15.9346  15.9628  15.9902  16.0241  16.0387
    16.0721  16.1234  16.1954  16.3561  16.4143  16.4515  16.4948  16.5307
    16.6201  16.7252  16.8660  16.9016  17.0271  17.0894  17.1716  17.2188
    17.2597  17.3488  17.4965  17.6892  17.8380  17.9066  17.9366  18.0017
    18.1180  18.2247

     occupation numbers 
     1.0000   1.0000   1.0000   1.0000   1.0000   1.0000   1.0000   1.0000
     1.0000   1.0000   1.0000   1.0000   1.0000   1.0000   1.0000   1.0000
     1.0000   1.0000   1.0000   1.0000   1.0000   1.0000   1.0000   1.0000
     1.0000   1.0000   1.0000   1.0000   1.0000   1.0000   1.0000   1.0000
     1.0000   1.0000   1.0000   1.0000   1.0000   1.0000   1.0000   1.0000
     1.0000   1.0000   1.0000   1.0000   1.0000   1.0000   1.0000   1.0000
     1.0000   1.0000   1.0000   1.0000   1.0000   1.0000   1.0000   1.0000
     1.0000   1.0000   1.0000   1.0000   1.0000   1.0000   1.0000   1.0000
     1.0000   1.0000   1.0000   1.0000   1.0000   1.0000   1.0000   1.0000
     1.0000   1.0000   1.0000   1.0000   1.0000   1.0000   1.0000   1.0000
     1.0000   1.0000   1.0000   1.0000   1.0000   1.0000   1.0000   1.0000
     1.0000   1.0000   1.0000   1.0000   1.0000   1.0000   1.0000   1.0000
     1.0000   1.0000   1.0000   1.0000   1.0000   1.0000   1.0000   1.0000
     1.0000   1.0000   1.0000   1.0000   1.0000   1.0000   1.0000   1.0000
     1.0000   1.0000   1.0000   1.0000   1.0000   1.0000   1.0000   1.0000
     1.0000   1.0000   1.0000   1.0000   1.0000   1.0000   1.0000   1.0000
     1.0000   1.0000   1.0000   1.0000   1.0000   1.0000   1.0000   1.0000
     1.0000   1.0000   1.0000   1.0000   1.0000   1.0000   1.0000   1.0000
     1.0000   1.0000   1.0000   1.0000   1.0000   1.0000   1.0000   1.0000
     1.0000   1.0000   1.0000   1.0000   1.0000   1.0000   1.0000   1.0000
     1.0000   1.0000   1.0000   1.0000   1.0000   1.0000   1.0000   1.0000
     1.0000   1.0000   1.0000   1.0000   1.0000   1.0000   1.0000   1.0000
     1.0000   1.0000   1.0000   1.0000   1.0000   1.0000   1.0000   1.0000
     1.0000   1.0000   1.0000   1.0000   1.0000   1.0000   1.0000   1.0000
     1.0000   1.0000   1.0000   1.0000   1.0000   1.0000   1.0000   1.0000
     1.0000   1.0000   1.0000   1.0000   1.0000   1.0000   1.0000   1.0000
     1.0000   1.0000   1.0000   1.0000   1.0000   1.0000   1.0000   1.0000
     1.0000   1.0000   1.0000   1.0000   1.0000   1.0000   1.0000   1.0000
     1.0000   1.0000   1.0000   1.0000   1.0000   1.0000   1.0000   1.0000
     1.0000   1.0000   1.0000   1.0000   1.0000   1.0000   1.0000   1.0000
     1.0000   1.0000   1.0000   1.0000   1.0000   1.0000   1.0000   1.0000
     1.0000   1.0000   1.0000   1.0000   1.0000   1.0000   1.0000   1.0000
     1.0000   1.0000   1.0000   1.0000   1.0000   1.0000   1.0000   1.0000
     1.0000   1.0000   1.0000   1.0000   1.0000   1.0000   1.0000   1.0000
     1.0000   1.0000   1.0000   1.0000   1.0000   1.0000   1.0000   1.0000
     1.0000   1.0000   1.0000   1.0000   1.0000   1.0000   1.0000   1.0000
     1.0000   1.0000   1.0000   1.0000   1.0000   1.0000   1.0000   1.0000
     1.0000   1.0000   1.0000   1.0000   1.0000   1.0000   1.0000   1.0000
     1.0000   1.0000   1.0000   1.0000   1.0000   1.0000   1.0000   1.0000
     1.0000   1.0000   1.0000   1.0000   1.0000   1.0000   1.0000   1.0000
     1.0000   1.0000   1.0000   1.0000   1.0000   1.0000   1.0000   1.0000
     1.0000   1.0000   1.0000   1.0000   1.0000   1.0000   1.0000   1.0000
     1.0000   1.0000   1.0000   1.0000   1.0000   1.0000   1.0000   1.0000
     1.0000   1.0000   1.0000   1.0000   1.0000   1.0000   1.0000   1.0000
     1.0000   1.0000   1.0000   1.0000   1.0000   1.0000   1.0000   1.0000
     1.0000   1.0000   1.0000   1.0000   1.0000   1.0000   1.0000   1.0000
     1.0000   1.0000   1.0000   1.0000   1.0000   1.0000   1.0000   1.0000
     1.0000   1.0000   1.0000   1.0000   1.0000   1.0000   1.0000   1.0000
     1.0000   1.0000   1.0000   1.0000   0.0000   0.0000   0.0000   0.0000
     0.0000   0.0000   0.0000   0.0000   0.0000   0.0000   0.0000   0.0000
     0.0000   0.0000   0.0000   0.0000   0.0000   0.0000   0.0000   0.0000
     0.0000   0.0000   0.0000   0.0000   0.0000   0.0000   0.0000   0.0000
     0.0000   0.0000   0.0000   0.0000   0.0000   0.0000   0.0000   0.0000
     0.0000   0.0000   0.0000   0.0000   0.0000   0.0000   0.0000   0.0000
     0.0000   0.0000   0.0000   0.0000   0.0000   0.0000   0.0000   0.0000
     0.0000   0.0000   0.0000   0.0000   0.0000   0.0000   0.0000   0.0000
     0.0000   0.0000   0.0000   0.0000   0.0000   0.0000   0.0000   0.0000
     0.0000   0.0000   0.0000   0.0000   0.0000   0.0000   0.0000   0.0000
     0.0000   0.0000

          k = 0.0002 0.2885-0.0000 ( 45185 PWs)   bands (ev):

  -115.7460-115.7400-115.7391-115.7374-115.7359-115.7340-115.7339-115.7329
  -115.7309-115.7305-115.7302-115.7291-115.7269-115.7242-115.7219-115.7199
  -115.7162-115.7121-115.7112-115.6965 -70.1073 -70.1029 -70.1002 -70.0999
   -70.0968 -70.0966 -70.0965 -70.0961 -70.0957 -70.0953 -70.0943 -70.0936
   -70.0929 -70.0927 -70.0926 -70.0918 -70.0912 -70.0909 -70.0909 -70.0908
   -70.0903 -70.0902 -70.0902 -70.0883 -70.0881 -70.0881 -70.0876 -70.0873
   -70.0870 -70.0865 -70.0853 -70.0851 -70.0843 -70.0843 -70.0843 -70.0831
   -70.0814 -70.0812 -70.0802 -70.0801 -70.0796 -70.0779 -70.0777 -70.0775
   -70.0764 -70.0760 -70.0754 -70.0743 -70.0738 -70.0735 -70.0715 -70.0710
   -70.0695 -70.0691 -70.0675 -70.0623 -70.0600 -70.0588 -70.0531 -70.0468
   -65.2031 -65.1940 -65.1790 -65.1769 -65.1633 -65.1555 -65.1522 -65.1478
   -65.1441 -65.1396 -65.1365 -65.1316 -65.1278 -65.1275 -65.1157 -65.1075
   -32.1944 -32.1872 -32.1869 -32.1866 -32.1811 -32.1783 -32.1697 -32.1687
   -32.1662 -32.1647 -32.1628 -32.1598 -32.1564 -32.1513 -32.1508 -32.1480
   -32.1452 -32.1444 -32.1438 -32.1420 -32.1387 -32.1377 -32.1358 -32.1316
   -32.1313 -32.1302 -32.1300 -32.1287 -32.1277 -32.1253 -32.1237 -32.1229
   -32.1213 -32.1207 -32.1190 -32.1167 -32.1161 -32.1158 -32.1128 -32.1122
   -32.1088 -32.1079 -32.1072 -32.1004 -32.0972 -32.0953 -32.0907 -32.0877
   -10.2961 -10.0380 -10.0134  -9.9539  -9.8809  -9.8642  -9.7788  -9.7740
    -9.7489  -9.7185  -9.7045  -9.6754  -9.6420  -9.6295  -9.6044  -9.5814
    -9.5554  -9.5445  -9.5196  -9.5086  -9.4895  -9.4592  -9.4374  -9.4305
    -9.4111  -9.3833  -9.3722  -9.3522  -9.3029  -9.2615  -9.2445  -9.2298
    -9.2021  -9.1876  -9.1357  -9.0157   1.4772   1.5061   1.5364   1.5496
     1.5722   1.5807   1.5989   1.6170   1.6422   1.6641   1.6894   1.7082
     1.7429   1.7576   1.7764   1.7802   1.8116   1.8202   1.8302   1.8530
     1.8594   1.8857   1.9081   1.9139   1.9254   1.9426   1.9594   1.9653
     1.9858   1.9967   2.0036   2.0141   2.0254   2.0495   2.0623   2.0691
     2.0850   2.0988   2.1057   2.1203   2.1326   2.1424   2.1638   2.1688
     2.1866   2.1978   2.2046   2.2239   2.2276   2.2640   2.2734   2.3044
     2.3260   2.3518   2.3643   2.3840   2.3996   2.4042   2.4278   2.4536
     2.4757   2.4884   2.4978   2.5217   2.5336   2.5528   2.5662   2.5920
     2.5959   2.6118   2.6330   2.6476   2.6588   2.6648   2.6868   2.6966
     2.7173   2.7270   2.7453   2.7650   2.7915   2.8005   2.8331   2.8395
     2.8536   2.8689   2.8779   2.8898   2.8989   2.9171   2.9349   2.9429
     2.9587   2.9737   2.9791   2.9933   3.0013   3.0145   3.0328   3.0486
     3.0712   3.1459   3.1940   3.2613   3.3082   3.3443   3.3775   3.3987
     3.4183   3.4710   3.4938   3.5292   3.5505   3.5960   3.6652   3.6850
     3.7416   3.7585   3.8365   3.8737   3.9004   3.9496   4.0148   4.0484
     4.1129   4.1617   4.1843   4.2292   4.2435   4.3229   4.3449   4.4057
     4.4300   4.4663   4.5071   4.5519   4.5786   4.6152   4.6526   4.6691
     4.6955   4.7438   4.7955   4.8077   4.8949   4.9171   4.9755   5.0180
     5.0806   5.1133   5.1753   5.2456   5.3068   5.3494   5.3704   5.4064
     5.4479   5.4739   5.4882   5.5034   5.5378   5.5641   5.5919   5.6021
     5.6321   5.6398   5.6798   5.6850   5.7009   5.7565   5.7701   5.7852
     5.8119   5.8189   5.8667   5.8744   5.8925   5.9334   5.9662   5.9884
     6.0319   6.0477   6.0597   6.0854   6.0994   6.1187   6.1404   6.1603
     6.1798   6.2015   6.2198   6.2490   6.2646   6.3062   6.3249   6.3567
     6.4119   6.4534   6.5086   6.5277   6.5313   6.5881   6.6091   6.6344
     6.6962   6.7147   6.9231   6.9481   9.1684  10.9913  11.3476  11.4147
    11.6612  11.7996  12.3992  12.4393  12.5028  12.6590  12.7732  12.7997
    12.8535  12.9293  13.0167  13.1163  13.1564  13.2239  13.2802  13.3922
    13.4257  13.7670  14.2899  14.3762  14.4341  14.4843  14.5201  14.5765
    14.6641  14.6990  14.7688  14.8277  14.8805  14.9134  14.9746  15.0925
    15.1482  15.2203  15.2642  15.3013  15.4002  15.4181  15.4775  15.5682
    15.6415  15.7471  15.8517  15.9195  15.9839  16.0756  16.1580  16.1965
    16.2770  16.3045  16.3770  16.4380  16.5508  16.5664  16.5969  16.6937
    16.7789  16.9432  17.0023  17.1411  17.3144  17.3355  17.3811  17.4799
    17.5193  17.6246  17.6795  17.7562  17.8655  18.0403  18.0678  18.1364
    18.2021  18.2748

     occupation numbers 
     1.0000   1.0000   1.0000   1.0000   1.0000   1.0000   1.0000   1.0000
     1.0000   1.0000   1.0000   1.0000   1.0000   1.0000   1.0000   1.0000
     1.0000   1.0000   1.0000   1.0000   1.0000   1.0000   1.0000   1.0000
     1.0000   1.0000   1.0000   1.0000   1.0000   1.0000   1.0000   1.0000
     1.0000   1.0000   1.0000   1.0000   1.0000   1.0000   1.0000   1.0000
     1.0000   1.0000   1.0000   1.0000   1.0000   1.0000   1.0000   1.0000
     1.0000   1.0000   1.0000   1.0000   1.0000   1.0000   1.0000   1.0000
     1.0000   1.0000   1.0000   1.0000   1.0000   1.0000   1.0000   1.0000
     1.0000   1.0000   1.0000   1.0000   1.0000   1.0000   1.0000   1.0000
     1.0000   1.0000   1.0000   1.0000   1.0000   1.0000   1.0000   1.0000
     1.0000   1.0000   1.0000   1.0000   1.0000   1.0000   1.0000   1.0000
     1.0000   1.0000   1.0000   1.0000   1.0000   1.0000   1.0000   1.0000
     1.0000   1.0000   1.0000   1.0000   1.0000   1.0000   1.0000   1.0000
     1.0000   1.0000   1.0000   1.0000   1.0000   1.0000   1.0000   1.0000
     1.0000   1.0000   1.0000   1.0000   1.0000   1.0000   1.0000   1.0000
     1.0000   1.0000   1.0000   1.0000   1.0000   1.0000   1.0000   1.0000
     1.0000   1.0000   1.0000   1.0000   1.0000   1.0000   1.0000   1.0000
     1.0000   1.0000   1.0000   1.0000   1.0000   1.0000   1.0000   1.0000
     1.0000   1.0000   1.0000   1.0000   1.0000   1.0000   1.0000   1.0000
     1.0000   1.0000   1.0000   1.0000   1.0000   1.0000   1.0000   1.0000
     1.0000   1.0000   1.0000   1.0000   1.0000   1.0000   1.0000   1.0000
     1.0000   1.0000   1.0000   1.0000   1.0000   1.0000   1.0000   1.0000
     1.0000   1.0000   1.0000   1.0000   1.0000   1.0000   1.0000   1.0000
     1.0000   1.0000   1.0000   1.0000   1.0000   1.0000   1.0000   1.0000
     1.0000   1.0000   1.0000   1.0000   1.0000   1.0000   1.0000   1.0000
     1.0000   1.0000   1.0000   1.0000   1.0000   1.0000   1.0000   1.0000
     1.0000   1.0000   1.0000   1.0000   1.0000   1.0000   1.0000   1.0000
     1.0000   1.0000   1.0000   1.0000   1.0000   1.0000   1.0000   1.0000
     1.0000   1.0000   1.0000   1.0000   1.0000   1.0000   1.0000   1.0000
     1.0000   1.0000   1.0000   1.0000   1.0000   1.0000   1.0000   1.0000
     1.0000   1.0000   1.0000   1.0000   1.0000   1.0000   1.0000   1.0000
     1.0000   1.0000   1.0000   1.0000   1.0000   1.0000   1.0000   1.0000
     1.0000   1.0000   1.0000   1.0000   1.0000   1.0000   1.0000   1.0000
     1.0000   1.0000   1.0000   1.0000   1.0000   1.0000   1.0000   1.0000
     1.0000   1.0000   1.0000   1.0000   1.0000   1.0000   1.0000   1.0000
     1.0000   1.0000   1.0000   1.0000   1.0000   1.0000   1.0000   1.0000
     1.0000   1.0000   1.0000   1.0000   1.0000   1.0000   1.0000   1.0000
     1.0000   1.0000   1.0000   1.0000   1.0000   1.0000   1.0000   1.0000
     1.0000   1.0000   1.0000   1.0000   1.0000   1.0000   1.0000   1.0000
     1.0000   1.0000   1.0000   1.0000   1.0000   1.0000   1.0000   1.0000
     1.0000   1.0000   1.0000   1.0000   1.0000   1.0000   1.0000   1.0000
     1.0000   1.0000   1.0000   1.0000   1.0000   1.0000   1.0000   1.0000
     1.0000   1.0000   1.0000   1.0000   1.0000   1.0000   1.0000   1.0000
     1.0000   1.0000   1.0000   1.0000   1.0000   1.0000   1.0000   1.0000
     1.0000   1.0000   1.0000   1.0000   1.0000   1.0000   1.0000   1.0000
     1.0000   1.0000   1.0000   1.0000   1.0000   1.0000   1.0000   1.0000
     1.0000   1.0000   1.0000   1.0000   1.0000   1.0000   1.0000   1.0000
     1.0000   1.0000   1.0000   1.0000   1.0000   1.0000   1.0000   1.0000
     1.0000   1.0000   1.0000   1.0000   0.0000   0.0000   0.0000   0.0000
     0.0000   0.0000   0.0000   0.0000   0.0000   0.0000   0.0000   0.0000
     0.0000   0.0000   0.0000   0.0000   0.0000   0.0000   0.0000   0.0000
     0.0000   0.0000   0.0000   0.0000   0.0000   0.0000   0.0000   0.0000
     0.0000   0.0000   0.0000   0.0000   0.0000   0.0000   0.0000   0.0000
     0.0000   0.0000   0.0000   0.0000   0.0000   0.0000   0.0000   0.0000
     0.0000   0.0000   0.0000   0.0000   0.0000   0.0000   0.0000   0.0000
     0.0000   0.0000   0.0000   0.0000   0.0000   0.0000   0.0000   0.0000
     0.0000   0.0000   0.0000   0.0000   0.0000   0.0000   0.0000   0.0000
     0.0000   0.0000   0.0000   0.0000   0.0000   0.0000   0.0000   0.0000
     0.0000   0.0000

          k = 0.0000 0.2884 0.2360 ( 45192 PWs)   bands (ev):

  -115.7460-115.7400-115.7391-115.7374-115.7359-115.7340-115.7339-115.7329
  -115.7309-115.7305-115.7302-115.7291-115.7269-115.7242-115.7219-115.7199
  -115.7162-115.7121-115.7112-115.6965 -70.1073 -70.1029 -70.1002 -70.0999
   -70.0968 -70.0966 -70.0965 -70.0961 -70.0957 -70.0953 -70.0943 -70.0936
   -70.0929 -70.0927 -70.0926 -70.0918 -70.0912 -70.0909 -70.0909 -70.0908
   -70.0903 -70.0902 -70.0902 -70.0883 -70.0881 -70.0881 -70.0876 -70.0873
   -70.0870 -70.0865 -70.0853 -70.0851 -70.0843 -70.0843 -70.0843 -70.0831
   -70.0814 -70.0812 -70.0802 -70.0801 -70.0796 -70.0779 -70.0777 -70.0775
   -70.0764 -70.0760 -70.0754 -70.0743 -70.0738 -70.0735 -70.0715 -70.0710
   -70.0695 -70.0691 -70.0675 -70.0623 -70.0600 -70.0588 -70.0531 -70.0468
   -65.2031 -65.1940 -65.1790 -65.1769 -65.1633 -65.1555 -65.1522 -65.1478
   -65.1441 -65.1396 -65.1365 -65.1316 -65.1278 -65.1275 -65.1157 -65.1075
   -32.1944 -32.1872 -32.1869 -32.1866 -32.1811 -32.1783 -32.1697 -32.1687
   -32.1662 -32.1647 -32.1628 -32.1598 -32.1564 -32.1513 -32.1508 -32.1480
   -32.1451 -32.1443 -32.1438 -32.1421 -32.1387 -32.1377 -32.1358 -32.1316
   -32.1313 -32.1302 -32.1300 -32.1287 -32.1277 -32.1253 -32.1237 -32.1229
   -32.1213 -32.1207 -32.1190 -32.1167 -32.1161 -32.1158 -32.1128 -32.1122
   -32.1088 -32.1079 -32.1072 -32.1004 -32.0972 -32.0953 -32.0907 -32.0877
   -10.2754 -10.0827 -10.0091  -9.9478  -9.8946  -9.8322  -9.8083  -9.7590
    -9.7561  -9.7192  -9.6998  -9.6765  -9.6513  -9.6207  -9.6111  -9.5702
    -9.5557  -9.5450  -9.5165  -9.4978  -9.4883  -9.4552  -9.4351  -9.4316
    -9.4065  -9.3814  -9.3766  -9.3473  -9.3029  -9.2647  -9.2434  -9.2334
    -9.2067  -9.1908  -9.1371  -9.0169   1.4872   1.5285   1.5449   1.5621
     1.5782   1.5971   1.6098   1.6245   1.6568   1.6685   1.6996   1.7191
     1.7492   1.7656   1.7836   1.7875   1.8163   1.8224   1.8322   1.8476
     1.8602   1.8938   1.9073   1.9152   1.9285   1.9361   1.9516   1.9667
     1.9751   1.9937   2.0034   2.0183   2.0295   2.0341   2.0569   2.0735
     2.0877   2.0992   2.1096   2.1276   2.1330   2.1398   2.1521   2.1646
     2.1795   2.1890   2.2043   2.2112   2.2178   2.2601   2.2722   2.2961
     2.3030   2.3210   2.3483   2.3718   2.3773   2.3908   2.4065   2.4375
     2.4465   2.4658   2.4834   2.5034   2.5064   2.5388   2.5478   2.5668
     2.5865   2.5989   2.6061   2.6233   2.6460   2.6572   2.6741   2.7007
     2.7159   2.7293   2.7490   2.7597   2.7828   2.8020   2.8242   2.8321
     2.8541   2.8706   2.8779   2.9046   2.9130   2.9264   2.9352   2.9450
     2.9631   2.9661   2.9817   2.9897   3.0003   3.0238   3.0417   3.0593
     3.1132   3.1891   3.2156   3.2905   3.3316   3.3456   3.3826   3.4158
     3.4508   3.4749   3.5155   3.5386   3.5748   3.6218   3.6620   3.6833
     3.7666   3.7866   3.8516   3.8974   3.9214   3.9615   3.9847   4.0617
     4.1080   4.1547   4.1980   4.2361   4.2501   4.3071   4.3259   4.3565
     4.4036   4.4452   4.4934   4.5246   4.5576   4.5955   4.6517   4.7053
     4.7850   4.8315   4.9128   4.9477   4.9712   5.0050   5.0343   5.0627
     5.1283   5.1430   5.1963   5.2051   5.2379   5.2650   5.2964   5.3402
     5.3642   5.3962   5.4181   5.4339   5.4640   5.4978   5.5150   5.5514
     5.5837   5.5936   5.6294   5.6619   5.6902   5.7218   5.7295   5.7874
     5.8052   5.8227   5.8663   5.8794   5.9074   5.9354   5.9858   5.9994
     6.0131   6.0583   6.0769   6.1045   6.1172   6.1456   6.1597   6.1775
     6.1988   6.2351   6.2546   6.3035   6.3160   6.3304   6.3547   6.3953
     6.4249   6.4579   6.4774   6.5017   6.5418   6.5599   6.5905   6.6411
     6.7147   6.7386   6.8931   6.9360   9.4009  10.6827  11.1018  11.5694
    11.7828  11.9092  12.1096  12.3157  12.3635  12.5592  12.6878  12.7836
    12.8765  12.9561  13.0918  13.2232  13.3175  13.4914  13.5578  13.6396
    13.6821  13.7983  14.2022  14.2927  14.3884  14.4165  14.4829  14.5403
    14.5765  14.6133  14.6389  14.6703  14.7100  14.7796  14.8002  14.8474
    15.1652  15.2687  15.3597  15.4206  15.5089  15.5846  15.6531  15.7050
    15.7311  15.7731  15.8151  15.9177  15.9436  16.0405  16.1225  16.2399
    16.3167  16.3585  16.4201  16.4473  16.5279  16.5741  16.6774  16.7272
    16.7832  16.8948  17.0156  17.1050  17.2316  17.2405  17.3275  17.3828
    17.4116  17.5190  17.5974  17.7274  17.7836  17.9018  18.0469  18.0974
    18.1863  18.2736

     occupation numbers 
     1.0000   1.0000   1.0000   1.0000   1.0000   1.0000   1.0000   1.0000
     1.0000   1.0000   1.0000   1.0000   1.0000   1.0000   1.0000   1.0000
     1.0000   1.0000   1.0000   1.0000   1.0000   1.0000   1.0000   1.0000
     1.0000   1.0000   1.0000   1.0000   1.0000   1.0000   1.0000   1.0000
     1.0000   1.0000   1.0000   1.0000   1.0000   1.0000   1.0000   1.0000
     1.0000   1.0000   1.0000   1.0000   1.0000   1.0000   1.0000   1.0000
     1.0000   1.0000   1.0000   1.0000   1.0000   1.0000   1.0000   1.0000
     1.0000   1.0000   1.0000   1.0000   1.0000   1.0000   1.0000   1.0000
     1.0000   1.0000   1.0000   1.0000   1.0000   1.0000   1.0000   1.0000
     1.0000   1.0000   1.0000   1.0000   1.0000   1.0000   1.0000   1.0000
     1.0000   1.0000   1.0000   1.0000   1.0000   1.0000   1.0000   1.0000
     1.0000   1.0000   1.0000   1.0000   1.0000   1.0000   1.0000   1.0000
     1.0000   1.0000   1.0000   1.0000   1.0000   1.0000   1.0000   1.0000
     1.0000   1.0000   1.0000   1.0000   1.0000   1.0000   1.0000   1.0000
     1.0000   1.0000   1.0000   1.0000   1.0000   1.0000   1.0000   1.0000
     1.0000   1.0000   1.0000   1.0000   1.0000   1.0000   1.0000   1.0000
     1.0000   1.0000   1.0000   1.0000   1.0000   1.0000   1.0000   1.0000
     1.0000   1.0000   1.0000   1.0000   1.0000   1.0000   1.0000   1.0000
     1.0000   1.0000   1.0000   1.0000   1.0000   1.0000   1.0000   1.0000
     1.0000   1.0000   1.0000   1.0000   1.0000   1.0000   1.0000   1.0000
     1.0000   1.0000   1.0000   1.0000   1.0000   1.0000   1.0000   1.0000
     1.0000   1.0000   1.0000   1.0000   1.0000   1.0000   1.0000   1.0000
     1.0000   1.0000   1.0000   1.0000   1.0000   1.0000   1.0000   1.0000
     1.0000   1.0000   1.0000   1.0000   1.0000   1.0000   1.0000   1.0000
     1.0000   1.0000   1.0000   1.0000   1.0000   1.0000   1.0000   1.0000
     1.0000   1.0000   1.0000   1.0000   1.0000   1.0000   1.0000   1.0000
     1.0000   1.0000   1.0000   1.0000   1.0000   1.0000   1.0000   1.0000
     1.0000   1.0000   1.0000   1.0000   1.0000   1.0000   1.0000   1.0000
     1.0000   1.0000   1.0000   1.0000   1.0000   1.0000   1.0000   1.0000
     1.0000   1.0000   1.0000   1.0000   1.0000   1.0000   1.0000   1.0000
     1.0000   1.0000   1.0000   1.0000   1.0000   1.0000   1.0000   1.0000
     1.0000   1.0000   1.0000   1.0000   1.0000   1.0000   1.0000   1.0000
     1.0000   1.0000   1.0000   1.0000   1.0000   1.0000   1.0000   1.0000
     1.0000   1.0000   1.0000   1.0000   1.0000   1.0000   1.0000   1.0000
     1.0000   1.0000   1.0000   1.0000   1.0000   1.0000   1.0000   1.0000
     1.0000   1.0000   1.0000   1.0000   1.0000   1.0000   1.0000   1.0000
     1.0000   1.0000   1.0000   1.0000   1.0000   1.0000   1.0000   1.0000
     1.0000   1.0000   1.0000   1.0000   1.0000   1.0000   1.0000   1.0000
     1.0000   1.0000   1.0000   1.0000   1.0000   1.0000   1.0000   1.0000
     1.0000   1.0000   1.0000   1.0000   1.0000   1.0000   1.0000   1.0000
     1.0000   1.0000   1.0000   1.0000   1.0000   1.0000   1.0000   1.0000
     1.0000   1.0000   1.0000   1.0000   1.0000   1.0000   1.0000   1.0000
     1.0000   1.0000   1.0000   1.0000   1.0000   1.0000   1.0000   1.0000
     1.0000   1.0000   1.0000   1.0000   1.0000   1.0000   1.0000   1.0000
     1.0000   1.0000   1.0000   1.0000   1.0000   1.0000   1.0000   1.0000
     1.0000   1.0000   1.0000   1.0000   1.0000   1.0000   1.0000   1.0000
     1.0000   1.0000   1.0000   1.0000   1.0000   1.0000   1.0000   1.0000
     1.0000   1.0000   1.0000   1.0000   1.0000   1.0000   1.0000   1.0000
     1.0000   1.0000   1.0000   1.0000   0.0000   0.0000   0.0000   0.0000
     0.0000   0.0000   0.0000   0.0000   0.0000   0.0000   0.0000   0.0000
     0.0000   0.0000   0.0000   0.0000   0.0000   0.0000   0.0000   0.0000
     0.0000   0.0000   0.0000   0.0000   0.0000   0.0000   0.0000   0.0000
     0.0000   0.0000   0.0000   0.0000   0.0000   0.0000   0.0000   0.0000
     0.0000   0.0000   0.0000   0.0000   0.0000   0.0000   0.0000   0.0000
     0.0000   0.0000   0.0000   0.0000   0.0000   0.0000   0.0000   0.0000
     0.0000   0.0000   0.0000   0.0000   0.0000   0.0000   0.0000   0.0000
     0.0000   0.0000   0.0000   0.0000   0.0000   0.0000   0.0000   0.0000
     0.0000   0.0000   0.0000   0.0000   0.0000   0.0000   0.0000   0.0000
     0.0000   0.0000

          k = 0.0005 0.2885-0.4721 ( 45204 PWs)   bands (ev):

  -115.7460-115.7400-115.7391-115.7374-115.7359-115.7340-115.7339-115.7329
  -115.7309-115.7305-115.7302-115.7291-115.7269-115.7242-115.7219-115.7199
  -115.7162-115.7121-115.7112-115.6965 -70.1073 -70.1029 -70.1002 -70.0999
   -70.0968 -70.0966 -70.0965 -70.0961 -70.0957 -70.0953 -70.0943 -70.0936
   -70.0929 -70.0927 -70.0926 -70.0918 -70.0912 -70.0909 -70.0909 -70.0908
   -70.0903 -70.0902 -70.0902 -70.0883 -70.0881 -70.0881 -70.0876 -70.0873
   -70.0870 -70.0865 -70.0853 -70.0851 -70.0843 -70.0843 -70.0843 -70.0831
   -70.0814 -70.0812 -70.0802 -70.0801 -70.0796 -70.0779 -70.0777 -70.0775
   -70.0764 -70.0760 -70.0754 -70.0743 -70.0738 -70.0735 -70.0715 -70.0710
   -70.0695 -70.0691 -70.0675 -70.0623 -70.0600 -70.0588 -70.0531 -70.0468
   -65.2031 -65.1940 -65.1790 -65.1769 -65.1633 -65.1555 -65.1522 -65.1478
   -65.1441 -65.1396 -65.1365 -65.1316 -65.1278 -65.1275 -65.1157 -65.1075
   -32.1944 -32.1872 -32.1869 -32.1866 -32.1811 -32.1783 -32.1697 -32.1687
   -32.1662 -32.1647 -32.1628 -32.1598 -32.1564 -32.1513 -32.1509 -32.1480
   -32.1451 -32.1442 -32.1438 -32.1421 -32.1387 -32.1377 -32.1358 -32.1317
   -32.1313 -32.1302 -32.1300 -32.1287 -32.1277 -32.1254 -32.1238 -32.1229
   -32.1213 -32.1207 -32.1190 -32.1167 -32.1161 -32.1158 -32.1128 -32.1122
   -32.1088 -32.1079 -32.1072 -32.1004 -32.0972 -32.0953 -32.0907 -32.0877
   -10.2424 -10.1397  -9.9948  -9.9315  -9.8977  -9.8609  -9.8154  -9.7553
    -9.7448  -9.7174  -9.7051  -9.6697  -9.6497  -9.6206  -9.5985  -9.5691
    -9.5642  -9.5478  -9.5245  -9.4912  -9.4806  -9.4499  -9.4363  -9.4155
    -9.4026  -9.3937  -9.3720  -9.3401  -9.3051  -9.2696  -9.2463  -9.2347
    -9.2112  -9.1927  -9.1387  -9.0181   1.4980   1.5411   1.5596   1.5739
     1.5892   1.6149   1.6222   1.6433   1.6681   1.6746   1.7115   1.7218
     1.7593   1.7788   1.7838   1.7991   1.8096   1.8236   1.8462   1.8567
     1.8711   1.8821   1.9076   1.9133   1.9233   1.9305   1.9437   1.9561
     1.9670   1.9936   2.0032   2.0172   2.0249   2.0406   2.0612   2.0673
     2.0915   2.0973   2.1034   2.1234   2.1313   2.1395   2.1506   2.1684
     2.1794   2.1874   2.2040   2.2092   2.2179   2.2393   2.2579   2.2689
     2.2865   2.2954   2.3199   2.3385   2.3617   2.3668   2.3988   2.4160
     2.4230   2.4431   2.4506   2.4719   2.4968   2.5146   2.5297   2.5621
     2.5756   2.5989   2.6065   2.6187   2.6341   2.6434   2.6646   2.6868
     2.7059   2.7254   2.7519   2.7737   2.7926   2.8084   2.8337   2.8406
     2.8518   2.8720   2.8857   2.9014   2.9135   2.9254   2.9388   2.9582
     2.9630   2.9715   2.9783   2.9890   3.0072   3.0122   3.0549   3.0682
     3.1506   3.1914   3.2412   3.3019   3.3289   3.3782   3.4066   3.4323
     3.4715   3.5005   3.5323   3.5739   3.6095   3.6413   3.6584   3.6847
     3.7491   3.8219   3.8500   3.8780   3.9156   3.9669   4.0142   4.0523
     4.0903   4.1346   4.1523   4.2114   4.2524   4.2852   4.3198   4.3487
     4.3995   4.4513   4.5122   4.6151   4.6564   4.6938   4.7265   4.8015
     4.8619   4.8793   4.9340   4.9623   4.9882   5.0118   5.0354   5.0766
     5.0993   5.1286   5.1490   5.1956   5.2174   5.2534   5.2622   5.2866
     5.3128   5.3308   5.3669   5.3854   5.4096   5.4264   5.4546   5.4846
     5.5126   5.5677   5.5961   5.6161   5.6365   5.6842   5.7411   5.7688
     5.8120   5.8254   5.8839   5.8927   5.9312   5.9604   5.9762   6.0067
     6.0484   6.0638   6.0878   6.1073   6.1276   6.1609   6.1886   6.2036
     6.2340   6.2366   6.2863   6.2904   6.3240   6.3405   6.3706   6.4039
     6.4275   6.4554   6.4702   6.4965   6.5452   6.5725   6.5915   6.6233
     6.7562   6.7696   6.8614   6.9233   9.8623  10.0897  11.2815  11.4599
    11.7604  11.8940  11.9657  12.1396  12.4645  12.5568  12.6571  12.7432
    12.8382  12.9675  13.0299  13.2300  13.7392  13.8572  13.9205  13.9695
    14.0142  14.0466  14.0760  14.0994  14.1447  14.2029  14.2447  14.2994
    14.3325  14.4596  14.5124  14.5411  14.6665  14.7024  14.7375  14.7732
    15.3253  15.3638  15.4219  15.5250  15.5571  15.6149  15.6839  15.7532
    15.7820  15.8350  15.8864  15.9438  15.9729  16.0077  16.1395  16.1607
    16.2368  16.3674  16.4204  16.5215  16.5956  16.6740  16.7080  16.7841
    16.8280  16.8863  16.9452  17.0041  17.0947  17.1802  17.2562  17.3175
    17.3633  17.4554  17.5117  17.7096  17.7783  17.9073  17.9903  18.0684
    18.1515  18.1638

     occupation numbers 
     1.0000   1.0000   1.0000   1.0000   1.0000   1.0000   1.0000   1.0000
     1.0000   1.0000   1.0000   1.0000   1.0000   1.0000   1.0000   1.0000
     1.0000   1.0000   1.0000   1.0000   1.0000   1.0000   1.0000   1.0000
     1.0000   1.0000   1.0000   1.0000   1.0000   1.0000   1.0000   1.0000
     1.0000   1.0000   1.0000   1.0000   1.0000   1.0000   1.0000   1.0000
     1.0000   1.0000   1.0000   1.0000   1.0000   1.0000   1.0000   1.0000
     1.0000   1.0000   1.0000   1.0000   1.0000   1.0000   1.0000   1.0000
     1.0000   1.0000   1.0000   1.0000   1.0000   1.0000   1.0000   1.0000
     1.0000   1.0000   1.0000   1.0000   1.0000   1.0000   1.0000   1.0000
     1.0000   1.0000   1.0000   1.0000   1.0000   1.0000   1.0000   1.0000
     1.0000   1.0000   1.0000   1.0000   1.0000   1.0000   1.0000   1.0000
     1.0000   1.0000   1.0000   1.0000   1.0000   1.0000   1.0000   1.0000
     1.0000   1.0000   1.0000   1.0000   1.0000   1.0000   1.0000   1.0000
     1.0000   1.0000   1.0000   1.0000   1.0000   1.0000   1.0000   1.0000
     1.0000   1.0000   1.0000   1.0000   1.0000   1.0000   1.0000   1.0000
     1.0000   1.0000   1.0000   1.0000   1.0000   1.0000   1.0000   1.0000
     1.0000   1.0000   1.0000   1.0000   1.0000   1.0000   1.0000   1.0000
     1.0000   1.0000   1.0000   1.0000   1.0000   1.0000   1.0000   1.0000
     1.0000   1.0000   1.0000   1.0000   1.0000   1.0000   1.0000   1.0000
     1.0000   1.0000   1.0000   1.0000   1.0000   1.0000   1.0000   1.0000
     1.0000   1.0000   1.0000   1.0000   1.0000   1.0000   1.0000   1.0000
     1.0000   1.0000   1.0000   1.0000   1.0000   1.0000   1.0000   1.0000
     1.0000   1.0000   1.0000   1.0000   1.0000   1.0000   1.0000   1.0000
     1.0000   1.0000   1.0000   1.0000   1.0000   1.0000   1.0000   1.0000
     1.0000   1.0000   1.0000   1.0000   1.0000   1.0000   1.0000   1.0000
     1.0000   1.0000   1.0000   1.0000   1.0000   1.0000   1.0000   1.0000
[...]
     atom   35 type  3   force =     0.00000000    0.00000000    0.00000000
     atom   36 type  3   force =     0.00000000    0.00000000    0.00000000
     atom   37 type  2   force =    -0.00006046   -0.00000322    0.00004749
     atom   38 type  2   force =     0.00140891    0.00081679    0.00110710
     atom   39 type  2   force =    -0.00140082   -0.00082526    0.00055915
     atom   40 type  2   force =    -0.00138761    0.00074177    0.00107276
     atom   41 type  2   force =     0.00132530    0.00074881   -0.00062450
     atom   42 type  2   force =    -0.00000699   -0.00001409   -0.00164233
     atom   43 type  2   force =    -0.00001000   -0.00159186    0.00096022
     atom   44 type  2   force =     0.00141534    0.00081698    0.00101144
     atom   45 type  2   force =    -0.00144595   -0.00078650    0.00057618
     atom   46 type  2   force =    -0.00135541   -0.00082836   -0.00102803
     atom   47 type  2   force =    -0.00001161   -0.00005482   -0.00005757
     atom   48 type  2   force =     0.00137818   -0.00079917   -0.00119859
     atom   49 type  2   force =    -0.00141897   -0.00073862   -0.00107251
     atom   50 type  2   force =     0.00002832    0.00005380    0.00166249
     atom   51 type  2   force =     0.00134519    0.00082549   -0.00051737
     atom   52 type  2   force =    -0.00141674   -0.00086956    0.00059866
     atom   53 type  2   force =     0.00126370    0.00075783   -0.00049604
     atom   54 type  2   force =     0.00001965    0.00155626   -0.00117303
     atom   55 type  2   force =    -0.00141987    0.00081750    0.00061378
     atom   56 type  2   force =     0.00126323   -0.00080114   -0.00055807
     atom   57 type  2   force =    -0.00000243   -0.00162197   -0.00112423
     atom   58 type  2   force =     0.00145580    0.00083305    0.00048072
     atom   59 type  2   force =    -0.00138689    0.00084585   -0.00111544
     atom   60 type  2   force =     0.00001535    0.00152686   -0.00063453
     atom   61 type  2   force =     0.00001725   -0.00161432    0.00054082
     atom   62 type  2   force =     0.00004872    0.00001968   -0.00173992
     atom   63 type  2   force =    -0.00000071    0.00001444    0.00000305
     atom   64 type  2   force =    -0.00006982    0.00000901   -0.00000543
     atom   65 type  2   force =     0.00008291    0.00159595   -0.00050955
     atom   66 type  2   force =    -0.00000951    0.00005896    0.00163897
     atom   67 type  2   force =    -0.00008534    0.00159274    0.00103541
     atom   68 type  2   force =     0.00139792   -0.00079660   -0.00047983
     atom   69 type  2   force =    -0.00136436   -0.00081494    0.00115882
     atom   70 type  2   force =     0.00130834   -0.00084201   -0.00049547
     atom   71 type  2   force =    -0.00136167   -0.00072788   -0.00041097
     atom   72 type  2   force =     0.00006542    0.00000969    0.00147855
     The Hubbard contrib.    to forces
     atom    1 type  1   force =     0.00000000    0.00000000    0.00000000
     atom    2 type  1   force =     0.00000000    0.00000000    0.00000000
     atom    3 type  1   force =     0.00000000    0.00000000    0.00000000
     atom    4 type  1   force =     0.00000000    0.00000000    0.00000000
     atom    5 type  1   force =     0.00000000    0.00000000    0.00000000
     atom    6 type  1   force =     0.00000000    0.00000000    0.00000000
     atom    7 type  1   force =     0.00000000    0.00000000    0.00000000
     atom    8 type  1   force =     0.00000000    0.00000000    0.00000000
     atom    9 type  1   force =     0.00000000    0.00000000    0.00000000
     atom   10 type  1   force =     0.00000000    0.00000000    0.00000000
     atom   11 type  1   force =     0.00000000    0.00000000    0.00000000
     atom   12 type  1   force =     0.00000000    0.00000000    0.00000000
     atom   13 type  1   force =     0.00000000    0.00000000    0.00000000
     atom   14 type  1   force =     0.00000000    0.00000000    0.00000000
     atom   15 type  1   force =     0.00000000    0.00000000    0.00000000
     atom   16 type  1   force =     0.00000000    0.00000000    0.00000000
     atom   17 type  1   force =     0.00000000    0.00000000    0.00000000
     atom   18 type  1   force =     0.00000000    0.00000000    0.00000000
     atom   19 type  1   force =     0.00000000    0.00000000    0.00000000
     atom   20 type  1   force =     0.00000000    0.00000000    0.00000000
     atom   21 type  3   force =     0.00000000    0.00000000    0.00000000
     atom   22 type  3   force =     0.00000000    0.00000000    0.00000000
     atom   23 type  3   force =     0.00000000    0.00000000    0.00000000
     atom   24 type  3   force =     0.00000000    0.00000000    0.00000000
     atom   25 type  3   force =     0.00000000    0.00000000    0.00000000
     atom   26 type  3   force =     0.00000000    0.00000000    0.00000000
     atom   27 type  3   force =     0.00000000    0.00000000    0.00000000
     atom   28 type  3   force =     0.00000000    0.00000000    0.00000000
     atom   29 type  3   force =     0.00000000    0.00000000    0.00000000
     atom   30 type  3   force =     0.00000000    0.00000000    0.00000000
     atom   31 type  3   force =     0.00000000    0.00000000    0.00000000
     atom   32 type  3   force =     0.00000000    0.00000000    0.00000000
     atom   33 type  3   force =     0.00000000    0.00000000    0.00000000
     atom   34 type  3   force =     0.00000000    0.00000000    0.00000000
     atom   35 type  3   force =     0.00000000    0.00000000    0.00000000
     atom   36 type  3   force =     0.00000000    0.00000000    0.00000000
     atom   37 type  2   force =     0.00000000    0.00000000    0.00000000
     atom   38 type  2   force =     0.00000000    0.00000000    0.00000000
     atom   39 type  2   force =     0.00000000    0.00000000    0.00000000
     atom   40 type  2   force =     0.00000000    0.00000000    0.00000000
     atom   41 type  2   force =     0.00000000    0.00000000    0.00000000
     atom   42 type  2   force =     0.00000000    0.00000000    0.00000000
     atom   43 type  2   force =     0.00000000    0.00000000    0.00000000
     atom   44 type  2   force =     0.00000000    0.00000000    0.00000000
     atom   45 type  2   force =     0.00000000    0.00000000    0.00000000
     atom   46 type  2   force =     0.00000000    0.00000000    0.00000000
     atom   47 type  2   force =     0.00000000    0.00000000    0.00000000
     atom   48 type  2   force =     0.00000000    0.00000000    0.00000000
     atom   49 type  2   force =     0.00000000    0.00000000    0.00000000
     atom   50 type  2   force =     0.00000000    0.00000000    0.00000000
     atom   51 type  2   force =     0.00000000    0.00000000    0.00000000
     atom   52 type  2   force =     0.00000000    0.00000000    0.00000000
     atom   53 type  2   force =     0.00000000    0.00000000    0.00000000
     atom   54 type  2   force =     0.00000000    0.00000000    0.00000000
     atom   55 type  2   force =     0.00000000    0.00000000    0.00000000
     atom   56 type  2   force =     0.00000000    0.00000000    0.00000000
     atom   57 type  2   force =     0.00000000    0.00000000    0.00000000
     atom   58 type  2   force =     0.00000000    0.00000000    0.00000000
     atom   59 type  2   force =     0.00000000    0.00000000    0.00000000
     atom   60 type  2   force =     0.00000000    0.00000000    0.00000000
     atom   61 type  2   force =     0.00000000    0.00000000    0.00000000
     atom   62 type  2   force =     0.00000000    0.00000000    0.00000000
     atom   63 type  2   force =     0.00000000    0.00000000    0.00000000
     atom   64 type  2   force =     0.00000000    0.00000000    0.00000000
     atom   65 type  2   force =     0.00000000    0.00000000    0.00000000
     atom   66 type  2   force =     0.00000000    0.00000000    0.00000000
     atom   67 type  2   force =     0.00000000    0.00000000    0.00000000
     atom   68 type  2   force =     0.00000000    0.00000000    0.00000000
     atom   69 type  2   force =     0.00000000    0.00000000    0.00000000
     atom   70 type  2   force =     0.00000000    0.00000000    0.00000000
     atom   71 type  2   force =     0.00000000    0.00000000    0.00000000
     atom   72 type  2   force =     0.00000000    0.00000000    0.00000000
     The SCF correction term to forces
     atom    1 type  1   force =     0.00000129    0.00001009   -0.00002468
     atom    2 type  1   force =    -0.00001025   -0.00000020   -0.00001471
     atom    3 type  1   force =     0.00000383   -0.00000751   -0.00000905
     atom    4 type  1   force =     0.00001571    0.00001977    0.00001046
     atom    5 type  1   force =    -0.00002425    0.00001418    0.00000743
     atom    6 type  1   force =     0.00000256    0.00000808    0.00000446
     atom    7 type  1   force =     0.00001617   -0.00000742    0.00000536
     atom    8 type  1   force =    -0.00001255   -0.00000343   -0.00000122
     atom    9 type  1   force =    -0.00000627   -0.00000709    0.00000318
     atom   10 type  1   force =     0.00000073   -0.00000892    0.00000224
     atom   11 type  1   force =    -0.00000966    0.00002021    0.00003809
     atom   12 type  1   force =     0.00001607    0.00000985    0.00002457
     atom   13 type  1   force =     0.00000790   -0.00001157    0.00001775
     atom   14 type  1   force =    -0.00000376   -0.00000187    0.00004020
     atom   15 type  1   force =    -0.00000183   -0.00000622    0.00002047
     atom   16 type  1   force =     0.00002101   -0.00000008   -0.00001016
     atom   17 type  1   force =    -0.00001441    0.00000605   -0.00003393
     atom   18 type  1   force =     0.00001015   -0.00001073   -0.00001439
     atom   19 type  1   force =     0.00001020    0.00001317   -0.00000346
     atom   20 type  1   force =    -0.00000964   -0.00000113   -0.00001270
     atom   21 type  3   force =     0.00000284    0.00000203   -0.00001024
     atom   22 type  3   force =    -0.00000417    0.00001410   -0.00000887
     atom   23 type  3   force =     0.00000582    0.00000359   -0.00000375
     atom   24 type  3   force =     0.00000559   -0.00000294   -0.00001082
     atom   25 type  3   force =    -0.00001192   -0.00001164   -0.00001580
     atom   26 type  3   force =     0.00000665   -0.00000870   -0.00001213
     atom   27 type  3   force =    -0.00000119   -0.00001476   -0.00000331
     atom   28 type  3   force =     0.00000335    0.00000847    0.00000647
     atom   29 type  3   force =    -0.00000551   -0.00000378    0.00001068
     atom   30 type  3   force =    -0.00000219   -0.00000370    0.00001650
     atom   31 type  3   force =    -0.00000838   -0.00000161    0.00001556
     atom   32 type  3   force =     0.00000910    0.00000411    0.00002146
     atom   33 type  3   force =    -0.00000514    0.00000056   -0.00001193
     atom   34 type  3   force =     0.00000247    0.00000433   -0.00000647
     atom   35 type  3   force =    -0.00000821   -0.00000534   -0.00001332
     atom   36 type  3   force =    -0.00000240   -0.00000448    0.00000605
     atom   37 type  2   force =     0.00000269    0.00000385   -0.00001039
     atom   38 type  2   force =    -0.00000284    0.00000358   -0.00000780
     atom   39 type  2   force =     0.00000051   -0.00000058   -0.00000353
     atom   40 type  2   force =     0.00000145   -0.00000143   -0.00000566
     atom   41 type  2   force =    -0.00000075   -0.00000360   -0.00001219
     atom   42 type  2   force =    -0.00000005   -0.00000027   -0.00001043
     atom   43 type  2   force =    -0.00000013   -0.00000076   -0.00000668
     atom   44 type  2   force =     0.00000321   -0.00000058   -0.00000419
     atom   45 type  2   force =    -0.00000250   -0.00000004   -0.00000537
     atom   46 type  2   force =    -0.00000183    0.00000217    0.00001216
     atom   47 type  2   force =    -0.00000133    0.00000407    0.00002022
     atom   48 type  2   force =     0.00000438    0.00000020    0.00000724
     atom   49 type  2   force =    -0.00000059   -0.00000361    0.00000651
     atom   50 type  2   force =     0.00000024   -0.00000265    0.00001475
     atom   51 type  2   force =    -0.00000040   -0.00000080    0.00001072
     atom   52 type  2   force =    -0.00000347   -0.00000184    0.00000878
     atom   53 type  2   force =     0.00000467   -0.00000036    0.00000769
     atom   54 type  2   force =    -0.00000104    0.00000269    0.00000770
     atom   55 type  2   force =     0.00000021    0.00000318    0.00000091
     atom   56 type  2   force =    -0.00000217    0.00000159   -0.00000219
     atom   57 type  2   force =     0.00000141    0.00000177   -0.00000342
     atom   58 type  2   force =     0.00000371   -0.00000023    0.00000193
     atom   59 type  2   force =    -0.00000323   -0.00000340   -0.00000256
     atom   60 type  2   force =     0.00000042   -0.00000060   -0.00000210
     atom   61 type  2   force =     0.00000174   -0.00000048    0.00000072
     atom   62 type  2   force =    -0.00000230   -0.00000214   -0.00000375
     atom   63 type  2   force =     0.00000037    0.00000109    0.00000016
     atom   64 type  2   force =     0.00000750    0.00000030   -0.00000133
     atom   65 type  2   force =     0.00000019   -0.00000153   -0.00000400
     atom   66 type  2   force =    -0.00000873   -0.00000231   -0.00000469
     atom   67 type  2   force =     0.00000080    0.00000267   -0.00000124
     atom   68 type  2   force =     0.00000307   -0.00000671   -0.00000215
     atom   69 type  2   force =    -0.00000403   -0.00000505   -0.00000292
     atom   70 type  2   force =     0.00000585    0.00000546   -0.00000154
     atom   71 type  2   force =    -0.00000583    0.00000805   -0.00000333
     atom   72 type  2   force =     0.00000047   -0.00000067    0.00000112

     Total force =     0.000122     Total SCF correction =     0.000135
     SCF correction compared to forces is large: reduce conv_thr to get better values


     Computing stress (Cartesian axis) and pressure

          total   stress  (Ry/bohr**3)                   (kbar)     P=    0.01
   0.00000019  -0.00000001   0.00000001          0.03     -0.00      0.00
  -0.00000001   0.00000020   0.00000000         -0.00      0.03      0.00
   0.00000001   0.00000000  -0.00000010          0.00      0.00     -0.01

     kinetic stress (kbar)  27185.82     -0.33      0.86
                               -0.33  27185.93      0.44
                                0.86      0.44  27223.06

     local   stress (kbar) -11799.22   1774.70  -1951.97
                             1774.70 -13296.54    -86.93
                            -1951.97    -86.93 -12004.71

     nonloc. stress (kbar)   1393.53     -0.28     -0.26
                               -0.28   1394.05     -0.26
                               -0.26     -0.26   1376.28

     hartree stress (kbar)  46254.31   -863.65    954.34
                             -863.65  46974.50     43.57
                              954.34     43.57  46331.90

     exc-cor stress (kbar) -10832.80     -0.02      0.01
                               -0.02 -10832.77      0.00
                                0.01      0.00 -10833.31

     corecor stress (kbar)   -248.44      0.00     -0.00
                                0.00   -248.44     -0.00
                               -0.00     -0.00   -248.49

     ewald   stress (kbar) -51953.17   -910.42    997.02
                             -910.42 -51176.70     43.18
                              997.02     43.18 -51844.75

     hubbard stress (kbar)      0.00      0.00      0.00
                                0.00      0.00      0.00
                                0.00      0.00      0.00

     london  stress (kbar)      0.00      0.00      0.00
                                0.00      0.00      0.00
                                0.00      0.00      0.00

     DFT-D3  stress (kbar)      0.00      0.00      0.00
                                0.00      0.00      0.00
                                0.00      0.00      0.00

     XDM     stress (kbar)      0.00      0.00      0.00
                                0.00      0.00      0.00
                                0.00      0.00      0.00

     dft-nl  stress (kbar)      0.00      0.00      0.00
                                0.00      0.00      0.00
                                0.00      0.00      0.00

     TS-vdW  stress (kbar)      0.00      0.00      0.00
                                0.00      0.00      0.00
                                0.00      0.00      0.00



     Writing output data file ZnO.save/
 
     init_run     :     13.46s CPU     16.38s WALL (       1 calls)
     electrons    :    722.12s CPU    737.25s WALL (       1 calls)
     forces       :      9.40s CPU      9.66s WALL (       1 calls)
     stress       :    135.76s CPU    136.40s WALL (       1 calls)

     Called by init_run:
     wfcinit      :     11.23s CPU     12.96s WALL (       1 calls)
     wfcinit:atom :      0.09s CPU      0.12s WALL (       5 calls)
     wfcinit:wfcr :     10.75s CPU     12.40s WALL (       5 calls)
     potinit      :      1.02s CPU      1.18s WALL (       1 calls)
     hinit0       :      0.78s CPU      1.47s WALL (       1 calls)

     Called by electrons:
     c_bands      :    663.52s CPU    676.85s WALL (      14 calls)
     sum_band     :     50.49s CPU     51.44s WALL (      14 calls)
     v_of_rho     :      6.44s CPU      6.90s WALL (      15 calls)
     v_h          :      0.16s CPU      0.22s WALL (      15 calls)
     v_xc         :      7.10s CPU      7.53s WALL (      17 calls)
     newd         :      1.34s CPU      1.48s WALL (      15 calls)
     mix_rho      :      0.38s CPU      0.61s WALL (      14 calls)

     Called by c_bands:
     init_us_2    :      5.13s CPU      5.16s WALL (     155 calls)
     cegterg      :    608.75s CPU    621.68s WALL (      70 calls)

     Called by sum_band:
     sum_band:bec :      0.26s CPU      0.26s WALL (      70 calls)
     addusdens    :      1.27s CPU      1.36s WALL (      14 calls)

     Called by *egterg:
     h_psi        :    224.28s CPU    227.80s WALL (     278 calls)
     s_psi        :     56.96s CPU     56.98s WALL (     278 calls)
     g_psi        :      0.81s CPU      0.81s WALL (     203 calls)
     cdiaghg      :    196.83s CPU    203.64s WALL (     273 calls)
     cegterg:over :     59.63s CPU     61.06s WALL (     203 calls)
     cegterg:upda :     39.71s CPU     40.18s WALL (     203 calls)
     cegterg:last :     22.12s CPU     22.15s WALL (      70 calls)
     cdiaghg:chol :      9.44s CPU     10.08s WALL (     273 calls)
     cdiaghg:inve :      2.95s CPU      3.10s WALL (     273 calls)
     cdiaghg:para :     47.30s CPU     51.84s WALL (     546 calls)

     Called by h_psi:
     h_psi:pot    :    222.46s CPU    224.78s WALL (     278 calls)
     h_psi:calbec :     57.75s CPU     59.41s WALL (     278 calls)
     vloc_psi     :    106.89s CPU    107.37s WALL (     278 calls)
     add_vuspsi   :     57.82s CPU     58.00s WALL (     278 calls)

     General routines
     calbec       :     88.44s CPU     90.90s WALL (     373 calls)
     fft          :      1.56s CPU      2.59s WALL (     218 calls)
     ffts         :      0.07s CPU      0.08s WALL (      29 calls)
     fftw         :    122.45s CPU    123.02s WALL (  195618 calls)
     interpolate  :      0.17s CPU      0.23s WALL (      15 calls)
 
     Parallel routines
     fft_scatt_xy :     20.27s CPU     20.37s WALL (  195865 calls)
     fft_scatt_yz :     32.65s CPU     33.46s WALL (  195865 calls)
 
     PWSCF        :  14m42.39s CPU  15m 5.95s WALL

 
   This run was terminated on:  16:23: 4   8Nov2021            

=------------------------------------------------------------------------------=
   JOB DONE.
=------------------------------------------------------------------------------=
