
     Program PWSCF v.6.4.1 starts on 16Jun2022 at 15:13:22 

     This program is part of the open-source Quantum ESPRESSO suite
     for quantum simulation of materials; please cite
         "P. Giannozzi et al., J. Phys.:Condens. Matter 21 395502 (2009);
         "P. Giannozzi et al., J. Phys.:Condens. Matter 29 465901 (2017);
          URL http://www.quantum-espresso.org", 
     in publications or presentations arising from this work. More details at
     http://www.quantum-espresso.org/quote

     Parallel version (MPI), running on    64 processors

     MPI processes distributed on     1 nodes
     K-points division:     npool     =       4
     R & G space division:  proc/nbgrp/npool/nimage =      16
     Waiting for input...
     Reading input from standard input
Warning: card &IONS ignored
Warning: card   UPSCALE           = 100.D0, ignored
Warning: card / ignored
Warning: card &CELL ignored
Warning: card   CELL_DYNAMICS     = 'BFGS' ignored
Warning: card   PRESS_CONV_THR    = 0.5D0 ignored
Warning: card   CELL_DOFREE = 'ALL' ignored
Warning: card / ignored

     Current dimensions of program PWSCF are:
     Max number of different atomic species (ntypx) = 10
     Max number of k-points (npk) =  40000
     Max angular momentum in pseudopotentials (lmaxx) =  3

     Subspace diagonalization in iterative solution of the eigenvalue problem:
     one sub-group per band group will be used
     scalapack distributed-memory algorithm (size of sub-group:  2*  2 procs)

--------------------------------------------------------------------------------
NOTICE: Bravais lattice has wrong number (10) of symmetries - symmetries are disabled
--------------------------------------------------------------------------------
 
     Parallelization info
     --------------------
     sticks:   dense  smooth     PW     G-vecs:    dense   smooth      PW
     Min         106      57     17                 4764     1853     321
     Max         107      58     18                 4767     1860     326
     Sum        1711     913    283                76249    29665    5181
 


     bravais-lattice index     =            0
     lattice parameter (alat)  =       6.4241  a.u.
     unit-cell volume          =     306.9750 (a.u.)^3
     number of atoms/cell      =            4
     number of atomic types    =            2
     number of electrons       =        52.00
     number of Kohn-Sham states=           26
     kinetic-energy cutoff     =      80.0000  Ry
     charge density cutoff     =     600.0000  Ry
     convergence threshold     =      1.0E-06
     mixing beta               =       0.5000
     number of iterations used =            8  plain     mixing
     Exchange-correlation      = SLA  PW   PSX  PSC ( 1  4 10  8 0 0)
     Using LIBXC version       =    4   3   4

     celldm(1)=   6.424129  celldm(2)=   0.000000  celldm(3)=   0.000000
     celldm(4)=   0.000000  celldm(5)=   0.000000  celldm(6)=   0.000000

     crystal axes: (cart. coord. in units of alat)
               a(1) = (   1.000000   0.000000   0.000001 )  
               a(2) = (  -0.500000   0.866025  -0.000000 )  
               a(3) = (   0.000000   0.000000   1.336995 )  

     reciprocal axes: (cart. coord. in units 2 pi/alat)
               b(1) = (  1.000000  0.577350 -0.000000 )  
               b(2) = ( -0.000000  1.154701 -0.000000 )  
               b(3) = ( -0.000000 -0.000000  0.747946 )  


     PseudoPot. # 1 for Zn read from file:
     ./GBRV_PBEsol/zn_pbesol_v1.uspp.F.UPF
     MD5 check sum: 7d8615e52efe7c1e2b1899de8658bae2
     Pseudo is Ultrasoft, Zval = 20.0
     Generated by new atomic code, or converted to UPF format
     Using radial grid of  943 points,  6 beta functions with: 
                l(1) =   0
                l(2) =   0
                l(3) =   1
                l(4) =   1
                l(5) =   2
                l(6) =   2
     Q(r) pseudized with  8 coefficients,  rinner =    1.100   1.100   1.100
                                                       1.100   1.100

     PseudoPot. # 2 for O  read from file:
     ./GBRV_PBEsol/o_pbesol_v1.2.uspp.F.UPF
     MD5 check sum: 501638753501ef6325af9037351f7734
     Pseudo is Ultrasoft + core correction, Zval =  6.0
     Generated by new atomic code, or converted to UPF format
     Using radial grid of  737 points,  5 beta functions with: 
                l(1) =   0
                l(2) =   0
                l(3) =   1
                l(4) =   1
                l(5) =   2
     Q(r) pseudized with  8 coefficients,  rinner =    0.900   0.900   0.900
                                                       0.900   0.900

     atomic species   valence    mass     pseudopotential
        Zn            20.00    65.38000     Zn( 1.00)
        O              6.00    15.99900     O ( 1.00)

     No symmetry found


                                    s                        frac. trans.

      isym =  1     identity                                     

 cryst.   s( 1) = (     1          0          0      )
                  (     0          1          0      )
                  (     0          0          1      )

 cart.    s( 1) = (  1.0000000  0.0000000  0.0000000 )
                  (  0.0000000  1.0000000 -0.0000000 )
                  ( -0.0000000 -0.0000000  1.0000000 )


   Cartesian axes

     site n.     atom                  positions (alat units)
         1           O   tau(   1) = (   0.5000003   0.2886756   0.0098217  )
         2           O   tau(   2) = (   0.0000005   0.5773493   0.6783189  )
         3           Zn  tau(   3) = (   0.5000003   0.2886750   0.6502535  )
         4           Zn  tau(   4) = (   0.0000004   0.5773512   1.3187507  )

   Crystallographic axes

     site n.     atom                  positions (cryst. coord.)
         1           O   tau(   1) = (  0.6666670  0.3333337  0.0073459  )
         2           O   tau(   2) = (  0.3333329  0.6666657  0.5073458  )
         3           Zn  tau(   3) = (  0.6666664  0.3333329  0.4863542  )
         4           Zn  tau(   4) = (  0.3333337  0.6666677  0.9863542  )

     number of k points=   260
                       cart. coord. in units 2pi/alat
        k(    1) = (   0.0000000   0.0000000   0.0000000), wk =   0.0039062
        k(    2) = (  -0.0000000  -0.0000000   0.0934932), wk =   0.0078125
        k(    3) = (  -0.0000001  -0.0000000   0.1869865), wk =   0.0078125
        k(    4) = (  -0.0000001  -0.0000001   0.2804797), wk =   0.0078125
        k(    5) = (   0.0000002   0.0000001  -0.3739730), wk =   0.0039062
        k(    6) = (  -0.0000001   0.1443376  -0.0000000), wk =   0.0078125
        k(    7) = (  -0.0000001   0.1443376   0.0934932), wk =   0.0078125
        k(    8) = (  -0.0000002   0.1443376   0.1869865), wk =   0.0078125
        k(    9) = (  -0.0000002   0.1443375   0.2804797), wk =   0.0078125
        k(   10) = (   0.0000001   0.1443377  -0.3739730), wk =   0.0078125
        k(   11) = (   0.0000001   0.1443377  -0.2804798), wk =   0.0078125
        k(   12) = (   0.0000000   0.1443376  -0.1869865), wk =   0.0078125
        k(   13) = (  -0.0000000   0.1443376  -0.0934933), wk =   0.0078125
        k(   14) = (  -0.0000001   0.2886752  -0.0000000), wk =   0.0078125
        k(   15) = (  -0.0000002   0.2886752   0.0934932), wk =   0.0078125
        k(   16) = (  -0.0000002   0.2886752   0.1869865), wk =   0.0078125
        k(   17) = (  -0.0000003   0.2886751   0.2804797), wk =   0.0078125
        k(   18) = (   0.0000001   0.2886753  -0.3739730), wk =   0.0078125
        k(   19) = (   0.0000000   0.2886753  -0.2804798), wk =   0.0078125
        k(   20) = (  -0.0000000   0.2886753  -0.1869865), wk =   0.0078125
        k(   21) = (  -0.0000001   0.2886752  -0.0934933), wk =   0.0078125
        k(   22) = (  -0.0000002   0.4330128  -0.0000001), wk =   0.0078125
        k(   23) = (  -0.0000002   0.4330128   0.0934932), wk =   0.0078125
        k(   24) = (  -0.0000003   0.4330128   0.1869864), wk =   0.0078125
        k(   25) = (  -0.0000003   0.4330128   0.2804797), wk =   0.0078125
        k(   26) = (   0.0000000   0.4330129  -0.3739730), wk =   0.0078125
        k(   27) = (  -0.0000000   0.4330129  -0.2804798), wk =   0.0078125
        k(   28) = (  -0.0000001   0.4330129  -0.1869865), wk =   0.0078125
        k(   29) = (  -0.0000001   0.4330128  -0.0934933), wk =   0.0078125
        k(   30) = (   0.0000002  -0.5773504   0.0000001), wk =   0.0039062
        k(   31) = (   0.0000002  -0.5773504   0.0934933), wk =   0.0078125
        k(   32) = (   0.0000001  -0.5773505   0.1869866), wk =   0.0078125
        k(   33) = (   0.0000001  -0.5773505   0.2804798), wk =   0.0078125
        k(   34) = (   0.0000004  -0.5773503  -0.3739729), wk =   0.0039062
        k(   35) = (   0.1250000   0.0721688  -0.0000000), wk =   0.0078125
        k(   36) = (   0.1249999   0.0721687   0.0934932), wk =   0.0078125
        k(   37) = (   0.1249999   0.0721687   0.1869864), wk =   0.0078125
        k(   38) = (   0.1249998   0.0721687   0.2804797), wk =   0.0078125
        k(   39) = (   0.1250002   0.0721688  -0.3739730), wk =   0.0078125
        k(   40) = (   0.1250001   0.0721688  -0.2804798), wk =   0.0078125
        k(   41) = (   0.1250001   0.0721688  -0.1869865), wk =   0.0078125
        k(   42) = (   0.1250000   0.0721688  -0.0934933), wk =   0.0078125
        k(   43) = (   0.1249999   0.2165064  -0.0000001), wk =   0.0078125
        k(   44) = (   0.1249999   0.2165063   0.0934932), wk =   0.0078125
        k(   45) = (   0.1249998   0.2165063   0.1869864), wk =   0.0078125
        k(   46) = (   0.1249998   0.2165063   0.2804797), wk =   0.0078125
        k(   47) = (   0.1250001   0.2165064  -0.3739730), wk =   0.0078125
        k(   48) = (   0.1250001   0.2165064  -0.2804798), wk =   0.0078125
        k(   49) = (   0.1250000   0.2165064  -0.1869866), wk =   0.0078125
        k(   50) = (   0.1250000   0.2165064  -0.0934933), wk =   0.0078125
        k(   51) = (   0.1249999   0.3608440  -0.0000001), wk =   0.0078125
        k(   52) = (   0.1249998   0.3608439   0.0934932), wk =   0.0078125
        k(   53) = (   0.1249998   0.3608439   0.1869864), wk =   0.0078125
        k(   54) = (   0.1249997   0.3608439   0.2804797), wk =   0.0078125
        k(   55) = (   0.1250000   0.3608441  -0.3739731), wk =   0.0078125
        k(   56) = (   0.1250000   0.3608440  -0.2804798), wk =   0.0078125
        k(   57) = (   0.1250000   0.3608440  -0.1869866), wk =   0.0078125
        k(   58) = (   0.1249999   0.3608440  -0.0934933), wk =   0.0078125
        k(   59) = (   0.1249998   0.5051816  -0.0000001), wk =   0.0078125
        k(   60) = (   0.1249998   0.5051815   0.0934931), wk =   0.0078125
        k(   61) = (   0.1249997   0.5051815   0.1869864), wk =   0.0078125
        k(   62) = (   0.1249997   0.5051815   0.2804796), wk =   0.0078125
        k(   63) = (   0.1250000   0.5051817  -0.3739731), wk =   0.0078125
        k(   64) = (   0.1249999   0.5051816  -0.2804798), wk =   0.0078125
        k(   65) = (   0.1249999   0.5051816  -0.1869866), wk =   0.0078125
        k(   66) = (   0.1249998   0.5051816  -0.0934933), wk =   0.0078125
        k(   67) = (   0.1250002  -0.5051817   0.0000000), wk =   0.0078125
        k(   68) = (   0.1250002  -0.5051817   0.0934933), wk =   0.0078125
        k(   69) = (   0.1250001  -0.5051817   0.1869865), wk =   0.0078125
        k(   70) = (   0.1250001  -0.5051817   0.2804798), wk =   0.0078125
        k(   71) = (   0.1250004  -0.5051816  -0.3739730), wk =   0.0078125
        k(   72) = (   0.1250003  -0.5051816  -0.2804797), wk =   0.0078125
        k(   73) = (   0.1250003  -0.5051816  -0.1869865), wk =   0.0078125
        k(   74) = (   0.1250002  -0.5051816  -0.0934932), wk =   0.0078125
        k(   75) = (   0.1250001  -0.3608441   0.0000000), wk =   0.0078125
        k(   76) = (   0.1250001  -0.3608441   0.0934933), wk =   0.0078125
        k(   77) = (   0.1250000  -0.3608441   0.1869865), wk =   0.0078125
        k(   78) = (   0.1250000  -0.3608441   0.2804797), wk =   0.0078125
        k(   79) = (   0.1250003  -0.3608440  -0.3739730), wk =   0.0078125
        k(   80) = (   0.1250003  -0.3608440  -0.2804797), wk =   0.0078125
        k(   81) = (   0.1250002  -0.3608440  -0.1869865), wk =   0.0078125
        k(   82) = (   0.1250002  -0.3608440  -0.0934932), wk =   0.0078125
        k(   83) = (   0.1250001  -0.2165065  -0.0000000), wk =   0.0078125
        k(   84) = (   0.1250000  -0.2165065   0.0934932), wk =   0.0078125
        k(   85) = (   0.1250000  -0.2165065   0.1869865), wk =   0.0078125
        k(   86) = (   0.1249999  -0.2165065   0.2804797), wk =   0.0078125
        k(   87) = (   0.1250003  -0.2165064  -0.3739730), wk =   0.0078125
        k(   88) = (   0.1250002  -0.2165064  -0.2804797), wk =   0.0078125
        k(   89) = (   0.1250002  -0.2165064  -0.1869865), wk =   0.0078125
        k(   90) = (   0.1250001  -0.2165064  -0.0934933), wk =   0.0078125
        k(   91) = (   0.1250000  -0.0721689  -0.0000000), wk =   0.0078125
        k(   92) = (   0.1250000  -0.0721689   0.0934932), wk =   0.0078125
        k(   93) = (   0.1249999  -0.0721689   0.1869865), wk =   0.0078125
        k(   94) = (   0.1249999  -0.0721689   0.2804797), wk =   0.0078125
        k(   95) = (   0.1250002  -0.0721688  -0.3739730), wk =   0.0078125
        k(   96) = (   0.1250002  -0.0721688  -0.2804798), wk =   0.0078125
        k(   97) = (   0.1250001  -0.0721688  -0.1869865), wk =   0.0078125
        k(   98) = (   0.1250001  -0.0721688  -0.0934933), wk =   0.0078125
        k(   99) = (   0.2499999   0.1443375  -0.0000001), wk =   0.0078125
        k(  100) = (   0.2499999   0.1443375   0.0934932), wk =   0.0078125
        k(  101) = (   0.2499998   0.1443375   0.1869864), wk =   0.0078125
        k(  102) = (   0.2499998   0.1443374   0.2804796), wk =   0.0078125
        k(  103) = (   0.2500001   0.1443376  -0.3739731), wk =   0.0078125
        k(  104) = (   0.2500001   0.1443376  -0.2804798), wk =   0.0078125
        k(  105) = (   0.2500000   0.1443376  -0.1869866), wk =   0.0078125
        k(  106) = (   0.2500000   0.1443375  -0.0934933), wk =   0.0078125
        k(  107) = (   0.2499999   0.2886751  -0.0000001), wk =   0.0078125
        k(  108) = (   0.2499998   0.2886751   0.0934931), wk =   0.0078125
        k(  109) = (   0.2499998   0.2886751   0.1869864), wk =   0.0078125
        k(  110) = (   0.2499997   0.2886750   0.2804796), wk =   0.0078125
        k(  111) = (   0.2500001   0.2886752  -0.3739731), wk =   0.0078125
        k(  112) = (   0.2500000   0.2886752  -0.2804798), wk =   0.0078125
        k(  113) = (   0.2500000   0.2886752  -0.1869866), wk =   0.0078125
        k(  114) = (   0.2499999   0.2886751  -0.0934934), wk =   0.0078125
        k(  115) = (   0.2499998   0.4330127  -0.0000001), wk =   0.0078125
        k(  116) = (   0.2499998   0.4330127   0.0934931), wk =   0.0078125
        k(  117) = (   0.2499997   0.4330127   0.1869864), wk =   0.0078125
        k(  118) = (   0.2499997   0.4330127   0.2804796), wk =   0.0078125
        k(  119) = (   0.2500000   0.4330128  -0.3739731), wk =   0.0078125
        k(  120) = (   0.2500000   0.4330128  -0.2804799), wk =   0.0078125
        k(  121) = (   0.2499999   0.4330128  -0.1869866), wk =   0.0078125
        k(  122) = (   0.2499999   0.4330127  -0.0934934), wk =   0.0078125
        k(  123) = (   0.2499998   0.5773503  -0.0000001), wk =   0.0078125
        k(  124) = (   0.2499997   0.5773503   0.0934931), wk =   0.0078125
        k(  125) = (   0.2499997   0.5773503   0.1869863), wk =   0.0078125
        k(  126) = (   0.2499996   0.5773503   0.2804796), wk =   0.0078125
        k(  127) = (   0.2500000   0.5773504  -0.3739731), wk =   0.0078125
        k(  128) = (   0.2499999   0.5773504  -0.2804799), wk =   0.0078125
        k(  129) = (   0.2499999   0.5773504  -0.1869866), wk =   0.0078125
        k(  130) = (   0.2499998   0.5773503  -0.0934934), wk =   0.0078125
        k(  131) = (   0.2500002  -0.4330129  -0.0000000), wk =   0.0078125
        k(  132) = (   0.2500001  -0.4330129   0.0934932), wk =   0.0078125
        k(  133) = (   0.2500001  -0.4330130   0.1869865), wk =   0.0078125
        k(  134) = (   0.2500000  -0.4330130   0.2804797), wk =   0.0078125
        k(  135) = (   0.2500004  -0.4330128  -0.3739730), wk =   0.0078125
        k(  136) = (   0.2500003  -0.4330129  -0.2804798), wk =   0.0078125
        k(  137) = (   0.2500003  -0.4330129  -0.1869865), wk =   0.0078125
        k(  138) = (   0.2500002  -0.4330129  -0.0934933), wk =   0.0078125
        k(  139) = (   0.2500001  -0.2886753  -0.0000000), wk =   0.0078125
        k(  140) = (   0.2500001  -0.2886753   0.0934932), wk =   0.0078125
        k(  141) = (   0.2500000  -0.2886754   0.1869864), wk =   0.0078125
        k(  142) = (   0.2500000  -0.2886754   0.2804797), wk =   0.0078125
        k(  143) = (   0.2500003  -0.2886752  -0.3739730), wk =   0.0078125
        k(  144) = (   0.2500003  -0.2886752  -0.2804798), wk =   0.0078125
        k(  145) = (   0.2500002  -0.2886753  -0.1869865), wk =   0.0078125
        k(  146) = (   0.2500002  -0.2886753  -0.0934933), wk =   0.0078125
        k(  147) = (   0.2500001  -0.1443377  -0.0000001), wk =   0.0078125
        k(  148) = (   0.2500000  -0.1443377   0.0934932), wk =   0.0078125
        k(  149) = (   0.2500000  -0.1443377   0.1869864), wk =   0.0078125
        k(  150) = (   0.2499999  -0.1443378   0.2804797), wk =   0.0078125
        k(  151) = (   0.2500002  -0.1443376  -0.3739730), wk =   0.0078125
        k(  152) = (   0.2500002  -0.1443376  -0.2804798), wk =   0.0078125
        k(  153) = (   0.2500002  -0.1443377  -0.1869865), wk =   0.0078125
        k(  154) = (   0.2500001  -0.1443377  -0.0934933), wk =   0.0078125
        k(  155) = (   0.2500000  -0.0000001  -0.0000001), wk =   0.0078125
        k(  156) = (   0.2500000  -0.0000001   0.0934932), wk =   0.0078125
        k(  157) = (   0.2499999  -0.0000001   0.1869864), wk =   0.0078125
        k(  158) = (   0.2499999  -0.0000002   0.2804797), wk =   0.0078125
        k(  159) = (   0.2500002  -0.0000000  -0.3739731), wk =   0.0078125
        k(  160) = (   0.2500001  -0.0000000  -0.2804798), wk =   0.0078125
        k(  161) = (   0.2500001  -0.0000001  -0.1869866), wk =   0.0078125
        k(  162) = (   0.2500000  -0.0000001  -0.0934933), wk =   0.0078125
        k(  163) = (   0.3749999   0.2165063  -0.0000001), wk =   0.0078125
        k(  164) = (   0.3749999   0.2165062   0.0934931), wk =   0.0078125
        k(  165) = (   0.3749998   0.2165062   0.1869863), wk =   0.0078125
        k(  166) = (   0.3749998   0.2165062   0.2804796), wk =   0.0078125
        k(  167) = (   0.3750001   0.2165063  -0.3739731), wk =   0.0078125
        k(  168) = (   0.3750001   0.2165063  -0.2804799), wk =   0.0078125
        k(  169) = (   0.3750000   0.2165063  -0.1869866), wk =   0.0078125
        k(  170) = (   0.3750000   0.2165063  -0.0934934), wk =   0.0078125
        k(  171) = (   0.3749999   0.3608439  -0.0000002), wk =   0.0078125
        k(  172) = (   0.3749998   0.3608438   0.0934931), wk =   0.0078125
        k(  173) = (   0.3749998   0.3608438   0.1869863), wk =   0.0078125
        k(  174) = (   0.3749997   0.3608438   0.2804796), wk =   0.0078125
        k(  175) = (   0.3750000   0.3608440  -0.3739731), wk =   0.0078125
        k(  176) = (   0.3750000   0.3608439  -0.2804799), wk =   0.0078125
        k(  177) = (   0.3750000   0.3608439  -0.1869866), wk =   0.0078125
        k(  178) = (   0.3749999   0.3608439  -0.0934934), wk =   0.0078125
        k(  179) = (   0.3749998   0.5051815  -0.0000002), wk =   0.0078125
        k(  180) = (   0.3749998   0.5051815   0.0934931), wk =   0.0078125
        k(  181) = (   0.3749997   0.5051814   0.1869863), wk =   0.0078125
        k(  182) = (   0.3749997   0.5051814   0.2804796), wk =   0.0078125
        k(  183) = (   0.3750000   0.5051816  -0.3739732), wk =   0.0078125
        k(  184) = (   0.3749999   0.5051815  -0.2804799), wk =   0.0078125
        k(  185) = (   0.3749999   0.5051815  -0.1869867), wk =   0.0078125
        k(  186) = (   0.3749998   0.5051815  -0.0934934), wk =   0.0078125
        k(  187) = (   0.3749997   0.6495191  -0.0000002), wk =   0.0078125
        k(  188) = (   0.3749997   0.6495191   0.0934930), wk =   0.0078125
        k(  189) = (   0.3749996   0.6495190   0.1869863), wk =   0.0078125
        k(  190) = (   0.3749996   0.6495190   0.2804795), wk =   0.0078125
        k(  191) = (   0.3749999   0.6495192  -0.3739732), wk =   0.0078125
        k(  192) = (   0.3749999   0.6495191  -0.2804799), wk =   0.0078125
        k(  193) = (   0.3749998   0.6495191  -0.1869867), wk =   0.0078125
        k(  194) = (   0.3749998   0.6495191  -0.0934934), wk =   0.0078125
        k(  195) = (   0.3750001  -0.3608442  -0.0000001), wk =   0.0078125
        k(  196) = (   0.3750001  -0.3608442   0.0934932), wk =   0.0078125
        k(  197) = (   0.3750000  -0.3608442   0.1869864), wk =   0.0078125
        k(  198) = (   0.3750000  -0.3608442   0.2804797), wk =   0.0078125
        k(  199) = (   0.3750003  -0.3608441  -0.3739730), wk =   0.0078125
        k(  200) = (   0.3750003  -0.3608441  -0.2804798), wk =   0.0078125
        k(  201) = (   0.3750002  -0.3608441  -0.1869866), wk =   0.0078125
        k(  202) = (   0.3750002  -0.3608441  -0.0934933), wk =   0.0078125
        k(  203) = (   0.3750001  -0.2165066  -0.0000001), wk =   0.0078125
        k(  204) = (   0.3750000  -0.2165066   0.0934932), wk =   0.0078125
        k(  205) = (   0.3750000  -0.2165066   0.1869864), wk =   0.0078125
        k(  206) = (   0.3749999  -0.2165066   0.2804796), wk =   0.0078125
        k(  207) = (   0.3750003  -0.2165065  -0.3739731), wk =   0.0078125
        k(  208) = (   0.3750002  -0.2165065  -0.2804798), wk =   0.0078125
        k(  209) = (   0.3750002  -0.2165065  -0.1869866), wk =   0.0078125
        k(  210) = (   0.3750001  -0.2165065  -0.0934933), wk =   0.0078125
        k(  211) = (   0.3750000  -0.0721690  -0.0000001), wk =   0.0078125
        k(  212) = (   0.3750000  -0.0721690   0.0934931), wk =   0.0078125
        k(  213) = (   0.3749999  -0.0721690   0.1869864), wk =   0.0078125
        k(  214) = (   0.3749999  -0.0721690   0.2804796), wk =   0.0078125
        k(  215) = (   0.3750002  -0.0721689  -0.3739731), wk =   0.0078125
        k(  216) = (   0.3750002  -0.0721689  -0.2804798), wk =   0.0078125
        k(  217) = (   0.3750001  -0.0721689  -0.1869866), wk =   0.0078125
        k(  218) = (   0.3750001  -0.0721689  -0.0934934), wk =   0.0078125
        k(  219) = (   0.3750000   0.0721687  -0.0000001), wk =   0.0078125
        k(  220) = (   0.3749999   0.0721686   0.0934931), wk =   0.0078125
        k(  221) = (   0.3749999   0.0721686   0.1869864), wk =   0.0078125
        k(  222) = (   0.3749998   0.0721686   0.2804796), wk =   0.0078125
        k(  223) = (   0.3750002   0.0721687  -0.3739731), wk =   0.0078125
        k(  224) = (   0.3750001   0.0721687  -0.2804799), wk =   0.0078125
        k(  225) = (   0.3750001   0.0721687  -0.1869866), wk =   0.0078125
        k(  226) = (   0.3750000   0.0721687  -0.0934934), wk =   0.0078125
        k(  227) = (  -0.4999999  -0.2886750   0.0000002), wk =   0.0039062
        k(  228) = (  -0.4999999  -0.2886750   0.0934934), wk =   0.0078125
        k(  229) = (  -0.5000000  -0.2886751   0.1869867), wk =   0.0078125
        k(  230) = (  -0.5000000  -0.2886751   0.2804799), wk =   0.0078125
        k(  231) = (  -0.4999997  -0.2886749  -0.3739728), wk =   0.0039062
        k(  232) = (  -0.4999999  -0.1443374   0.0000002), wk =   0.0078125
        k(  233) = (  -0.5000000  -0.1443374   0.0934934), wk =   0.0078125
        k(  234) = (  -0.5000000  -0.1443375   0.1869867), wk =   0.0078125
        k(  235) = (  -0.5000001  -0.1443375   0.2804799), wk =   0.0078125
        k(  236) = (  -0.4999998  -0.1443373  -0.3739728), wk =   0.0078125
        k(  237) = (  -0.4999998  -0.1443373  -0.2804796), wk =   0.0078125
        k(  238) = (  -0.4999998  -0.1443374  -0.1869863), wk =   0.0078125
        k(  239) = (  -0.4999999  -0.1443374  -0.0934931), wk =   0.0078125
        k(  240) = (  -0.5000000   0.0000002   0.0000002), wk =   0.0078125
        k(  241) = (  -0.5000000   0.0000002   0.0934934), wk =   0.0078125
        k(  242) = (  -0.5000001   0.0000002   0.1869866), wk =   0.0078125
        k(  243) = (  -0.5000001   0.0000001   0.2804799), wk =   0.0078125
        k(  244) = (  -0.4999998   0.0000003  -0.3739728), wk =   0.0078125
        k(  245) = (  -0.4999999   0.0000003  -0.2804796), wk =   0.0078125
        k(  246) = (  -0.4999999   0.0000002  -0.1869863), wk =   0.0078125
        k(  247) = (  -0.5000000   0.0000002  -0.0934931), wk =   0.0078125
        k(  248) = (  -0.5000001   0.1443378   0.0000001), wk =   0.0078125
        k(  249) = (  -0.5000001   0.1443378   0.0934934), wk =   0.0078125
        k(  250) = (  -0.5000002   0.1443378   0.1869866), wk =   0.0078125
        k(  251) = (  -0.5000002   0.1443377   0.2804799), wk =   0.0078125
        k(  252) = (  -0.4999999   0.1443379  -0.3739728), wk =   0.0078125
        k(  253) = (  -0.4999999   0.1443379  -0.2804796), wk =   0.0078125
        k(  254) = (  -0.5000000   0.1443378  -0.1869864), wk =   0.0078125
        k(  255) = (  -0.5000000   0.1443378  -0.0934931), wk =   0.0078125
        k(  256) = (  -0.4999997  -0.8660254   0.0000003), wk =   0.0039062
        k(  257) = (  -0.4999997  -0.8660255   0.0934935), wk =   0.0078125
        k(  258) = (  -0.4999998  -0.8660255   0.1869868), wk =   0.0078125
        k(  259) = (  -0.4999998  -0.8660255   0.2804800), wk =   0.0078125
        k(  260) = (  -0.4999995  -0.8660254  -0.3739727), wk =   0.0039062

                       cryst. coord.
        k(    1) = (   0.0000000   0.0000000   0.0000000), wk =   0.0039062
        k(    2) = (  -0.0000000  -0.0000000   0.1250000), wk =   0.0078125
        k(    3) = (  -0.0000000  -0.0000000   0.2500000), wk =   0.0078125
        k(    4) = (  -0.0000000  -0.0000000   0.3750000), wk =   0.0078125
        k(    5) = (   0.0000000   0.0000000  -0.5000000), wk =   0.0039062
        k(    6) = (  -0.0000000   0.1250000   0.0000000), wk =   0.0078125
        k(    7) = (  -0.0000000   0.1250000   0.1250000), wk =   0.0078125
        k(    8) = (  -0.0000000   0.1250000   0.2500000), wk =   0.0078125
        k(    9) = (  -0.0000000   0.1250000   0.3750000), wk =   0.0078125
        k(   10) = (   0.0000000   0.1250000  -0.5000000), wk =   0.0078125
        k(   11) = (   0.0000000   0.1250000  -0.3750000), wk =   0.0078125
        k(   12) = (   0.0000000   0.1250000  -0.2500000), wk =   0.0078125
        k(   13) = (   0.0000000   0.1250000  -0.1250000), wk =   0.0078125
        k(   14) = (  -0.0000000   0.2500000   0.0000000), wk =   0.0078125
        k(   15) = (   0.0000000   0.2500000   0.1250000), wk =   0.0078125
        k(   16) = (  -0.0000000   0.2500000   0.2500000), wk =   0.0078125
        k(   17) = (  -0.0000000   0.2500000   0.3750000), wk =   0.0078125
        k(   18) = (   0.0000000   0.2500000  -0.5000000), wk =   0.0078125
        k(   19) = (   0.0000000   0.2500000  -0.3750000), wk =   0.0078125
        k(   20) = (   0.0000000   0.2500000  -0.2500000), wk =   0.0078125
        k(   21) = (   0.0000000   0.2500000  -0.1250000), wk =   0.0078125
        k(   22) = (   0.0000000   0.3750000   0.0000000), wk =   0.0078125
        k(   23) = (  -0.0000000   0.3750000   0.1250000), wk =   0.0078125
        k(   24) = (  -0.0000000   0.3750000   0.2500000), wk =   0.0078125
        k(   25) = (  -0.0000000   0.3750000   0.3750000), wk =   0.0078125
        k(   26) = (   0.0000000   0.3750000  -0.5000000), wk =   0.0078125
        k(   27) = (   0.0000000   0.3750000  -0.3750000), wk =   0.0078125
        k(   28) = (   0.0000000   0.3750000  -0.2500000), wk =   0.0078125
        k(   29) = (   0.0000000   0.3750000  -0.1250000), wk =   0.0078125
        k(   30) = (   0.0000000  -0.5000000  -0.0000000), wk =   0.0039062
        k(   31) = (   0.0000000  -0.5000000   0.1250000), wk =   0.0078125
        k(   32) = (  -0.0000000  -0.5000000   0.2500000), wk =   0.0078125
        k(   33) = (  -0.0000000  -0.5000000   0.3750000), wk =   0.0078125
        k(   34) = (   0.0000000  -0.5000000  -0.5000000), wk =   0.0039062
        k(   35) = (   0.1250000  -0.0000000   0.0000000), wk =   0.0078125
        k(   36) = (   0.1250000  -0.0000000   0.1250000), wk =   0.0078125
        k(   37) = (   0.1250000  -0.0000000   0.2500000), wk =   0.0078125
        k(   38) = (   0.1250000  -0.0000000   0.3750000), wk =   0.0078125
        k(   39) = (   0.1250000   0.0000000  -0.5000000), wk =   0.0078125
        k(   40) = (   0.1250000   0.0000000  -0.3750000), wk =   0.0078125
        k(   41) = (   0.1250000  -0.0000000  -0.2500000), wk =   0.0078125
        k(   42) = (   0.1250000   0.0000000  -0.1250000), wk =   0.0078125
        k(   43) = (   0.1250000   0.1250000  -0.0000000), wk =   0.0078125
        k(   44) = (   0.1250000   0.1250000   0.1250000), wk =   0.0078125
        k(   45) = (   0.1250000   0.1250000   0.2500000), wk =   0.0078125
        k(   46) = (   0.1250000   0.1250000   0.3750000), wk =   0.0078125
        k(   47) = (   0.1250000   0.1250000  -0.5000000), wk =   0.0078125
        k(   48) = (   0.1250000   0.1250000  -0.3750000), wk =   0.0078125
        k(   49) = (   0.1250000   0.1250000  -0.2500000), wk =   0.0078125
        k(   50) = (   0.1250000   0.1250000  -0.1250000), wk =   0.0078125
        k(   51) = (   0.1250000   0.2500000   0.0000000), wk =   0.0078125
        k(   52) = (   0.1250000   0.2500000   0.1250000), wk =   0.0078125
        k(   53) = (   0.1250000   0.2500000   0.2500000), wk =   0.0078125
        k(   54) = (   0.1250000   0.2500000   0.3750000), wk =   0.0078125
        k(   55) = (   0.1250000   0.2500000  -0.5000000), wk =   0.0078125
        k(   56) = (   0.1250000   0.2500000  -0.3750000), wk =   0.0078125
        k(   57) = (   0.1250000   0.2500000  -0.2500000), wk =   0.0078125
        k(   58) = (   0.1250000   0.2500000  -0.1250000), wk =   0.0078125
        k(   59) = (   0.1250000   0.3750000   0.0000000), wk =   0.0078125
        k(   60) = (   0.1250000   0.3750000   0.1250000), wk =   0.0078125
        k(   61) = (   0.1250000   0.3750000   0.2500000), wk =   0.0078125
        k(   62) = (   0.1250000   0.3750000   0.3750000), wk =   0.0078125
        k(   63) = (   0.1250000   0.3750000  -0.5000000), wk =   0.0078125
        k(   64) = (   0.1250000   0.3750000  -0.3750000), wk =   0.0078125
        k(   65) = (   0.1250000   0.3750000  -0.2500000), wk =   0.0078125
        k(   66) = (   0.1250000   0.3750000  -0.1250000), wk =   0.0078125
        k(   67) = (   0.1250000  -0.5000000  -0.0000000), wk =   0.0078125
        k(   68) = (   0.1250000  -0.5000000   0.1250000), wk =   0.0078125
        k(   69) = (   0.1250000  -0.5000000   0.2500000), wk =   0.0078125
        k(   70) = (   0.1250000  -0.5000000   0.3750000), wk =   0.0078125
        k(   71) = (   0.1250000  -0.5000000  -0.5000000), wk =   0.0078125
        k(   72) = (   0.1250000  -0.5000000  -0.3750000), wk =   0.0078125
        k(   73) = (   0.1250000  -0.5000000  -0.2500000), wk =   0.0078125
        k(   74) = (   0.1250000  -0.5000000  -0.1250000), wk =   0.0078125
        k(   75) = (   0.1250000  -0.3750000   0.0000000), wk =   0.0078125
        k(   76) = (   0.1250000  -0.3750000   0.1250000), wk =   0.0078125
        k(   77) = (   0.1250000  -0.3750000   0.2500000), wk =   0.0078125
        k(   78) = (   0.1250000  -0.3750000   0.3750000), wk =   0.0078125
        k(   79) = (   0.1250000  -0.3750000  -0.5000000), wk =   0.0078125
        k(   80) = (   0.1250000  -0.3750000  -0.3750000), wk =   0.0078125
        k(   81) = (   0.1250000  -0.3750000  -0.2500000), wk =   0.0078125
        k(   82) = (   0.1250000  -0.3750000  -0.1250000), wk =   0.0078125
        k(   83) = (   0.1250000  -0.2500000   0.0000000), wk =   0.0078125
        k(   84) = (   0.1250000  -0.2500000   0.1250000), wk =   0.0078125
        k(   85) = (   0.1250000  -0.2500000   0.2500000), wk =   0.0078125
        k(   86) = (   0.1250000  -0.2500000   0.3750000), wk =   0.0078125
        k(   87) = (   0.1250000  -0.2500000  -0.5000000), wk =   0.0078125
        k(   88) = (   0.1250000  -0.2500000  -0.3750000), wk =   0.0078125
        k(   89) = (   0.1250000  -0.2500000  -0.2500000), wk =   0.0078125
        k(   90) = (   0.1250000  -0.2500000  -0.1250000), wk =   0.0078125
        k(   91) = (   0.1250000  -0.1250000   0.0000000), wk =   0.0078125
        k(   92) = (   0.1250000  -0.1250000   0.1250000), wk =   0.0078125
        k(   93) = (   0.1250000  -0.1250000   0.2500000), wk =   0.0078125
        k(   94) = (   0.1250000  -0.1250000   0.3750000), wk =   0.0078125
        k(   95) = (   0.1250000  -0.1250000  -0.5000000), wk =   0.0078125
        k(   96) = (   0.1250000  -0.1250000  -0.3750000), wk =   0.0078125
        k(   97) = (   0.1250000  -0.1250000  -0.2500000), wk =   0.0078125
        k(   98) = (   0.1250000  -0.1250000  -0.1250000), wk =   0.0078125
        k(   99) = (   0.2500000  -0.0000000   0.0000000), wk =   0.0078125
        k(  100) = (   0.2500000  -0.0000000   0.1250000), wk =   0.0078125
        k(  101) = (   0.2500000  -0.0000000   0.2500000), wk =   0.0078125
        k(  102) = (   0.2500000   0.0000000   0.3750000), wk =   0.0078125
        k(  103) = (   0.2500000  -0.0000000  -0.5000000), wk =   0.0078125
        k(  104) = (   0.2500000  -0.0000000  -0.3750000), wk =   0.0078125
        k(  105) = (   0.2500000   0.0000000  -0.2500000), wk =   0.0078125
        k(  106) = (   0.2500000   0.0000000  -0.1250000), wk =   0.0078125
        k(  107) = (   0.2500000   0.1250000   0.0000000), wk =   0.0078125
        k(  108) = (   0.2500000   0.1250000   0.1250000), wk =   0.0078125
        k(  109) = (   0.2500000   0.1250000   0.2500000), wk =   0.0078125
        k(  110) = (   0.2500000   0.1250000   0.3750000), wk =   0.0078125
        k(  111) = (   0.2500000   0.1250000  -0.5000000), wk =   0.0078125
        k(  112) = (   0.2500000   0.1250000  -0.3750000), wk =   0.0078125
        k(  113) = (   0.2500000   0.1250000  -0.2500000), wk =   0.0078125
        k(  114) = (   0.2500000   0.1250000  -0.1250000), wk =   0.0078125
        k(  115) = (   0.2500000   0.2500000  -0.0000000), wk =   0.0078125
        k(  116) = (   0.2500000   0.2500000   0.1250000), wk =   0.0078125
        k(  117) = (   0.2500000   0.2500000   0.2500000), wk =   0.0078125
        k(  118) = (   0.2500000   0.2500000   0.3750000), wk =   0.0078125
        k(  119) = (   0.2500000   0.2500000  -0.5000000), wk =   0.0078125
        k(  120) = (   0.2500000   0.2500000  -0.3750000), wk =   0.0078125
        k(  121) = (   0.2500000   0.2500000  -0.2500000), wk =   0.0078125
        k(  122) = (   0.2500000   0.2500000  -0.1250000), wk =   0.0078125
        k(  123) = (   0.2500000   0.3750000  -0.0000000), wk =   0.0078125
        k(  124) = (   0.2500000   0.3750000   0.1250000), wk =   0.0078125
        k(  125) = (   0.2500000   0.3750000   0.2500000), wk =   0.0078125
        k(  126) = (   0.2500000   0.3750000   0.3750000), wk =   0.0078125
        k(  127) = (   0.2500000   0.3750000  -0.5000000), wk =   0.0078125
        k(  128) = (   0.2500000   0.3750000  -0.3750000), wk =   0.0078125
        k(  129) = (   0.2500000   0.3750000  -0.2500000), wk =   0.0078125
        k(  130) = (   0.2500000   0.3750000  -0.1250000), wk =   0.0078125
        k(  131) = (   0.2500000  -0.5000000   0.0000000), wk =   0.0078125
        k(  132) = (   0.2500000  -0.5000000   0.1250000), wk =   0.0078125
        k(  133) = (   0.2500000  -0.5000000   0.2500000), wk =   0.0078125
        k(  134) = (   0.2500000  -0.5000000   0.3750000), wk =   0.0078125
        k(  135) = (   0.2500000  -0.5000000  -0.5000000), wk =   0.0078125
        k(  136) = (   0.2500000  -0.5000000  -0.3750000), wk =   0.0078125
        k(  137) = (   0.2500000  -0.5000000  -0.2500000), wk =   0.0078125
        k(  138) = (   0.2500000  -0.5000000  -0.1250000), wk =   0.0078125
        k(  139) = (   0.2500000  -0.3750000   0.0000000), wk =   0.0078125
        k(  140) = (   0.2500000  -0.3750000   0.1250000), wk =   0.0078125
        k(  141) = (   0.2500000  -0.3750000   0.2500000), wk =   0.0078125
        k(  142) = (   0.2500000  -0.3750000   0.3750000), wk =   0.0078125
        k(  143) = (   0.2500000  -0.3750000  -0.5000000), wk =   0.0078125
        k(  144) = (   0.2500000  -0.3750000  -0.3750000), wk =   0.0078125
        k(  145) = (   0.2500000  -0.3750000  -0.2500000), wk =   0.0078125
        k(  146) = (   0.2500000  -0.3750000  -0.1250000), wk =   0.0078125
        k(  147) = (   0.2500000  -0.2500000   0.0000000), wk =   0.0078125
        k(  148) = (   0.2500000  -0.2500000   0.1250000), wk =   0.0078125
        k(  149) = (   0.2500000  -0.2500000   0.2500000), wk =   0.0078125
        k(  150) = (   0.2500000  -0.2500000   0.3750000), wk =   0.0078125
        k(  151) = (   0.2500000  -0.2500000  -0.5000000), wk =   0.0078125
        k(  152) = (   0.2500000  -0.2500000  -0.3750000), wk =   0.0078125
        k(  153) = (   0.2500000  -0.2500000  -0.2500000), wk =   0.0078125
        k(  154) = (   0.2500000  -0.2500000  -0.1250000), wk =   0.0078125
        k(  155) = (   0.2500000  -0.1250000   0.0000000), wk =   0.0078125
        k(  156) = (   0.2500000  -0.1250000   0.1250000), wk =   0.0078125
        k(  157) = (   0.2500000  -0.1250000   0.2500000), wk =   0.0078125
        k(  158) = (   0.2500000  -0.1250000   0.3750000), wk =   0.0078125
        k(  159) = (   0.2500000  -0.1250000  -0.5000000), wk =   0.0078125
        k(  160) = (   0.2500000  -0.1250000  -0.3750000), wk =   0.0078125
        k(  161) = (   0.2500000  -0.1250000  -0.2500000), wk =   0.0078125
        k(  162) = (   0.2500000  -0.1250000  -0.1250000), wk =   0.0078125
        k(  163) = (   0.3750000  -0.0000000   0.0000000), wk =   0.0078125
        k(  164) = (   0.3750000  -0.0000000   0.1250000), wk =   0.0078125
        k(  165) = (   0.3750000  -0.0000000   0.2500000), wk =   0.0078125
        k(  166) = (   0.3750000  -0.0000000   0.3750000), wk =   0.0078125
        k(  167) = (   0.3750000  -0.0000000  -0.5000000), wk =   0.0078125
        k(  168) = (   0.3750000  -0.0000000  -0.3750000), wk =   0.0078125
        k(  169) = (   0.3750000   0.0000000  -0.2500000), wk =   0.0078125
        k(  170) = (   0.3750000  -0.0000000  -0.1250000), wk =   0.0078125
        k(  171) = (   0.3750000   0.1250000   0.0000000), wk =   0.0078125
        k(  172) = (   0.3750000   0.1250000   0.1250000), wk =   0.0078125
        k(  173) = (   0.3750000   0.1250000   0.2500000), wk =   0.0078125
        k(  174) = (   0.3750000   0.1250000   0.3750000), wk =   0.0078125
        k(  175) = (   0.3750000   0.1250000  -0.5000000), wk =   0.0078125
        k(  176) = (   0.3750000   0.1250000  -0.3750000), wk =   0.0078125
        k(  177) = (   0.3750000   0.1250000  -0.2500000), wk =   0.0078125
        k(  178) = (   0.3750000   0.1250000  -0.1250000), wk =   0.0078125
        k(  179) = (   0.3750000   0.2500000  -0.0000000), wk =   0.0078125
        k(  180) = (   0.3750000   0.2500000   0.1250000), wk =   0.0078125
        k(  181) = (   0.3750000   0.2500000   0.2500000), wk =   0.0078125
        k(  182) = (   0.3750000   0.2500000   0.3750000), wk =   0.0078125
        k(  183) = (   0.3750000   0.2500000  -0.5000000), wk =   0.0078125
        k(  184) = (   0.3750000   0.2500000  -0.3750000), wk =   0.0078125
        k(  185) = (   0.3750000   0.2500000  -0.2500000), wk =   0.0078125
        k(  186) = (   0.3750000   0.2500000  -0.1250000), wk =   0.0078125
        k(  187) = (   0.3750000   0.3750000   0.0000000), wk =   0.0078125
        k(  188) = (   0.3750000   0.3750000   0.1250000), wk =   0.0078125
        k(  189) = (   0.3750000   0.3750000   0.2500000), wk =   0.0078125
        k(  190) = (   0.3750000   0.3750000   0.3750000), wk =   0.0078125
        k(  191) = (   0.3750000   0.3750000  -0.5000000), wk =   0.0078125
        k(  192) = (   0.3750000   0.3750000  -0.3750000), wk =   0.0078125
        k(  193) = (   0.3750000   0.3750000  -0.2500000), wk =   0.0078125
        k(  194) = (   0.3750000   0.3750000  -0.1250000), wk =   0.0078125
        k(  195) = (   0.3750000  -0.5000000   0.0000000), wk =   0.0078125
        k(  196) = (   0.3750000  -0.5000000   0.1250000), wk =   0.0078125
        k(  197) = (   0.3750000  -0.5000000   0.2500000), wk =   0.0078125
        k(  198) = (   0.3750000  -0.5000000   0.3750000), wk =   0.0078125
        k(  199) = (   0.3750000  -0.5000000  -0.5000000), wk =   0.0078125
        k(  200) = (   0.3750000  -0.5000000  -0.3750000), wk =   0.0078125
        k(  201) = (   0.3750000  -0.5000000  -0.2500000), wk =   0.0078125
        k(  202) = (   0.3750000  -0.5000000  -0.1250000), wk =   0.0078125
        k(  203) = (   0.3750000  -0.3750000  -0.0000000), wk =   0.0078125
        k(  204) = (   0.3750000  -0.3750000   0.1250000), wk =   0.0078125
        k(  205) = (   0.3750000  -0.3750000   0.2500000), wk =   0.0078125
        k(  206) = (   0.3750000  -0.3750000   0.3750000), wk =   0.0078125
        k(  207) = (   0.3750000  -0.3750000  -0.5000000), wk =   0.0078125
        k(  208) = (   0.3750000  -0.3750000  -0.3750000), wk =   0.0078125
        k(  209) = (   0.3750000  -0.3750000  -0.2500000), wk =   0.0078125
        k(  210) = (   0.3750000  -0.3750000  -0.1250000), wk =   0.0078125
        k(  211) = (   0.3750000  -0.2500000   0.0000000), wk =   0.0078125
        k(  212) = (   0.3750000  -0.2500000   0.1250000), wk =   0.0078125
        k(  213) = (   0.3750000  -0.2500000   0.2500000), wk =   0.0078125
        k(  214) = (   0.3750000  -0.2500000   0.3750000), wk =   0.0078125
        k(  215) = (   0.3750000  -0.2500000  -0.5000000), wk =   0.0078125
        k(  216) = (   0.3750000  -0.2500000  -0.3750000), wk =   0.0078125
        k(  217) = (   0.3750000  -0.2500000  -0.2500000), wk =   0.0078125
        k(  218) = (   0.3750000  -0.2500000  -0.1250000), wk =   0.0078125
        k(  219) = (   0.3750000  -0.1250000   0.0000000), wk =   0.0078125
        k(  220) = (   0.3750000  -0.1250000   0.1250000), wk =   0.0078125
        k(  221) = (   0.3750000  -0.1250000   0.2500000), wk =   0.0078125
        k(  222) = (   0.3750000  -0.1250000   0.3750000), wk =   0.0078125
        k(  223) = (   0.3750000  -0.1250000  -0.5000000), wk =   0.0078125
        k(  224) = (   0.3750000  -0.1250000  -0.3750000), wk =   0.0078125
        k(  225) = (   0.3750000  -0.1250000  -0.2500000), wk =   0.0078125
        k(  226) = (   0.3750000  -0.1250000  -0.1250000), wk =   0.0078125
        k(  227) = (  -0.5000000   0.0000000  -0.0000000), wk =   0.0039062
        k(  228) = (  -0.5000000  -0.0000000   0.1250000), wk =   0.0078125
        k(  229) = (  -0.5000000  -0.0000000   0.2500000), wk =   0.0078125
        k(  230) = (  -0.5000000  -0.0000000   0.3750000), wk =   0.0078125
        k(  231) = (  -0.5000000   0.0000000  -0.5000000), wk =   0.0039062
        k(  232) = (  -0.5000000   0.1250000  -0.0000000), wk =   0.0078125
        k(  233) = (  -0.5000000   0.1250000   0.1250000), wk =   0.0078125
        k(  234) = (  -0.5000000   0.1250000   0.2500000), wk =   0.0078125
        k(  235) = (  -0.5000000   0.1250000   0.3750000), wk =   0.0078125
        k(  236) = (  -0.5000000   0.1250000  -0.5000000), wk =   0.0078125
        k(  237) = (  -0.5000000   0.1250000  -0.3750000), wk =   0.0078125
        k(  238) = (  -0.5000000   0.1250000  -0.2500000), wk =   0.0078125
        k(  239) = (  -0.5000000   0.1250000  -0.1250000), wk =   0.0078125
        k(  240) = (  -0.5000000   0.2500000  -0.0000000), wk =   0.0078125
        k(  241) = (  -0.5000000   0.2500000   0.1250000), wk =   0.0078125
        k(  242) = (  -0.5000000   0.2500000   0.2500000), wk =   0.0078125
        k(  243) = (  -0.5000000   0.2500000   0.3750000), wk =   0.0078125
        k(  244) = (  -0.5000000   0.2500000  -0.5000000), wk =   0.0078125
        k(  245) = (  -0.5000000   0.2500000  -0.3750000), wk =   0.0078125
        k(  246) = (  -0.5000000   0.2500000  -0.2500000), wk =   0.0078125
        k(  247) = (  -0.5000000   0.2500000  -0.1250000), wk =   0.0078125
        k(  248) = (  -0.5000000   0.3750000  -0.0000000), wk =   0.0078125
        k(  249) = (  -0.5000000   0.3750000   0.1250000), wk =   0.0078125
        k(  250) = (  -0.5000000   0.3750000   0.2500000), wk =   0.0078125
        k(  251) = (  -0.5000000   0.3750000   0.3750000), wk =   0.0078125
        k(  252) = (  -0.5000000   0.3750000  -0.5000000), wk =   0.0078125
        k(  253) = (  -0.5000000   0.3750000  -0.3750000), wk =   0.0078125
        k(  254) = (  -0.5000000   0.3750000  -0.2500000), wk =   0.0078125
        k(  255) = (  -0.5000000   0.3750000  -0.1250000), wk =   0.0078125
        k(  256) = (  -0.5000000  -0.5000000   0.0000000), wk =   0.0039062
        k(  257) = (  -0.5000000  -0.5000000   0.1250000), wk =   0.0078125
        k(  258) = (  -0.5000000  -0.5000000   0.2500000), wk =   0.0078125
        k(  259) = (  -0.5000000  -0.5000000   0.3750000), wk =   0.0078125
        k(  260) = (  -0.5000000  -0.5000000  -0.5000000), wk =   0.0039062

     Dense  grid:    76249 G-vectors     FFT dimensions: (  54,  54,  72)

     Smooth grid:    29665 G-vectors     FFT dimensions: (  40,  40,  50)

     Dynamical RAM for                 wfc:       0.09 MB

     Dynamical RAM for     wfc (w. buffer):       6.05 MB

     Dynamical RAM for           str. fact:       0.15 MB

     Dynamical RAM for           local pot:       0.00 MB

     Dynamical RAM for          nlocal pot:       0.22 MB

     Dynamical RAM for                qrad:       4.02 MB

     Dynamical RAM for          rho,v,vnew:       0.55 MB

     Dynamical RAM for               rhoin:       0.18 MB

     Dynamical RAM for            rho*nmix:       1.16 MB

     Dynamical RAM for           G-vectors:       0.29 MB

     Dynamical RAM for          h,s,v(r/c):       0.12 MB

     Dynamical RAM for          <psi|beta>:       0.02 MB

     Dynamical RAM for                 psi:       0.37 MB

     Dynamical RAM for                hpsi:       0.37 MB

     Dynamical RAM for                spsi:       0.37 MB

     Dynamical RAM for      wfcinit/wfcrot:       0.27 MB

     Dynamical RAM for           addusdens:       3.47 MB

     Dynamical RAM for          addusforce:       3.61 MB

     Dynamical RAM for         addusstress:       3.68 MB

     Estimated static dynamical RAM per process >      13.39 MB

     Estimated max dynamical RAM per process >      17.07 MB

     Estimated total dynamical RAM >       1.07 GB

     Check: negative core charge=   -0.000003

     Initial potential from superposition of free atoms

     starting charge   51.99974, renormalised to   52.00000
     Starting wfcs are   34 randomized atomic wfcs

     total cpu time spent up to now is        2.6 secs

     Self-consistent Calculation

     iteration #  1     ecut=    80.00 Ry     beta= 0.50
     Davidson diagonalization with overlap
     ethr =  1.00E-02,  avg # of iterations =  1.0

     total cpu time spent up to now is        3.5 secs

     total energy              =    -986.75638920 Ry
     Harris-Foulkes estimate   =    -987.27123866 Ry
     estimated scf accuracy    <       0.80926770 Ry

     iteration #  2     ecut=    80.00 Ry     beta= 0.50
     Davidson diagonalization with overlap
     ethr =  1.56E-03,  avg # of iterations =  3.0

     total cpu time spent up to now is        4.8 secs

     total energy              =    -986.99549913 Ry
     Harris-Foulkes estimate   =    -987.15728299 Ry
     estimated scf accuracy    <       0.37159736 Ry

     iteration #  3     ecut=    80.00 Ry     beta= 0.50
     Davidson diagonalization with overlap
     ethr =  7.15E-04,  avg # of iterations =  2.1

     total cpu time spent up to now is        5.9 secs

     total energy              =    -987.06240633 Ry
     Harris-Foulkes estimate   =    -987.06468765 Ry
     estimated scf accuracy    <       0.00677158 Ry

     iteration #  4     ecut=    80.00 Ry     beta= 0.50
     Davidson diagonalization with overlap
     ethr =  1.30E-05,  avg # of iterations =  2.0

     total cpu time spent up to now is        7.1 secs

     total energy              =    -987.06298677 Ry
     Harris-Foulkes estimate   =    -987.06342639 Ry
     estimated scf accuracy    <       0.00149863 Ry

     iteration #  5     ecut=    80.00 Ry     beta= 0.50
     Davidson diagonalization with overlap
     ethr =  2.88E-06,  avg # of iterations =  2.0

     total cpu time spent up to now is        8.1 secs

     total energy              =    -987.06313751 Ry
     Harris-Foulkes estimate   =    -987.06314519 Ry
     estimated scf accuracy    <       0.00001595 Ry

     iteration #  6     ecut=    80.00 Ry     beta= 0.50
     Davidson diagonalization with overlap
     ethr =  3.07E-08,  avg # of iterations =  2.5

     total cpu time spent up to now is        9.4 secs

     total energy              =    -987.06314046 Ry
     Harris-Foulkes estimate   =    -987.06314024 Ry
     estimated scf accuracy    <       0.00000403 Ry

     iteration #  7     ecut=    80.00 Ry     beta= 0.50
     Davidson diagonalization with overlap
     ethr =  7.76E-09,  avg # of iterations =  2.0

     total cpu time spent up to now is       10.4 secs

     End of self-consistent calculation

          k = 0.0000 0.0000 0.0000 (  3655 PWs)   bands (ev):

  -113.8036-113.8030 -68.1882 -68.1813 -68.1532 -68.1532 -68.1511 -68.1511
    -8.7781  -7.5932   3.4109   3.4109   3.5113   3.5114   4.1964   4.6456
     4.6456   4.6949   5.0313   5.0313   5.4281   8.4112   8.5047   8.5047
     9.2280   9.2280

     occupation numbers 
     1.0000   1.0000   1.0000   1.0000   1.0000   1.0000   1.0000   1.0000
     1.0000   1.0000   1.0000   1.0000   1.0000   1.0000   1.0000   1.0000
     1.0000   1.0000   1.0000   1.0000   1.0000   1.0000   1.0000   1.0000
     1.0000   1.0000

          k =-0.0000-0.0000 0.0935 (  3667 PWs)   bands (ev):

  -113.8036-113.8031 -68.1880 -68.1817 -68.1531 -68.1531 -68.1512 -68.1512
    -8.7335  -7.6376   3.4041   3.4041   3.4939   3.4939   4.0228   4.5959
     4.6736   4.6736   5.0270   5.0270   5.6861   8.1416   8.5394   8.5394
     9.2090   9.2091

     occupation numbers 
     1.0000   1.0000   1.0000   1.0000   1.0000   1.0000   1.0000   1.0000
     1.0000   1.0000   1.0000   1.0000   1.0000   1.0000   1.0000   1.0000
     1.0000   1.0000   1.0000   1.0000   1.0000   1.0000   1.0000   1.0000
     1.0000   1.0000

          k =-0.0000-0.0000 0.1870 (  3672 PWs)   bands (ev):

  -113.8036-113.8031 -68.1872 -68.1825 -68.1529 -68.1529 -68.1514 -68.1514
    -8.6060  -7.7648   3.3891   3.3891   3.4529   3.4529   3.7767   4.3374
     4.7448   4.7448   5.0105   5.0105   6.1712   7.7174   8.6357   8.6357
     9.1508   9.1508

     occupation numbers 
     1.0000   1.0000   1.0000   1.0000   1.0000   1.0000   1.0000   1.0000
     1.0000   1.0000   1.0000   1.0000   1.0000   1.0000   1.0000   1.0000
     1.0000   1.0000   1.0000   1.0000   1.0000   1.0000   1.0000   1.0000
     1.0000   1.0000

          k =-0.0000-0.0000 0.2805 (  3708 PWs)   bands (ev):

  -113.8035-113.8032 -68.1862 -68.1836 -68.1526 -68.1526 -68.1518 -68.1518
    -8.4137  -7.9573   3.3785   3.3785   3.4107   3.4107   3.6795   4.0229
     4.8327   4.8327   4.9741   4.9741   6.6353   7.3563   8.7723   8.7723
     9.0525   9.0525

     occupation numbers 
     1.0000   1.0000   1.0000   1.0000   1.0000   1.0000   1.0000   1.0000
     1.0000   1.0000   1.0000   1.0000   1.0000   1.0000   1.0000   1.0000
     1.0000   1.0000   1.0000   1.0000   1.0000   1.0000   1.0000   1.0000
     1.0000   1.0000

          k = 0.0000 0.0000-0.3740 (  3732 PWs)   bands (ev):

  -113.8034-113.8033 -68.1850 -68.1848 -68.1523 -68.1523 -68.1521 -68.1521
    -8.1856  -8.1856   3.3840   3.3840   3.3840   3.3840   3.7736   3.7737
     4.9136   4.9136   4.9137   4.9137   7.0197   7.0197   8.9203   8.9203
     8.9204   8.9204

     occupation numbers 
     1.0000   1.0000   1.0000   1.0000   1.0000   1.0000   1.0000   1.0000
     1.0000   1.0000   1.0000   1.0000   1.0000   1.0000   1.0000   1.0000
     1.0000   1.0000   1.0000   1.0000   1.0000   1.0000   1.0000   1.0000
     1.0000   1.0000

          k =-0.0000 0.1443-0.0000 (  3686 PWs)   bands (ev):

  -113.8036-113.8031 -68.1880 -68.1816 -68.1533 -68.1533 -68.1514 -68.1511
    -8.6903  -7.5789   3.3867   3.4791   3.4804   3.6173   4.1010   4.5761
     4.6221   4.7325   5.0455   5.2888   5.4199   7.9862   8.2367   8.3699
     8.4379   9.0573

     occupation numbers 
     1.0000   1.0000   1.0000   1.0000   1.0000   1.0000   1.0000   1.0000
     1.0000   1.0000   1.0000   1.0000   1.0000   1.0000   1.0000   1.0000
     1.0000   1.0000   1.0000   1.0000   1.0000   1.0000   1.0000   1.0000
     1.0000   1.0000

          k =-0.0000 0.1443 0.0935 (  3693 PWs)   bands (ev):

  -113.8036-113.8031 -68.1878 -68.1819 -68.1532 -68.1532 -68.1514 -68.1512
    -8.6476  -7.6193   3.3670   3.4544   3.4745   3.5971   3.9731   4.5014
     4.6521   4.7355   5.0393   5.1524   5.7649   7.8742   8.0879   8.2751
     8.8326   9.0344

     occupation numbers 
     1.0000   1.0000   1.0000   1.0000   1.0000   1.0000   1.0000   1.0000
     1.0000   1.0000   1.0000   1.0000   1.0000   1.0000   1.0000   1.0000
     1.0000   1.0000   1.0000   1.0000   1.0000   1.0000   1.0000   1.0000
     1.0000   1.0000

          k =-0.0000 0.1443 0.1870 (  3703 PWs)   bands (ev):

  -113.8036-113.8031 -68.1871 -68.1826 -68.1530 -68.1530 -68.1516 -68.1514
    -8.5258  -7.7361   3.3104   3.3932   3.4624   3.5498   3.7882   4.2681
     4.7280   4.7900   5.0177   5.0807   6.2364   7.4875   8.2573   8.3817
     8.9653   9.0284

     occupation numbers 
     1.0000   1.0000   1.0000   1.0000   1.0000   1.0000   1.0000   1.0000
     1.0000   1.0000   1.0000   1.0000   1.0000   1.0000   1.0000   1.0000
     1.0000   1.0000   1.0000   1.0000   1.0000   1.0000   1.0000   1.0000
     1.0000   1.0000

          k =-0.0000 0.1443 0.2805 (  3692 PWs)   bands (ev):

  -113.8035-113.8032 -68.1861 -68.1837 -68.1527 -68.1526 -68.1519 -68.1518
    -8.3430  -7.9142   3.2571   3.3246   3.4561   3.5006   3.7220   3.9883
     4.8212   4.8743   4.9749   5.0255   6.6343   7.1922   8.5243   8.5337
     8.8509   8.9908

     occupation numbers 
     1.0000   1.0000   1.0000   1.0000   1.0000   1.0000   1.0000   1.0000
     1.0000   1.0000   1.0000   1.0000   1.0000   1.0000   1.0000   1.0000
     1.0000   1.0000   1.0000   1.0000   1.0000   1.0000   1.0000   1.0000
     1.0000   1.0000

          k = 0.0000 0.1443-0.3740 (  3700 PWs)   bands (ev):

  -113.8034-113.8032 -68.1850 -68.1848 -68.1524 -68.1523 -68.1522 -68.1521
    -8.1277  -8.1277   3.2674   3.2674   3.4673   3.4674   3.7888   3.7889
     4.9079   4.9080   4.9574   4.9575   6.9342   6.9342   8.7001   8.7001
     8.7977   8.7977

     occupation numbers 
     1.0000   1.0000   1.0000   1.0000   1.0000   1.0000   1.0000   1.0000
     1.0000   1.0000   1.0000   1.0000   1.0000   1.0000   1.0000   1.0000
     1.0000   1.0000   1.0000   1.0000   1.0000   1.0000   1.0000   1.0000
     1.0000   1.0000

          k = 0.0000 0.1443-0.2805 (  3692 PWs)   bands (ev):

  -113.8035-113.8032 -68.1861 -68.1837 -68.1527 -68.1526 -68.1519 -68.1518
    -8.3430  -7.9142   3.2571   3.3246   3.4561   3.5006   3.7220   3.9883
     4.8212   4.8743   4.9749   5.0255   6.6343   7.1923   8.5243   8.5337
     8.8509   8.9908

     occupation numbers 
     1.0000   1.0000   1.0000   1.0000   1.0000   1.0000   1.0000   1.0000
     1.0000   1.0000   1.0000   1.0000   1.0000   1.0000   1.0000   1.0000
     1.0000   1.0000   1.0000   1.0000   1.0000   1.0000   1.0000   1.0000
     1.0000   1.0000

          k = 0.0000 0.1443-0.1870 (  3703 PWs)   bands (ev):

  -113.8036-113.8031 -68.1871 -68.1826 -68.1530 -68.1530 -68.1516 -68.1514
    -8.5258  -7.7361   3.3104   3.3932   3.4624   3.5498   3.7882   4.2681
     4.7280   4.7900   5.0177   5.0807   6.2364   7.4875   8.2573   8.3817
     8.9653   9.0284

     occupation numbers 
     1.0000   1.0000   1.0000   1.0000   1.0000   1.0000   1.0000   1.0000
     1.0000   1.0000   1.0000   1.0000   1.0000   1.0000   1.0000   1.0000
     1.0000   1.0000   1.0000   1.0000   1.0000   1.0000   1.0000   1.0000
     1.0000   1.0000

          k =-0.0000 0.1443-0.0935 (  3693 PWs)   bands (ev):

  -113.8036-113.8031 -68.1878 -68.1819 -68.1532 -68.1532 -68.1514 -68.1512
    -8.6476  -7.6193   3.3670   3.4544   3.4745   3.5971   3.9731   4.5014
     4.6521   4.7355   5.0393   5.1524   5.7649   7.8742   8.0879   8.2751
     8.8326   9.0344

     occupation numbers 
     1.0000   1.0000   1.0000   1.0000   1.0000   1.0000   1.0000   1.0000
     1.0000   1.0000   1.0000   1.0000   1.0000   1.0000   1.0000   1.0000
     1.0000   1.0000   1.0000   1.0000   1.0000   1.0000   1.0000   1.0000
     1.0000   1.0000

          k =-0.0000 0.2887-0.0000 (  3710 PWs)   bands (ev):

  -113.8036-113.8031 -68.1873 -68.1823 -68.1536 -68.1535 -68.1520 -68.1512
    -8.4582  -7.5599   3.2782   3.5458   3.6892   3.8840   4.0038   4.4322
     4.5740   4.7919   5.0737   5.3721   5.8318   6.9342   7.4018   7.6038
     8.2677   8.6186

     occupation numbers 
     1.0000   1.0000   1.0000   1.0000   1.0000   1.0000   1.0000   1.0000
     1.0000   1.0000   1.0000   1.0000   1.0000   1.0000   1.0000   1.0000
     1.0000   1.0000   1.0000   1.0000   1.0000   1.0000   1.0000   1.0000
     1.0000   1.0000

          k =-0.0000 0.2887 0.0935 (  3715 PWs)   bands (ev):

  -113.8035-113.8031 -68.1872 -68.1825 -68.1536 -68.1534 -68.1520 -68.1513
    -8.4212  -7.5896   3.2501   3.4790   3.6844   3.8569   3.9316   4.3420
     4.6096   4.8123   5.0628   5.2781   6.0201   7.0436   7.2512   7.6508
     8.5327   8.5887

     occupation numbers 
     1.0000   1.0000   1.0000   1.0000   1.0000   1.0000   1.0000   1.0000
     1.0000   1.0000   1.0000   1.0000   1.0000   1.0000   1.0000   1.0000
     1.0000   1.0000   1.0000   1.0000   1.0000   1.0000   1.0000   1.0000
     1.0000   1.0000

          k =-0.0000 0.2887 0.1870 (  3713 PWs)   bands (ev):

  -113.8035-113.8031 -68.1866 -68.1831 -68.1534 -68.1532 -68.1522 -68.1515
    -8.3166  -7.6769   3.1639   3.3241   3.6753   3.7960   3.8249   4.1323
     4.6955   4.8700   5.0294   5.1840   6.2467   6.8601   7.6349   7.7810
     8.4994   8.8734

     occupation numbers 
     1.0000   1.0000   1.0000   1.0000   1.0000   1.0000   1.0000   1.0000
     1.0000   1.0000   1.0000   1.0000   1.0000   1.0000   1.0000   1.0000
     1.0000   1.0000   1.0000   1.0000   1.0000   1.0000   1.0000   1.0000
     1.0000   1.0000

          k =-0.0000 0.2887 0.2805 (  3709 PWs)   bands (ev):

  -113.8035-113.8032 -68.1859 -68.1839 -68.1531 -68.1528 -68.1524 -68.1519
    -8.1622  -7.8143   3.0716   3.1765   3.6739   3.7345   3.7764   3.9246
     4.7977   4.9519   4.9728   5.1125   6.3997   6.6681   7.9659   8.2225
     8.3551   8.9494

     occupation numbers 
     1.0000   1.0000   1.0000   1.0000   1.0000   1.0000   1.0000   1.0000
     1.0000   1.0000   1.0000   1.0000   1.0000   1.0000   1.0000   1.0000
     1.0000   1.0000   1.0000   1.0000   1.0000   1.0000   1.0000   1.0000
     1.0000   1.0000

          k = 0.0000 0.2887-0.3740 (  3692 PWs)   bands (ev):

  -113.8034-113.8032 -68.1850 -68.1848 -68.1528 -68.1526 -68.1524 -68.1523
    -7.9848  -7.9848   3.0746   3.0746   3.6919   3.6920   3.8039   3.8040
     4.8939   4.8940   5.0366   5.0366   6.5278   6.5278   8.1689   8.1689
     8.7072   8.7072

     occupation numbers 
     1.0000   1.0000   1.0000   1.0000   1.0000   1.0000   1.0000   1.0000
     1.0000   1.0000   1.0000   1.0000   1.0000   1.0000   1.0000   1.0000
     1.0000   1.0000   1.0000   1.0000   1.0000   1.0000   1.0000   1.0000
     1.0000   1.0000

          k = 0.0000 0.2887-0.2805 (  3709 PWs)   bands (ev):

  -113.8035-113.8032 -68.1859 -68.1839 -68.1531 -68.1528 -68.1524 -68.1519
    -8.1622  -7.8143   3.0716   3.1766   3.6739   3.7345   3.7763   3.9246
     4.7978   4.9519   4.9728   5.1125   6.3997   6.6681   7.9659   8.2225
     8.3551   8.9494

     occupation numbers 
     1.0000   1.0000   1.0000   1.0000   1.0000   1.0000   1.0000   1.0000
     1.0000   1.0000   1.0000   1.0000   1.0000   1.0000   1.0000   1.0000
     1.0000   1.0000   1.0000   1.0000   1.0000   1.0000   1.0000   1.0000
     1.0000   1.0000

          k =-0.0000 0.2887-0.1870 (  3713 PWs)   bands (ev):

  -113.8035-113.8031 -68.1866 -68.1831 -68.1534 -68.1532 -68.1522 -68.1515
    -8.3166  -7.6769   3.1639   3.3241   3.6753   3.7960   3.8249   4.1323
     4.6955   4.8700   5.0294   5.1839   6.2467   6.8601   7.6349   7.7810
     8.4994   8.8734

     occupation numbers 
     1.0000   1.0000   1.0000   1.0000   1.0000   1.0000   1.0000   1.0000
     1.0000   1.0000   1.0000   1.0000   1.0000   1.0000   1.0000   1.0000
     1.0000   1.0000   1.0000   1.0000   1.0000   1.0000   1.0000   1.0000
     1.0000   1.0000

          k =-0.0000 0.2887-0.0935 (  3715 PWs)   bands (ev):

  -113.8035-113.8031 -68.1872 -68.1825 -68.1536 -68.1534 -68.1520 -68.1513
    -8.4212  -7.5896   3.2501   3.4790   3.6844   3.8569   3.9316   4.3420
     4.6096   4.8123   5.0628   5.2781   6.0201   7.0436   7.2512   7.6508
     8.5327   8.5887

     occupation numbers 
     1.0000   1.0000   1.0000   1.0000   1.0000   1.0000   1.0000   1.0000
     1.0000   1.0000   1.0000   1.0000   1.0000   1.0000   1.0000   1.0000
     1.0000   1.0000   1.0000   1.0000   1.0000   1.0000   1.0000   1.0000
     1.0000   1.0000

          k =-0.0000 0.4330-0.0000 (  3714 PWs)   bands (ev):

  -113.8035-113.8031 -68.1864 -68.1831 -68.1540 -68.1537 -68.1525 -68.1512
    -8.1744  -7.5856   3.2288   3.7228   3.9622   4.0473   4.1902   4.2695
     4.5487   4.8270   5.0963   5.2326   6.0854   6.3803   6.5213   6.9386
     8.0390   8.1416

     occupation numbers 
     1.0000   1.0000   1.0000   1.0000   1.0000   1.0000   1.0000   1.0000
     1.0000   1.0000   1.0000   1.0000   1.0000   1.0000   1.0000   1.0000
     1.0000   1.0000   1.0000   1.0000   1.0000   1.0000   1.0000   1.0000
     1.0000   1.0000

          k =-0.0000 0.4330 0.0935 (  3721 PWs)   bands (ev):

  -113.8035-113.8031 -68.1864 -68.1833 -68.1539 -68.1536 -68.1526 -68.1513
    -8.1465  -7.6010   3.1880   3.6143   3.9573   3.9983   4.1523   4.1891
     4.5921   4.8537   5.0785   5.2107   5.9343   6.3049   6.8999   6.9979
     8.1064   8.2889

     occupation numbers 
     1.0000   1.0000   1.0000   1.0000   1.0000   1.0000   1.0000   1.0000
     1.0000   1.0000   1.0000   1.0000   1.0000   1.0000   1.0000   1.0000
     1.0000   1.0000   1.0000   1.0000   1.0000   1.0000   1.0000   1.0000
     1.0000   1.0000

          k =-0.0000 0.4330 0.1870 (  3701 PWs)   bands (ev):

  -113.8034-113.8032 -68.1860 -68.1837 -68.1537 -68.1534 -68.1527 -68.1516
    -8.0687  -7.6484   3.0731   3.3684   3.9003   3.9478   4.0401   4.0777
     4.6842   4.9115   5.0306   5.1656   5.8721   6.1263   7.1585   7.6065
     8.0021   8.7235

     occupation numbers 
     1.0000   1.0000   1.0000   1.0000   1.0000   1.0000   1.0000   1.0000
     1.0000   1.0000   1.0000   1.0000   1.0000   1.0000   1.0000   1.0000
     1.0000   1.0000   1.0000   1.0000   1.0000   1.0000   1.0000   1.0000
     1.0000   1.0000

          k =-0.0000 0.4330 0.2805 (  3709 PWs)   bands (ev):

  -113.8034-113.8032 -68.1856 -68.1843 -68.1534 -68.1530 -68.1528 -68.1520
    -7.9579  -7.7288   2.9613   3.1209   3.8386   3.9182   3.9462   4.0095
     4.7849   4.9621   4.9813   5.1126   5.8929   6.0120   7.3802   7.8344
     8.2949   8.9467

     occupation numbers 
     1.0000   1.0000   1.0000   1.0000   1.0000   1.0000   1.0000   1.0000
     1.0000   1.0000   1.0000   1.0000   1.0000   1.0000   1.0000   1.0000
     1.0000   1.0000   1.0000   1.0000   1.0000   1.0000   1.0000   1.0000
     1.0000   1.0000

          k = 0.0000 0.4330-0.3740 (  3718 PWs)   bands (ev):

  -113.8034-113.8032 -68.1850 -68.1848 -68.1532 -68.1530 -68.1526 -68.1524
    -7.8370  -7.8370   2.9669   2.9669   3.8474   3.8475   3.9646   3.9647
     4.8791   4.8792   5.0507   5.0508   5.9425   5.9425   7.6182   7.6182
     8.7889   8.7890

     occupation numbers 
     1.0000   1.0000   1.0000   1.0000   1.0000   1.0000   1.0000   1.0000
     1.0000   1.0000   1.0000   1.0000   1.0000   1.0000   1.0000   1.0000
     1.0000   1.0000   1.0000   1.0000   1.0000   1.0000   1.0000   1.0000
     1.0000   1.0000

          k =-0.0000 0.4330-0.2805 (  3709 PWs)   bands (ev):

  -113.8034-113.8032 -68.1856 -68.1843 -68.1534 -68.1530 -68.1528 -68.1520
    -7.9579  -7.7288   2.9613   3.1209   3.8385   3.9182   3.9462   4.0095
     4.7849   4.9621   4.9813   5.1126   5.8929   6.0120   7.3802   7.8344
     8.2949   8.9467

     occupation numbers 
     1.0000   1.0000   1.0000   1.0000   1.0000   1.0000   1.0000   1.0000
     1.0000   1.0000   1.0000   1.0000   1.0000   1.0000   1.0000   1.0000
     1.0000   1.0000   1.0000   1.0000   1.0000   1.0000   1.0000   1.0000
     1.0000   1.0000

          k =-0.0000 0.4330-0.1870 (  3701 PWs)   bands (ev):

  -113.8034-113.8032 -68.1860 -68.1837 -68.1537 -68.1534 -68.1527 -68.1516
    -8.0687  -7.6484   3.0731   3.3684   3.9003   3.9478   4.0402   4.0777
     4.6842   4.9116   5.0306   5.1656   5.8721   6.1263   7.1585   7.6065
     8.0021   8.7235

     occupation numbers 
     1.0000   1.0000   1.0000   1.0000   1.0000   1.0000   1.0000   1.0000
     1.0000   1.0000   1.0000   1.0000   1.0000   1.0000   1.0000   1.0000
     1.0000   1.0000   1.0000   1.0000   1.0000   1.0000   1.0000   1.0000
     1.0000   1.0000

          k =-0.0000 0.4330-0.0935 (  3721 PWs)   bands (ev):

  -113.8035-113.8031 -68.1864 -68.1833 -68.1539 -68.1536 -68.1526 -68.1513
    -8.1465  -7.6010   3.1880   3.6143   3.9573   3.9983   4.1523   4.1891
     4.5921   4.8537   5.0785   5.2107   5.9343   6.3049   6.8999   6.9979
     8.1064   8.2889

     occupation numbers 
     1.0000   1.0000   1.0000   1.0000   1.0000   1.0000   1.0000   1.0000
     1.0000   1.0000   1.0000   1.0000   1.0000   1.0000   1.0000   1.0000
     1.0000   1.0000   1.0000   1.0000   1.0000   1.0000   1.0000   1.0000
     1.0000   1.0000

          k = 0.0000-0.5774 0.0000 (  3710 PWs)   bands (ev):

  -113.8034-113.8032 -68.1859 -68.1836 -68.1540 -68.1538 -68.1528 -68.1512
    -8.0166  -7.6344   3.2433   3.8178   4.1013   4.1418   4.2134   4.3209
     4.5720   4.8093   5.0915   5.1045   5.8958   5.9452   6.6288   6.7704
     7.8604   7.9282

     occupation numbers 
     1.0000   1.0000   1.0000   1.0000   1.0000   1.0000   1.0000   1.0000
     1.0000   1.0000   1.0000   1.0000   1.0000   1.0000   1.0000   1.0000
     1.0000   1.0000   1.0000   1.0000   1.0000   1.0000   1.0000   1.0000
     1.0000   1.0000

          k = 0.0000-0.5774 0.0935 (  3724 PWs)   bands (ev):

  -113.8034-113.8032 -68.1858 -68.1838 -68.1540 -68.1537 -68.1528 -68.1513
    -7.9952  -7.6410   3.1925   3.7055   4.0509   4.0964   4.1733   4.2802
     4.6155   4.8398   5.0811   5.0840   5.8113   5.8422   6.6971   7.1069
     7.8912   8.1236

     occupation numbers 
     1.0000   1.0000   1.0000   1.0000   1.0000   1.0000   1.0000   1.0000
     1.0000   1.0000   1.0000   1.0000   1.0000   1.0000   1.0000   1.0000
     1.0000   1.0000   1.0000   1.0000   1.0000   1.0000   1.0000   1.0000
     1.0000   1.0000

          k = 0.0000-0.5774 0.1870 (  3716 PWs)   bands (ev):

  -113.8034-113.8032 -68.1856 -68.1840 -68.1538 -68.1534 -68.1529 -68.1516
    -7.9366  -7.6635   3.0575   3.4258   3.9188   4.0767   4.0866   4.2060
     4.7003   4.8933   5.0233   5.0631   5.7148   5.7463   6.8778   7.7587
     7.7814   8.6183

     occupation numbers 
     1.0000   1.0000   1.0000   1.0000   1.0000   1.0000   1.0000   1.0000
     1.0000   1.0000   1.0000   1.0000   1.0000   1.0000   1.0000   1.0000
     1.0000   1.0000   1.0000   1.0000   1.0000   1.0000   1.0000   1.0000
     1.0000   1.0000

          k = 0.0000-0.5774 0.2805 (  3724 PWs)   bands (ev):

  -113.8034-113.8032 -68.1854 -68.1845 -68.1536 -68.1530 -68.1530 -68.1520
    -7.8564  -7.7074   2.9354   3.1272   3.8695   3.9726   4.0836   4.1410
     4.7889   4.9444   4.9508   5.0313   5.6900   5.7112   7.1204   7.6047
     8.4034   8.9292

     occupation numbers 
     1.0000   1.0000   1.0000   1.0000   1.0000   1.0000   1.0000   1.0000
     1.0000   1.0000   1.0000   1.0000   1.0000   1.0000   1.0000   1.0000
     1.0000   1.0000   1.0000   1.0000   1.0000   1.0000   1.0000   1.0000
     1.0000   1.0000

          k = 0.0000-0.5774-0.3740 (  3716 PWs)   bands (ev):

  -113.8034-113.8032 -68.1850 -68.1848 -68.1534 -68.1532 -68.1526 -68.1524
    -7.7743  -7.7743   2.9457   2.9457   3.8958   3.8959   4.0995   4.0995
     4.8724   4.8725   4.9908   4.9909   5.6969   5.6970   7.3755   7.3756
     8.8463   8.8463

     occupation numbers 
     1.0000   1.0000   1.0000   1.0000   1.0000   1.0000   1.0000   1.0000
     1.0000   1.0000   1.0000   1.0000   1.0000   1.0000   1.0000   1.0000
     1.0000   1.0000   1.0000   1.0000   1.0000   1.0000   1.0000   1.0000
     1.0000   1.0000

          k = 0.1250 0.0722-0.0000 (  3686 PWs)   bands (ev):

  -113.8036-113.8031 -68.1880 -68.1816 -68.1533 -68.1533 -68.1514 -68.1511
    -8.6903  -7.5789   3.3867   3.4791   3.4804   3.6173   4.1010   4.5761
     4.6220   4.7325   5.0455   5.2888   5.4199   7.9862   8.2367   8.3699
     8.4379   9.0573

     occupation numbers 
     1.0000   1.0000   1.0000   1.0000   1.0000   1.0000   1.0000   1.0000
     1.0000   1.0000   1.0000   1.0000   1.0000   1.0000   1.0000   1.0000
     1.0000   1.0000   1.0000   1.0000   1.0000   1.0000   1.0000   1.0000
     1.0000   1.0000

          k = 0.1250 0.0722 0.0935 (  3693 PWs)   bands (ev):

  -113.8036-113.8031 -68.1878 -68.1819 -68.1532 -68.1532 -68.1514 -68.1512
    -8.6476  -7.6193   3.3670   3.4544   3.4745   3.5971   3.9731   4.5014
     4.6521   4.7355   5.0393   5.1524   5.7649   7.8742   8.0879   8.2751
     8.8326   9.0344

     occupation numbers 
     1.0000   1.0000   1.0000   1.0000   1.0000   1.0000   1.0000   1.0000
     1.0000   1.0000   1.0000   1.0000   1.0000   1.0000   1.0000   1.0000
     1.0000   1.0000   1.0000   1.0000   1.0000   1.0000   1.0000   1.0000
     1.0000   1.0000

          k = 0.1250 0.0722 0.1870 (  3703 PWs)   bands (ev):

  -113.8036-113.8031 -68.1871 -68.1826 -68.1530 -68.1530 -68.1516 -68.1514
    -8.5258  -7.7361   3.3104   3.3932   3.4624   3.5498   3.7882   4.2681
     4.7280   4.7900   5.0177   5.0807   6.2364   7.4875   8.2573   8.3817
     8.9653   9.0284

     occupation numbers 
     1.0000   1.0000   1.0000   1.0000   1.0000   1.0000   1.0000   1.0000
     1.0000   1.0000   1.0000   1.0000   1.0000   1.0000   1.0000   1.0000
     1.0000   1.0000   1.0000   1.0000   1.0000   1.0000   1.0000   1.0000
     1.0000   1.0000

          k = 0.1250 0.0722 0.2805 (  3692 PWs)   bands (ev):

  -113.8035-113.8032 -68.1861 -68.1837 -68.1527 -68.1526 -68.1519 -68.1518
    -8.3430  -7.9142   3.2571   3.3246   3.4561   3.5006   3.7220   3.9883
     4.8212   4.8743   4.9749   5.0255   6.6343   7.1922   8.5243   8.5337
     8.8509   8.9908

     occupation numbers 
     1.0000   1.0000   1.0000   1.0000   1.0000   1.0000   1.0000   1.0000
     1.0000   1.0000   1.0000   1.0000   1.0000   1.0000   1.0000   1.0000
     1.0000   1.0000   1.0000   1.0000   1.0000   1.0000   1.0000   1.0000
     1.0000   1.0000

          k = 0.1250 0.0722-0.3740 (  3700 PWs)   bands (ev):

  -113.8034-113.8032 -68.1850 -68.1848 -68.1524 -68.1523 -68.1522 -68.1521
    -8.1277  -8.1277   3.2674   3.2674   3.4673   3.4674   3.7888   3.7889
     4.9079   4.9080   4.9574   4.9575   6.9342   6.9342   8.7001   8.7001
     8.7977   8.7977

     occupation numbers 
     1.0000   1.0000   1.0000   1.0000   1.0000   1.0000   1.0000   1.0000
     1.0000   1.0000   1.0000   1.0000   1.0000   1.0000   1.0000   1.0000
     1.0000   1.0000   1.0000   1.0000   1.0000   1.0000   1.0000   1.0000
     1.0000   1.0000

          k = 0.1250 0.0722-0.2805 (  3692 PWs)   bands (ev):

  -113.8035-113.8032 -68.1861 -68.1837 -68.1527 -68.1526 -68.1519 -68.1518
    -8.3430  -7.9142   3.2571   3.3246   3.4561   3.5006   3.7220   3.9883
     4.8212   4.8743   4.9749   5.0255   6.6343   7.1922   8.5243   8.5337
     8.8509   8.9908

     occupation numbers 
     1.0000   1.0000   1.0000   1.0000   1.0000   1.0000   1.0000   1.0000
     1.0000   1.0000   1.0000   1.0000   1.0000   1.0000   1.0000   1.0000
     1.0000   1.0000   1.0000   1.0000   1.0000   1.0000   1.0000   1.0000
     1.0000   1.0000

          k = 0.1250 0.0722-0.1870 (  3703 PWs)   bands (ev):

  -113.8036-113.8031 -68.1871 -68.1826 -68.1530 -68.1530 -68.1516 -68.1514
    -8.5258  -7.7361   3.3104   3.3932   3.4624   3.5498   3.7882   4.2681
     4.7280   4.7900   5.0177   5.0807   6.2364   7.4875   8.2573   8.3817
     8.9653   9.0284

     occupation numbers 
     1.0000   1.0000   1.0000   1.0000   1.0000   1.0000   1.0000   1.0000
     1.0000   1.0000   1.0000   1.0000   1.0000   1.0000   1.0000   1.0000
     1.0000   1.0000   1.0000   1.0000   1.0000   1.0000   1.0000   1.0000
     1.0000   1.0000

          k = 0.1250 0.0722-0.0935 (  3693 PWs)   bands (ev):

  -113.8036-113.8031 -68.1878 -68.1819 -68.1532 -68.1532 -68.1514 -68.1512
    -8.6476  -7.6193   3.3670   3.4544   3.4745   3.5971   3.9731   4.5014
     4.6521   4.7355   5.0393   5.1524   5.7649   7.8742   8.0879   8.2751
     8.8326   9.0344

     occupation numbers 
     1.0000   1.0000   1.0000   1.0000   1.0000   1.0000   1.0000   1.0000
     1.0000   1.0000   1.0000   1.0000   1.0000   1.0000   1.0000   1.0000
     1.0000   1.0000   1.0000   1.0000   1.0000   1.0000   1.0000   1.0000
     1.0000   1.0000

          k = 0.1250 0.2165-0.0000 (  3699 PWs)   bands (ev):

  -113.8036-113.8031 -68.1876 -68.1821 -68.1535 -68.1535 -68.1518 -68.1512
    -8.5300  -7.5624   3.3599   3.4384   3.6496   3.7996   4.0248   4.4701
     4.5905   4.7752   5.0657   5.3912   5.6769   7.3385   7.4721   7.8918
     8.3136   8.6766

     occupation numbers 
     1.0000   1.0000   1.0000   1.0000   1.0000   1.0000   1.0000   1.0000
     1.0000   1.0000   1.0000   1.0000   1.0000   1.0000   1.0000   1.0000
     1.0000   1.0000   1.0000   1.0000   1.0000   1.0000   1.0000   1.0000
     1.0000   1.0000

          k = 0.1250 0.2165 0.0935 (  3709 PWs)   bands (ev):

  -113.8036-113.8031 -68.1874 -68.1823 -68.1534 -68.1534 -68.1518 -68.1513
    -8.4912  -7.5955   3.3411   3.3862   3.6398   3.7705   3.9396   4.3865
     4.6209   4.7905   5.0575   5.2623   5.9489   7.3343   7.4647   7.7931
     8.6244   8.6466

     occupation numbers 
     1.0000   1.0000   1.0000   1.0000   1.0000   1.0000   1.0000   1.0000
     1.0000   1.0000   1.0000   1.0000   1.0000   1.0000   1.0000   1.0000
     1.0000   1.0000   1.0000   1.0000   1.0000   1.0000   1.0000   1.0000
     1.0000   1.0000

          k = 0.1250 0.2165 0.1870 (  3701 PWs)   bands (ev):

  -113.8035-113.8031 -68.1868 -68.1829 -68.1532 -68.1532 -68.1520 -68.1515
    -8.3808  -7.6923   3.2496   3.2860   3.6194   3.7100   3.8157   4.1696
     4.7017   4.8468   5.0300   5.1628   6.2895   7.0623   7.8357   7.8674
     8.5577   8.9503

     occupation numbers 
     1.0000   1.0000   1.0000   1.0000   1.0000   1.0000   1.0000   1.0000
     1.0000   1.0000   1.0000   1.0000   1.0000   1.0000   1.0000   1.0000
     1.0000   1.0000   1.0000   1.0000   1.0000   1.0000   1.0000   1.0000
     1.0000   1.0000

          k = 0.1250 0.2165 0.2805 (  3708 PWs)   bands (ev):

  -113.8035-113.8032 -68.1859 -68.1839 -68.1529 -68.1528 -68.1522 -68.1519
    -8.2171  -7.8428   3.1351   3.2021   3.6077   3.6563   3.7624   3.9397
     4.8020   4.9233   4.9839   5.0928   6.5219   6.8524   8.0353   8.3313
     8.4180   9.0032

     occupation numbers 
     1.0000   1.0000   1.0000   1.0000   1.0000   1.0000   1.0000   1.0000
     1.0000   1.0000   1.0000   1.0000   1.0000   1.0000   1.0000   1.0000
     1.0000   1.0000   1.0000   1.0000   1.0000   1.0000   1.0000   1.0000
     1.0000   1.0000

          k = 0.1250 0.2165-0.3740 (  3692 PWs)   bands (ev):

  -113.8034-113.8032 -68.1850 -68.1848 -68.1527 -68.1525 -68.1524 -68.1522
    -8.0272  -8.0272   3.1277   3.1277   3.6192   3.6193   3.7988   3.7989
     4.8949   4.8950   5.0202   5.0203   6.6899   6.6899   8.2303   8.2304
     8.7713   8.7713

     occupation numbers 
     1.0000   1.0000   1.0000   1.0000   1.0000   1.0000   1.0000   1.0000
     1.0000   1.0000   1.0000   1.0000   1.0000   1.0000   1.0000   1.0000
     1.0000   1.0000   1.0000   1.0000   1.0000   1.0000   1.0000   1.0000
     1.0000   1.0000

          k = 0.1250 0.2165-0.2805 (  3708 PWs)   bands (ev):

  -113.8035-113.8032 -68.1859 -68.1839 -68.1529 -68.1528 -68.1522 -68.1519
    -8.2171  -7.8428   3.1351   3.2021   3.6077   3.6563   3.7624   3.9397
     4.8020   4.9233   4.9839   5.0928   6.5219   6.8524   8.0353   8.3313
     8.4180   9.0032

     occupation numbers 
     1.0000   1.0000   1.0000   1.0000   1.0000   1.0000   1.0000   1.0000
     1.0000   1.0000   1.0000   1.0000   1.0000   1.0000   1.0000   1.0000
     1.0000   1.0000   1.0000   1.0000   1.0000   1.0000   1.0000   1.0000
     1.0000   1.0000

          k = 0.1250 0.2165-0.1870 (  3701 PWs)   bands (ev):

  -113.8035-113.8031 -68.1868 -68.1829 -68.1532 -68.1532 -68.1520 -68.1515
    -8.3808  -7.6923   3.2496   3.2860   3.6194   3.7100   3.8157   4.1696
     4.7017   4.8468   5.0300   5.1628   6.2895   7.0623   7.8357   7.8674
     8.5577   8.9503

     occupation numbers 
     1.0000   1.0000   1.0000   1.0000   1.0000   1.0000   1.0000   1.0000
     1.0000   1.0000   1.0000   1.0000   1.0000   1.0000   1.0000   1.0000
     1.0000   1.0000   1.0000   1.0000   1.0000   1.0000   1.0000   1.0000
     1.0000   1.0000

          k = 0.1250 0.2165-0.0935 (  3709 PWs)   bands (ev):

  -113.8036-113.8031 -68.1874 -68.1823 -68.1534 -68.1534 -68.1518 -68.1513
    -8.4912  -7.5955   3.3411   3.3862   3.6398   3.7705   3.9396   4.3865
     4.6209   4.7905   5.0575   5.2623   5.9489   7.3343   7.4647   7.7931
     8.6244   8.6466

     occupation numbers 
     1.0000   1.0000   1.0000   1.0000   1.0000   1.0000   1.0000   1.0000
     1.0000   1.0000   1.0000   1.0000   1.0000   1.0000   1.0000   1.0000
     1.0000   1.0000   1.0000   1.0000   1.0000   1.0000   1.0000   1.0000
     1.0000   1.0000

          k = 0.1250 0.3608-0.0000 (  3709 PWs)   bands (ev):

  -113.8035-113.8031 -68.1868 -68.1828 -68.1539 -68.1536 -68.1523 -68.1513
    -8.2681  -7.5689   3.3190   3.5950   3.8845   3.9714   4.1482   4.3277
     4.5382   4.8184   5.0908   5.3088   6.1960   6.4594   6.7273   7.0535
     8.1042   8.1276

     occupation numbers 
     1.0000   1.0000   1.0000   1.0000   1.0000   1.0000   1.0000   1.0000
     1.0000   1.0000   1.0000   1.0000   1.0000   1.0000   1.0000   1.0000
     1.0000   1.0000   1.0000   1.0000   1.0000   1.0000   1.0000   1.0000
     1.0000   1.0000

          k = 0.1250 0.3608 0.0935 (  3713 PWs)   bands (ev):

  -113.8035-113.8031 -68.1866 -68.1830 -68.1538 -68.1536 -68.1524 -68.1514
    -8.2369  -7.5893   3.2852   3.5079   3.8743   3.9277   4.0963   4.2424
     4.5807   4.8406   5.0784   5.2671   6.0889   6.5882   6.8873   7.0705
     8.0588   8.4033

     occupation numbers 
[...]

  -113.8034-113.8032 -68.1856 -68.1841 -68.1538 -68.1534 -68.1527 -68.1518
    -7.9463  -7.6577   3.3599   3.3748   3.9393   3.9737   4.1059   4.1893
     4.6914   4.8305   5.0810   5.1644   5.8594   5.9899   6.1919   7.1553
     7.9646   8.6991

     occupation numbers 
     1.0000   1.0000   1.0000   1.0000   1.0000   1.0000   1.0000   1.0000
     1.0000   1.0000   1.0000   1.0000   1.0000   1.0000   1.0000   1.0000
     1.0000   1.0000   1.0000   1.0000   1.0000   1.0000   1.0000   1.0000
     1.0000   1.0000

          k =-0.5000 0.0000 0.2805 (  3706 PWs)   bands (ev):

  -113.8034-113.8032 -68.1854 -68.1845 -68.1534 -68.1532 -68.1528 -68.1523
    -7.8629  -7.7055   3.1348   3.1796   3.8977   3.8979   4.0771   4.1179
     4.7567   4.8296   5.0821   5.1308   5.8616   5.9376   6.3996   6.9398
     8.6512   9.0782

     occupation numbers 
     1.0000   1.0000   1.0000   1.0000   1.0000   1.0000   1.0000   1.0000
     1.0000   1.0000   1.0000   1.0000   1.0000   1.0000   1.0000   1.0000
     1.0000   1.0000   1.0000   1.0000   1.0000   1.0000   1.0000   1.0000
     1.0000   1.0000

          k =-0.5000 0.0000-0.3740 (  3706 PWs)   bands (ev):

  -113.8034-113.8032 -68.1850 -68.1848 -68.1532 -68.1530 -68.1528 -68.1526
    -7.7768  -7.7768   3.0709   3.0709   3.8791   3.8792   4.0797   4.0797
     4.8043   4.8043   5.1013   5.1013   5.8923   5.8923   6.6740   6.6740
     9.0703   9.0703

     occupation numbers 
     1.0000   1.0000   1.0000   1.0000   1.0000   1.0000   1.0000   1.0000
     1.0000   1.0000   1.0000   1.0000   1.0000   1.0000   1.0000   1.0000
     1.0000   1.0000   1.0000   1.0000   1.0000   1.0000   1.0000   1.0000
     1.0000   1.0000

          k =-0.5000 0.0000-0.2805 (  3706 PWs)   bands (ev):

  -113.8034-113.8032 -68.1854 -68.1845 -68.1534 -68.1532 -68.1528 -68.1523
    -7.8629  -7.7055   3.1348   3.1796   3.8977   3.8979   4.0771   4.1179
     4.7567   4.8296   5.0821   5.1308   5.8616   5.9376   6.3996   6.9398
     8.6512   9.0782

     occupation numbers 
     1.0000   1.0000   1.0000   1.0000   1.0000   1.0000   1.0000   1.0000
     1.0000   1.0000   1.0000   1.0000   1.0000   1.0000   1.0000   1.0000
     1.0000   1.0000   1.0000   1.0000   1.0000   1.0000   1.0000   1.0000
     1.0000   1.0000

          k =-0.5000 0.0000-0.1870 (  3714 PWs)   bands (ev):

  -113.8034-113.8032 -68.1856 -68.1841 -68.1538 -68.1534 -68.1527 -68.1518
    -7.9463  -7.6577   3.3599   3.3748   3.9393   3.9737   4.1059   4.1893
     4.6914   4.8305   5.0810   5.1644   5.8594   5.9899   6.1919   7.1553
     7.9646   8.6991

     occupation numbers 
     1.0000   1.0000   1.0000   1.0000   1.0000   1.0000   1.0000   1.0000
     1.0000   1.0000   1.0000   1.0000   1.0000   1.0000   1.0000   1.0000
     1.0000   1.0000   1.0000   1.0000   1.0000   1.0000   1.0000   1.0000
     1.0000   1.0000

          k =-0.5000 0.0000-0.0935 (  3711 PWs)   bands (ev):

  -113.8034-113.8032 -68.1858 -68.1837 -68.1541 -68.1535 -68.1527 -68.1515
    -8.0069  -7.6326   3.5191   3.6204   3.9959   4.0695   4.1809   4.2820
     4.6189   4.8129   5.0970   5.1949   5.9054   5.9402   6.2699   7.1682
     7.3563   8.1557

     occupation numbers 
     1.0000   1.0000   1.0000   1.0000   1.0000   1.0000   1.0000   1.0000
     1.0000   1.0000   1.0000   1.0000   1.0000   1.0000   1.0000   1.0000
     1.0000   1.0000   1.0000   1.0000   1.0000   1.0000   1.0000   1.0000
     1.0000   1.0000

          k =-0.5000 0.1443 0.0000 (  3709 PWs)   bands (ev):

  -113.8034-113.8032 -68.1859 -68.1836 -68.1542 -68.1537 -68.1527 -68.1513
    -8.0229  -7.6297   3.3690   3.8053   4.0909   4.0962   4.2053   4.3597
     4.5689   4.8030   5.1063   5.1389   5.8828   6.0680   6.4107   6.7908
     7.6788   7.8592

     occupation numbers 
     1.0000   1.0000   1.0000   1.0000   1.0000   1.0000   1.0000   1.0000
     1.0000   1.0000   1.0000   1.0000   1.0000   1.0000   1.0000   1.0000
     1.0000   1.0000   1.0000   1.0000   1.0000   1.0000   1.0000   1.0000
     1.0000   1.0000

          k =-0.5000 0.1443 0.0935 (  3711 PWs)   bands (ev):

  -113.8034-113.8032 -68.1858 -68.1838 -68.1541 -68.1536 -68.1528 -68.1514
    -8.0011  -7.6367   3.3166   3.6981   4.0326   4.0844   4.1507   4.3013
     4.6151   4.8247   5.0888   5.1305   5.8105   5.9869   6.3943   7.1807
     7.6202   8.1485

     occupation numbers 
     1.0000   1.0000   1.0000   1.0000   1.0000   1.0000   1.0000   1.0000
     1.0000   1.0000   1.0000   1.0000   1.0000   1.0000   1.0000   1.0000
     1.0000   1.0000   1.0000   1.0000   1.0000   1.0000   1.0000   1.0000
     1.0000   1.0000

          k =-0.5000 0.1443 0.1870 (  3705 PWs)   bands (ev):

  -113.8034-113.8032 -68.1856 -68.1840 -68.1538 -68.1534 -68.1528 -68.1517
    -7.9415  -7.6605   3.1678   3.4363   3.9225   4.0299   4.0948   4.2056
     4.6956   4.8582   5.0539   5.1083   5.7478   5.8658   6.5339   7.4809
     7.8853   8.6687

     occupation numbers 
     1.0000   1.0000   1.0000   1.0000   1.0000   1.0000   1.0000   1.0000
     1.0000   1.0000   1.0000   1.0000   1.0000   1.0000   1.0000   1.0000
     1.0000   1.0000   1.0000   1.0000   1.0000   1.0000   1.0000   1.0000
     1.0000   1.0000

          k =-0.5000 0.1443 0.2805 (  3717 PWs)   bands (ev):

  -113.8034-113.8032 -68.1854 -68.1845 -68.1535 -68.1531 -68.1529 -68.1521
    -7.8597  -7.7064   3.0206   3.1633   3.8722   3.9488   4.0798   4.1323
     4.7722   4.8662   5.0353   5.0786   5.7469   5.8010   6.7695   7.2822
     8.5489   9.0173

     occupation numbers 
     1.0000   1.0000   1.0000   1.0000   1.0000   1.0000   1.0000   1.0000
     1.0000   1.0000   1.0000   1.0000   1.0000   1.0000   1.0000   1.0000
     1.0000   1.0000   1.0000   1.0000   1.0000   1.0000   1.0000   1.0000
     1.0000   1.0000

          k =-0.5000 0.1443-0.3740 (  3716 PWs)   bands (ev):

  -113.8034-113.8032 -68.1850 -68.1849 -68.1533 -68.1531 -68.1527 -68.1525
    -7.7756  -7.7755   3.0060   3.0061   3.8884   3.8885   4.0908   4.0908
     4.8331   4.8332   5.0491   5.0492   5.7687   5.7688   7.0336   7.0337
     8.9764   8.9765

     occupation numbers 
     1.0000   1.0000   1.0000   1.0000   1.0000   1.0000   1.0000   1.0000
     1.0000   1.0000   1.0000   1.0000   1.0000   1.0000   1.0000   1.0000
     1.0000   1.0000   1.0000   1.0000   1.0000   1.0000   1.0000   1.0000
     1.0000   1.0000

          k =-0.5000 0.1443-0.2805 (  3717 PWs)   bands (ev):

  -113.8034-113.8032 -68.1854 -68.1845 -68.1535 -68.1531 -68.1529 -68.1521
    -7.8597  -7.7064   3.0206   3.1633   3.8722   3.9488   4.0798   4.1323
     4.7722   4.8662   5.0352   5.0786   5.7469   5.8010   6.7695   7.2822
     8.5489   9.0173

     occupation numbers 
     1.0000   1.0000   1.0000   1.0000   1.0000   1.0000   1.0000   1.0000
     1.0000   1.0000   1.0000   1.0000   1.0000   1.0000   1.0000   1.0000
     1.0000   1.0000   1.0000   1.0000   1.0000   1.0000   1.0000   1.0000
     1.0000   1.0000

          k =-0.5000 0.1443-0.1870 (  3705 PWs)   bands (ev):

  -113.8034-113.8032 -68.1856 -68.1840 -68.1538 -68.1534 -68.1528 -68.1517
    -7.9415  -7.6605   3.1678   3.4363   3.9225   4.0298   4.0948   4.2056
     4.6956   4.8582   5.0539   5.1083   5.7478   5.8658   6.5339   7.4809
     7.8853   8.6687

     occupation numbers 
     1.0000   1.0000   1.0000   1.0000   1.0000   1.0000   1.0000   1.0000
     1.0000   1.0000   1.0000   1.0000   1.0000   1.0000   1.0000   1.0000
     1.0000   1.0000   1.0000   1.0000   1.0000   1.0000   1.0000   1.0000
     1.0000   1.0000

          k =-0.5000 0.1443-0.0935 (  3711 PWs)   bands (ev):

  -113.8034-113.8032 -68.1858 -68.1838 -68.1541 -68.1536 -68.1528 -68.1514
    -8.0011  -7.6367   3.3166   3.6981   4.0326   4.0844   4.1507   4.3013
     4.6151   4.8247   5.0888   5.1305   5.8105   5.9869   6.3943   7.1807
     7.6202   8.1485

     occupation numbers 
     1.0000   1.0000   1.0000   1.0000   1.0000   1.0000   1.0000   1.0000
     1.0000   1.0000   1.0000   1.0000   1.0000   1.0000   1.0000   1.0000
     1.0000   1.0000   1.0000   1.0000   1.0000   1.0000   1.0000   1.0000
     1.0000   1.0000

          k =-0.5000-0.8660 0.0000 (  3710 PWs)   bands (ev):

  -113.8034-113.8032 -68.1859 -68.1836 -68.1540 -68.1538 -68.1528 -68.1512
    -8.0166  -7.6344   3.2433   3.8178   4.1013   4.1418   4.2134   4.3209
     4.5720   4.8093   5.0915   5.1045   5.8958   5.9452   6.6288   6.7703
     7.8604   7.9282

     occupation numbers 
     1.0000   1.0000   1.0000   1.0000   1.0000   1.0000   1.0000   1.0000
     1.0000   1.0000   1.0000   1.0000   1.0000   1.0000   1.0000   1.0000
     1.0000   1.0000   1.0000   1.0000   1.0000   1.0000   1.0000   1.0000
     1.0000   1.0000

          k =-0.5000-0.8660 0.0935 (  3724 PWs)   bands (ev):

  -113.8034-113.8032 -68.1858 -68.1838 -68.1540 -68.1537 -68.1528 -68.1513
    -7.9952  -7.6410   3.1925   3.7055   4.0509   4.0964   4.1733   4.2802
     4.6155   4.8398   5.0811   5.0840   5.8112   5.8422   6.6971   7.1069
     7.8912   8.1236

     occupation numbers 
     1.0000   1.0000   1.0000   1.0000   1.0000   1.0000   1.0000   1.0000
     1.0000   1.0000   1.0000   1.0000   1.0000   1.0000   1.0000   1.0000
     1.0000   1.0000   1.0000   1.0000   1.0000   1.0000   1.0000   1.0000
     1.0000   1.0000

          k =-0.5000-0.8660 0.1870 (  3716 PWs)   bands (ev):

  -113.8034-113.8032 -68.1856 -68.1840 -68.1538 -68.1534 -68.1529 -68.1516
    -7.9366  -7.6635   3.0575   3.4258   3.9188   4.0767   4.0866   4.2060
     4.7003   4.8933   5.0233   5.0631   5.7148   5.7463   6.8778   7.7587
     7.7814   8.6183

     occupation numbers 
     1.0000   1.0000   1.0000   1.0000   1.0000   1.0000   1.0000   1.0000
     1.0000   1.0000   1.0000   1.0000   1.0000   1.0000   1.0000   1.0000
     1.0000   1.0000   1.0000   1.0000   1.0000   1.0000   1.0000   1.0000
     1.0000   1.0000

          k =-0.5000-0.8660 0.2805 (  3724 PWs)   bands (ev):

  -113.8034-113.8032 -68.1854 -68.1845 -68.1536 -68.1530 -68.1530 -68.1520
    -7.8564  -7.7074   2.9354   3.1272   3.8695   3.9726   4.0836   4.1410
     4.7889   4.9444   4.9508   5.0313   5.6900   5.7112   7.1204   7.6047
     8.4034   8.9292

     occupation numbers 
     1.0000   1.0000   1.0000   1.0000   1.0000   1.0000   1.0000   1.0000
     1.0000   1.0000   1.0000   1.0000   1.0000   1.0000   1.0000   1.0000
     1.0000   1.0000   1.0000   1.0000   1.0000   1.0000   1.0000   1.0000
     1.0000   1.0000

          k =-0.5000-0.8660-0.3740 (  3716 PWs)   bands (ev):

  -113.8034-113.8032 -68.1850 -68.1848 -68.1534 -68.1532 -68.1526 -68.1524
    -7.7743  -7.7743   2.9457   2.9457   3.8958   3.8959   4.0995   4.0995
     4.8724   4.8725   4.9908   4.9909   5.6969   5.6969   7.3755   7.3756
     8.8463   8.8463

     occupation numbers 
     1.0000   1.0000   1.0000   1.0000   1.0000   1.0000   1.0000   1.0000
     1.0000   1.0000   1.0000   1.0000   1.0000   1.0000   1.0000   1.0000
     1.0000   1.0000   1.0000   1.0000   1.0000   1.0000   1.0000   1.0000
     1.0000   1.0000

     highest occupied level (ev):     9.2280

!    total energy              =    -987.06314074 Ry
     Harris-Foulkes estimate   =    -987.06314077 Ry
     estimated scf accuracy    <       0.00000007 Ry

     The total energy is the sum of the following terms:

     one-electron contribution =    -791.15699766 Ry
     hartree contribution      =     418.06989162 Ry
     xc contribution           =     -98.10356247 Ry
     ewald contribution        =    -515.87247223 Ry

     convergence has been achieved in   7 iterations

     Forces acting on atoms (cartesian axes, Ry/au):

     atom    1 type  2   force =     0.00000024   -0.00000037    0.00288685
     atom    2 type  2   force =    -0.00000157   -0.00000038    0.00289006
     atom    3 type  1   force =     0.00000421    0.00000091   -0.00288631
     atom    4 type  1   force =    -0.00000288   -0.00000016   -0.00289060
     The non-local contrib.  to forces
     atom    1 type  2   force =     0.00000029   -0.00000403    0.04617626
     atom    2 type  2   force =     0.00000141    0.00000095    0.04617673
     atom    3 type  1   force =     0.00000503   -0.00000419    0.10681324
     atom    4 type  1   force =    -0.00000048   -0.00000471    0.10680837
     The ionic contribution  to forces
     atom    1 type  2   force =     0.00000446    0.00005418   -0.63886401
     atom    2 type  2   force =    -0.00003155   -0.00000182   -0.63886286
     atom    3 type  1   force =     0.00004117   -0.00000261    0.63886820
     atom    4 type  1   force =    -0.00001408   -0.00004975    0.63885866
     The local contribution  to forces
     atom    1 type  2   force =    -0.00000538   -0.00004915    0.59590514
     atom    2 type  2   force =     0.00003001    0.00000138    0.59589904
     atom    3 type  1   force =    -0.00004590    0.00000479   -0.74867425
     atom    4 type  1   force =     0.00001536    0.00005328   -0.74865262
     The core correction contribution to forces
     atom    1 type  2   force =    -0.00000000    0.00000002   -0.00024352
     atom    2 type  2   force =    -0.00000001   -0.00000002   -0.00024353
     atom    3 type  1   force =     0.00000000    0.00000000    0.00000000
     atom    4 type  1   force =     0.00000000    0.00000000    0.00000000
     The Hubbard contrib.    to forces
     atom    1 type  2   force =     0.00000000    0.00000000    0.00000000
     atom    2 type  2   force =     0.00000000    0.00000000    0.00000000
     atom    3 type  1   force =     0.00000000    0.00000000    0.00000000
     atom    4 type  1   force =     0.00000000    0.00000000    0.00000000
     The SCF correction term to forces
     atom    1 type  2   force =     0.00000000    0.00000000    0.00000000
     atom    2 type  2   force =     0.00000000    0.00000000    0.00000000
     atom    3 type  1   force =     0.00000000    0.00000000    0.00000000
     atom    4 type  1   force =     0.00000000    0.00000000    0.00000000

     Total force =     0.000000     Total SCF correction =     0.000000


     Computing stress (Cartesian axis) and pressure

          total   stress  (Ry/bohr**3)                   (kbar)     P=   -0.18
   0.00000162  -0.00000000  -0.00000001          0.24     -0.00     -0.00
  -0.00000000   0.00000163  -0.00000000         -0.00      0.24     -0.00
  -0.00000001  -0.00000000  -0.00000699         -0.00     -0.00     -1.03

     kinetic stress (kbar)  35083.29     -0.00     -0.00
                               -0.00  35083.28     -0.00
                               -0.00     -0.00  35472.65

     local   stress (kbar)   2152.35     -0.00     -0.00
                               -0.00   2152.10     -0.02
                               -0.00     -0.02 -12847.49

     nonloc. stress (kbar)  -1733.14      0.00      0.00
                                0.00  -1733.14      0.00
                                0.00      0.00  -1876.75

     hartree stress (kbar)  64172.39      0.00      0.00
                                0.00  64172.50      0.01
                                0.00      0.01  71997.79

     exc-cor stress (kbar) -14701.78      0.00      0.00
                                0.00 -14701.78      0.00
                                0.00      0.00 -14706.12

     corecor stress (kbar)   -258.49      0.00      0.00
                                0.00   -258.49      0.00
                                0.00      0.00   -259.21

     ewald   stress (kbar) -84714.39      0.00      0.00
                                0.00 -84714.24      0.01
                                0.00      0.01 -77781.90

     hubbard stress (kbar)      0.00      0.00      0.00
                                0.00      0.00      0.00
                                0.00      0.00      0.00

     london  stress (kbar)      0.00      0.00      0.00
                                0.00      0.00      0.00
                                0.00      0.00      0.00

     DFT-D3  stress (kbar)      0.00      0.00      0.00
                                0.00      0.00      0.00
                                0.00      0.00      0.00

     XDM     stress (kbar)      0.00      0.00      0.00
                                0.00      0.00      0.00
                                0.00      0.00      0.00

     dft-nl  stress (kbar)      0.00      0.00      0.00
                                0.00      0.00      0.00
                                0.00      0.00      0.00

     TS-vdW  stress (kbar)      0.00      0.00      0.00
                                0.00      0.00      0.00
                                0.00      0.00      0.00



     Writing output data file ZnO.save/
 
     init_run     :      0.53s CPU      1.86s WALL (       1 calls)
     electrons    :      7.27s CPU      7.85s WALL (       1 calls)
     forces       :      0.16s CPU      0.17s WALL (       1 calls)
     stress       :      0.28s CPU      0.29s WALL (       1 calls)

     Called by init_run:
     wfcinit      :      0.40s CPU      1.11s WALL (       1 calls)
     wfcinit:atom :      0.00s CPU      0.00s WALL (      65 calls)
     wfcinit:wfcr :      0.37s CPU      1.08s WALL (      65 calls)
     potinit      :      0.06s CPU      0.24s WALL (       1 calls)
     hinit0       :      0.06s CPU      0.34s WALL (       1 calls)

     Called by electrons:
     c_bands      :      6.11s CPU      6.52s WALL (       7 calls)
     sum_band     :      0.87s CPU      1.01s WALL (       7 calls)
     v_of_rho     :      0.25s CPU      0.41s WALL (       8 calls)
     v_h          :      0.00s CPU      0.00s WALL (       8 calls)
     v_xc         :      0.31s CPU      0.44s WALL (      10 calls)
     newd         :      0.04s CPU      0.05s WALL (       8 calls)
     mix_rho      :      0.01s CPU      0.02s WALL (       7 calls)

     Called by c_bands:
     init_us_2    :      0.07s CPU      0.08s WALL (    1105 calls)
     cegterg      :      5.73s CPU      5.99s WALL (     455 calls)

     Called by sum_band:
     sum_band:bec :      0.01s CPU      0.01s WALL (     455 calls)
     addusdens    :      0.03s CPU      0.07s WALL (       7 calls)

     Called by *egterg:
     h_psi        :      3.61s CPU      3.76s WALL (    1486 calls)
     s_psi        :      0.11s CPU      0.12s WALL (    1486 calls)
     g_psi        :      0.01s CPU      0.01s WALL (     966 calls)
     cdiaghg      :      1.53s CPU      2.27s WALL (    1421 calls)
     cegterg:over :      0.35s CPU      0.39s WALL (     966 calls)
     cegterg:upda :      0.19s CPU      0.20s WALL (     966 calls)
     cegterg:last :      0.13s CPU      0.13s WALL (     455 calls)
     cdiaghg:chol :      0.11s CPU      0.44s WALL (    1421 calls)
     cdiaghg:inve :      0.02s CPU      0.05s WALL (    1421 calls)
     cdiaghg:para :      0.16s CPU      0.18s WALL (    2842 calls)

     Called by h_psi:
     h_psi:pot    :      3.60s CPU      3.75s WALL (    1486 calls)
     h_psi:calbec :      0.19s CPU      0.21s WALL (    1486 calls)
     vloc_psi     :      3.30s CPU      3.42s WALL (    1486 calls)
     add_vuspsi   :      0.11s CPU      0.12s WALL (    1486 calls)

     General routines
     calbec       :      0.30s CPU      0.32s WALL (    2266 calls)
     fft          :      0.04s CPU      0.10s WALL (     127 calls)
     ffts         :      0.00s CPU      0.00s WALL (      15 calls)
     fftw         :      3.76s CPU      3.89s WALL (   74416 calls)
     interpolate  :      0.00s CPU      0.01s WALL (       8 calls)
 
     Parallel routines
     fft_scatt_xy :      0.61s CPU      0.63s WALL (   74558 calls)
     fft_scatt_yz :      1.86s CPU      1.93s WALL (   74558 calls)
 
     PWSCF        :      8.53s CPU     11.88s WALL

 
   This run was terminated on:  15:13:33  16Jun2022            

=------------------------------------------------------------------------------=
   JOB DONE.
=------------------------------------------------------------------------------=
