
     Program PWSCF v.6.4.1 starts on 15Jul2022 at  1:26:37 

     This program is part of the open-source Quantum ESPRESSO suite
     for quantum simulation of materials; please cite
         "P. Giannozzi et al., J. Phys.:Condens. Matter 21 395502 (2009);
         "P. Giannozzi et al., J. Phys.:Condens. Matter 29 465901 (2017);
          URL http://www.quantum-espresso.org", 
     in publications or presentations arising from this work. More details at
     http://www.quantum-espresso.org/quote

     Parallel version (MPI), running on   128 processors

     MPI processes distributed on     2 nodes
     K-points division:     npool     =       8
     R & G space division:  proc/nbgrp/npool/nimage =      16
     Waiting for input...
     Reading input from standard input
Warning: card &IONS ignored
Warning: card   UPSCALE           = 100.D0, ignored
Warning: card / ignored
Warning: card &CELL ignored
Warning: card   CELL_DYNAMICS     = 'BFGS' ignored
Warning: card   PRESS_CONV_THR    = 0.5D0 ignored
Warning: card   CELL_DOFREE = 'ALL' ignored
Warning: card / ignored

     Current dimensions of program PWSCF are:
     Max number of different atomic species (ntypx) = 10
     Max number of k-points (npk) =  40000
     Max angular momentum in pseudopotentials (lmaxx) =  3

     Subspace diagonalization in iterative solution of the eigenvalue problem:
     one sub-group per band group will be used
     scalapack distributed-memory algorithm (size of sub-group:  2*  2 procs)

 
     Parallelization info
     --------------------
     sticks:   dense  smooth     PW     G-vecs:    dense   smooth      PW
     Min         731     351     95                67628    22486    3240
     Max         732     353     96                67633    22488    3245
     Sum       11705    5623   1531              1082085   359791   51881
 


     bravais-lattice index     =            0
     lattice parameter (alat)  =      18.4233  a.u.
     unit-cell volume          =    5730.1457 (a.u.)^3
     number of atoms/cell      =           72
     number of atomic types    =            3
     number of electrons       =       796.00
     number of Kohn-Sham states=          478
     kinetic-energy cutoff     =      60.0000  Ry
     charge density cutoff     =     500.0000  Ry
     convergence threshold     =      1.0E-08
     mixing beta               =       0.5000
     number of iterations used =            8  plain     mixing
     Exchange-correlation      = SLA  PW   PSX  PSC ( 1  4 10  8 0 0)
     Using LIBXC version       =    4   3   4

     celldm(1)=  18.423338  celldm(2)=   0.000000  celldm(3)=   0.000000
     celldm(4)=   0.000000  celldm(5)=   0.000000  celldm(6)=   0.000000

     crystal axes: (cart. coord. in units of alat)
               a(1) = (   1.000000   0.000410  -0.000414 )  
               a(2) = (  -0.499644   0.866141   0.000428 )  
               a(3) = (  -0.000442   0.000273   1.057717 )  

     reciprocal axes: (cart. coord. in units 2 pi/alat)
               b(1) = (  0.999764  0.576725  0.000269 )  
               b(2) = ( -0.000473  1.154273 -0.000298 )  
               b(3) = (  0.000391 -0.000241  0.945433 )  


     PseudoPot. # 1 for Zn read from file:
     ./GBRV_PBEsol/zn_pbesol_v1.uspp.F.UPF
     MD5 check sum: 7d8615e52efe7c1e2b1899de8658bae2
     Pseudo is Ultrasoft, Zval = 20.0
     Generated by new atomic code, or converted to UPF format
     Using radial grid of  943 points,  6 beta functions with: 
                l(1) =   0
                l(2) =   0
                l(3) =   1
                l(4) =   1
                l(5) =   2
                l(6) =   2
     Q(r) pseudized with  8 coefficients,  rinner =    1.100   1.100   1.100
                                                       1.100   1.100

     PseudoPot. # 2 for O  read from file:
     ./GBRV_PBEsol/o_pbesol_v1.2.uspp.F.UPF
     MD5 check sum: 501638753501ef6325af9037351f7734
     Pseudo is Ultrasoft + core correction, Zval =  6.0
     Generated by new atomic code, or converted to UPF format
     Using radial grid of  737 points,  5 beta functions with: 
                l(1) =   0
                l(2) =   0
                l(3) =   1
                l(4) =   1
                l(5) =   2
     Q(r) pseudized with  8 coefficients,  rinner =    0.900   0.900   0.900
                                                       0.900   0.900

     PseudoPot. # 3 for Mg read from file:
     ./GBRV_PBEsol/mg_pbesol_v1.4.uspp.F.UPF
     MD5 check sum: 4059f37963cf5867752dbf5ab2400678
     Pseudo is Ultrasoft, Zval = 10.0
     Generated by new atomic code, or converted to UPF format
     Using radial grid of  821 points,  7 beta functions with: 
                l(1) =   0
                l(2) =   0
                l(3) =   0
                l(4) =   1
                l(5) =   1
                l(6) =   2
                l(7) =   2
     Q(r) pseudized with  8 coefficients,  rinner =    1.200   1.200   1.200
                                                       1.200   1.200

     atomic species   valence    mass     pseudopotential
        Zn            20.00    65.38000     Zn( 1.00)
        O              6.00    15.99900     O ( 1.00)
        Mg            10.00    24.30500     Mg( 1.00)

     No symmetry found


                                    s                        frac. trans.

      isym =  1     identity                                     

 cryst.   s( 1) = (     1          0          0      )
                  (     0          1          0      )
                  (     0          0          1      )

 cart.    s( 1) = (  1.0000000 -0.0000000  0.0000000 )
                  (  0.0000000  1.0000000  0.0000000 )
                  (  0.0000000  0.0000000  1.0000000 )


   Cartesian axes

     site n.     atom                  positions (alat units)
         1           Zn  tau(   1) = (   0.1663279   0.0972265   0.2061373  )
         2           Zn  tau(   2) = (   0.1676301   0.0960941   0.7354334  )
         3           Zn  tau(   3) = (   0.0018706   0.3862695   0.2067346  )
         4           Zn  tau(   4) = (  -0.0009713   0.3853574   0.7347211  )
         5           Zn  tau(   5) = (  -0.1662622   0.6732004   0.2042986  )
         6           Mg  tau(   6) = (  -0.1656209   0.6765076   0.7361646  )
         7           Zn  tau(   7) = (   0.5010081   0.0965522   0.2059626  )
         8           Zn  tau(   8) = (   0.4994138   0.0973209   0.7351377  )
         9           Mg  tau(   9) = (   0.3329549   0.3860486   0.2058433  )
        10           Mg  tau(  10) = (   0.3334717   0.3849856   0.7341627  )
        11           Mg  tau(  11) = (   0.1651141   0.6727985   0.2071171  )
        12           Zn  tau(  12) = (   0.1670724   0.6754398   0.7315201  )
        13           Mg  tau(  13) = (   0.8337954   0.0980656   0.2035847  )
        14           Mg  tau(  14) = (   0.8343919   0.0966080   0.7333240  )
        15           Zn  tau(  15) = (   0.6668744   0.3854797   0.2034702  )
        16           Mg  tau(  16) = (   0.6658336   0.3867894   0.7373199  )
        17           Zn  tau(  17) = (   0.4978591   0.6739279   0.2063521  )
        18           Zn  tau(  18) = (   0.5015103   0.6742677   0.7345463  )
        19           Zn  tau(  19) = (  -0.0017980   0.1928741   0.4711629  )
        20           Zn  tau(  20) = (   0.0004002   0.1922625   0.9992084  )
        21           Mg  tau(  21) = (  -0.1688447   0.4818487   0.4704308  )
        22           Zn  tau(  22) = (  -0.1650714   0.4811746   0.9977898  )
        23           Zn  tau(  23) = (  -0.3317097   0.7695807   0.4698168  )
        24           Mg  tau(  24) = (  -0.3351219   0.7694893   1.0021035  )
        25           Zn  tau(  25) = (   0.3327703   0.1921084   0.4691607  )
        26           Mg  tau(  26) = (   0.3330164   0.1922747   1.0000887  )
        27           Mg  tau(  27) = (   0.1652510   0.4794740   0.4715289  )
        28           Zn  tau(  28) = (   0.1662001   0.4824490   0.9969618  )
        29           Zn  tau(  29) = (  -0.0018226   0.7704486   0.4709123  )
        30           Zn  tau(  30) = (   0.0021747   0.7695233   0.9996835  )
        31           Mg  tau(  31) = (   0.6647468   0.1943937   0.4703054  )
        32           Zn  tau(  32) = (   0.6672226   0.1913303   0.9966784  )
        33           Zn  tau(  33) = (   0.5019100   0.4802833   0.4708532  )
        34           Zn  tau(  34) = (   0.4980657   0.4827477   0.9991094  )
        35           Mg  tau(  35) = (   0.3351292   0.7707912   0.4694972  )
        36           Mg  tau(  36) = (   0.3318375   0.7679528   0.9972652  )
        37           O   tau(  37) = (   0.1673212   0.0955689   0.0028780  )
        38           O   tau(  38) = (   0.1658821   0.0962060   0.5316506  )
        39           O   tau(  39) = (   0.0009281   0.3846316   0.0030238  )
        40           O   tau(  40) = (  -0.0020263   0.3855968   0.5311610  )
        41           O   tau(  41) = (  -0.1661234   0.6738036   0.0008529  )
        42           O   tau(  42) = (  -0.1667167   0.6732518   0.5339963  )
        43           O   tau(  43) = (   0.5007594   0.0962239   0.0024245  )
        44           O   tau(  44) = (   0.4992191   0.0966590   0.5314797  )
        45           O   tau(  45) = (   0.3327411   0.3843898   0.0029959  )
        46           O   tau(  46) = (   0.3330390   0.3850429   0.5315243  )
        47           O   tau(  47) = (   0.1674948   0.6728738   0.0048901  )
        48           O   tau(  48) = (   0.1675207   0.6736047   0.5278411  )
        49           O   tau(  49) = (   0.8339202   0.0943296   0.0008542  )
        50           O   tau(  50) = (   0.8311935   0.0964328   0.5307204  )
        51           O   tau(  51) = (   0.6670926   0.3848557  -0.0002734  )
        52           O   tau(  52) = (   0.6672604   0.3850262   0.5346365  )
        53           O   tau(  53) = (   0.4988719   0.6741108   0.0029323  )
        54           O   tau(  54) = (   0.5009371   0.6739144   0.5309305  )
        55           O   tau(  55) = (  -0.0003236   0.1931468   0.2673062  )
        56           O   tau(  56) = (   0.0002237   0.1928480   0.7957682  )
        57           O   tau(  57) = (  -0.1666795   0.4811864   0.2678455  )
        58           O   tau(  58) = (  -0.1671378   0.4832892   0.7944221  )
        59           O   tau(  59) = (  -0.3335849   0.7696168   0.2659659  )
        60           O   tau(  60) = (  -0.3326742   0.7702610   0.7994294  )
        61           O   tau(  61) = (   0.3337174   0.1933727   0.2654184  )
        62           O   tau(  62) = (   0.3333635   0.1936668   0.7979267  )
        63           O   tau(  63) = (   0.1678252   0.4817380   0.2695161  )
        64           O   tau(  64) = (   0.1667626   0.4822087   0.7932494  )
        65           O   tau(  65) = (  -0.0007279   0.7701374   0.2673271  )
        66           O   tau(  66) = (   0.0014534   0.7710589   0.7963426  )
        67           O   tau(  67) = (   0.6675600   0.1933534   0.2677879  )
        68           O   tau(  68) = (   0.6677655   0.1933536   0.7931330  )
        69           O   tau(  69) = (   0.5002019   0.4811640   0.2669820  )
        70           O   tau(  70) = (   0.4988576   0.4817246   0.7958740  )
        71           O   tau(  71) = (   0.3313399   0.7717780   0.2665513  )
        72           O   tau(  72) = (   0.3338845   0.7707644   0.7948214  )

   Crystallographic axes

     site n.     atom                  positions (cryst. coord.)
         1           Zn  tau(   1) = (  0.2224170  0.1120859  0.1949306  )
         2           Zn  tau(   2) = (  0.2232081  0.1106205  0.6953452  )
         3           Zn  tau(   3) = (  0.2246970  0.4457981  0.1953612  )
         4           Zn  tau(   4) = (  0.2214717  0.4445894  0.6945361  )
         5           Zn  tau(   5) = (  0.2220835  0.7770749  0.1929231  )
         6           Mg  tau(   6) = (  0.2247749  0.7807337  0.6957661  )
         7           Zn  tau(   7) = (  0.5566294  0.1111493  0.1948966  )
         8           Zn  tau(   8) = (  0.5556210  0.1118798  0.6951953  )
         9           Mg  tau(   9) = (  0.5555755  0.4453867  0.1946481  )
        10           Mg  tau(  10) = (  0.5556211  0.4440021  0.6941391  )
        11           Mg  tau(  11) = (  0.5531506  0.7764534  0.1957176  )
        12           Zn  tau(  12) = (  0.5567726  0.7793452  0.6915055  )
        13           Mg  tau(  13) = (  0.8902103  0.1127395  0.1927783  )
        14           Mg  tau(  14) = (  0.8901084  0.1108990  0.6936118  )
        15           Zn  tau(  15) = (  0.8890875  0.4445728  0.1925353  )
        16           Mg  tau(  16) = (  0.8889458  0.4459260  0.6972536  )
        17           Zn  tau(  17) = (  0.8864681  0.7775999  0.1951243  )
        18           Zn  tau(  18) = (  0.8904564  0.7778331  0.6944977  )
        19           Zn  tau(  19) = (  0.1095644  0.2224899  0.4454057  )
        20           Zn  tau(  20) = (  0.1115513  0.2216257  0.9446382  )
        21           Mg  tau(  21) = (  0.1092158  0.5561248  0.4445784  )
        22           Zn  tau(  22) = (  0.1127412  0.5551879  0.9431625  )
        23           Zn  tau(  23) = (  0.1123313  0.8883233  0.4438647  )
        24           Mg  tau(  24) = (  0.1090103  0.8880609  0.9471047  )
        25           Zn  tau(  25) = (  0.4436116  0.2214484  0.4436438  )
        26           Mg  tau(  26) = (  0.4440963  0.2214822  0.9456006  )
        27           Mg  tau(  27) = (  0.4418634  0.5532253  0.4457479  )
        28           Zn  tau(  28) = (  0.4446693  0.5565024  0.9425091  )
        29           Zn  tau(  29) = (  0.4426413  0.8891687  0.4450293  )
        30           Zn  tau(  30) = (  0.4462463  0.8879413  0.9449487  )
        31           Mg  tau(  31) = (  0.7768280  0.2239289  0.4448553  )
        32           Zn  tau(  32) = (  0.7776780  0.2202350  0.9425074  )
        33           Zn  tau(  33) = (  0.7789095  0.5540005  0.4452406  )
        34           Zn  tau(  34) = (  0.7766294  0.5566896  0.9446692  )
        35           Mg  tau(  35) = (  0.7797109  0.8894052  0.4438232  )
        36           Mg  tau(  36) = (  0.7749248  0.8859734  0.9427918  )
        37           O   tau(  37) = (  0.2223995  0.1102326  0.0027634  )
        38           O   tau(  38) = (  0.2214702  0.1108112  0.5026816  )
        39           O   tau(  39) = (  0.2227554  0.4439686  0.0027664  )
        40           O   tau(  40) = (  0.2205003  0.4449268  0.5020832  )
        41           O   tau(  41) = (  0.2225154  0.7778316  0.0005787  )
        42           O   tau(  42) = (  0.2217474  0.7770363  0.5046300  )
        43           O   tau(  43) = (  0.5561366  0.1108310  0.0024649  )
        44           O   tau(  44) = (  0.5549898  0.1111765  0.5026504  )
        45           O   tau(  45) = (  0.5543506  0.4435325  0.0028699  )
        46           O   tau(  46) = (  0.5551671  0.4441288  0.5025579  )
        47           O   tau(  47) = (  0.5555198  0.7765994  0.0045265  )
        48           O   tau(  48) = (  0.5561077  0.7772873  0.4989413  )
        49           O   tau(  49) = (  0.8881258  0.1084873  0.0011112  )
        50           O   tau(  50) = (  0.8867553  0.1107586  0.5020624  )
        51           O   tau(  51) = (  0.8888910  0.4439130 -0.0000903  )
        52           O   tau(  52) = (  0.8893009  0.4439505  0.5056311  )
        53           O   tau(  53) = (  0.8875315  0.7778710  0.0028048  )
        54           O   tau(  54) = (  0.8896249  0.7774862  0.5019926  )
        55           O   tau(  55) = (  0.1111409  0.2228647  0.2526733  )
        56           O   tau(  56) = (  0.1116579  0.2223622  0.7522989  )
        57           O   tau(  57) = (  0.1109441  0.5554196  0.2530486  )
        58           O   tau(  58) = (  0.1118402  0.5576903  0.7508907  )
        59           O   tau(  59) = (  0.1104226  0.8884265  0.2511367  )
        60           O   tau(  60) = (  0.1118480  0.8890108  0.7554907  )
        61           O   tau(  61) = (  0.4452329  0.2229680  0.2510192  )
        62           O   tau(  62) = (  0.4451918  0.2231491  0.7544698  )
        63           O   tau(  63) = (  0.4456884  0.5558976  0.2547588  )
        64           O   tau(  64) = (  0.4450382  0.5562854  0.7499130  )
        65           O   tau(  65) = (  0.4435017  0.8888696  0.2525537  )
        66           O   tau(  66) = (  0.4463561  0.8897747  0.7527030  )
        67           O   tau(  67) = (  0.7789862  0.2227871  0.2533900  )
        68           O   tau(  68) = (  0.7793329  0.2226308  0.7500686  )
        69           O   tau(  69) = (  0.7776549  0.5550785  0.2524932  )
        70           O   tau(  70) = (  0.7767764  0.5555687  0.7525244  )
        71           O   tau(  71) = (  0.7764371  0.8906064  0.2519498  )
        72           O   tau(  72) = (  0.7785385  0.8892780  0.7513949  )

     number of k points=    36  Marzari-Vanderbilt smearing, width (Ry)=  0.0010
                       cart. coord. in units 2pi/alat
        k(    1) = (   0.0000000   0.0000000   0.0000000), wk =   0.0312500
        k(    2) = (   0.0000978  -0.0000603   0.2363582), wk =   0.0625000
        k(    3) = (  -0.0001957   0.0001206  -0.4727164), wk =   0.0312500
        k(    4) = (  -0.0001183   0.2885683  -0.0000744), wk =   0.0625000
        k(    5) = (  -0.0000204   0.2885079   0.2362838), wk =   0.0625000
        k(    6) = (  -0.0003139   0.2886889  -0.4727908), wk =   0.0625000
        k(    7) = (  -0.0002161   0.2886286  -0.2364326), wk =   0.0625000
        k(    8) = (   0.0002365  -0.5771365   0.0001489), wk =   0.0312500
        k(    9) = (   0.0003343  -0.5771968   0.2365071), wk =   0.0625000
        k(   10) = (   0.0000409  -0.5770159  -0.4725675), wk =   0.0312500
        k(   11) = (   0.2499410   0.1441813   0.0000672), wk =   0.0625000
        k(   12) = (   0.2500388   0.1441209   0.2364254), wk =   0.0625000
        k(   13) = (   0.2497453   0.1443019  -0.4726492), wk =   0.0625000
        k(   14) = (   0.2498432   0.1442416  -0.2362910), wk =   0.0625000
        k(   15) = (   0.2498227   0.4327495  -0.0000072), wk =   0.0625000
        k(   16) = (   0.2499206   0.4326892   0.2363510), wk =   0.0625000
        k(   17) = (   0.2496271   0.4328702  -0.4727236), wk =   0.0625000
        k(   18) = (   0.2497249   0.4328098  -0.2363654), wk =   0.0625000
        k(   19) = (   0.2501775  -0.4329553   0.0002161), wk =   0.0625000
        k(   20) = (   0.2502753  -0.4330156   0.2365743), wk =   0.0625000
        k(   21) = (   0.2499819  -0.4328346  -0.4725003), wk =   0.0625000
        k(   22) = (   0.2500797  -0.4328949  -0.2361421), wk =   0.0625000
        k(   23) = (   0.2500593  -0.1443870   0.0001416), wk =   0.0625000
        k(   24) = (   0.2501571  -0.1444473   0.2364998), wk =   0.0625000
        k(   25) = (   0.2498636  -0.1442664  -0.4725748), wk =   0.0625000
        k(   26) = (   0.2499614  -0.1443267  -0.2362166), wk =   0.0625000
        k(   27) = (  -0.4998820  -0.2883625  -0.0001344), wk =   0.0312500
        k(   28) = (  -0.4997842  -0.2884228   0.2362238), wk =   0.0625000
        k(   29) = (  -0.5000777  -0.2882419  -0.4728508), wk =   0.0312500
        k(   30) = (  -0.5000003   0.0002057  -0.0002088), wk =   0.0625000
        k(   31) = (  -0.4999024   0.0001454   0.2361494), wk =   0.0625000
        k(   32) = (  -0.5001959   0.0003264  -0.4729252), wk =   0.0625000
        k(   33) = (  -0.5000981   0.0002661  -0.2365670), wk =   0.0625000
        k(   34) = (  -0.4996455  -0.8654990   0.0000145), wk =   0.0312500
        k(   35) = (  -0.4995477  -0.8655594   0.2363727), wk =   0.0625000
        k(   36) = (  -0.4998411  -0.8653784  -0.4727019), wk =   0.0312500

                       cryst. coord.
        k(    1) = (   0.0000000   0.0000000   0.0000000), wk =   0.0312500
        k(    2) = (   0.0000000  -0.0000000   0.2500000), wk =   0.0625000
        k(    3) = (  -0.0000000   0.0000000  -0.5000000), wk =   0.0312500
        k(    4) = (   0.0000000   0.2500000   0.0000000), wk =   0.0625000
        k(    5) = (   0.0000000   0.2500000   0.2500000), wk =   0.0625000
        k(    6) = (   0.0000000   0.2500000  -0.5000000), wk =   0.0625000
        k(    7) = (   0.0000000   0.2500000  -0.2500000), wk =   0.0625000
        k(    8) = (  -0.0000000  -0.5000000  -0.0000000), wk =   0.0312500
        k(    9) = (  -0.0000000  -0.5000000   0.2500000), wk =   0.0625000
        k(   10) = (  -0.0000000  -0.5000000  -0.5000000), wk =   0.0312500
        k(   11) = (   0.2500000   0.0000000   0.0000000), wk =   0.0625000
        k(   12) = (   0.2500000   0.0000000   0.2500000), wk =   0.0625000
        k(   13) = (   0.2500000   0.0000000  -0.5000000), wk =   0.0625000
        k(   14) = (   0.2500000   0.0000000  -0.2500000), wk =   0.0625000
        k(   15) = (   0.2500000   0.2500000   0.0000000), wk =   0.0625000
        k(   16) = (   0.2500000   0.2500000   0.2500000), wk =   0.0625000
        k(   17) = (   0.2500000   0.2500000  -0.5000000), wk =   0.0625000
        k(   18) = (   0.2500000   0.2500000  -0.2500000), wk =   0.0625000
        k(   19) = (   0.2500000  -0.5000000  -0.0000000), wk =   0.0625000
        k(   20) = (   0.2500000  -0.5000000   0.2500000), wk =   0.0625000
        k(   21) = (   0.2500000  -0.5000000  -0.5000000), wk =   0.0625000
        k(   22) = (   0.2500000  -0.5000000  -0.2500000), wk =   0.0625000
        k(   23) = (   0.2500000  -0.2500000  -0.0000000), wk =   0.0625000
        k(   24) = (   0.2500000  -0.2500000   0.2500000), wk =   0.0625000
        k(   25) = (   0.2500000  -0.2500000  -0.5000000), wk =   0.0625000
        k(   26) = (   0.2500000  -0.2500000  -0.2500000), wk =   0.0625000
        k(   27) = (  -0.5000000  -0.0000000  -0.0000000), wk =   0.0312500
        k(   28) = (  -0.5000000  -0.0000000   0.2500000), wk =   0.0625000
        k(   29) = (  -0.5000000  -0.0000000  -0.5000000), wk =   0.0312500
        k(   30) = (  -0.5000000   0.2500000  -0.0000000), wk =   0.0625000
        k(   31) = (  -0.5000000   0.2500000   0.2500000), wk =   0.0625000
        k(   32) = (  -0.5000000   0.2500000  -0.5000000), wk =   0.0625000
        k(   33) = (  -0.5000000   0.2500000  -0.2500000), wk =   0.0625000
        k(   34) = (  -0.5000000  -0.5000000  -0.0000000), wk =   0.0312500
        k(   35) = (  -0.5000000  -0.5000000   0.2500000), wk =   0.0625000
        k(   36) = (  -0.5000000  -0.5000000  -0.5000000), wk =   0.0312500

     Dense  grid:  1082085 G-vectors     FFT dimensions: ( 135, 135, 144)

     Smooth grid:   359791 G-vectors     FFT dimensions: (  96,  96, 100)

     Dynamical RAM for                 wfc:      20.50 MB

     Dynamical RAM for     wfc (w. buffer):     122.97 MB

     Dynamical RAM for           str. fact:       3.10 MB

     Dynamical RAM for           local pot:       0.00 MB

     Dynamical RAM for          nlocal pot:      48.45 MB

     Dynamical RAM for                qrad:      21.02 MB

     Dynamical RAM for          rho,v,vnew:       6.85 MB

     Dynamical RAM for               rhoin:       2.28 MB

     Dynamical RAM for            rho*nmix:      16.51 MB

     Dynamical RAM for           G-vectors:       4.04 MB

     Dynamical RAM for          h,s,v(r/c):      41.84 MB

     Dynamical RAM for          <psi|beta>:       8.24 MB

     Dynamical RAM for                 psi:      81.98 MB

     Dynamical RAM for                hpsi:      81.98 MB

     Dynamical RAM for                spsi:      81.98 MB

     Dynamical RAM for      wfcinit/wfcrot:      48.60 MB

     Dynamical RAM for           addusdens:      31.99 MB

     Estimated static dynamical RAM per process >     235.61 MB

     Estimated max dynamical RAM per process >     531.63 MB

     Estimated total dynamical RAM >      66.45 GB

     Check: negative core charge=   -0.000002

     Initial potential from superposition of free atoms

     starting charge  791.79390, renormalised to  796.00000
     Starting wfcs are  500 randomized atomic wfcs

     total cpu time spent up to now is       16.3 secs

     Self-consistent Calculation

     iteration #  1     ecut=    60.00 Ry     beta= 0.50
     Davidson diagonalization with overlap
     ethr =  1.00E-02,  avg # of iterations =  4.5

     total cpu time spent up to now is       77.2 secs

     total energy              =  -13055.49148430 Ry
     Harris-Foulkes estimate   =  -13069.86292777 Ry
     estimated scf accuracy    <      21.48553651 Ry

     iteration #  2     ecut=    60.00 Ry     beta= 0.50
     Davidson diagonalization with overlap
     ethr =  2.70E-03,  avg # of iterations =  3.2

     total cpu time spent up to now is      149.1 secs

     total energy              =  -13061.99054194 Ry
     Harris-Foulkes estimate   =  -13067.18239202 Ry
     estimated scf accuracy    <      11.89294954 Ry

     iteration #  3     ecut=    60.00 Ry     beta= 0.50
     Davidson diagonalization with overlap
     ethr =  1.49E-03,  avg # of iterations =  2.0

     total cpu time spent up to now is      196.5 secs

     total energy              =  -13064.09643303 Ry
     Harris-Foulkes estimate   =  -13064.17068447 Ry
     estimated scf accuracy    <       0.20636116 Ry

     iteration #  4     ecut=    60.00 Ry     beta= 0.50
     Davidson diagonalization with overlap
     ethr =  2.59E-05,  avg # of iterations =  5.6

     total cpu time spent up to now is      284.5 secs

     total energy              =  -13064.11322784 Ry
     Harris-Foulkes estimate   =  -13064.15671170 Ry
     estimated scf accuracy    <       0.12363519 Ry

     iteration #  5     ecut=    60.00 Ry     beta= 0.50
     Davidson diagonalization with overlap
     ethr =  1.55E-05,  avg # of iterations =  4.6

     total cpu time spent up to now is      348.4 secs

     total energy              =  -13064.13213252 Ry
     Harris-Foulkes estimate   =  -13064.13247131 Ry
     estimated scf accuracy    <       0.00264601 Ry

     iteration #  6     ecut=    60.00 Ry     beta= 0.50
     Davidson diagonalization with overlap
     ethr =  3.32E-07,  avg # of iterations =  4.8

     total cpu time spent up to now is      451.4 secs

     total energy              =  -13064.13251176 Ry
     Harris-Foulkes estimate   =  -13064.13263226 Ry
     estimated scf accuracy    <       0.00052126 Ry

     iteration #  7     ecut=    60.00 Ry     beta= 0.50
     Davidson diagonalization with overlap
     ethr =  6.55E-08,  avg # of iterations =  2.0

     total cpu time spent up to now is      495.3 secs

     total energy              =  -13064.13262521 Ry
     Harris-Foulkes estimate   =  -13064.13264933 Ry
     estimated scf accuracy    <       0.00013931 Ry

     iteration #  8     ecut=    60.00 Ry     beta= 0.50
     Davidson diagonalization with overlap
     ethr =  1.75E-08,  avg # of iterations =  2.0

     total cpu time spent up to now is      537.5 secs

     total energy              =  -13064.13265439 Ry
     Harris-Foulkes estimate   =  -13064.13265092 Ry
     estimated scf accuracy    <       0.00001281 Ry

     iteration #  9     ecut=    60.00 Ry     beta= 0.50
     Davidson diagonalization with overlap
     ethr =  1.61E-09,  avg # of iterations =  2.0

     total cpu time spent up to now is      580.9 secs

     total energy              =  -13064.13265634 Ry
     Harris-Foulkes estimate   =  -13064.13265641 Ry
     estimated scf accuracy    <       0.00000188 Ry

     iteration # 10     ecut=    60.00 Ry     beta= 0.50
     Davidson diagonalization with overlap
     ethr =  2.36E-10,  avg # of iterations =  2.0

     total cpu time spent up to now is      625.8 secs

     total energy              =  -13064.13265677 Ry
     Harris-Foulkes estimate   =  -13064.13265681 Ry
     estimated scf accuracy    <       0.00000044 Ry

     iteration # 11     ecut=    60.00 Ry     beta= 0.50
     Davidson diagonalization with overlap
     ethr =  5.59E-11,  avg # of iterations =  2.0

     total cpu time spent up to now is      668.7 secs

     total energy              =  -13064.13265686 Ry
     Harris-Foulkes estimate   =  -13064.13265686 Ry
     estimated scf accuracy    <       0.00000003 Ry

     iteration # 12     ecut=    60.00 Ry     beta= 0.50
     Davidson diagonalization with overlap
     ethr =  3.45E-12,  avg # of iterations =  2.0

     total cpu time spent up to now is      718.3 secs

     End of self-consistent calculation

          k = 0.0000 0.0000 0.0000 ( 44881 PWs)   bands (ev):

  -115.5049-115.5036-115.4975-115.4907-115.4869-115.4868-115.4850-115.4847
  -115.4837-115.4836-115.4832-115.4820-115.4817-115.4815-115.4815-115.4811
  -115.4764-115.4763-115.4757-115.4756-115.4739-115.4648 -69.8650 -69.8629
   -69.8612 -69.8592 -69.8586 -69.8579 -69.8577 -69.8533 -69.8518 -69.8501
   -69.8497 -69.8487 -69.8480 -69.8476 -69.8467 -69.8455 -69.8455 -69.8446
   -69.8440 -69.8440 -69.8438 -69.8433 -69.8432 -69.8426 -69.8420 -69.8416
   -69.8408 -69.8406 -69.8404 -69.8401 -69.8392 -69.8390 -69.8390 -69.8388
   -69.8387 -69.8387 -69.8385 -69.8380 -69.8375 -69.8371 -69.8368 -69.8368
   -69.8365 -69.8365 -69.8365 -69.8364 -69.8360 -69.8347 -69.8342 -69.8342
   -69.8332 -69.8323 -69.8319 -69.8316 -69.8315 -69.8313 -69.8300 -69.8290
   -69.8287 -69.8272 -69.8267 -69.8263 -69.8256 -69.8234 -69.8216 -69.8169
   -64.9368 -64.9347 -64.9321 -64.9308 -64.9235 -64.9211 -64.9186 -64.9132
   -64.9079 -64.9069 -64.8989 -64.8953 -64.8857 -64.8752 -31.9315 -31.9293
   -31.9261 -31.9257 -31.9239 -31.9232 -31.9225 -31.9211 -31.9196 -31.9184
   -31.9167 -31.9160 -31.9149 -31.9143 -31.9104 -31.9096 -31.9076 -31.9075
   -31.9071 -31.9048 -31.9044 -31.9026 -31.9003 -31.8987 -31.8981 -31.8972
   -31.8959 -31.8934 -31.8915 -31.8892 -31.8890 -31.8871 -31.8834 -31.8819
   -31.8804 -31.8796 -31.8744 -31.8700 -31.8679 -31.8656 -31.8606 -31.8595
   -10.1475  -9.8412  -9.7885  -9.7364  -9.6889  -9.6689  -9.6372  -9.6137
    -9.5474  -9.5065  -9.4987  -9.4847  -9.4767  -9.4357  -9.4340  -9.4077
    -9.3817  -9.3548  -9.3439  -9.3185  -9.3070  -9.2817  -9.2652  -9.2374
    -9.2168  -9.2045  -9.1912  -9.1725  -9.1629  -9.1564  -9.1484  -9.1230
    -9.0459  -9.0373  -9.0019  -8.9638   1.6801   1.6889   1.7069   1.7250
     1.7322   1.7522   1.7704   1.7831   1.8203   1.8301   1.8409   1.8718
     1.8817   1.9132   1.9392   1.9635   1.9786   1.9924   2.0166   2.0303
     2.0550   2.0706   2.0938   2.1196   2.1241   2.1353   2.1481   2.1700
     2.1743   2.1827   2.2083   2.2131   2.2296   2.2383   2.2544   2.2565
     2.2651   2.2790   2.2807   2.2999   2.3026   2.3246   2.3259   2.3457
     2.3490   2.3721   2.3773   2.3853   2.3922   2.4060   2.4135   2.4314
     2.4469   2.4744   2.4981   2.5221   2.5541   2.5740   2.5772   2.6022
     2.6143   2.6519   2.6607   2.6725   2.6962   2.7152   2.7235   2.7392
     2.7622   2.7754   2.7823   2.7890   2.8106   2.8183   2.8228   2.8322
     2.8566   2.8732   2.8808   2.8928   2.9127   2.9283   2.9335   2.9595
     2.9915   2.9981   3.0033   3.0285   3.0500   3.0595   3.0776   3.0835
     3.1144   3.1225   3.1420   3.1440   3.1503   3.1645   3.1675   3.1825
     3.1942   3.1970   3.2250   3.2339   3.2441   3.2570   3.2589   3.3003
     3.3170   3.3317   3.3831   3.4334   3.5065   3.5658   3.5997   3.6126
     3.6668   3.7049   3.7116   3.7568   3.7701   3.7983   3.8274   3.8516
     3.8709   3.9061   3.9487   3.9731   3.9908   4.0387   4.0996   4.1441
     4.1894   4.1941   4.2300   4.2607   4.2948   4.3705   4.4750   4.4859
     4.5336   4.5478   4.6045   4.6350   4.6743   4.7139   4.7217   4.7460
     4.7661   4.8537   4.9315   4.9456   4.9820   5.0984   5.1261   5.3004
     5.3252   5.3791   5.4182   5.4433   5.4743   5.5190   5.5686   5.5743
     5.6459   5.6639   5.6884   5.6949   5.7008   5.7156   5.7483   5.7833
     5.8066   5.8929   5.9006   5.9591   5.9723   6.0026   6.0294   6.0577
     6.0881   6.0987   6.1521   6.1947   6.2101   6.2285   6.2602   6.2672
     6.2950   6.3065   6.3175   6.3351   6.3687   6.3831   6.3859   6.3919
     6.4008   6.4257   6.5010   6.5228   6.5565   6.5855   6.5936   6.6303
     6.6539   6.6644   6.6897   6.7119   6.7535   6.7817   6.8252   6.9245
     6.9259   6.9685   7.0435   7.2208   7.2269   7.2458   8.9320  11.3959
    11.4416  12.0093  12.0599  12.1820  12.2594  12.3697  12.5419  12.9373
    12.9395  12.9562  12.9642  13.0054  13.0642  13.1817  13.2089  13.3088
    13.3183  13.4324  13.4962  13.6397  14.9656  14.9769  15.0820  15.0897
    15.1836  15.2049  15.2413  15.2666  15.3008  15.3113  15.3349  15.3555
    15.3807  15.3959  15.4102  15.4319  15.4730  15.5520  15.5848  15.6094
    15.6812  15.7925  15.8128  15.8523  15.9116  15.9944  16.0514  16.1463
    16.1973  16.2946  16.3185  16.3521  16.4172  16.4274  16.4316  16.4430
    16.4589  16.5903  16.9230  16.9997  17.0267  17.1758  17.3523  17.4282
    17.4563  17.5382  17.7103  17.7185  17.7541  18.0168  18.2608  18.3231
    18.3652  18.4275  18.5094  18.5879  18.7192  18.7915

     occupation numbers 
     1.0000   1.0000   1.0000   1.0000   1.0000   1.0000   1.0000   1.0000
     1.0000   1.0000   1.0000   1.0000   1.0000   1.0000   1.0000   1.0000
     1.0000   1.0000   1.0000   1.0000   1.0000   1.0000   1.0000   1.0000
     1.0000   1.0000   1.0000   1.0000   1.0000   1.0000   1.0000   1.0000
     1.0000   1.0000   1.0000   1.0000   1.0000   1.0000   1.0000   1.0000
     1.0000   1.0000   1.0000   1.0000   1.0000   1.0000   1.0000   1.0000
     1.0000   1.0000   1.0000   1.0000   1.0000   1.0000   1.0000   1.0000
     1.0000   1.0000   1.0000   1.0000   1.0000   1.0000   1.0000   1.0000
     1.0000   1.0000   1.0000   1.0000   1.0000   1.0000   1.0000   1.0000
     1.0000   1.0000   1.0000   1.0000   1.0000   1.0000   1.0000   1.0000
     1.0000   1.0000   1.0000   1.0000   1.0000   1.0000   1.0000   1.0000
     1.0000   1.0000   1.0000   1.0000   1.0000   1.0000   1.0000   1.0000
     1.0000   1.0000   1.0000   1.0000   1.0000   1.0000   1.0000   1.0000
     1.0000   1.0000   1.0000   1.0000   1.0000   1.0000   1.0000   1.0000
     1.0000   1.0000   1.0000   1.0000   1.0000   1.0000   1.0000   1.0000
     1.0000   1.0000   1.0000   1.0000   1.0000   1.0000   1.0000   1.0000
     1.0000   1.0000   1.0000   1.0000   1.0000   1.0000   1.0000   1.0000
     1.0000   1.0000   1.0000   1.0000   1.0000   1.0000   1.0000   1.0000
     1.0000   1.0000   1.0000   1.0000   1.0000   1.0000   1.0000   1.0000
     1.0000   1.0000   1.0000   1.0000   1.0000   1.0000   1.0000   1.0000
     1.0000   1.0000   1.0000   1.0000   1.0000   1.0000   1.0000   1.0000
     1.0000   1.0000   1.0000   1.0000   1.0000   1.0000   1.0000   1.0000
     1.0000   1.0000   1.0000   1.0000   1.0000   1.0000   1.0000   1.0000
     1.0000   1.0000   1.0000   1.0000   1.0000   1.0000   1.0000   1.0000
     1.0000   1.0000   1.0000   1.0000   1.0000   1.0000   1.0000   1.0000
     1.0000   1.0000   1.0000   1.0000   1.0000   1.0000   1.0000   1.0000
     1.0000   1.0000   1.0000   1.0000   1.0000   1.0000   1.0000   1.0000
     1.0000   1.0000   1.0000   1.0000   1.0000   1.0000   1.0000   1.0000
     1.0000   1.0000   1.0000   1.0000   1.0000   1.0000   1.0000   1.0000
     1.0000   1.0000   1.0000   1.0000   1.0000   1.0000   1.0000   1.0000
     1.0000   1.0000   1.0000   1.0000   1.0000   1.0000   1.0000   1.0000
     1.0000   1.0000   1.0000   1.0000   1.0000   1.0000   1.0000   1.0000
     1.0000   1.0000   1.0000   1.0000   1.0000   1.0000   1.0000   1.0000
     1.0000   1.0000   1.0000   1.0000   1.0000   1.0000   1.0000   1.0000
     1.0000   1.0000   1.0000   1.0000   1.0000   1.0000   1.0000   1.0000
     1.0000   1.0000   1.0000   1.0000   1.0000   1.0000   1.0000   1.0000
     1.0000   1.0000   1.0000   1.0000   1.0000   1.0000   1.0000   1.0000
     1.0000   1.0000   1.0000   1.0000   1.0000   1.0000   1.0000   1.0000
     1.0000   1.0000   1.0000   1.0000   1.0000   1.0000   1.0000   1.0000
     1.0000   1.0000   1.0000   1.0000   1.0000   1.0000   1.0000   1.0000
     1.0000   1.0000   1.0000   1.0000   1.0000   1.0000   1.0000   1.0000
     1.0000   1.0000   1.0000   1.0000   1.0000   1.0000   1.0000   1.0000
     1.0000   1.0000   1.0000   1.0000   1.0000   1.0000   1.0000   1.0000
     1.0000   1.0000   1.0000   1.0000   1.0000   1.0000   1.0000   1.0000
     1.0000   1.0000   1.0000   1.0000   1.0000   1.0000   1.0000   1.0000
     1.0000   1.0000   1.0000   1.0000   1.0000   1.0000   1.0000   1.0000
     1.0000   1.0000   1.0000   1.0000   1.0000   1.0000   1.0000   1.0000
     1.0000   1.0000   1.0000   1.0000   1.0000   1.0000   1.0000   1.0000
     1.0000   1.0000   1.0000   1.0000   1.0000   1.0000   1.0000   1.0000
     1.0000   1.0000   1.0000   1.0000   1.0000   1.0000   0.0000   0.0000
     0.0000   0.0000   0.0000   0.0000   0.0000   0.0000   0.0000   0.0000
     0.0000   0.0000   0.0000   0.0000   0.0000   0.0000   0.0000   0.0000
     0.0000   0.0000   0.0000   0.0000   0.0000   0.0000   0.0000   0.0000
     0.0000   0.0000   0.0000   0.0000   0.0000   0.0000   0.0000   0.0000
     0.0000   0.0000   0.0000   0.0000   0.0000   0.0000   0.0000   0.0000
     0.0000   0.0000   0.0000   0.0000   0.0000   0.0000   0.0000   0.0000
     0.0000   0.0000   0.0000   0.0000   0.0000   0.0000   0.0000   0.0000
     0.0000   0.0000   0.0000   0.0000   0.0000   0.0000   0.0000   0.0000
     0.0000   0.0000   0.0000   0.0000   0.0000   0.0000   0.0000   0.0000
     0.0000   0.0000   0.0000   0.0000   0.0000   0.0000

          k = 0.0001-0.0001 0.2364 ( 45018 PWs)   bands (ev):

  -115.5049-115.5036-115.4975-115.4907-115.4869-115.4868-115.4850-115.4847
  -115.4837-115.4836-115.4832-115.4820-115.4817-115.4815-115.4815-115.4811
  -115.4764-115.4763-115.4757-115.4756-115.4739-115.4648 -69.8650 -69.8629
   -69.8612 -69.8592 -69.8586 -69.8579 -69.8577 -69.8533 -69.8518 -69.8501
   -69.8497 -69.8486 -69.8480 -69.8476 -69.8467 -69.8455 -69.8455 -69.8446
   -69.8440 -69.8440 -69.8438 -69.8433 -69.8432 -69.8426 -69.8420 -69.8416
   -69.8408 -69.8406 -69.8404 -69.8401 -69.8392 -69.8390 -69.8390 -69.8388
   -69.8387 -69.8387 -69.8385 -69.8380 -69.8375 -69.8371 -69.8368 -69.8368
   -69.8365 -69.8365 -69.8365 -69.8364 -69.8360 -69.8347 -69.8342 -69.8342
   -69.8332 -69.8323 -69.8319 -69.8316 -69.8315 -69.8313 -69.8300 -69.8290
   -69.8287 -69.8272 -69.8267 -69.8263 -69.8256 -69.8234 -69.8216 -69.8169
   -64.9368 -64.9347 -64.9321 -64.9308 -64.9235 -64.9211 -64.9186 -64.9132
   -64.9079 -64.9069 -64.8989 -64.8953 -64.8857 -64.8752 -31.9315 -31.9293
   -31.9262 -31.9258 -31.9239 -31.9230 -31.9225 -31.9211 -31.9197 -31.9184
   -31.9169 -31.9160 -31.9149 -31.9143 -31.9103 -31.9095 -31.9076 -31.9074
   -31.9071 -31.9049 -31.9044 -31.9026 -31.9003 -31.8987 -31.8981 -31.8972
   -31.8959 -31.8934 -31.8915 -31.8892 -31.8890 -31.8871 -31.8834 -31.8819
   -31.8804 -31.8796 -31.8744 -31.8700 -31.8679 -31.8656 -31.8606 -31.8595
   -10.1221  -9.9313  -9.7408  -9.7238  -9.6791  -9.6648  -9.6202  -9.5852
    -9.5563  -9.5489  -9.5257  -9.4989  -9.4775  -9.4449  -9.4335  -9.4084
    -9.3681  -9.3555  -9.3305  -9.3118  -9.3006  -9.2655  -9.2594  -9.2344
    -9.2106  -9.2066  -9.1888  -9.1707  -9.1647  -9.1561  -9.1469  -9.1321
    -9.0510  -9.0407  -9.0050  -8.9686   1.6881   1.7056   1.7193   1.7354
     1.7584   1.7705   1.7910   1.8029   1.8265   1.8342   1.8519   1.8702
     1.9021   1.9207   1.9529   1.9820   1.9965   2.0050   2.0202   2.0343
     2.0622   2.0661   2.0851   2.1108   2.1214   2.1312   2.1481   2.1571
     2.1730   2.1777   2.1895   2.1974   2.2170   2.2278   2.2377   2.2517
     2.2618   2.2786   2.2862   2.2953   2.3143   2.3194   2.3351   2.3451
     2.3542   2.3590   2.3748   2.3889   2.3973   2.4021   2.4112   2.4301
     2.4441   2.4638   2.4831   2.5155   2.5314   2.5504   2.5635   2.5819
     2.6008   2.6227   2.6307   2.6483   2.6699   2.6912   2.7047   2.7083
     2.7269   2.7488   2.7663   2.7743   2.7837   2.8021   2.8187   2.8324
     2.8406   2.8458   2.8637   2.8833   2.9031   2.9302   2.9366   2.9438
     2.9742   2.9809   2.9952   3.0249   3.0395   3.0519   3.0725   3.0814
     3.1160   3.1334   3.1393   3.1432   3.1610   3.1682   3.1811   3.1894
     3.2011   3.2140   3.2286   3.2295   3.2400   3.2532   3.2750   3.2846
     3.3003   3.3301   3.4162   3.5027   3.5603   3.5851   3.6369   3.6558
     3.6858   3.7108   3.7298   3.7625   3.7905   3.8282   3.8491   3.8677
     3.8953   3.9218   3.9821   4.0001   4.0394   4.0727   4.1133   4.1688
     4.2017   4.2521   4.2575   4.3302   4.3406   4.4043   4.4339   4.4616
     4.4909   4.5241   4.5410   4.5622   4.6130   4.6482   4.7085   4.7373
     4.8208   4.8946   5.0054   5.0369   5.0881   5.1416   5.2396   5.3072
     5.3482   5.3790   5.4015   5.4317   5.4776   5.5097   5.5314   5.5482
     5.5862   5.6103   5.6248   5.6351   5.6876   5.6997   5.7283   5.7399
     5.7692   5.7903   5.8118   5.8642   5.8945   5.9238   5.9672   6.0012
     6.0329   6.0569   6.0847   6.1522   6.2055   6.2288   6.2580   6.2741
     6.3041   6.3346   6.3543   6.3729   6.4024   6.4211   6.4510   6.4799
     6.5101   6.5334   6.5462   6.5770   6.5976   6.6285   6.6365   6.6517
     6.6773   6.6899   6.7009   6.7185   6.7459   6.7770   6.8011   6.8467
     6.8911   7.0160   7.0412   7.0775   7.2090   7.2311   9.2458  10.6761
    11.9724  12.0376  12.0939  12.2188  12.2894  12.4129  12.4802  12.5342
    12.5499  12.6965  12.7867  12.8934  12.9930  13.2713  13.5687  13.6253
    13.7388  13.7491  13.8259  13.9338  14.7084  14.7277  14.8395  14.8971
    14.9652  15.0148  15.0280  15.0658  15.2278  15.2338  15.3254  15.3440
    15.3794  15.3908  15.4831  15.5514  15.6091  15.6205  15.6571  15.7198
    15.8080  15.8153  15.9016  15.9408  16.0138  16.0784  16.1507  16.2267
    16.2515  16.2635  16.2843  16.3452  16.3772  16.4400  16.4526  16.4740
    16.5486  16.6730  16.9552  16.9713  17.0925  17.1578  17.2223  17.2871
    17.4265  17.4667  17.5954  17.7103  17.7856  17.8965  18.0818  18.1860
    18.2290  18.3262  18.4236  18.5561  18.6659  18.7408

     occupation numbers 
     1.0000   1.0000   1.0000   1.0000   1.0000   1.0000   1.0000   1.0000
     1.0000   1.0000   1.0000   1.0000   1.0000   1.0000   1.0000   1.0000
     1.0000   1.0000   1.0000   1.0000   1.0000   1.0000   1.0000   1.0000
     1.0000   1.0000   1.0000   1.0000   1.0000   1.0000   1.0000   1.0000
     1.0000   1.0000   1.0000   1.0000   1.0000   1.0000   1.0000   1.0000
     1.0000   1.0000   1.0000   1.0000   1.0000   1.0000   1.0000   1.0000
     1.0000   1.0000   1.0000   1.0000   1.0000   1.0000   1.0000   1.0000
     1.0000   1.0000   1.0000   1.0000   1.0000   1.0000   1.0000   1.0000
     1.0000   1.0000   1.0000   1.0000   1.0000   1.0000   1.0000   1.0000
     1.0000   1.0000   1.0000   1.0000   1.0000   1.0000   1.0000   1.0000
     1.0000   1.0000   1.0000   1.0000   1.0000   1.0000   1.0000   1.0000
     1.0000   1.0000   1.0000   1.0000   1.0000   1.0000   1.0000   1.0000
     1.0000   1.0000   1.0000   1.0000   1.0000   1.0000   1.0000   1.0000
     1.0000   1.0000   1.0000   1.0000   1.0000   1.0000   1.0000   1.0000
     1.0000   1.0000   1.0000   1.0000   1.0000   1.0000   1.0000   1.0000
     1.0000   1.0000   1.0000   1.0000   1.0000   1.0000   1.0000   1.0000
     1.0000   1.0000   1.0000   1.0000   1.0000   1.0000   1.0000   1.0000
     1.0000   1.0000   1.0000   1.0000   1.0000   1.0000   1.0000   1.0000
     1.0000   1.0000   1.0000   1.0000   1.0000   1.0000   1.0000   1.0000
     1.0000   1.0000   1.0000   1.0000   1.0000   1.0000   1.0000   1.0000
     1.0000   1.0000   1.0000   1.0000   1.0000   1.0000   1.0000   1.0000
     1.0000   1.0000   1.0000   1.0000   1.0000   1.0000   1.0000   1.0000
     1.0000   1.0000   1.0000   1.0000   1.0000   1.0000   1.0000   1.0000
     1.0000   1.0000   1.0000   1.0000   1.0000   1.0000   1.0000   1.0000
     1.0000   1.0000   1.0000   1.0000   1.0000   1.0000   1.0000   1.0000
     1.0000   1.0000   1.0000   1.0000   1.0000   1.0000   1.0000   1.0000
     1.0000   1.0000   1.0000   1.0000   1.0000   1.0000   1.0000   1.0000
     1.0000   1.0000   1.0000   1.0000   1.0000   1.0000   1.0000   1.0000
     1.0000   1.0000   1.0000   1.0000   1.0000   1.0000   1.0000   1.0000
     1.0000   1.0000   1.0000   1.0000   1.0000   1.0000   1.0000   1.0000
     1.0000   1.0000   1.0000   1.0000   1.0000   1.0000   1.0000   1.0000
     1.0000   1.0000   1.0000   1.0000   1.0000   1.0000   1.0000   1.0000
     1.0000   1.0000   1.0000   1.0000   1.0000   1.0000   1.0000   1.0000
     1.0000   1.0000   1.0000   1.0000   1.0000   1.0000   1.0000   1.0000
     1.0000   1.0000   1.0000   1.0000   1.0000   1.0000   1.0000   1.0000
     1.0000   1.0000   1.0000   1.0000   1.0000   1.0000   1.0000   1.0000
     1.0000   1.0000   1.0000   1.0000   1.0000   1.0000   1.0000   1.0000
     1.0000   1.0000   1.0000   1.0000   1.0000   1.0000   1.0000   1.0000
     1.0000   1.0000   1.0000   1.0000   1.0000   1.0000   1.0000   1.0000
     1.0000   1.0000   1.0000   1.0000   1.0000   1.0000   1.0000   1.0000
     1.0000   1.0000   1.0000   1.0000   1.0000   1.0000   1.0000   1.0000
     1.0000   1.0000   1.0000   1.0000   1.0000   1.0000   1.0000   1.0000
     1.0000   1.0000   1.0000   1.0000   1.0000   1.0000   1.0000   1.0000
     1.0000   1.0000   1.0000   1.0000   1.0000   1.0000   1.0000   1.0000
     1.0000   1.0000   1.0000   1.0000   1.0000   1.0000   1.0000   1.0000
     1.0000   1.0000   1.0000   1.0000   1.0000   1.0000   1.0000   1.0000
     1.0000   1.0000   1.0000   1.0000   1.0000   1.0000   1.0000   1.0000
     1.0000   1.0000   1.0000   1.0000   1.0000   1.0000   1.0000   1.0000
     1.0000   1.0000   1.0000   1.0000   1.0000   1.0000   1.0000   1.0000
     1.0000   1.0000   1.0000   1.0000   1.0000   1.0000   0.0000   0.0000
     0.0000   0.0000   0.0000   0.0000   0.0000   0.0000   0.0000   0.0000
     0.0000   0.0000   0.0000   0.0000   0.0000   0.0000   0.0000   0.0000
     0.0000   0.0000   0.0000   0.0000   0.0000   0.0000   0.0000   0.0000
     0.0000   0.0000   0.0000   0.0000   0.0000   0.0000   0.0000   0.0000
     0.0000   0.0000   0.0000   0.0000   0.0000   0.0000   0.0000   0.0000
     0.0000   0.0000   0.0000   0.0000   0.0000   0.0000   0.0000   0.0000
     0.0000   0.0000   0.0000   0.0000   0.0000   0.0000   0.0000   0.0000
     0.0000   0.0000   0.0000   0.0000   0.0000   0.0000   0.0000   0.0000
     0.0000   0.0000   0.0000   0.0000   0.0000   0.0000   0.0000   0.0000
     0.0000   0.0000   0.0000   0.0000   0.0000   0.0000

          k =-0.0002 0.0001-0.4727 ( 44974 PWs)   bands (ev):

  -115.5049-115.5036-115.4975-115.4907-115.4869-115.4868-115.4850-115.4847
  -115.4837-115.4836-115.4832-115.4820-115.4817-115.4815-115.4815-115.4811
  -115.4764-115.4763-115.4757-115.4756-115.4739-115.4648 -69.8650 -69.8629
   -69.8612 -69.8592 -69.8586 -69.8579 -69.8577 -69.8533 -69.8518 -69.8501
   -69.8497 -69.8486 -69.8480 -69.8476 -69.8467 -69.8455 -69.8455 -69.8446
   -69.8440 -69.8440 -69.8438 -69.8433 -69.8432 -69.8426 -69.8420 -69.8416
   -69.8408 -69.8406 -69.8404 -69.8401 -69.8392 -69.8390 -69.8390 -69.8388
   -69.8387 -69.8387 -69.8385 -69.8380 -69.8375 -69.8371 -69.8368 -69.8368
   -69.8365 -69.8365 -69.8365 -69.8364 -69.8360 -69.8347 -69.8342 -69.8342
   -69.8332 -69.8323 -69.8319 -69.8316 -69.8315 -69.8313 -69.8300 -69.8290
   -69.8287 -69.8272 -69.8267 -69.8263 -69.8256 -69.8234 -69.8216 -69.8169
   -64.9368 -64.9347 -64.9321 -64.9308 -64.9235 -64.9211 -64.9186 -64.9132
   -64.9079 -64.9069 -64.8989 -64.8953 -64.8857 -64.8752 -31.9315 -31.9292
   -31.9263 -31.9258 -31.9239 -31.9229 -31.9224 -31.9211 -31.9197 -31.9183
   -31.9172 -31.9160 -31.9149 -31.9143 -31.9103 -31.9095 -31.9076 -31.9073
   -31.9071 -31.9049 -31.9044 -31.9026 -31.9002 -31.8987 -31.8981 -31.8972
   -31.8959 -31.8934 -31.8914 -31.8893 -31.8890 -31.8871 -31.8834 -31.8820
   -31.8804 -31.8796 -31.8744 -31.8700 -31.8679 -31.8656 -31.8606 -31.8595
   -10.0687 -10.0181  -9.7185  -9.7046  -9.6685  -9.6573  -9.6162  -9.5910
    -9.5821  -9.5482  -9.5289  -9.5002  -9.4914  -9.4501  -9.4364  -9.4181
    -9.3754  -9.3522  -9.3123  -9.3003  -9.2860  -9.2620  -9.2496  -9.2325
    -9.2172  -9.2015  -9.1831  -9.1717  -9.1605  -9.1529  -9.1468  -9.1432
    -9.0581  -9.0433  -9.0081  -8.9738   1.7007   1.7111   1.7378   1.7507
     1.7784   1.7871   1.8061   1.8138   1.8285   1.8621   1.8757   1.8979
     1.9161   1.9318   1.9656   1.9994   2.0070   2.0185   2.0292   2.0460
     2.0564   2.0669   2.0849   2.0947   2.1079   2.1178   2.1358   2.1430
     2.1539   2.1630   2.1766   2.1992   2.2029   2.2209   2.2271   2.2513
     2.2589   2.2775   2.2840   2.3048   2.3139   2.3219   2.3455   2.3520
     2.3539   2.3677   2.3759   2.3792   2.3956   2.4089   2.4155   2.4312
     2.4401   2.4547   2.4583   2.4690   2.4804   2.4952   2.5381   2.5510
     2.5790   2.5982   2.6121   2.6342   2.6433   2.6634   2.6805   2.7087
     2.7276   2.7321   2.7472   2.7704   2.7782   2.7856   2.7917   2.8149
     2.8234   2.8379   2.8607   2.8766   2.9020   2.9100   2.9429   2.9498
     2.9572   2.9784   2.9881   3.0175   3.0272   3.0552   3.0727   3.0934
     3.1109   3.1240   3.1437   3.1557   3.1636   3.1836   3.1874   3.1947
     3.2055   3.2207   3.2312   3.2384   3.2399   3.2493   3.2668   3.2853
     3.2979   3.3306   3.5082   3.5539   3.5712   3.6201   3.6462   3.6751
     3.6939   3.6993   3.7354   3.7602   3.8177   3.8442   3.8635   3.8960
     3.9433   3.9841   4.0142   4.0410   4.0757   4.0864   4.1054   4.1207
     4.1547   4.1886   4.2547   4.3467   4.3642   4.3988   4.4041   4.4922
     4.5175   4.5412   4.5689   4.6479   4.6969   4.7307   4.7842   4.8132
     4.9190   4.9442   4.9831   4.9934   5.1132   5.1752   5.2129   5.2401
     5.2657   5.2965   5.3171   5.3288   5.3892   5.3920   5.4198   5.4659
     5.6246   5.6389   5.6559   5.6721   5.6988   5.7099   5.7540   5.7624
     5.7971   5.8278   5.8326   5.8691   5.8861   5.9020   5.9196   5.9245
     5.9389   5.9782   5.9977   6.0073   6.2057   6.2430   6.2731   6.2825
     6.3267   6.3506   6.3831   6.3935   6.4319   6.4567   6.4778   6.5335
     6.5472   6.5735   6.5758   6.6178   6.6415   6.6466   6.6717   6.6794
     6.6945   6.7264   6.7280   6.7426   6.7581   6.7776   6.7907   6.8032
     6.8090   6.8414   7.0948   7.1109   7.1872   7.2106   9.8675   9.9579
    12.1077  12.1387  12.1772  12.2393  12.2523  12.2641  12.3355  12.4100
    12.5408  12.6584  12.7152  12.7994  12.9408  13.0162  14.1437  14.1577
    14.1872  14.2036  14.2371  14.2639  14.3156  14.3668  14.4002  14.4488
    14.4790  14.5549  15.1036  15.1093  15.1359  15.1413  15.3300  15.3489
    15.3836  15.3949  15.5141  15.5608  15.5853  15.6850  15.8146  15.8414
    15.9317  15.9514  15.9707  15.9906  16.0093  16.0524  16.1224  16.1745
    16.3067  16.3337  16.3388  16.3696  16.3906  16.4207  16.5328  16.5945
    16.6431  16.7585  16.8391  16.9224  17.0181  17.0484  17.2486  17.2809
    17.3479  17.5336  17.6060  17.6285  17.7042  17.7803  17.9131  17.9620
    18.2319  18.3236  18.3858  18.5334  18.7021  18.7155

     occupation numbers 
     1.0000   1.0000   1.0000   1.0000   1.0000   1.0000   1.0000   1.0000
     1.0000   1.0000   1.0000   1.0000   1.0000   1.0000   1.0000   1.0000
     1.0000   1.0000   1.0000   1.0000   1.0000   1.0000   1.0000   1.0000
     1.0000   1.0000   1.0000   1.0000   1.0000   1.0000   1.0000   1.0000
     1.0000   1.0000   1.0000   1.0000   1.0000   1.0000   1.0000   1.0000
     1.0000   1.0000   1.0000   1.0000   1.0000   1.0000   1.0000   1.0000
     1.0000   1.0000   1.0000   1.0000   1.0000   1.0000   1.0000   1.0000
     1.0000   1.0000   1.0000   1.0000   1.0000   1.0000   1.0000   1.0000
     1.0000   1.0000   1.0000   1.0000   1.0000   1.0000   1.0000   1.0000
     1.0000   1.0000   1.0000   1.0000   1.0000   1.0000   1.0000   1.0000
     1.0000   1.0000   1.0000   1.0000   1.0000   1.0000   1.0000   1.0000
     1.0000   1.0000   1.0000   1.0000   1.0000   1.0000   1.0000   1.0000
     1.0000   1.0000   1.0000   1.0000   1.0000   1.0000   1.0000   1.0000
     1.0000   1.0000   1.0000   1.0000   1.0000   1.0000   1.0000   1.0000
     1.0000   1.0000   1.0000   1.0000   1.0000   1.0000   1.0000   1.0000
     1.0000   1.0000   1.0000   1.0000   1.0000   1.0000   1.0000   1.0000
     1.0000   1.0000   1.0000   1.0000   1.0000   1.0000   1.0000   1.0000
     1.0000   1.0000   1.0000   1.0000   1.0000   1.0000   1.0000   1.0000
     1.0000   1.0000   1.0000   1.0000   1.0000   1.0000   1.0000   1.0000
     1.0000   1.0000   1.0000   1.0000   1.0000   1.0000   1.0000   1.0000
     1.0000   1.0000   1.0000   1.0000   1.0000   1.0000   1.0000   1.0000
     1.0000   1.0000   1.0000   1.0000   1.0000   1.0000   1.0000   1.0000
     1.0000   1.0000   1.0000   1.0000   1.0000   1.0000   1.0000   1.0000
     1.0000   1.0000   1.0000   1.0000   1.0000   1.0000   1.0000   1.0000
     1.0000   1.0000   1.0000   1.0000   1.0000   1.0000   1.0000   1.0000
     1.0000   1.0000   1.0000   1.0000   1.0000   1.0000   1.0000   1.0000
     1.0000   1.0000   1.0000   1.0000   1.0000   1.0000   1.0000   1.0000
     1.0000   1.0000   1.0000   1.0000   1.0000   1.0000   1.0000   1.0000
     1.0000   1.0000   1.0000   1.0000   1.0000   1.0000   1.0000   1.0000
     1.0000   1.0000   1.0000   1.0000   1.0000   1.0000   1.0000   1.0000
     1.0000   1.0000   1.0000   1.0000   1.0000   1.0000   1.0000   1.0000
     1.0000   1.0000   1.0000   1.0000   1.0000   1.0000   1.0000   1.0000
     1.0000   1.0000   1.0000   1.0000   1.0000   1.0000   1.0000   1.0000
     1.0000   1.0000   1.0000   1.0000   1.0000   1.0000   1.0000   1.0000
     1.0000   1.0000   1.0000   1.0000   1.0000   1.0000   1.0000   1.0000
     1.0000   1.0000   1.0000   1.0000   1.0000   1.0000   1.0000   1.0000
     1.0000   1.0000   1.0000   1.0000   1.0000   1.0000   1.0000   1.0000
     1.0000   1.0000   1.0000   1.0000   1.0000   1.0000   1.0000   1.0000
     1.0000   1.0000   1.0000   1.0000   1.0000   1.0000   1.0000   1.0000
     1.0000   1.0000   1.0000   1.0000   1.0000   1.0000   1.0000   1.0000
     1.0000   1.0000   1.0000   1.0000   1.0000   1.0000   1.0000   1.0000
     1.0000   1.0000   1.0000   1.0000   1.0000   1.0000   1.0000   1.0000
     1.0000   1.0000   1.0000   1.0000   1.0000   1.0000   1.0000   1.0000
     1.0000   1.0000   1.0000   1.0000   1.0000   1.0000   1.0000   1.0000
     1.0000   1.0000   1.0000   1.0000   1.0000   1.0000   1.0000   1.0000
     1.0000   1.0000   1.0000   1.0000   1.0000   1.0000   1.0000   1.0000
     1.0000   1.0000   1.0000   1.0000   1.0000   1.0000   1.0000   1.0000
     1.0000   1.0000   1.0000   1.0000   1.0000   1.0000   1.0000   1.0000
     1.0000   1.0000   1.0000   1.0000   1.0000   1.0000   1.0000   1.0000
     1.0000   1.0000   1.0000   1.0000   1.0000   1.0000   0.0000   0.0000
     0.0000   0.0000   0.0000   0.0000   0.0000   0.0000   0.0000   0.0000
     0.0000   0.0000   0.0000   0.0000   0.0000   0.0000   0.0000   0.0000
     0.0000   0.0000   0.0000   0.0000   0.0000   0.0000   0.0000   0.0000
     0.0000   0.0000   0.0000   0.0000   0.0000   0.0000   0.0000   0.0000
     0.0000   0.0000   0.0000   0.0000   0.0000   0.0000   0.0000   0.0000
     0.0000   0.0000   0.0000   0.0000   0.0000   0.0000   0.0000   0.0000
     0.0000   0.0000   0.0000   0.0000   0.0000   0.0000   0.0000   0.0000
     0.0000   0.0000   0.0000   0.0000   0.0000   0.0000   0.0000   0.0000
     0.0000   0.0000   0.0000   0.0000   0.0000   0.0000   0.0000   0.0000
     0.0000   0.0000   0.0000   0.0000   0.0000   0.0000

          k =-0.0001 0.2886-0.0001 ( 44940 PWs)   bands (ev):

  -115.5049-115.5036-115.4975-115.4907-115.4869-115.4868-115.4850-115.4847
  -115.4837-115.4836-115.4832-115.4820-115.4817-115.4815-115.4815-115.4811
  -115.4764-115.4763-115.4757-115.4756-115.4739-115.4648 -69.8650 -69.8629
   -69.8612 -69.8592 -69.8586 -69.8579 -69.8577 -69.8533 -69.8518 -69.8501
   -69.8497 -69.8487 -69.8480 -69.8476 -69.8467 -69.8455 -69.8455 -69.8446
   -69.8440 -69.8440 -69.8438 -69.8433 -69.8432 -69.8426 -69.8420 -69.8416
   -69.8408 -69.8406 -69.8404 -69.8401 -69.8392 -69.8390 -69.8390 -69.8388
   -69.8387 -69.8387 -69.8385 -69.8380 -69.8375 -69.8371 -69.8368 -69.8368
   -69.8365 -69.8365 -69.8364 -69.8364 -69.8360 -69.8347 -69.8342 -69.8342
   -69.8332 -69.8323 -69.8319 -69.8316 -69.8315 -69.8313 -69.8300 -69.8290
   -69.8287 -69.8272 -69.8267 -69.8263 -69.8256 -69.8234 -69.8216 -69.8169
   -64.9368 -64.9347 -64.9321 -64.9308 -64.9235 -64.9211 -64.9186 -64.9132
   -64.9079 -64.9069 -64.8989 -64.8953 -64.8857 -64.8752 -31.9315 -31.9293
   -31.9261 -31.9257 -31.9239 -31.9232 -31.9225 -31.9211 -31.9196 -31.9184
   -31.9167 -31.9160 -31.9149 -31.9143 -31.9104 -31.9096 -31.9077 -31.9075
   -31.9071 -31.9049 -31.9044 -31.9026 -31.9003 -31.8987 -31.8980 -31.8972
   -31.8960 -31.8933 -31.8915 -31.8892 -31.8890 -31.8871 -31.8835 -31.8819
   -31.8803 -31.8796 -31.8744 -31.8700 -31.8680 -31.8656 -31.8606 -31.8595
   -10.1103  -9.8830  -9.7891  -9.7555  -9.7363  -9.6537  -9.6270  -9.5859
    -9.5477  -9.5259  -9.5066  -9.4900  -9.4683  -9.4373  -9.4147  -9.3940
    -9.3744  -9.3543  -9.3487  -9.3056  -9.2924  -9.2802  -9.2592  -9.2373
    -9.2296  -9.2122  -9.2020  -9.1739  -9.1695  -9.1538  -9.1447  -9.1206
    -9.0452  -9.0293  -9.0046  -8.9650   1.6908   1.7052   1.7209   1.7361
     1.7536   1.7679   1.7858   1.7984   1.8276   1.8403   1.8562   1.8749
     1.9029   1.9211   1.9424   1.9673   1.9843   2.0090   2.0243   2.0276
     2.0477   2.0597   2.0920   2.1128   2.1270   2.1326   2.1445   2.1575
     2.1752   2.1825   2.1982   2.2077   2.2150   2.2250   2.2462   2.2523
     2.2610   2.2734   2.2866   2.2966   2.3059   2.3120   2.3262   2.3316
     2.3395   2.3504   2.3650   2.3727   2.3837   2.4058   2.4166   2.4306
     2.4460   2.4737   2.4755   2.4913   2.5086   2.5201   2.5544   2.5753
     2.6036   2.6380   2.6614   2.6675   2.6802   2.7000   2.7126   2.7269
     2.7344   2.7608   2.7708   2.7955   2.8029   2.8120   2.8193   2.8324
     2.8565   2.8634   2.8745   2.8908   2.9128   2.9245   2.9428   2.9626
     2.9740   3.0046   3.0104   3.0172   3.0308   3.0576   3.0696   3.0950
     3.1077   3.1177   3.1293   3.1481   3.1600   3.1676   3.1896   3.2028
     3.2057   3.2196   3.2302   3.2347   3.2391   3.2609   3.2759   3.2980
     3.3050   3.3350   3.3701   3.4118   3.4564   3.5181   3.5618   3.5708
     3.6288   3.6701   3.7081   3.7256   3.7543   3.7781   3.8088   3.8429
     3.8685   3.8911   3.9558   3.9830   4.0005   4.0612   4.1100   4.1774
     4.1853   4.2599   4.2746   4.3904   4.4411   4.4968   4.5438   4.5830
     4.6004   4.6392   4.6753   4.7316   4.7690   4.7792   4.8448   4.8816
     4.9181   4.9424   4.9672   4.9813   5.0217   5.0951   5.1079   5.1576
     5.2080   5.2397   5.3611   5.3702   5.4542   5.5485   5.5769   5.6309
     5.6502   5.6688   5.7000   5.7316   5.7515   5.7815   5.7933   5.8161
     5.8338   5.8753   5.9109   5.9430   5.9607   5.9828   6.0067   6.0229
     6.0552   6.0721   6.0972   6.1506   6.1724   6.1859   6.2318   6.2534
     6.2704   6.2984   6.3333   6.3450   6.3514   6.3763   6.3850   6.4001
     6.4097   6.4320   6.4404   6.4572   6.4796   6.4962   6.5368   6.5490
     6.5826   6.6051   6.6406   6.7446   6.7637   6.7911   6.8228   6.8661
     6.9003   6.9174   6.9573   7.0128   7.1832   7.1903   9.3685  11.1850
    11.5871  11.6462  11.7747  12.1133  12.6294  12.6545  12.7066  12.8874
    12.9196  12.9899  13.1001  13.1393  13.2249  13.3235  13.3701  13.4533
    13.4855  13.6161  13.6603  13.8238  14.6017  14.6409  14.6692  14.7497
    14.7904  14.8713  14.9039  14.9865  15.0095  15.0435  15.1153  15.1475
    15.2579  15.3080  15.4237  15.4797  15.5074  15.5515  15.6080  15.6509
    15.8004  15.8803  15.9987  16.0662  16.1124  16.1704  16.2172  16.3440
    16.3676  16.4337  16.4529  16.5046  16.5436  16.5748  16.6171  16.6868
    16.7466  16.8383  17.0403  17.1123  17.2523  17.3246  17.3761  17.4342
    17.5202  17.6276  17.7306  17.8067  17.8385  18.0155  18.2591  18.2958
    18.3358  18.3919  18.5311  18.5650  18.6039  18.7072

     occupation numbers 
     1.0000   1.0000   1.0000   1.0000   1.0000   1.0000   1.0000   1.0000
     1.0000   1.0000   1.0000   1.0000   1.0000   1.0000   1.0000   1.0000
     1.0000   1.0000   1.0000   1.0000   1.0000   1.0000   1.0000   1.0000
     1.0000   1.0000   1.0000   1.0000   1.0000   1.0000   1.0000   1.0000
     1.0000   1.0000   1.0000   1.0000   1.0000   1.0000   1.0000   1.0000
     1.0000   1.0000   1.0000   1.0000   1.0000   1.0000   1.0000   1.0000
     1.0000   1.0000   1.0000   1.0000   1.0000   1.0000   1.0000   1.0000
     1.0000   1.0000   1.0000   1.0000   1.0000   1.0000   1.0000   1.0000
     1.0000   1.0000   1.0000   1.0000   1.0000   1.0000   1.0000   1.0000
     1.0000   1.0000   1.0000   1.0000   1.0000   1.0000   1.0000   1.0000
     1.0000   1.0000   1.0000   1.0000   1.0000   1.0000   1.0000   1.0000
     1.0000   1.0000   1.0000   1.0000   1.0000   1.0000   1.0000   1.0000
     1.0000   1.0000   1.0000   1.0000   1.0000   1.0000   1.0000   1.0000
     1.0000   1.0000   1.0000   1.0000   1.0000   1.0000   1.0000   1.0000
     1.0000   1.0000   1.0000   1.0000   1.0000   1.0000   1.0000   1.0000
     1.0000   1.0000   1.0000   1.0000   1.0000   1.0000   1.0000   1.0000
     1.0000   1.0000   1.0000   1.0000   1.0000   1.0000   1.0000   1.0000
     1.0000   1.0000   1.0000   1.0000   1.0000   1.0000   1.0000   1.0000
     1.0000   1.0000   1.0000   1.0000   1.0000   1.0000   1.0000   1.0000
     1.0000   1.0000   1.0000   1.0000   1.0000   1.0000   1.0000   1.0000
     1.0000   1.0000   1.0000   1.0000   1.0000   1.0000   1.0000   1.0000
     1.0000   1.0000   1.0000   1.0000   1.0000   1.0000   1.0000   1.0000
     1.0000   1.0000   1.0000   1.0000   1.0000   1.0000   1.0000   1.0000
     1.0000   1.0000   1.0000   1.0000   1.0000   1.0000   1.0000   1.0000
     1.0000   1.0000   1.0000   1.0000   1.0000   1.0000   1.0000   1.0000
     1.0000   1.0000   1.0000   1.0000   1.0000   1.0000   1.0000   1.0000
     1.0000   1.0000   1.0000   1.0000   1.0000   1.0000   1.0000   1.0000
     1.0000   1.0000   1.0000   1.0000   1.0000   1.0000   1.0000   1.0000
     1.0000   1.0000   1.0000   1.0000   1.0000   1.0000   1.0000   1.0000
     1.0000   1.0000   1.0000   1.0000   1.0000   1.0000   1.0000   1.0000
     1.0000   1.0000   1.0000   1.0000   1.0000   1.0000   1.0000   1.0000
     1.0000   1.0000   1.0000   1.0000   1.0000   1.0000   1.0000   1.0000
     1.0000   1.0000   1.0000   1.0000   1.0000   1.0000   1.0000   1.0000
     1.0000   1.0000   1.0000   1.0000   1.0000   1.0000   1.0000   1.0000
     1.0000   1.0000   1.0000   1.0000   1.0000   1.0000   1.0000   1.0000
     1.0000   1.0000   1.0000   1.0000   1.0000   1.0000   1.0000   1.0000
     1.0000   1.0000   1.0000   1.0000   1.0000   1.0000   1.0000   1.0000
     1.0000   1.0000   1.0000   1.0000   1.0000   1.0000   1.0000   1.0000
     1.0000   1.0000   1.0000   1.0000   1.0000   1.0000   1.0000   1.0000
     1.0000   1.0000   1.0000   1.0000   1.0000   1.0000   1.0000   1.0000
     1.0000   1.0000   1.0000   1.0000   1.0000   1.0000   1.0000   1.0000
     1.0000   1.0000   1.0000   1.0000   1.0000   1.0000   1.0000   1.0000
     1.0000   1.0000   1.0000   1.0000   1.0000   1.0000   1.0000   1.0000
     1.0000   1.0000   1.0000   1.0000   1.0000   1.0000   1.0000   1.0000
     1.0000   1.0000   1.0000   1.0000   1.0000   1.0000   1.0000   1.0000
     1.0000   1.0000   1.0000   1.0000   1.0000   1.0000   1.0000   1.0000
     1.0000   1.0000   1.0000   1.0000   1.0000   1.0000   1.0000   1.0000
     1.0000   1.0000   1.0000   1.0000   1.0000   1.0000   1.0000   1.0000
     1.0000   1.0000   1.0000   1.0000   1.0000   1.0000   1.0000   1.0000
     1.0000   1.0000   1.0000   1.0000   1.0000   1.0000   0.0000   0.0000
     0.0000   0.0000   0.0000   0.0000   0.0000   0.0000   0.0000   0.0000
     0.0000   0.0000   0.0000   0.0000   0.0000   0.0000   0.0000   0.0000
     0.0000   0.0000   0.0000   0.0000   0.0000   0.0000   0.0000   0.0000
     0.0000   0.0000   0.0000   0.0000   0.0000   0.0000   0.0000   0.0000
     0.0000   0.0000   0.0000   0.0000   0.0000   0.0000   0.0000   0.0000
     0.0000   0.0000   0.0000   0.0000   0.0000   0.0000   0.0000   0.0000
     0.0000   0.0000   0.0000   0.0000   0.0000   0.0000   0.0000   0.0000
     0.0000   0.0000   0.0000   0.0000   0.0000   0.0000   0.0000   0.0000
     0.0000   0.0000   0.0000   0.0000   0.0000   0.0000   0.0000   0.0000
     0.0000   0.0000   0.0000   0.0000   0.0000   0.0000

          k =-0.0000 0.2885 0.2363 ( 44982 PWs)   bands (ev):

  -115.5049-115.5036-115.4975-115.4907-115.4869-115.4868-115.4850-115.4847
  -115.4837-115.4836-115.4832-115.4820-115.4817-115.4815-115.4815-115.4811
  -115.4764-115.4763-115.4757-115.4756-115.4739-115.4648 -69.8650 -69.8629
   -69.8612 -69.8592 -69.8586 -69.8579 -69.8577 -69.8533 -69.8518 -69.8501
   -69.8497 -69.8486 -69.8480 -69.8476 -69.8467 -69.8455 -69.8455 -69.8446
   -69.8440 -69.8440 -69.8438 -69.8433 -69.8432 -69.8426 -69.8420 -69.8416
   -69.8408 -69.8406 -69.8404 -69.8401 -69.8392 -69.8390 -69.8390 -69.8388
   -69.8387 -69.8387 -69.8385 -69.8380 -69.8375 -69.8371 -69.8368 -69.8368
   -69.8365 -69.8365 -69.8364 -69.8364 -69.8360 -69.8347 -69.8342 -69.8342
   -69.8332 -69.8323 -69.8319 -69.8316 -69.8315 -69.8313 -69.8300 -69.8290
   -69.8287 -69.8272 -69.8267 -69.8263 -69.8256 -69.8234 -69.8216 -69.8169
   -64.9368 -64.9347 -64.9321 -64.9308 -64.9235 -64.9211 -64.9186 -64.9132
   -64.9079 -64.9069 -64.8989 -64.8953 -64.8857 -64.8752 -31.9315 -31.9293
   -31.9262 -31.9258 -31.9239 -31.9230 -31.9225 -31.9211 -31.9197 -31.9184
   -31.9169 -31.9160 -31.9149 -31.9143 -31.9103 -31.9095 -31.9077 -31.9074
   -31.9071 -31.9049 -31.9044 -31.9026 -31.9003 -31.8987 -31.8980 -31.8972
   -31.8960 -31.8934 -31.8914 -31.8892 -31.8890 -31.8871 -31.8834 -31.8820
   -31.8803 -31.8796 -31.8744 -31.8700 -31.8680 -31.8656 -31.8606 -31.8595
   -10.0852  -9.9204  -9.8111  -9.7542  -9.6951  -9.6655  -9.6269  -9.6118
    -9.5512  -9.5266  -9.5168  -9.4760  -9.4516  -9.4350  -9.4110  -9.3924
    -9.3739  -9.3491  -9.3365  -9.3115  -9.2941  -9.2771  -9.2509  -9.2411
    -9.2269  -9.2147  -9.2026  -9.1760  -9.1592  -9.1543  -9.1455  -9.1248
    -9.0507  -9.0326  -9.0065  -8.9687   1.7010   1.7251   1.7414   1.7540
     1.7712   1.7898   1.8017   1.8154   1.8405   1.8468   1.8661   1.8886
     1.9075   1.9315   1.9571   1.9746   1.9957   2.0090   2.0238   2.0437
     2.0515   2.0575   2.0855   2.1070   2.1223   2.1307   2.1412   2.1485
     2.1631   2.1832   2.1862   2.2035   2.2116   2.2236   2.2304   2.2435
     2.2502   2.2745   2.2796   2.2954   2.3001   2.3149   2.3213   2.3326
     2.3380   2.3445   2.3591   2.3734   2.3865   2.4043   2.4173   2.4282
     2.4465   2.4548   2.4742   2.4798   2.5024   2.5116   2.5229   2.5473
     2.5699   2.5887   2.6031   2.6382   2.6613   2.6723   2.6900   2.7157
     2.7340   2.7429   2.7576   2.7687   2.7776   2.7895   2.8124   2.8208
     2.8417   2.8674   2.8736   2.8794   2.8988   2.9195   2.9467   2.9520
     2.9742   2.9798   3.0136   3.0330   3.0434   3.0528   3.0740   3.0918
     3.1146   3.1215   3.1353   3.1428   3.1644   3.1712   3.1832   3.1960
     3.2041   3.2217   3.2282   3.2361   3.2411   3.2606   3.2622   3.2887
     3.3046   3.3310   3.4061   3.4764   3.5057   3.5524   3.5728   3.6213
     3.6810   3.6968   3.7206   3.7486   3.7638   3.8021   3.8165   3.8588
     3.8711   3.9253   3.9699   4.0250   4.0548   4.0941   4.1149   4.1913
     4.2274   4.2720   4.3070   4.3953   4.4372   4.4917   4.5174   4.5416
     4.5868   4.6058   4.6387   4.6699   4.6894   4.7411   4.8168   4.8341
     4.8900   4.9827   5.0112   5.1278   5.1822   5.2169   5.2319   5.2609
     5.2902   5.3277   5.3787   5.4041   5.4522   5.4800   5.5040   5.5441
     5.5733   5.5960   5.6125   5.6487   5.6596   5.6773   5.7256   5.7843
     5.7960   5.8301   5.8673   5.8773   5.9084   5.9253   5.9765   6.0067
     6.0377   6.0813   6.0886   6.1368   6.1589   6.1710   6.2062   6.2262
     6.2548   6.3014   6.3175   6.3282   6.3494   6.3906   6.4092   6.4271
     6.4610   6.4946   6.5155   6.5327   6.5405   6.5634   6.5727   6.6031
     6.6255   6.6400   6.6685   6.7044   6.7397   6.7791   6.8085   6.8427
     6.8790   6.8924   6.9982   7.0419   7.1580   7.1674   9.6059  10.8759
    11.3122  11.7966  12.0410  12.1380  12.3319  12.3681  12.5886  12.7904
    12.9327  13.0043  13.1158  13.1881  13.3086  13.4034  13.5275  13.5956
    13.7920  13.8203  13.8833  14.0563  14.4923  14.5443  14.6026  14.6568
    14.7089  14.7983  14.8398  14.8781  14.9339  14.9551  14.9859  15.0198
    15.0951  15.1504  15.4184  15.5142  15.5797  15.6407  15.7517  15.8204
    15.8680  15.9803  16.0097  16.0694  16.1331  16.1692  16.2420  16.2615
    16.3593  16.3901  16.4675  16.5261  16.5576  16.6182  16.6845  16.7538
    16.8104  16.8768  16.9731  17.1159  17.2218  17.3080  17.3646  17.4645
    17.5244  17.5807  17.6748  17.7303  17.7952  17.9032  17.9999  18.1698
    18.2618  18.3561  18.4401  18.5447  18.6569  18.7036

     occupation numbers 
     1.0000   1.0000   1.0000   1.0000   1.0000   1.0000   1.0000   1.0000
     1.0000   1.0000   1.0000   1.0000   1.0000   1.0000   1.0000   1.0000
     1.0000   1.0000   1.0000   1.0000   1.0000   1.0000   1.0000   1.0000
     1.0000   1.0000   1.0000   1.0000   1.0000   1.0000   1.0000   1.0000
     1.0000   1.0000   1.0000   1.0000   1.0000   1.0000   1.0000   1.0000
     1.0000   1.0000   1.0000   1.0000   1.0000   1.0000   1.0000   1.0000
     1.0000   1.0000   1.0000   1.0000   1.0000   1.0000   1.0000   1.0000
     1.0000   1.0000   1.0000   1.0000   1.0000   1.0000   1.0000   1.0000
     1.0000   1.0000   1.0000   1.0000   1.0000   1.0000   1.0000   1.0000
     1.0000   1.0000   1.0000   1.0000   1.0000   1.0000   1.0000   1.0000
     1.0000   1.0000   1.0000   1.0000   1.0000   1.0000   1.0000   1.0000
     1.0000   1.0000   1.0000   1.0000   1.0000   1.0000   1.0000   1.0000
     1.0000   1.0000   1.0000   1.0000   1.0000   1.0000   1.0000   1.0000
     1.0000   1.0000   1.0000   1.0000   1.0000   1.0000   1.0000   1.0000
     1.0000   1.0000   1.0000   1.0000   1.0000   1.0000   1.0000   1.0000
     1.0000   1.0000   1.0000   1.0000   1.0000   1.0000   1.0000   1.0000
     1.0000   1.0000   1.0000   1.0000   1.0000   1.0000   1.0000   1.0000
     1.0000   1.0000   1.0000   1.0000   1.0000   1.0000   1.0000   1.0000
     1.0000   1.0000   1.0000   1.0000   1.0000   1.0000   1.0000   1.0000
     1.0000   1.0000   1.0000   1.0000   1.0000   1.0000   1.0000   1.0000
     1.0000   1.0000   1.0000   1.0000   1.0000   1.0000   1.0000   1.0000
     1.0000   1.0000   1.0000   1.0000   1.0000   1.0000   1.0000   1.0000
     1.0000   1.0000   1.0000   1.0000   1.0000   1.0000   1.0000   1.0000
     1.0000   1.0000   1.0000   1.0000   1.0000   1.0000   1.0000   1.0000
     1.0000   1.0000   1.0000   1.0000   1.0000   1.0000   1.0000   1.0000
     1.0000   1.0000   1.0000   1.0000   1.0000   1.0000   1.0000   1.0000
     1.0000   1.0000   1.0000   1.0000   1.0000   1.0000   1.0000   1.0000
     1.0000   1.0000   1.0000   1.0000   1.0000   1.0000   1.0000   1.0000
     1.0000   1.0000   1.0000   1.0000   1.0000   1.0000   1.0000   1.0000
     1.0000   1.0000   1.0000   1.0000   1.0000   1.0000   1.0000   1.0000
     1.0000   1.0000   1.0000   1.0000   1.0000   1.0000   1.0000   1.0000
     1.0000   1.0000   1.0000   1.0000   1.0000   1.0000   1.0000   1.0000
     1.0000   1.0000   1.0000   1.0000   1.0000   1.0000   1.0000   1.0000
     1.0000   1.0000   1.0000   1.0000   1.0000   1.0000   1.0000   1.0000
     1.0000   1.0000   1.0000   1.0000   1.0000   1.0000   1.0000   1.0000
     1.0000   1.0000   1.0000   1.0000   1.0000   1.0000   1.0000   1.0000
     1.0000   1.0000   1.0000   1.0000   1.0000   1.0000   1.0000   1.0000
     1.0000   1.0000   1.0000   1.0000   1.0000   1.0000   1.0000   1.0000
     1.0000   1.0000   1.0000   1.0000   1.0000   1.0000   1.0000   1.0000
     1.0000   1.0000   1.0000   1.0000   1.0000   1.0000   1.0000   1.0000
     1.0000   1.0000   1.0000   1.0000   1.0000   1.0000   1.0000   1.0000
     1.0000   1.0000   1.0000   1.0000   1.0000   1.0000   1.0000   1.0000
     1.0000   1.0000   1.0000   1.0000   1.0000   1.0000   1.0000   1.0000
     1.0000   1.0000   1.0000   1.0000   1.0000   1.0000   1.0000   1.0000
     1.0000   1.0000   1.0000   1.0000   1.0000   1.0000   1.0000   1.0000
     1.0000   1.0000   1.0000   1.0000   1.0000   1.0000   1.0000   1.0000
     1.0000   1.0000   1.0000   1.0000   1.0000   1.0000   1.0000   1.0000
     1.0000   1.0000   1.0000   1.0000   1.0000   1.0000   1.0000   1.0000
     1.0000   1.0000   1.0000   1.0000   1.0000   1.0000   1.0000   1.0000
     1.0000   1.0000   1.0000   1.0000   1.0000   1.0000   0.0000   0.0000
     0.0000   0.0000   0.0000   0.0000   0.0000   0.0000   0.0000   0.0000
     0.0000   0.0000   0.0000   0.0000   0.0000   0.0000   0.0000   0.0000
     0.0000   0.0000   0.0000   0.0000   0.0000   0.0000   0.0000   0.0000
     0.0000   0.0000   0.0000   0.0000   0.0000   0.0000   0.0000   0.0000
     0.0000   0.0000   0.0000   0.0000   0.0000   0.0000   0.0000   0.0000
     0.0000   0.0000   0.0000   0.0000   0.0000   0.0000   0.0000   0.0000
     0.0000   0.0000   0.0000   0.0000   0.0000   0.0000   0.0000   0.0000
     0.0000   0.0000   0.0000   0.0000   0.0000   0.0000   0.0000   0.0000
     0.0000   0.0000   0.0000   0.0000   0.0000   0.0000   0.0000   0.0000
     0.0000   0.0000   0.0000   0.0000   0.0000   0.0000

          k =-0.0003 0.2887-0.4728 ( 45016 PWs)   bands (ev):

  -115.5049-115.5036-115.4975-115.4907-115.4869-115.4868-115.4850-115.4847
  -115.4837-115.4836-115.4832-115.4820-115.4817-115.4815-115.4815-115.4811
  -115.4764-115.4763-115.4757-115.4756-115.4739-115.4648 -69.8650 -69.8629
   -69.8612 -69.8592 -69.8586 -69.8579 -69.8577 -69.8533 -69.8518 -69.8501
   -69.8497 -69.8486 -69.8480 -69.8476 -69.8467 -69.8455 -69.8455 -69.8446
   -69.8440 -69.8440 -69.8438 -69.8433 -69.8432 -69.8426 -69.8420 -69.8416
   -69.8408 -69.8406 -69.8404 -69.8401 -69.8392 -69.8390 -69.8390 -69.8388
   -69.8387 -69.8387 -69.8385 -69.8380 -69.8375 -69.8371 -69.8368 -69.8368
   -69.8365 -69.8365 -69.8365 -69.8364 -69.8360 -69.8347 -69.8342 -69.8342
   -69.8332 -69.8323 -69.8319 -69.8316 -69.8315 -69.8313 -69.8300 -69.8290
   -69.8287 -69.8272 -69.8267 -69.8263 -69.8256 -69.8234 -69.8216 -69.8169
   -64.9368 -64.9347 -64.9321 -64.9308 -64.9235 -64.9211 -64.9186 -64.9132
   -64.9079 -64.9069 -64.8989 -64.8953 -64.8857 -64.8752 -31.9315 -31.9292
   -31.9263 -31.9258 -31.9239 -31.9229 -31.9224 -31.9211 -31.9197 -31.9183
   -31.9172 -31.9160 -31.9149 -31.9143 -31.9103 -31.9095 -31.9076 -31.9074
   -31.9071 -31.9049 -31.9044 -31.9026 -31.9002 -31.8987 -31.8980 -31.8972
   -31.8960 -31.8934 -31.8914 -31.8892 -31.8890 -31.8871 -31.8834 -31.8820
   -31.8803 -31.8796 -31.8744 -31.8700 -31.8680 -31.8656 -31.8606 -31.8595
   -10.0356  -9.9868  -9.7997  -9.7568  -9.7102  -9.6774  -9.6069  -9.5909
    -9.5705  -9.5469  -9.5067  -9.4731  -9.4535  -9.4273  -9.4041  -9.3930
    -9.3761  -9.3494  -9.3267  -9.3040  -9.2939  -9.2675  -9.2541  -9.2421
    -9.2243  -9.2112  -9.2009  -9.1716  -9.1657  -9.1539  -9.1456  -9.1287
    -9.0554  -9.0343  -9.0109  -8.9720   1.7206   1.7334   1.7668   1.7706
     1.7931   1.8036   1.8237   1.8356   1.8462   1.8715   1.8819   1.9023
     1.9168   1.9338   1.9708   1.9941   2.0054   2.0148   2.0336   2.0362
     2.0593   2.0651   2.0837   2.0955   2.1054   2.1144   2.1251   2.1516
     2.1603   2.1678   2.1814   2.1902   2.2036   2.2174   2.2285   2.2340
     2.2475   2.2649   2.2797   2.2875   2.3013   2.3162   2.3272   2.3294
     2.3455   2.3539   2.3613   2.3774   2.3822   2.3988   2.4045   2.4191
     2.4301   2.4383   2.4446   2.4528   2.4710   2.4893   2.5087   2.5257
     2.5351   2.5610   2.5794   2.6146   2.6206   2.6522   2.6711   2.6964
     2.7199   2.7277   2.7498   2.7558   2.7736   2.7840   2.7911   2.8122
     2.8269   2.8517   2.8638   2.8769   2.9045   2.9115   2.9439   2.9528
     2.9720   2.9933   3.0204   3.0333   3.0450   3.0589   3.0691   3.0947
     3.1052   3.1223   3.1332   3.1510   3.1599   3.1744   3.1820   3.1964
     3.2127   3.2175   3.2352   3.2379   3.2456   3.2567   3.2666   3.2878
     3.3024   3.3285   3.4819   3.4890   3.5603   3.5740   3.6078   3.6351
     3.6950   3.7016   3.7377   3.7545   3.7899   3.8135   3.8502   3.8788
     3.9276   3.9561   3.9782   4.0335   4.0615   4.1146   4.1359   4.1740
     4.2707   4.3038   4.3350   4.3690   4.3981   4.4382   4.4621   4.5069
     4.5118   4.5712   4.6116   4.6712   4.8127   4.8354   4.9316   4.9624
     5.0148   5.0304   5.0684   5.1073   5.1432   5.1969   5.2416   5.2755
     5.3136   5.3536   5.3781   5.3970   5.4385   5.4562   5.4715   5.4991
     5.5255   5.5566   5.5659   5.5965   5.6169   5.6495   5.6761   5.6878
     5.7148   5.7356   5.7909   5.8371   5.8811   5.9105   5.9656   5.9733
     6.0054   6.0429   6.0924   6.1293   6.1643   6.2024   6.2176   6.2551
     6.2845   6.3003   6.3224   6.3519   6.3641   6.3871   6.4166   6.4435
     6.4587   6.5125   6.5243   6.5362   6.5571   6.5774   6.5925   6.6292
     6.6579   6.6895   6.7045   6.7198   6.7480   6.7715   6.8044   6.8405
     6.8507   6.8683   7.0596   7.0688   7.1138   7.1501  10.1351  10.2207
    11.5330  11.6143  11.9837  12.0221  12.2715  12.3686  12.6929  12.7845
    12.8262  13.0162  13.0603  13.0965  13.1888  13.3351  14.0116  14.0891
    14.1592  14.1787  14.2179  14.2620  14.3053  14.3537  14.4114  14.4545
    14.4603  14.5683  14.6102  14.6667  14.7850  14.8335  14.9726  14.9849
    15.0283  15.0533  15.6025  15.6305  15.6738  15.7556  15.8315  15.8795
    15.9143  15.9625  16.0580  16.0728  16.1059  16.1289  16.1889  16.2697
    16.3278  16.3736  16.4675  16.5200  16.5835  16.6243  16.7290  16.8011
    16.9343  16.9981  17.0605  17.0887  17.1193  17.2283  17.3139  17.3769
    17.4805  17.6033  17.6343  17.6916  17.7594  17.8444  18.0155  18.0881
    18.1624  18.2585  18.4153  18.4725  18.6428  18.6903

     occupation numbers 
     1.0000   1.0000   1.0000   1.0000   1.0000   1.0000   1.0000   1.0000
     1.0000   1.0000   1.0000   1.0000   1.0000   1.0000   1.0000   1.0000
     1.0000   1.0000   1.0000   1.0000   1.0000   1.0000   1.0000   1.0000
     1.0000   1.0000   1.0000   1.0000   1.0000   1.0000   1.0000   1.0000
     1.0000   1.0000   1.0000   1.0000   1.0000   1.0000   1.0000   1.0000
     1.0000   1.0000   1.0000   1.0000   1.0000   1.0000   1.0000   1.0000
     1.0000   1.0000   1.0000   1.0000   1.0000   1.0000   1.0000   1.0000
     1.0000   1.0000   1.0000   1.0000   1.0000   1.0000   1.0000   1.0000
     1.0000   1.0000   1.0000   1.0000   1.0000   1.0000   1.0000   1.0000
     1.0000   1.0000   1.0000   1.0000   1.0000   1.0000   1.0000   1.0000
     1.0000   1.0000   1.0000   1.0000   1.0000   1.0000   1.0000   1.0000
     1.0000   1.0000   1.0000   1.0000   1.0000   1.0000   1.0000   1.0000
     1.0000   1.0000   1.0000   1.0000   1.0000   1.0000   1.0000   1.0000
     1.0000   1.0000   1.0000   1.0000   1.0000   1.0000   1.0000   1.0000
     1.0000   1.0000   1.0000   1.0000   1.0000   1.0000   1.0000   1.0000
     1.0000   1.0000   1.0000   1.0000   1.0000   1.0000   1.0000   1.0000
     1.0000   1.0000   1.0000   1.0000   1.0000   1.0000   1.0000   1.0000
     1.0000   1.0000   1.0000   1.0000   1.0000   1.0000   1.0000   1.0000
     1.0000   1.0000   1.0000   1.0000   1.0000   1.0000   1.0000   1.0000
     1.0000   1.0000   1.0000   1.0000   1.0000   1.0000   1.0000   1.0000
     1.0000   1.0000   1.0000   1.0000   1.0000   1.0000   1.0000   1.0000
[...]
     2.0488   2.0682   2.0903   2.0935   2.1018   2.1143   2.1305   2.1598
     2.1642   2.1716   2.1895   2.1965   2.2123   2.2182   2.2296   2.2424
     2.2503   2.2643   2.2745   2.2869   2.2943   2.3024   2.3144   2.3292
     2.3354   2.3504   2.3588   2.3689   2.3762   2.3913   2.4043   2.4108
     2.4210   2.4289   2.4442   2.4605   2.4872   2.4965   2.5136   2.5270
     2.5653   2.5854   2.6033   2.6167   2.6393   2.6580   2.6665   2.6916
     2.7071   2.7161   2.7419   2.7583   2.7821   2.8049   2.8234   2.8287
     2.8602   2.8685   2.8749   2.8838   2.9143   2.9203   2.9488   2.9721
     2.9856   2.9989   3.0090   3.0406   3.0453   3.0606   3.0759   3.0790
     3.1036   3.1121   3.1197   3.1327   3.1576   3.1677   3.1809   3.1904
     3.1984   3.2110   3.2200   3.2308   3.2416   3.2554   3.2753   3.2819
     3.3065   3.3208   3.3889   3.4573   3.4916   3.5234   3.5592   3.5869
     3.6155   3.6730   3.6859   3.7128   3.7587   3.7650   3.8069   3.8406
     3.8902   3.9256   3.9787   4.0215   4.0432   4.1121   4.1626   4.1920
     4.2922   4.3239   4.3650   4.4528   4.4785   4.5479   4.5989   4.6315
     4.7099   4.7405   4.7738   4.8125   4.8350   4.8739   4.9098   4.9693
     5.0001   5.0243   5.0484   5.0881   5.1099   5.1533   5.1758   5.1903
     5.2648   5.3170   5.3362   5.4325   5.4770   5.4984   5.5316   5.5572
     5.5717   5.6162   5.6305   5.6732   5.6952   5.7454   5.7596   5.7826
     5.8032   5.8421   5.8690   5.8856   5.9150   5.9405   5.9646   6.0111
     6.0400   6.0571   6.0831   6.1082   6.1245   6.1384   6.1697   6.1870
     6.2159   6.2267   6.2379   6.2904   6.3062   6.3278   6.3454   6.3595
     6.3917   6.4189   6.4358   6.4554   6.4843   6.5090   6.5315   6.5474
     6.5641   6.6024   6.6579   6.6759   6.6951   6.7273   6.7558   6.8002
     6.8502   6.8643   7.0447   7.0705   7.1022   7.1564  10.3339  10.4357
    11.3753  11.4795  11.7813  11.9474  12.3959  12.5461  12.7964  12.8857
    13.2441  13.4529  13.4964  13.5584  13.6062  13.6619  13.6999  13.7901
    13.8232  13.8723  13.9239  14.0047  14.0313  14.2283  14.2695  14.3044
    14.3445  14.3760  14.4068  14.4427  14.8876  14.9155  14.9378  14.9904
    15.0170  15.0920  15.3199  15.5254  15.5927  15.6717  15.7199  15.8914
    15.9458  15.9736  16.0132  16.0269  16.1096  16.1591  16.2479  16.3217
    16.4372  16.4568  16.5065  16.6177  16.7118  16.7899  16.8425  17.0142
    17.1529  17.2148  17.2630  17.3581  17.3777  17.4434  17.4696  17.4957
    17.6454  17.7030  17.7439  17.8382  18.0000  18.1419  18.1961  18.2255
    18.3152  18.3620  18.4004  18.4895  18.5881  18.6750

     occupation numbers 
     1.0000   1.0000   1.0000   1.0000   1.0000   1.0000   1.0000   1.0000
     1.0000   1.0000   1.0000   1.0000   1.0000   1.0000   1.0000   1.0000
     1.0000   1.0000   1.0000   1.0000   1.0000   1.0000   1.0000   1.0000
     1.0000   1.0000   1.0000   1.0000   1.0000   1.0000   1.0000   1.0000
     1.0000   1.0000   1.0000   1.0000   1.0000   1.0000   1.0000   1.0000
     1.0000   1.0000   1.0000   1.0000   1.0000   1.0000   1.0000   1.0000
     1.0000   1.0000   1.0000   1.0000   1.0000   1.0000   1.0000   1.0000
     1.0000   1.0000   1.0000   1.0000   1.0000   1.0000   1.0000   1.0000
     1.0000   1.0000   1.0000   1.0000   1.0000   1.0000   1.0000   1.0000
     1.0000   1.0000   1.0000   1.0000   1.0000   1.0000   1.0000   1.0000
     1.0000   1.0000   1.0000   1.0000   1.0000   1.0000   1.0000   1.0000
     1.0000   1.0000   1.0000   1.0000   1.0000   1.0000   1.0000   1.0000
     1.0000   1.0000   1.0000   1.0000   1.0000   1.0000   1.0000   1.0000
     1.0000   1.0000   1.0000   1.0000   1.0000   1.0000   1.0000   1.0000
     1.0000   1.0000   1.0000   1.0000   1.0000   1.0000   1.0000   1.0000
     1.0000   1.0000   1.0000   1.0000   1.0000   1.0000   1.0000   1.0000
     1.0000   1.0000   1.0000   1.0000   1.0000   1.0000   1.0000   1.0000
     1.0000   1.0000   1.0000   1.0000   1.0000   1.0000   1.0000   1.0000
     1.0000   1.0000   1.0000   1.0000   1.0000   1.0000   1.0000   1.0000
     1.0000   1.0000   1.0000   1.0000   1.0000   1.0000   1.0000   1.0000
     1.0000   1.0000   1.0000   1.0000   1.0000   1.0000   1.0000   1.0000
     1.0000   1.0000   1.0000   1.0000   1.0000   1.0000   1.0000   1.0000
     1.0000   1.0000   1.0000   1.0000   1.0000   1.0000   1.0000   1.0000
     1.0000   1.0000   1.0000   1.0000   1.0000   1.0000   1.0000   1.0000
     1.0000   1.0000   1.0000   1.0000   1.0000   1.0000   1.0000   1.0000
     1.0000   1.0000   1.0000   1.0000   1.0000   1.0000   1.0000   1.0000
     1.0000   1.0000   1.0000   1.0000   1.0000   1.0000   1.0000   1.0000
     1.0000   1.0000   1.0000   1.0000   1.0000   1.0000   1.0000   1.0000
     1.0000   1.0000   1.0000   1.0000   1.0000   1.0000   1.0000   1.0000
     1.0000   1.0000   1.0000   1.0000   1.0000   1.0000   1.0000   1.0000
     1.0000   1.0000   1.0000   1.0000   1.0000   1.0000   1.0000   1.0000
     1.0000   1.0000   1.0000   1.0000   1.0000   1.0000   1.0000   1.0000
     1.0000   1.0000   1.0000   1.0000   1.0000   1.0000   1.0000   1.0000
     1.0000   1.0000   1.0000   1.0000   1.0000   1.0000   1.0000   1.0000
     1.0000   1.0000   1.0000   1.0000   1.0000   1.0000   1.0000   1.0000
     1.0000   1.0000   1.0000   1.0000   1.0000   1.0000   1.0000   1.0000
     1.0000   1.0000   1.0000   1.0000   1.0000   1.0000   1.0000   1.0000
     1.0000   1.0000   1.0000   1.0000   1.0000   1.0000   1.0000   1.0000
     1.0000   1.0000   1.0000   1.0000   1.0000   1.0000   1.0000   1.0000
     1.0000   1.0000   1.0000   1.0000   1.0000   1.0000   1.0000   1.0000
     1.0000   1.0000   1.0000   1.0000   1.0000   1.0000   1.0000   1.0000
     1.0000   1.0000   1.0000   1.0000   1.0000   1.0000   1.0000   1.0000
     1.0000   1.0000   1.0000   1.0000   1.0000   1.0000   1.0000   1.0000
     1.0000   1.0000   1.0000   1.0000   1.0000   1.0000   1.0000   1.0000
     1.0000   1.0000   1.0000   1.0000   1.0000   1.0000   1.0000   1.0000
     1.0000   1.0000   1.0000   1.0000   1.0000   1.0000   1.0000   1.0000
     1.0000   1.0000   1.0000   1.0000   1.0000   1.0000   1.0000   1.0000
     1.0000   1.0000   1.0000   1.0000   1.0000   1.0000   1.0000   1.0000
     1.0000   1.0000   1.0000   1.0000   1.0000   1.0000   1.0000   1.0000
     1.0000   1.0000   1.0000   1.0000   1.0000   1.0000   0.0000   0.0000
     0.0000   0.0000   0.0000   0.0000   0.0000   0.0000   0.0000   0.0000
     0.0000   0.0000   0.0000   0.0000   0.0000   0.0000   0.0000   0.0000
     0.0000   0.0000   0.0000   0.0000   0.0000   0.0000   0.0000   0.0000
     0.0000   0.0000   0.0000   0.0000   0.0000   0.0000   0.0000   0.0000
     0.0000   0.0000   0.0000   0.0000   0.0000   0.0000   0.0000   0.0000
     0.0000   0.0000   0.0000   0.0000   0.0000   0.0000   0.0000   0.0000
     0.0000   0.0000   0.0000   0.0000   0.0000   0.0000   0.0000   0.0000
     0.0000   0.0000   0.0000   0.0000   0.0000   0.0000   0.0000   0.0000
     0.0000   0.0000   0.0000   0.0000   0.0000   0.0000   0.0000   0.0000
     0.0000   0.0000   0.0000   0.0000   0.0000   0.0000

          k =-0.4998-0.8654-0.4727 ( 44978 PWs)   bands (ev):

  -115.5049-115.5036-115.4975-115.4907-115.4869-115.4868-115.4850-115.4847
  -115.4837-115.4836-115.4832-115.4820-115.4817-115.4815-115.4815-115.4811
  -115.4764-115.4763-115.4757-115.4756-115.4739-115.4648 -69.8650 -69.8629
   -69.8612 -69.8592 -69.8586 -69.8579 -69.8577 -69.8533 -69.8518 -69.8501
   -69.8497 -69.8486 -69.8480 -69.8476 -69.8467 -69.8455 -69.8455 -69.8446
   -69.8440 -69.8440 -69.8438 -69.8433 -69.8432 -69.8426 -69.8420 -69.8416
   -69.8408 -69.8406 -69.8404 -69.8401 -69.8392 -69.8390 -69.8390 -69.8388
   -69.8387 -69.8387 -69.8385 -69.8380 -69.8375 -69.8371 -69.8368 -69.8368
   -69.8365 -69.8365 -69.8365 -69.8364 -69.8360 -69.8347 -69.8342 -69.8342
   -69.8332 -69.8323 -69.8319 -69.8316 -69.8315 -69.8313 -69.8300 -69.8290
   -69.8287 -69.8272 -69.8267 -69.8263 -69.8256 -69.8234 -69.8216 -69.8169
   -64.9368 -64.9347 -64.9321 -64.9308 -64.9235 -64.9211 -64.9186 -64.9132
   -64.9079 -64.9069 -64.8989 -64.8953 -64.8857 -64.8752 -31.9315 -31.9292
   -31.9263 -31.9258 -31.9239 -31.9229 -31.9224 -31.9211 -31.9197 -31.9183
   -31.9172 -31.9160 -31.9149 -31.9143 -31.9103 -31.9095 -31.9076 -31.9074
   -31.9071 -31.9049 -31.9044 -31.9026 -31.9002 -31.8987 -31.8981 -31.8972
   -31.8959 -31.8934 -31.8915 -31.8892 -31.8890 -31.8871 -31.8834 -31.8820
   -31.8804 -31.8796 -31.8744 -31.8700 -31.8679 -31.8656 -31.8606 -31.8595
    -9.9816  -9.9358  -9.8819  -9.8214  -9.7145  -9.6946  -9.6606  -9.6164
    -9.5271  -9.5179  -9.4869  -9.4503  -9.4344  -9.4027  -9.3921  -9.3833
    -9.3663  -9.3395  -9.3317  -9.2980  -9.2908  -9.2785  -9.2677  -9.2610
    -9.2487  -9.2209  -9.1999  -9.1800  -9.1732  -9.1476  -9.1315  -9.1203
    -9.0473  -9.0423  -9.0082  -8.9714   1.7503   1.7699   1.7818   1.7886
     1.8042   1.8163   1.8228   1.8500   1.8637   1.8712   1.8885   1.9159
     1.9375   1.9480   1.9779   1.9904   1.9983   2.0041   2.0190   2.0409
     2.0620   2.0681   2.0746   2.0824   2.0995   2.1087   2.1248   2.1438
     2.1545   2.1654   2.1797   2.1889   2.2067   2.2157   2.2204   2.2319
     2.2459   2.2608   2.2701   2.2782   2.2857   2.3057   2.3161   2.3234
     2.3360   2.3403   2.3523   2.3636   2.3714   2.3887   2.3948   2.3976
     2.4087   2.4283   2.4412   2.4499   2.4680   2.4854   2.5031   2.5125
     2.5168   2.5335   2.5724   2.5911   2.6072   2.6247   2.6589   2.6694
     2.6885   2.7034   2.7379   2.7539   2.7647   2.8033   2.8173   2.8286
     2.8436   2.8604   2.8635   2.8910   2.8991   2.9195   2.9385   2.9712
     2.9794   3.0049   3.0144   3.0351   3.0549   3.0669   3.0769   3.0850
     3.1064   3.1197   3.1216   3.1355   3.1569   3.1651   3.1746   3.1853
     3.2072   3.2128   3.2239   3.2313   3.2442   3.2603   3.2689   3.2857
     3.3072   3.3153   3.4254   3.4955   3.5205   3.5426   3.5925   3.6052
     3.6636   3.7108   3.7224   3.7354   3.7781   3.7983   3.8238   3.8587
     3.9326   3.9694   4.0023   4.0198   4.0381   4.1472   4.1647   4.1897
     4.2574   4.3061   4.3229   4.3712   4.4358   4.4617   4.5911   4.6218
     4.7582   4.7726   4.7916   4.8283   4.8576   4.8962   4.9584   4.9787
     5.0109   5.0650   5.1543   5.1906   5.2088   5.2361   5.2797   5.2900
     5.3366   5.3524   5.3716   5.3855   5.4189   5.4312   5.4497   5.4750
     5.5018   5.5307   5.5699   5.5932   5.6331   5.6872   5.6920   5.7319
     5.7516   5.8117   5.8267   5.8633   5.8872   5.9164   5.9616   5.9831
     6.0083   6.0230   6.0407   6.0875   6.1061   6.1450   6.1662   6.1948
     6.2056   6.2310   6.2653   6.2699   6.2990   6.3331   6.3593   6.3742
     6.3813   6.4209   6.4499   6.4824   6.4872   6.4874   6.5178   6.5526
     6.5954   6.6288   6.6711   6.7272   6.7435   6.7809   6.7949   6.8314
     6.8943   6.9171   6.9975   7.0652   7.0812   7.1425  10.6525  10.7885
    10.8448  10.9964  11.9782  12.0121  12.1103  12.2401  13.1943  13.2329
    13.3822  13.4331  13.4559  13.4811  13.5555  13.6973  13.7390  13.7627
    13.8686  13.9053  13.9778  14.0452  14.1075  14.1225  14.3639  14.3831
    14.4836  14.5142  14.5672  14.5958  14.6500  14.6818  14.7025  14.7340
    14.7687  14.7849  15.5787  15.6477  15.7149  15.8067  15.8521  15.8595
    15.8784  15.9719  16.0291  16.0847  16.1508  16.1984  16.2317  16.2785
    16.3072  16.4546  16.4693  16.5184  16.7188  16.7979  16.8305  16.9704
    17.0828  17.2148  17.2900  17.3733  17.4368  17.4589  17.4880  17.5168
    17.5490  17.5912  17.8178  17.8545  17.9405  17.9827  18.0503  18.3032
    18.3407  18.3675  18.5567  18.5967  18.6292  18.7322

     occupation numbers 
     1.0000   1.0000   1.0000   1.0000   1.0000   1.0000   1.0000   1.0000
     1.0000   1.0000   1.0000   1.0000   1.0000   1.0000   1.0000   1.0000
     1.0000   1.0000   1.0000   1.0000   1.0000   1.0000   1.0000   1.0000
     1.0000   1.0000   1.0000   1.0000   1.0000   1.0000   1.0000   1.0000
     1.0000   1.0000   1.0000   1.0000   1.0000   1.0000   1.0000   1.0000
     1.0000   1.0000   1.0000   1.0000   1.0000   1.0000   1.0000   1.0000
     1.0000   1.0000   1.0000   1.0000   1.0000   1.0000   1.0000   1.0000
     1.0000   1.0000   1.0000   1.0000   1.0000   1.0000   1.0000   1.0000
     1.0000   1.0000   1.0000   1.0000   1.0000   1.0000   1.0000   1.0000
     1.0000   1.0000   1.0000   1.0000   1.0000   1.0000   1.0000   1.0000
     1.0000   1.0000   1.0000   1.0000   1.0000   1.0000   1.0000   1.0000
     1.0000   1.0000   1.0000   1.0000   1.0000   1.0000   1.0000   1.0000
     1.0000   1.0000   1.0000   1.0000   1.0000   1.0000   1.0000   1.0000
     1.0000   1.0000   1.0000   1.0000   1.0000   1.0000   1.0000   1.0000
     1.0000   1.0000   1.0000   1.0000   1.0000   1.0000   1.0000   1.0000
     1.0000   1.0000   1.0000   1.0000   1.0000   1.0000   1.0000   1.0000
     1.0000   1.0000   1.0000   1.0000   1.0000   1.0000   1.0000   1.0000
     1.0000   1.0000   1.0000   1.0000   1.0000   1.0000   1.0000   1.0000
     1.0000   1.0000   1.0000   1.0000   1.0000   1.0000   1.0000   1.0000
     1.0000   1.0000   1.0000   1.0000   1.0000   1.0000   1.0000   1.0000
     1.0000   1.0000   1.0000   1.0000   1.0000   1.0000   1.0000   1.0000
     1.0000   1.0000   1.0000   1.0000   1.0000   1.0000   1.0000   1.0000
     1.0000   1.0000   1.0000   1.0000   1.0000   1.0000   1.0000   1.0000
     1.0000   1.0000   1.0000   1.0000   1.0000   1.0000   1.0000   1.0000
     1.0000   1.0000   1.0000   1.0000   1.0000   1.0000   1.0000   1.0000
     1.0000   1.0000   1.0000   1.0000   1.0000   1.0000   1.0000   1.0000
     1.0000   1.0000   1.0000   1.0000   1.0000   1.0000   1.0000   1.0000
     1.0000   1.0000   1.0000   1.0000   1.0000   1.0000   1.0000   1.0000
     1.0000   1.0000   1.0000   1.0000   1.0000   1.0000   1.0000   1.0000
     1.0000   1.0000   1.0000   1.0000   1.0000   1.0000   1.0000   1.0000
     1.0000   1.0000   1.0000   1.0000   1.0000   1.0000   1.0000   1.0000
     1.0000   1.0000   1.0000   1.0000   1.0000   1.0000   1.0000   1.0000
     1.0000   1.0000   1.0000   1.0000   1.0000   1.0000   1.0000   1.0000
     1.0000   1.0000   1.0000   1.0000   1.0000   1.0000   1.0000   1.0000
     1.0000   1.0000   1.0000   1.0000   1.0000   1.0000   1.0000   1.0000
     1.0000   1.0000   1.0000   1.0000   1.0000   1.0000   1.0000   1.0000
     1.0000   1.0000   1.0000   1.0000   1.0000   1.0000   1.0000   1.0000
     1.0000   1.0000   1.0000   1.0000   1.0000   1.0000   1.0000   1.0000
     1.0000   1.0000   1.0000   1.0000   1.0000   1.0000   1.0000   1.0000
     1.0000   1.0000   1.0000   1.0000   1.0000   1.0000   1.0000   1.0000
     1.0000   1.0000   1.0000   1.0000   1.0000   1.0000   1.0000   1.0000
     1.0000   1.0000   1.0000   1.0000   1.0000   1.0000   1.0000   1.0000
     1.0000   1.0000   1.0000   1.0000   1.0000   1.0000   1.0000   1.0000
     1.0000   1.0000   1.0000   1.0000   1.0000   1.0000   1.0000   1.0000
     1.0000   1.0000   1.0000   1.0000   1.0000   1.0000   1.0000   1.0000
     1.0000   1.0000   1.0000   1.0000   1.0000   1.0000   1.0000   1.0000
     1.0000   1.0000   1.0000   1.0000   1.0000   1.0000   1.0000   1.0000
     1.0000   1.0000   1.0000   1.0000   1.0000   1.0000   1.0000   1.0000
     1.0000   1.0000   1.0000   1.0000   1.0000   1.0000   1.0000   1.0000
     1.0000   1.0000   1.0000   1.0000   1.0000   1.0000   0.0000   0.0000
     0.0000   0.0000   0.0000   0.0000   0.0000   0.0000   0.0000   0.0000
     0.0000   0.0000   0.0000   0.0000   0.0000   0.0000   0.0000   0.0000
     0.0000   0.0000   0.0000   0.0000   0.0000   0.0000   0.0000   0.0000
     0.0000   0.0000   0.0000   0.0000   0.0000   0.0000   0.0000   0.0000
     0.0000   0.0000   0.0000   0.0000   0.0000   0.0000   0.0000   0.0000
     0.0000   0.0000   0.0000   0.0000   0.0000   0.0000   0.0000   0.0000
     0.0000   0.0000   0.0000   0.0000   0.0000   0.0000   0.0000   0.0000
     0.0000   0.0000   0.0000   0.0000   0.0000   0.0000   0.0000   0.0000
     0.0000   0.0000   0.0000   0.0000   0.0000   0.0000   0.0000   0.0000
     0.0000   0.0000   0.0000   0.0000   0.0000   0.0000

     the Fermi energy is     8.3260 ev

!    total energy              =  -13064.13265686 Ry
     Harris-Foulkes estimate   =  -13064.13265687 Ry
     estimated scf accuracy    <          4.9E-09 Ry

     The total energy is the sum of the following terms:

     one-electron contribution =  -10886.10244980 Ry
     hartree contribution      =    5713.70513293 Ry
     xc contribution           =   -1415.41990245 Ry
     ewald contribution        =   -6476.31543755 Ry
     smearing contrib. (-TS)   =       0.00000000 Ry

     convergence has been achieved in  12 iterations

     Writing output data file ZnO.save/
 
     init_run     :     14.53s CPU     15.34s WALL (       1 calls)
     electrons    :    686.69s CPU    702.35s WALL (       1 calls)

     Called by init_run:
     wfcinit      :     12.06s CPU     12.48s WALL (       1 calls)
     wfcinit:atom :      0.10s CPU      0.15s WALL (       5 calls)
     wfcinit:wfcr :     11.54s CPU     11.86s WALL (       5 calls)
     potinit      :      1.13s CPU      1.16s WALL (       1 calls)
     hinit0       :      0.80s CPU      0.97s WALL (       1 calls)

     Called by electrons:
     c_bands      :    632.89s CPU    646.92s WALL (      12 calls)
     sum_band     :     46.25s CPU     47.25s WALL (      12 calls)
     v_of_rho     :      5.88s CPU      6.10s WALL (      13 calls)
     v_h          :      0.17s CPU      0.21s WALL (      13 calls)
     v_xc         :      5.71s CPU      5.89s WALL (      13 calls)
     newd         :      1.37s CPU      1.50s WALL (      13 calls)
     mix_rho      :      0.37s CPU      0.45s WALL (      12 calls)

     Called by c_bands:
     init_us_2    :      4.27s CPU      4.30s WALL (     125 calls)
     cegterg      :    577.11s CPU    590.74s WALL (      60 calls)

     Called by sum_band:
     sum_band:bec :      0.28s CPU      0.28s WALL (      60 calls)
     addusdens    :      1.13s CPU      1.20s WALL (      12 calls)

     Called by *egterg:
     h_psi        :    200.87s CPU    204.52s WALL (     261 calls)
     s_psi        :     50.91s CPU     50.98s WALL (     261 calls)
     g_psi        :      0.71s CPU      0.72s WALL (     196 calls)
     cdiaghg      :    208.47s CPU    214.73s WALL (     256 calls)
     cegterg:over :     54.48s CPU     55.68s WALL (     196 calls)
     cegterg:upda :     35.18s CPU     35.68s WALL (     196 calls)
     cegterg:last :     19.43s CPU     19.47s WALL (      60 calls)
     cdiaghg:chol :      9.79s CPU      9.85s WALL (     256 calls)
     cdiaghg:inve :      3.11s CPU      3.11s WALL (     256 calls)
     cdiaghg:para :     51.16s CPU     56.16s WALL (     512 calls)

     Called by h_psi:
     h_psi:pot    :    199.31s CPU    201.97s WALL (     261 calls)
     h_psi:calbec :     52.64s CPU     54.58s WALL (     261 calls)
     vloc_psi     :     95.53s CPU     96.02s WALL (     261 calls)
     add_vuspsi   :     51.13s CPU     51.36s WALL (     261 calls)

     General routines
     calbec       :     73.42s CPU     76.14s WALL (     321 calls)
     fft          :      1.53s CPU      1.91s WALL (     167 calls)
     ffts         :      0.06s CPU      0.06s WALL (      25 calls)
     fftw         :    108.08s CPU    108.64s WALL (  169470 calls)
     interpolate  :      0.18s CPU      0.22s WALL (      13 calls)
 
     Parallel routines
     fft_scatt_xy :     18.06s CPU     18.14s WALL (  169662 calls)
     fft_scatt_yz :     28.79s CPU     29.30s WALL (  169662 calls)
 
     PWSCF        :  11m45.75s CPU  12m 7.71s WALL

 
   This run was terminated on:   1:38:45  15Jul2022            

=------------------------------------------------------------------------------=
   JOB DONE.
=------------------------------------------------------------------------------=
