
     Program PWSCF v.6.8 starts on  7Jul2022 at 18:55:56 

     This program is part of the open-source Quantum ESPRESSO suite
     for quantum simulation of materials; please cite
         "P. Giannozzi et al., J. Phys.:Condens. Matter 21 395502 (2009);
         "P. Giannozzi et al., J. Phys.:Condens. Matter 29 465901 (2017);
         "P. Giannozzi et al., J. Chem. Phys. 152 154105 (2020);
          URL http://www.quantum-espresso.org", 
     in publications or presentations arising from this work. More details at
     http://www.quantum-espresso.org/quote

     Parallel version (MPI), running on    64 processors

     MPI processes distributed on     1 nodes
     K-points division:     npool     =       4
     R & G space division:  proc/nbgrp/npool/nimage =      16
     242181 MiB available memory on the printing compute node when the environment starts
 
     Waiting for input...
     Reading input from standard input
Warning: card &CELL ignored
Warning: card   CELL_DYNAMICS     = 'BFGS' ignored
Warning: card   PRESS_CONV_THR    = 0.5D0 ignored
Warning: card   CELL_DOFREE = 'ALL' ignored
Warning: card / ignored

     Current dimensions of program PWSCF are:
     Max number of different atomic species (ntypx) = 10
     Max number of k-points (npk) =  40000
     Max angular momentum in pseudopotentials (lmaxx) =  4

     Reading Hubbard V parameters from the input...

     Message from routine find_sym:
     Not a group! Trying with lower acceptance parameter...
     Message from routine find_sym:
     Still not a group! symmetry disabled
     First shells distances (in Bohr):
     shell:   1    0.000000
     shell:   2    8.348606
     shell:   3    8.348608
     shell:   4    8.348611
     shell:   5    8.348612
     shell:   6    8.348614
     shell:   7    8.348619

     i    j  dist (Bohr)       stan-stan stan-bac bac-bac bac-stan
     1    1   0.00000000  V =    0.0000   0.0000   0.0000   0.0000
     2    2   0.00000000  V =    2.2609   0.0000   0.0000   0.0000
     2    3   5.90343370  V =    1.5981   0.0000   0.0000   0.0000
     2    4   5.90332034  V =    1.5981   0.0000   0.0000   0.0000
     2    5   5.90334622  V =    1.5981   0.0000   0.0000   0.0000
     2   28   5.90329339  V =    1.5981   0.0000   0.0000   0.0000
     2   59   5.90340553  V =    1.5981   0.0000   0.0000   0.0000
     2   70   5.90338166  V =    1.5981   0.0000   0.0000   0.0000
     3    2   5.90343370  V =    1.5981   0.0000   0.0000   0.0000
     3    3   0.00000000  V =    4.0710   0.0000   0.0000   0.0000
     3  112   5.90329339  V =    1.5981   0.0000   0.0000   0.0000
     4    2   5.90332034  V =    1.5981   0.0000   0.0000   0.0000
     4    4   0.00000000  V =    4.0710   0.0000   0.0000   0.0000
     4   82   5.90340553  V =    1.5981   0.0000   0.0000   0.0000
     5    2   5.90334622  V =    1.5981   0.0000   0.0000   0.0000
     5    5   0.00000000  V =    4.0710   0.0000   0.0000   0.0000
     5   72   5.90338166  V =    1.5981   0.0000   0.0000   0.0000

     Subspace diagonalization in iterative solution of the eigenvalue problem:
     one sub-group per band group will be used
     scalapack distributed-memory algorithm (size of sub-group:  4*  4 procs)

 
     Parallelization info
     --------------------
     sticks:   dense  smooth     PW     G-vecs:    dense   smooth      PW
     Min         172     139     39                 6869     4923     739
     Max         174     140     41                 6871     4927     741
     Sum        2769    2225    633               109931    78805   11837
 
     Using Slab Decomposition
 


     bravais-lattice index     =            0
     lattice parameter (alat)  =      11.8067  a.u.
     unit-cell volume          =    1645.8436 (a.u.)^3
     number of atoms/cell      =            5
     number of atomic types    =            3
     number of electrons       =        44.00
     number of Kohn-Sham states=           26
     kinetic-energy cutoff     =      50.0000  Ry
     charge density cutoff     =     250.0000  Ry
     scf convergence threshold =      1.0E-06
     mixing beta               =       0.5000
     number of iterations used =            8  plain     mixing
     Exchange-correlation= SLA  PW   PBE  PBE
                           (   1   4   3   4   0   0   0)

     celldm(1)=  11.806727  celldm(2)=   0.000000  celldm(3)=   0.000000
     celldm(4)=   0.000000  celldm(5)=   0.000000  celldm(6)=   0.000000

     crystal axes: (cart. coord. in units of alat)
               a(1) = (   1.000000   0.000000   0.000000 )  
               a(2) = (   0.000000   1.000000   0.000000 )  
               a(3) = (   0.000000   0.000000   1.000000 )  

     reciprocal axes: (cart. coord. in units 2 pi/alat)
               b(1) = (  1.000000 -0.000000 -0.000000 )  
               b(2) = ( -0.000000  1.000000 -0.000000 )  
               b(3) = ( -0.000000 -0.000000  1.000000 )  


     PseudoPot. # 1 for Cs read from file:
     ./GBRV_PBE/cs_pbe_v1.uspp.F.UPF
     MD5 check sum: 3476d69cb178dfad3ffaa59df4e07ca4
     Pseudo is Ultrasoft + core correction, Zval =  9.0
     Generated by new atomic code, or converted to UPF format
     Using radial grid of  905 points,  6 beta functions with: 
                l(1) =   0
                l(2) =   0
                l(3) =   1
                l(4) =   1
                l(5) =   2
                l(6) =   2
     Q(r) pseudized with  6 coefficients,  rinner =    1.500   1.500   1.500
                                                       1.500   1.500

     PseudoPot. # 2 for Sn read from file:
     ./GBRV_PBE/sn_pbe_v1.4.uspp.F.UPF
     MD5 check sum: 469debedee59599fedebd795477fea03
     Pseudo is Ultrasoft + core correction, Zval = 14.0
     Generated by new atomic code, or converted to UPF format
     Using radial grid of  891 points,  6 beta functions with: 
                l(1) =   0
                l(2) =   0
                l(3) =   1
                l(4) =   1
                l(5) =   2
                l(6) =   2
     Q(r) pseudized with  8 coefficients,  rinner =    1.350   1.350   1.350
                                                       1.350   1.350

     PseudoPot. # 3 for I  read from file:
     ./GBRV_PBE/i_pbe_v1.uspp.F.UPF
     MD5 check sum: 51366c2fb896752a147e77acbb9f6bcb
     Pseudo is Ultrasoft + core correction, Zval =  7.0
     Generated by new atomic code, or converted to UPF format
     Using radial grid of  893 points,  6 beta functions with: 
                l(1) =   0
                l(2) =   0
                l(3) =   1
                l(4) =   1
                l(5) =   2
                l(6) =   2
     Q(r) pseudized with  8 coefficients,  rinner =    1.500   1.500   1.500
                                                       1.500   1.500

     atomic species   valence    mass     pseudopotential
        Cs             9.00   132.90550     Cs( 1.00)
        Sn            14.00   118.71000     Sn( 1.00)
        I              7.00   126.90450     I ( 1.00)



     No symmetry found


                                    s                        frac. trans.

      isym =  1     identity                                     

 cryst.   s( 1) = (     1          0          0      )
                  (     0          1          0      )
                  (     0          0          1      )

 cart.    s( 1) = (  1.0000000 -0.0000000  0.0000000 )
                  ( -0.0000000  1.0000000 -0.0000000 )
                  (  0.0000000 -0.0000000  1.0000000 )


   Cartesian axes

     site n.     atom                  positions (alat units)
         1           Cs  tau(   1) = (   0.5000010   0.4999994   0.4999998  )
         2           Sn  tau(   2) = (  -0.0000052   0.0000031   0.0000013  )
         3           I   tau(   3) = (   0.5000007  -0.0000010  -0.0000005  )
         4           I   tau(   4) = (   0.0000018   0.4999995  -0.0000005  )
         5           I   tau(   5) = (   0.0000018  -0.0000011   0.4999999  )

   Crystallographic axes

     site n.     atom                  positions (cryst. coord.)
         1           Cs  tau(   1) = (  0.5000010  0.4999994  0.4999998  )
         2           Sn  tau(   2) = ( -0.0000052  0.0000031  0.0000013  )
         3           I   tau(   3) = (  0.5000007 -0.0000010 -0.0000005  )
         4           I   tau(   4) = (  0.0000018  0.4999995 -0.0000005  )
         5           I   tau(   5) = (  0.0000018 -0.0000011  0.4999998  )

     number of k points=   260  Marzari-Vanderbilt smearing, width (Ry)=  0.0010
                       cart. coord. in units 2pi/alat
        k(    1) = (   0.0000000   0.0000000   0.0000000), wk =   0.0039062
        k(    2) = (  -0.0000000  -0.0000000   0.1250000), wk =   0.0078125
        k(    3) = (  -0.0000000  -0.0000000   0.2500000), wk =   0.0078125
        k(    4) = (  -0.0000000  -0.0000000   0.3750000), wk =   0.0078125
        k(    5) = (   0.0000000   0.0000000  -0.5000000), wk =   0.0039062
        k(    6) = (  -0.0000000   0.1250000  -0.0000000), wk =   0.0078125
        k(    7) = (  -0.0000000   0.1250000   0.1250000), wk =   0.0078125
        k(    8) = (  -0.0000000   0.1250000   0.2500000), wk =   0.0078125
        k(    9) = (  -0.0000000   0.1250000   0.3750000), wk =   0.0078125
        k(   10) = (   0.0000000   0.1250000  -0.5000000), wk =   0.0078125
        k(   11) = (   0.0000000   0.1250000  -0.3750000), wk =   0.0078125
        k(   12) = (   0.0000000   0.1250000  -0.2500000), wk =   0.0078125
        k(   13) = (   0.0000000   0.1250000  -0.1250000), wk =   0.0078125
        k(   14) = (  -0.0000000   0.2500000  -0.0000000), wk =   0.0078125
        k(   15) = (  -0.0000000   0.2500000   0.1250000), wk =   0.0078125
        k(   16) = (  -0.0000000   0.2500000   0.2500000), wk =   0.0078125
        k(   17) = (  -0.0000000   0.2500000   0.3750000), wk =   0.0078125
        k(   18) = (   0.0000000   0.2500000  -0.5000000), wk =   0.0078125
        k(   19) = (   0.0000000   0.2500000  -0.3750000), wk =   0.0078125
        k(   20) = (   0.0000000   0.2500000  -0.2500000), wk =   0.0078125
        k(   21) = (  -0.0000000   0.2500000  -0.1250000), wk =   0.0078125
        k(   22) = (  -0.0000000   0.3750000  -0.0000000), wk =   0.0078125
        k(   23) = (  -0.0000000   0.3750000   0.1250000), wk =   0.0078125
        k(   24) = (  -0.0000000   0.3750000   0.2500000), wk =   0.0078125
        k(   25) = (  -0.0000000   0.3750000   0.3750000), wk =   0.0078125
        k(   26) = (   0.0000000   0.3750000  -0.5000000), wk =   0.0078125
        k(   27) = (   0.0000000   0.3750000  -0.3750000), wk =   0.0078125
        k(   28) = (  -0.0000000   0.3750000  -0.2500000), wk =   0.0078125
        k(   29) = (  -0.0000000   0.3750000  -0.1250000), wk =   0.0078125
        k(   30) = (   0.0000000  -0.5000001   0.0000000), wk =   0.0039062
        k(   31) = (   0.0000000  -0.5000001   0.1250000), wk =   0.0078125
        k(   32) = (   0.0000000  -0.5000001   0.2500000), wk =   0.0078125
        k(   33) = (  -0.0000000  -0.5000001   0.3750000), wk =   0.0078125
        k(   34) = (   0.0000000  -0.5000001  -0.5000000), wk =   0.0039062
        k(   35) = (   0.1250000  -0.0000000  -0.0000000), wk =   0.0078125
        k(   36) = (   0.1250000  -0.0000000   0.1250000), wk =   0.0078125
        k(   37) = (   0.1250000  -0.0000000   0.2500000), wk =   0.0078125
        k(   38) = (   0.1250000  -0.0000000   0.3750000), wk =   0.0078125
        k(   39) = (   0.1250000   0.0000000  -0.5000000), wk =   0.0078125
        k(   40) = (   0.1250000   0.0000000  -0.3750000), wk =   0.0078125
        k(   41) = (   0.1250000   0.0000000  -0.2500000), wk =   0.0078125
        k(   42) = (   0.1250000   0.0000000  -0.1250000), wk =   0.0078125
        k(   43) = (   0.1250000   0.1250000  -0.0000000), wk =   0.0078125
        k(   44) = (   0.1250000   0.1250000   0.1250000), wk =   0.0078125
        k(   45) = (   0.1250000   0.1250000   0.2500000), wk =   0.0078125
        k(   46) = (   0.1250000   0.1250000   0.3750000), wk =   0.0078125
        k(   47) = (   0.1250000   0.1250000  -0.5000000), wk =   0.0078125
        k(   48) = (   0.1250000   0.1250000  -0.3750000), wk =   0.0078125
        k(   49) = (   0.1250000   0.1250000  -0.2500000), wk =   0.0078125
        k(   50) = (   0.1250000   0.1250000  -0.1250000), wk =   0.0078125
        k(   51) = (   0.1250000   0.2500000  -0.0000000), wk =   0.0078125
        k(   52) = (   0.1250000   0.2500000   0.1250000), wk =   0.0078125
        k(   53) = (   0.1250000   0.2500000   0.2500000), wk =   0.0078125
        k(   54) = (   0.1250000   0.2500000   0.3750000), wk =   0.0078125
        k(   55) = (   0.1250000   0.2500000  -0.5000000), wk =   0.0078125
        k(   56) = (   0.1250000   0.2500000  -0.3750000), wk =   0.0078125
        k(   57) = (   0.1250000   0.2500000  -0.2500000), wk =   0.0078125
        k(   58) = (   0.1250000   0.2500000  -0.1250000), wk =   0.0078125
        k(   59) = (   0.1250000   0.3750000  -0.0000000), wk =   0.0078125
        k(   60) = (   0.1250000   0.3750000   0.1250000), wk =   0.0078125
        k(   61) = (   0.1250000   0.3750000   0.2500000), wk =   0.0078125
        k(   62) = (   0.1250000   0.3750000   0.3750000), wk =   0.0078125
        k(   63) = (   0.1250000   0.3750000  -0.5000000), wk =   0.0078125
        k(   64) = (   0.1250000   0.3750000  -0.3750000), wk =   0.0078125
        k(   65) = (   0.1250000   0.3750000  -0.2500000), wk =   0.0078125
        k(   66) = (   0.1250000   0.3750000  -0.1250000), wk =   0.0078125
        k(   67) = (   0.1250000  -0.5000001   0.0000000), wk =   0.0078125
        k(   68) = (   0.1250000  -0.5000001   0.1250000), wk =   0.0078125
        k(   69) = (   0.1250000  -0.5000001   0.2500000), wk =   0.0078125
        k(   70) = (   0.1250000  -0.5000001   0.3750000), wk =   0.0078125
        k(   71) = (   0.1250000  -0.5000001  -0.5000000), wk =   0.0078125
        k(   72) = (   0.1250000  -0.5000001  -0.3750000), wk =   0.0078125
        k(   73) = (   0.1250000  -0.5000001  -0.2500000), wk =   0.0078125
        k(   74) = (   0.1250000  -0.5000001  -0.1250000), wk =   0.0078125
        k(   75) = (   0.1250000  -0.3750000   0.0000000), wk =   0.0078125
        k(   76) = (   0.1250000  -0.3750000   0.1250000), wk =   0.0078125
        k(   77) = (   0.1250000  -0.3750000   0.2500000), wk =   0.0078125
        k(   78) = (   0.1250000  -0.3750000   0.3750000), wk =   0.0078125
        k(   79) = (   0.1250000  -0.3750000  -0.5000000), wk =   0.0078125
        k(   80) = (   0.1250000  -0.3750000  -0.3750000), wk =   0.0078125
        k(   81) = (   0.1250000  -0.3750000  -0.2500000), wk =   0.0078125
        k(   82) = (   0.1250000  -0.3750000  -0.1250000), wk =   0.0078125
        k(   83) = (   0.1250000  -0.2500000   0.0000000), wk =   0.0078125
        k(   84) = (   0.1250000  -0.2500000   0.1250000), wk =   0.0078125
        k(   85) = (   0.1250000  -0.2500000   0.2500000), wk =   0.0078125
        k(   86) = (   0.1250000  -0.2500000   0.3750000), wk =   0.0078125
        k(   87) = (   0.1250000  -0.2500000  -0.5000000), wk =   0.0078125
        k(   88) = (   0.1250000  -0.2500000  -0.3750000), wk =   0.0078125
        k(   89) = (   0.1250000  -0.2500000  -0.2500000), wk =   0.0078125
        k(   90) = (   0.1250000  -0.2500000  -0.1250000), wk =   0.0078125
        k(   91) = (   0.1250000  -0.1250000   0.0000000), wk =   0.0078125
        k(   92) = (   0.1250000  -0.1250000   0.1250000), wk =   0.0078125
        k(   93) = (   0.1250000  -0.1250000   0.2500000), wk =   0.0078125
        k(   94) = (   0.1250000  -0.1250000   0.3750000), wk =   0.0078125
        k(   95) = (   0.1250000  -0.1250000  -0.5000000), wk =   0.0078125
        k(   96) = (   0.1250000  -0.1250000  -0.3750000), wk =   0.0078125
        k(   97) = (   0.1250000  -0.1250000  -0.2500000), wk =   0.0078125
        k(   98) = (   0.1250000  -0.1250000  -0.1250000), wk =   0.0078125
        k(   99) = (   0.2500000  -0.0000000  -0.0000000), wk =   0.0078125
        k(  100) = (   0.2500000  -0.0000000   0.1250000), wk =   0.0078125
        k(  101) = (   0.2500000  -0.0000000   0.2500000), wk =   0.0078125
        k(  102) = (   0.2500000  -0.0000000   0.3750000), wk =   0.0078125
        k(  103) = (   0.2500000   0.0000000  -0.5000000), wk =   0.0078125
        k(  104) = (   0.2500000   0.0000000  -0.3750000), wk =   0.0078125
        k(  105) = (   0.2500000   0.0000000  -0.2500000), wk =   0.0078125
        k(  106) = (   0.2500000   0.0000000  -0.1250000), wk =   0.0078125
        k(  107) = (   0.2500000   0.1250000  -0.0000000), wk =   0.0078125
        k(  108) = (   0.2500000   0.1250000   0.1250000), wk =   0.0078125
        k(  109) = (   0.2500000   0.1250000   0.2500000), wk =   0.0078125
        k(  110) = (   0.2500000   0.1250000   0.3750000), wk =   0.0078125
        k(  111) = (   0.2500000   0.1250000  -0.5000000), wk =   0.0078125
        k(  112) = (   0.2500000   0.1250000  -0.3750000), wk =   0.0078125
        k(  113) = (   0.2500000   0.1250000  -0.2500000), wk =   0.0078125
        k(  114) = (   0.2500000   0.1250000  -0.1250000), wk =   0.0078125
        k(  115) = (   0.2500000   0.2500000  -0.0000000), wk =   0.0078125
        k(  116) = (   0.2500000   0.2500000   0.1250000), wk =   0.0078125
        k(  117) = (   0.2500000   0.2500000   0.2500000), wk =   0.0078125
        k(  118) = (   0.2500000   0.2500000   0.3750000), wk =   0.0078125
        k(  119) = (   0.2500000   0.2500000  -0.5000000), wk =   0.0078125
        k(  120) = (   0.2500000   0.2500000  -0.3750000), wk =   0.0078125
        k(  121) = (   0.2500000   0.2500000  -0.2500000), wk =   0.0078125
        k(  122) = (   0.2500000   0.2500000  -0.1250000), wk =   0.0078125
        k(  123) = (   0.2500000   0.3750000  -0.0000000), wk =   0.0078125
        k(  124) = (   0.2500000   0.3750000   0.1250000), wk =   0.0078125
        k(  125) = (   0.2500000   0.3750000   0.2500000), wk =   0.0078125
        k(  126) = (   0.2500000   0.3750000   0.3750000), wk =   0.0078125
        k(  127) = (   0.2500000   0.3750000  -0.5000000), wk =   0.0078125
        k(  128) = (   0.2500000   0.3750000  -0.3750000), wk =   0.0078125
        k(  129) = (   0.2500000   0.3750000  -0.2500000), wk =   0.0078125
        k(  130) = (   0.2500000   0.3750000  -0.1250000), wk =   0.0078125
        k(  131) = (   0.2500000  -0.5000001   0.0000000), wk =   0.0078125
        k(  132) = (   0.2500000  -0.5000001   0.1250000), wk =   0.0078125
        k(  133) = (   0.2500000  -0.5000001   0.2500000), wk =   0.0078125
        k(  134) = (   0.2500000  -0.5000001   0.3750000), wk =   0.0078125
        k(  135) = (   0.2500000  -0.5000001  -0.5000000), wk =   0.0078125
        k(  136) = (   0.2500000  -0.5000001  -0.3750000), wk =   0.0078125
        k(  137) = (   0.2500000  -0.5000001  -0.2500000), wk =   0.0078125
        k(  138) = (   0.2500000  -0.5000001  -0.1250000), wk =   0.0078125
        k(  139) = (   0.2500000  -0.3750000   0.0000000), wk =   0.0078125
        k(  140) = (   0.2500000  -0.3750000   0.1250000), wk =   0.0078125
        k(  141) = (   0.2500000  -0.3750000   0.2500000), wk =   0.0078125
        k(  142) = (   0.2500000  -0.3750000   0.3750000), wk =   0.0078125
        k(  143) = (   0.2500000  -0.3750000  -0.5000000), wk =   0.0078125
        k(  144) = (   0.2500000  -0.3750000  -0.3750000), wk =   0.0078125
        k(  145) = (   0.2500000  -0.3750000  -0.2500000), wk =   0.0078125
        k(  146) = (   0.2500000  -0.3750000  -0.1250000), wk =   0.0078125
        k(  147) = (   0.2500000  -0.2500000   0.0000000), wk =   0.0078125
        k(  148) = (   0.2500000  -0.2500000   0.1250000), wk =   0.0078125
        k(  149) = (   0.2500000  -0.2500000   0.2500000), wk =   0.0078125
        k(  150) = (   0.2500000  -0.2500000   0.3750000), wk =   0.0078125
        k(  151) = (   0.2500000  -0.2500000  -0.5000000), wk =   0.0078125
        k(  152) = (   0.2500000  -0.2500000  -0.3750000), wk =   0.0078125
        k(  153) = (   0.2500000  -0.2500000  -0.2500000), wk =   0.0078125
        k(  154) = (   0.2500000  -0.2500000  -0.1250000), wk =   0.0078125
        k(  155) = (   0.2500000  -0.1250000  -0.0000000), wk =   0.0078125
        k(  156) = (   0.2500000  -0.1250000   0.1250000), wk =   0.0078125
        k(  157) = (   0.2500000  -0.1250000   0.2500000), wk =   0.0078125
        k(  158) = (   0.2500000  -0.1250000   0.3750000), wk =   0.0078125
        k(  159) = (   0.2500000  -0.1250000  -0.5000000), wk =   0.0078125
        k(  160) = (   0.2500000  -0.1250000  -0.3750000), wk =   0.0078125
        k(  161) = (   0.2500000  -0.1250000  -0.2500000), wk =   0.0078125
        k(  162) = (   0.2500000  -0.1250000  -0.1250000), wk =   0.0078125
        k(  163) = (   0.3750000  -0.0000000  -0.0000000), wk =   0.0078125
        k(  164) = (   0.3750000  -0.0000000   0.1250000), wk =   0.0078125
        k(  165) = (   0.3750000  -0.0000000   0.2500000), wk =   0.0078125
        k(  166) = (   0.3750000  -0.0000000   0.3750000), wk =   0.0078125
        k(  167) = (   0.3750000   0.0000000  -0.5000000), wk =   0.0078125
        k(  168) = (   0.3750000   0.0000000  -0.3750000), wk =   0.0078125
        k(  169) = (   0.3750000   0.0000000  -0.2500000), wk =   0.0078125
        k(  170) = (   0.3750000  -0.0000000  -0.1250000), wk =   0.0078125
        k(  171) = (   0.3750000   0.1250000  -0.0000000), wk =   0.0078125
        k(  172) = (   0.3750000   0.1250000   0.1250000), wk =   0.0078125
        k(  173) = (   0.3750000   0.1250000   0.2500000), wk =   0.0078125
        k(  174) = (   0.3750000   0.1250000   0.3750000), wk =   0.0078125
        k(  175) = (   0.3750000   0.1250000  -0.5000000), wk =   0.0078125
        k(  176) = (   0.3750000   0.1250000  -0.3750000), wk =   0.0078125
        k(  177) = (   0.3750000   0.1250000  -0.2500000), wk =   0.0078125
        k(  178) = (   0.3750000   0.1250000  -0.1250000), wk =   0.0078125
        k(  179) = (   0.3750000   0.2500000  -0.0000000), wk =   0.0078125
        k(  180) = (   0.3750000   0.2500000   0.1250000), wk =   0.0078125
        k(  181) = (   0.3750000   0.2500000   0.2500000), wk =   0.0078125
        k(  182) = (   0.3750000   0.2500000   0.3750000), wk =   0.0078125
        k(  183) = (   0.3750000   0.2500000  -0.5000000), wk =   0.0078125
        k(  184) = (   0.3750000   0.2500000  -0.3750000), wk =   0.0078125
        k(  185) = (   0.3750000   0.2500000  -0.2500000), wk =   0.0078125
        k(  186) = (   0.3750000   0.2500000  -0.1250000), wk =   0.0078125
        k(  187) = (   0.3750000   0.3750000  -0.0000000), wk =   0.0078125
        k(  188) = (   0.3750000   0.3750000   0.1250000), wk =   0.0078125
        k(  189) = (   0.3750000   0.3750000   0.2500000), wk =   0.0078125
        k(  190) = (   0.3750000   0.3750000   0.3750000), wk =   0.0078125
        k(  191) = (   0.3750000   0.3750000  -0.5000000), wk =   0.0078125
        k(  192) = (   0.3750000   0.3750000  -0.3750000), wk =   0.0078125
        k(  193) = (   0.3750000   0.3750000  -0.2500000), wk =   0.0078125
        k(  194) = (   0.3750000   0.3750000  -0.1250000), wk =   0.0078125
        k(  195) = (   0.3750000  -0.5000001   0.0000000), wk =   0.0078125
        k(  196) = (   0.3750000  -0.5000001   0.1250000), wk =   0.0078125
        k(  197) = (   0.3750000  -0.5000001   0.2500000), wk =   0.0078125
        k(  198) = (   0.3750000  -0.5000001   0.3750000), wk =   0.0078125
        k(  199) = (   0.3750000  -0.5000001  -0.5000000), wk =   0.0078125
        k(  200) = (   0.3750000  -0.5000001  -0.3750000), wk =   0.0078125
        k(  201) = (   0.3750000  -0.5000001  -0.2500000), wk =   0.0078125
        k(  202) = (   0.3750000  -0.5000001  -0.1250000), wk =   0.0078125
        k(  203) = (   0.3750000  -0.3750000   0.0000000), wk =   0.0078125
        k(  204) = (   0.3750000  -0.3750000   0.1250000), wk =   0.0078125
        k(  205) = (   0.3750000  -0.3750000   0.2500000), wk =   0.0078125
        k(  206) = (   0.3750000  -0.3750000   0.3750000), wk =   0.0078125
        k(  207) = (   0.3750000  -0.3750000  -0.5000000), wk =   0.0078125
        k(  208) = (   0.3750000  -0.3750000  -0.3750000), wk =   0.0078125
        k(  209) = (   0.3750000  -0.3750000  -0.2500000), wk =   0.0078125
        k(  210) = (   0.3750000  -0.3750000  -0.1250000), wk =   0.0078125
        k(  211) = (   0.3750000  -0.2500000   0.0000000), wk =   0.0078125
        k(  212) = (   0.3750000  -0.2500000   0.1250000), wk =   0.0078125
        k(  213) = (   0.3750000  -0.2500000   0.2500000), wk =   0.0078125
        k(  214) = (   0.3750000  -0.2500000   0.3750000), wk =   0.0078125
        k(  215) = (   0.3750000  -0.2500000  -0.5000000), wk =   0.0078125
        k(  216) = (   0.3750000  -0.2500000  -0.3750000), wk =   0.0078125
        k(  217) = (   0.3750000  -0.2500000  -0.2500000), wk =   0.0078125
        k(  218) = (   0.3750000  -0.2500000  -0.1250000), wk =   0.0078125
        k(  219) = (   0.3750000  -0.1250000  -0.0000000), wk =   0.0078125
        k(  220) = (   0.3750000  -0.1250000   0.1250000), wk =   0.0078125
        k(  221) = (   0.3750000  -0.1250000   0.2500000), wk =   0.0078125
        k(  222) = (   0.3750000  -0.1250000   0.3750000), wk =   0.0078125
        k(  223) = (   0.3750000  -0.1250000  -0.5000000), wk =   0.0078125
        k(  224) = (   0.3750000  -0.1250000  -0.3750000), wk =   0.0078125
        k(  225) = (   0.3750000  -0.1250000  -0.2500000), wk =   0.0078125
        k(  226) = (   0.3750000  -0.1250000  -0.1250000), wk =   0.0078125
        k(  227) = (  -0.5000000   0.0000000   0.0000000), wk =   0.0039062
        k(  228) = (  -0.5000000   0.0000000   0.1250000), wk =   0.0078125
        k(  229) = (  -0.5000000  -0.0000000   0.2500000), wk =   0.0078125
        k(  230) = (  -0.5000000  -0.0000000   0.3750000), wk =   0.0078125
        k(  231) = (  -0.5000000   0.0000000  -0.5000000), wk =   0.0039062
        k(  232) = (  -0.5000000   0.1250000   0.0000000), wk =   0.0078125
        k(  233) = (  -0.5000000   0.1250000   0.1250000), wk =   0.0078125
        k(  234) = (  -0.5000000   0.1250000   0.2500000), wk =   0.0078125
        k(  235) = (  -0.5000000   0.1250000   0.3750000), wk =   0.0078125
        k(  236) = (  -0.5000000   0.1250000  -0.5000000), wk =   0.0078125
        k(  237) = (  -0.5000000   0.1250000  -0.3750000), wk =   0.0078125
        k(  238) = (  -0.5000000   0.1250000  -0.2500000), wk =   0.0078125
        k(  239) = (  -0.5000000   0.1250000  -0.1250000), wk =   0.0078125
        k(  240) = (  -0.5000000   0.2500000   0.0000000), wk =   0.0078125
        k(  241) = (  -0.5000000   0.2500000   0.1250000), wk =   0.0078125
        k(  242) = (  -0.5000000   0.2500000   0.2500000), wk =   0.0078125
        k(  243) = (  -0.5000000   0.2500000   0.3750000), wk =   0.0078125
        k(  244) = (  -0.5000000   0.2500000  -0.5000000), wk =   0.0078125
        k(  245) = (  -0.5000000   0.2500000  -0.3750000), wk =   0.0078125
        k(  246) = (  -0.5000000   0.2500000  -0.2500000), wk =   0.0078125
        k(  247) = (  -0.5000000   0.2500000  -0.1250000), wk =   0.0078125
        k(  248) = (  -0.5000000   0.3750000  -0.0000000), wk =   0.0078125
        k(  249) = (  -0.5000000   0.3750000   0.1250000), wk =   0.0078125
        k(  250) = (  -0.5000000   0.3750000   0.2500000), wk =   0.0078125
        k(  251) = (  -0.5000000   0.3750000   0.3750000), wk =   0.0078125
        k(  252) = (  -0.5000000   0.3750000  -0.5000000), wk =   0.0078125
        k(  253) = (  -0.5000000   0.3750000  -0.3750000), wk =   0.0078125
        k(  254) = (  -0.5000000   0.3750000  -0.2500000), wk =   0.0078125
        k(  255) = (  -0.5000000   0.3750000  -0.1250000), wk =   0.0078125
        k(  256) = (  -0.5000000  -0.5000001   0.0000000), wk =   0.0039062
        k(  257) = (  -0.5000000  -0.5000001   0.1250000), wk =   0.0078125
        k(  258) = (  -0.5000000  -0.5000001   0.2500000), wk =   0.0078125
        k(  259) = (  -0.5000000  -0.5000001   0.3750000), wk =   0.0078125
        k(  260) = (  -0.5000000  -0.5000001  -0.5000000), wk =   0.0039062

                       cryst. coord.
        k(    1) = (   0.0000000   0.0000000   0.0000000), wk =   0.0039062
        k(    2) = (   0.0000000  -0.0000000   0.1250000), wk =   0.0078125
        k(    3) = (   0.0000000  -0.0000000   0.2500000), wk =   0.0078125
        k(    4) = (   0.0000000  -0.0000000   0.3750000), wk =   0.0078125
        k(    5) = (  -0.0000000   0.0000000  -0.5000000), wk =   0.0039062
        k(    6) = (  -0.0000000   0.1250000  -0.0000000), wk =   0.0078125
        k(    7) = (  -0.0000000   0.1250000   0.1250000), wk =   0.0078125
        k(    8) = (   0.0000000   0.1250000   0.2500000), wk =   0.0078125
        k(    9) = (   0.0000000   0.1250000   0.3750000), wk =   0.0078125
        k(   10) = (  -0.0000000   0.1250000  -0.5000000), wk =   0.0078125
        k(   11) = (  -0.0000000   0.1250000  -0.3750000), wk =   0.0078125
        k(   12) = (  -0.0000000   0.1250000  -0.2500000), wk =   0.0078125
        k(   13) = (  -0.0000000   0.1250000  -0.1250000), wk =   0.0078125
        k(   14) = (  -0.0000000   0.2500000  -0.0000000), wk =   0.0078125
        k(   15) = (  -0.0000000   0.2500000   0.1250000), wk =   0.0078125
        k(   16) = (  -0.0000000   0.2500000   0.2500000), wk =   0.0078125
        k(   17) = (  -0.0000000   0.2500000   0.3750000), wk =   0.0078125
        k(   18) = (  -0.0000000   0.2500000  -0.5000000), wk =   0.0078125
        k(   19) = (  -0.0000000   0.2500000  -0.3750000), wk =   0.0078125
        k(   20) = (  -0.0000000   0.2500000  -0.2500000), wk =   0.0078125
        k(   21) = (  -0.0000000   0.2500000  -0.1250000), wk =   0.0078125
        k(   22) = (  -0.0000000   0.3750000  -0.0000000), wk =   0.0078125
        k(   23) = (  -0.0000000   0.3750000   0.1250000), wk =   0.0078125
        k(   24) = (  -0.0000000   0.3750000   0.2500000), wk =   0.0078125
        k(   25) = (  -0.0000000   0.3750000   0.3750000), wk =   0.0078125
        k(   26) = (  -0.0000000   0.3750000  -0.5000000), wk =   0.0078125
        k(   27) = (   0.0000000   0.3750000  -0.3750000), wk =   0.0078125
        k(   28) = (  -0.0000000   0.3750000  -0.2500000), wk =   0.0078125
        k(   29) = (  -0.0000000   0.3750000  -0.1250000), wk =   0.0078125
        k(   30) = (   0.0000000  -0.5000000   0.0000000), wk =   0.0039062
        k(   31) = (   0.0000000  -0.5000000   0.1250000), wk =   0.0078125
        k(   32) = (   0.0000000  -0.5000000   0.2500000), wk =   0.0078125
        k(   33) = (   0.0000000  -0.5000000   0.3750000), wk =   0.0078125
        k(   34) = (   0.0000000  -0.5000000  -0.5000000), wk =   0.0039062
        k(   35) = (   0.1250000  -0.0000000   0.0000000), wk =   0.0078125
        k(   36) = (   0.1250000  -0.0000000   0.1250000), wk =   0.0078125
        k(   37) = (   0.1250000  -0.0000000   0.2500000), wk =   0.0078125
        k(   38) = (   0.1250000  -0.0000000   0.3750000), wk =   0.0078125
        k(   39) = (   0.1250000   0.0000000  -0.5000000), wk =   0.0078125
        k(   40) = (   0.1250000   0.0000000  -0.3750000), wk =   0.0078125
        k(   41) = (   0.1250000   0.0000000  -0.2500000), wk =   0.0078125
        k(   42) = (   0.1250000  -0.0000000  -0.1250000), wk =   0.0078125
        k(   43) = (   0.1250000   0.1250000  -0.0000000), wk =   0.0078125
        k(   44) = (   0.1250000   0.1250000   0.1250000), wk =   0.0078125
        k(   45) = (   0.1250000   0.1250000   0.2500000), wk =   0.0078125
        k(   46) = (   0.1250000   0.1250000   0.3750000), wk =   0.0078125
        k(   47) = (   0.1250000   0.1250000  -0.5000000), wk =   0.0078125
        k(   48) = (   0.1250000   0.1250000  -0.3750000), wk =   0.0078125
        k(   49) = (   0.1250000   0.1250000  -0.2500000), wk =   0.0078125
        k(   50) = (   0.1250000   0.1250000  -0.1250000), wk =   0.0078125
        k(   51) = (   0.1250000   0.2500000  -0.0000000), wk =   0.0078125
        k(   52) = (   0.1250000   0.2500000   0.1250000), wk =   0.0078125
        k(   53) = (   0.1250000   0.2500000   0.2500000), wk =   0.0078125
        k(   54) = (   0.1250000   0.2500000   0.3750000), wk =   0.0078125
        k(   55) = (   0.1250000   0.2500000  -0.5000000), wk =   0.0078125
        k(   56) = (   0.1250000   0.2500000  -0.3750000), wk =   0.0078125
        k(   57) = (   0.1250000   0.2500000  -0.2500000), wk =   0.0078125
        k(   58) = (   0.1250000   0.2500000  -0.1250000), wk =   0.0078125
        k(   59) = (   0.1250000   0.3750000  -0.0000000), wk =   0.0078125
        k(   60) = (   0.1250000   0.3750000   0.1250000), wk =   0.0078125
        k(   61) = (   0.1250000   0.3750000   0.2500000), wk =   0.0078125
        k(   62) = (   0.1250000   0.3750000   0.3750000), wk =   0.0078125
        k(   63) = (   0.1250000   0.3750000  -0.5000000), wk =   0.0078125
        k(   64) = (   0.1250000   0.3750000  -0.3750000), wk =   0.0078125
        k(   65) = (   0.1250000   0.3750000  -0.2500000), wk =   0.0078125
        k(   66) = (   0.1250000   0.3750000  -0.1250000), wk =   0.0078125
        k(   67) = (   0.1250000  -0.5000000   0.0000000), wk =   0.0078125
        k(   68) = (   0.1250000  -0.5000000   0.1250000), wk =   0.0078125
        k(   69) = (   0.1250000  -0.5000000   0.2500000), wk =   0.0078125
        k(   70) = (   0.1250000  -0.5000000   0.3750000), wk =   0.0078125
        k(   71) = (   0.1250000  -0.5000000  -0.5000000), wk =   0.0078125
        k(   72) = (   0.1250000  -0.5000000  -0.3750000), wk =   0.0078125
        k(   73) = (   0.1250000  -0.5000000  -0.2500000), wk =   0.0078125
        k(   74) = (   0.1250000  -0.5000000  -0.1250000), wk =   0.0078125
        k(   75) = (   0.1250000  -0.3750000  -0.0000000), wk =   0.0078125
        k(   76) = (   0.1250000  -0.3750000   0.1250000), wk =   0.0078125
        k(   77) = (   0.1250000  -0.3750000   0.2500000), wk =   0.0078125
        k(   78) = (   0.1250000  -0.3750000   0.3750000), wk =   0.0078125
        k(   79) = (   0.1250000  -0.3750000  -0.5000000), wk =   0.0078125
        k(   80) = (   0.1250000  -0.3750000  -0.3750000), wk =   0.0078125
        k(   81) = (   0.1250000  -0.3750000  -0.2500000), wk =   0.0078125
        k(   82) = (   0.1250000  -0.3750000  -0.1250000), wk =   0.0078125
        k(   83) = (   0.1250000  -0.2500000  -0.0000000), wk =   0.0078125
        k(   84) = (   0.1250000  -0.2500000   0.1250000), wk =   0.0078125
        k(   85) = (   0.1250000  -0.2500000   0.2500000), wk =   0.0078125
        k(   86) = (   0.1250000  -0.2500000   0.3750000), wk =   0.0078125
        k(   87) = (   0.1250000  -0.2500000  -0.5000000), wk =   0.0078125
        k(   88) = (   0.1250000  -0.2500000  -0.3750000), wk =   0.0078125
        k(   89) = (   0.1250000  -0.2500000  -0.2500000), wk =   0.0078125
        k(   90) = (   0.1250000  -0.2500000  -0.1250000), wk =   0.0078125
        k(   91) = (   0.1250000  -0.1250000   0.0000000), wk =   0.0078125
        k(   92) = (   0.1250000  -0.1250000   0.1250000), wk =   0.0078125
        k(   93) = (   0.1250000  -0.1250000   0.2500000), wk =   0.0078125
        k(   94) = (   0.1250000  -0.1250000   0.3750000), wk =   0.0078125
        k(   95) = (   0.1250000  -0.1250000  -0.5000000), wk =   0.0078125
        k(   96) = (   0.1250000  -0.1250000  -0.3750000), wk =   0.0078125
        k(   97) = (   0.1250000  -0.1250000  -0.2500000), wk =   0.0078125
        k(   98) = (   0.1250000  -0.1250000  -0.1250000), wk =   0.0078125
        k(   99) = (   0.2500000  -0.0000000   0.0000000), wk =   0.0078125
        k(  100) = (   0.2500000  -0.0000000   0.1250000), wk =   0.0078125
        k(  101) = (   0.2500000  -0.0000000   0.2500000), wk =   0.0078125
        k(  102) = (   0.2500000  -0.0000000   0.3750000), wk =   0.0078125
        k(  103) = (   0.2500000   0.0000000  -0.5000000), wk =   0.0078125
        k(  104) = (   0.2500000  -0.0000000  -0.3750000), wk =   0.0078125
        k(  105) = (   0.2500000  -0.0000000  -0.2500000), wk =   0.0078125
        k(  106) = (   0.2500000   0.0000000  -0.1250000), wk =   0.0078125
        k(  107) = (   0.2500000   0.1250000  -0.0000000), wk =   0.0078125
        k(  108) = (   0.2500000   0.1250000   0.1250000), wk =   0.0078125
        k(  109) = (   0.2500000   0.1250000   0.2500000), wk =   0.0078125
        k(  110) = (   0.2500000   0.1250000   0.3750000), wk =   0.0078125
        k(  111) = (   0.2500000   0.1250000  -0.5000000), wk =   0.0078125
        k(  112) = (   0.2500000   0.1250000  -0.3750000), wk =   0.0078125
        k(  113) = (   0.2500000   0.1250000  -0.2500000), wk =   0.0078125
        k(  114) = (   0.2500000   0.1250000  -0.1250000), wk =   0.0078125
        k(  115) = (   0.2500000   0.2500000  -0.0000000), wk =   0.0078125
        k(  116) = (   0.2500000   0.2500000   0.1250000), wk =   0.0078125
        k(  117) = (   0.2500000   0.2500000   0.2500000), wk =   0.0078125
        k(  118) = (   0.2500000   0.2500000   0.3750000), wk =   0.0078125
        k(  119) = (   0.2500000   0.2500000  -0.5000000), wk =   0.0078125
        k(  120) = (   0.2500000   0.2500000  -0.3750000), wk =   0.0078125
        k(  121) = (   0.2500000   0.2500000  -0.2500000), wk =   0.0078125
        k(  122) = (   0.2500000   0.2500000  -0.1250000), wk =   0.0078125
        k(  123) = (   0.2500000   0.3750000  -0.0000000), wk =   0.0078125
        k(  124) = (   0.2500000   0.3750000   0.1250000), wk =   0.0078125
        k(  125) = (   0.2500000   0.3750000   0.2500000), wk =   0.0078125
        k(  126) = (   0.2500000   0.3750000   0.3750000), wk =   0.0078125
        k(  127) = (   0.2500000   0.3750000  -0.5000000), wk =   0.0078125
        k(  128) = (   0.2500000   0.3750000  -0.3750000), wk =   0.0078125
        k(  129) = (   0.2500000   0.3750000  -0.2500000), wk =   0.0078125
        k(  130) = (   0.2500000   0.3750000  -0.1250000), wk =   0.0078125
        k(  131) = (   0.2500000  -0.5000000  -0.0000000), wk =   0.0078125
        k(  132) = (   0.2500000  -0.5000000   0.1250000), wk =   0.0078125
        k(  133) = (   0.2500000  -0.5000000   0.2500000), wk =   0.0078125
        k(  134) = (   0.2500000  -0.5000000   0.3750000), wk =   0.0078125
        k(  135) = (   0.2500000  -0.5000000  -0.5000000), wk =   0.0078125
        k(  136) = (   0.2500000  -0.5000000  -0.3750000), wk =   0.0078125
        k(  137) = (   0.2500000  -0.5000000  -0.2500000), wk =   0.0078125
        k(  138) = (   0.2500000  -0.5000000  -0.1250000), wk =   0.0078125
        k(  139) = (   0.2500000  -0.3750000   0.0000000), wk =   0.0078125
        k(  140) = (   0.2500000  -0.3750000   0.1250000), wk =   0.0078125
        k(  141) = (   0.2500000  -0.3750000   0.2500000), wk =   0.0078125
        k(  142) = (   0.2500000  -0.3750000   0.3750000), wk =   0.0078125
        k(  143) = (   0.2500000  -0.3750000  -0.5000000), wk =   0.0078125
        k(  144) = (   0.2500000  -0.3750000  -0.3750000), wk =   0.0078125
        k(  145) = (   0.2500000  -0.3750000  -0.2500000), wk =   0.0078125
        k(  146) = (   0.2500000  -0.3750000  -0.1250000), wk =   0.0078125
        k(  147) = (   0.2500000  -0.2500000   0.0000000), wk =   0.0078125
        k(  148) = (   0.2500000  -0.2500000   0.1250000), wk =   0.0078125
        k(  149) = (   0.2500000  -0.2500000   0.2500000), wk =   0.0078125
        k(  150) = (   0.2500000  -0.2500000   0.3750000), wk =   0.0078125
        k(  151) = (   0.2500000  -0.2500000  -0.5000000), wk =   0.0078125
        k(  152) = (   0.2500000  -0.2500000  -0.3750000), wk =   0.0078125
        k(  153) = (   0.2500000  -0.2500000  -0.2500000), wk =   0.0078125
        k(  154) = (   0.2500000  -0.2500000  -0.1250000), wk =   0.0078125
        k(  155) = (   0.2500000  -0.1250000   0.0000000), wk =   0.0078125
        k(  156) = (   0.2500000  -0.1250000   0.1250000), wk =   0.0078125
        k(  157) = (   0.2500000  -0.1250000   0.2500000), wk =   0.0078125
        k(  158) = (   0.2500000  -0.1250000   0.3750000), wk =   0.0078125
        k(  159) = (   0.2500000  -0.1250000  -0.5000000), wk =   0.0078125
        k(  160) = (   0.2500000  -0.1250000  -0.3750000), wk =   0.0078125
        k(  161) = (   0.2500000  -0.1250000  -0.2500000), wk =   0.0078125
        k(  162) = (   0.2500000  -0.1250000  -0.1250000), wk =   0.0078125
        k(  163) = (   0.3750000  -0.0000000  -0.0000000), wk =   0.0078125
        k(  164) = (   0.3750000   0.0000000   0.1250000), wk =   0.0078125
        k(  165) = (   0.3750000   0.0000000   0.2500000), wk =   0.0078125
        k(  166) = (   0.3750000  -0.0000000   0.3750000), wk =   0.0078125
        k(  167) = (   0.3750000   0.0000000  -0.5000000), wk =   0.0078125
        k(  168) = (   0.3750000  -0.0000000  -0.3750000), wk =   0.0078125
        k(  169) = (   0.3750000   0.0000000  -0.2500000), wk =   0.0078125
        k(  170) = (   0.3750000  -0.0000000  -0.1250000), wk =   0.0078125
        k(  171) = (   0.3750000   0.1250000  -0.0000000), wk =   0.0078125
        k(  172) = (   0.3750000   0.1250000   0.1250000), wk =   0.0078125
        k(  173) = (   0.3750000   0.1250000   0.2500000), wk =   0.0078125
        k(  174) = (   0.3750000   0.1250000   0.3750000), wk =   0.0078125
        k(  175) = (   0.3750000   0.1250000  -0.5000000), wk =   0.0078125
        k(  176) = (   0.3750000   0.1250000  -0.3750000), wk =   0.0078125
        k(  177) = (   0.3750000   0.1250000  -0.2500000), wk =   0.0078125
        k(  178) = (   0.3750000   0.1250000  -0.1250000), wk =   0.0078125
        k(  179) = (   0.3750000   0.2500000  -0.0000000), wk =   0.0078125
        k(  180) = (   0.3750000   0.2500000   0.1250000), wk =   0.0078125
        k(  181) = (   0.3750000   0.2500000   0.2500000), wk =   0.0078125
        k(  182) = (   0.3750000   0.2500000   0.3750000), wk =   0.0078125
        k(  183) = (   0.3750000   0.2500000  -0.5000000), wk =   0.0078125
        k(  184) = (   0.3750000   0.2500000  -0.3750000), wk =   0.0078125
        k(  185) = (   0.3750000   0.2500000  -0.2500000), wk =   0.0078125
        k(  186) = (   0.3750000   0.2500000  -0.1250000), wk =   0.0078125
        k(  187) = (   0.3750000   0.3750000  -0.0000000), wk =   0.0078125
        k(  188) = (   0.3750000   0.3750000   0.1250000), wk =   0.0078125
        k(  189) = (   0.3750000   0.3750000   0.2500000), wk =   0.0078125
        k(  190) = (   0.3750000   0.3750000   0.3750000), wk =   0.0078125
        k(  191) = (   0.3750000   0.3750000  -0.5000000), wk =   0.0078125
        k(  192) = (   0.3750000   0.3750000  -0.3750000), wk =   0.0078125
        k(  193) = (   0.3750000   0.3750000  -0.2500000), wk =   0.0078125
        k(  194) = (   0.3750000   0.3750000  -0.1250000), wk =   0.0078125
        k(  195) = (   0.3750000  -0.5000000   0.0000000), wk =   0.0078125
        k(  196) = (   0.3750000  -0.5000000   0.1250000), wk =   0.0078125
        k(  197) = (   0.3750000  -0.5000000   0.2500000), wk =   0.0078125
        k(  198) = (   0.3750000  -0.5000000   0.3750000), wk =   0.0078125
        k(  199) = (   0.3750000  -0.5000000  -0.5000000), wk =   0.0078125
        k(  200) = (   0.3750000  -0.5000000  -0.3750000), wk =   0.0078125
        k(  201) = (   0.3750000  -0.5000000  -0.2500000), wk =   0.0078125
        k(  202) = (   0.3750000  -0.5000000  -0.1250000), wk =   0.0078125
        k(  203) = (   0.3750000  -0.3750000  -0.0000000), wk =   0.0078125
        k(  204) = (   0.3750000  -0.3750000   0.1250000), wk =   0.0078125
        k(  205) = (   0.3750000  -0.3750000   0.2500000), wk =   0.0078125
        k(  206) = (   0.3750000  -0.3750000   0.3750000), wk =   0.0078125
        k(  207) = (   0.3750000  -0.3750000  -0.5000000), wk =   0.0078125
        k(  208) = (   0.3750000  -0.3750000  -0.3750000), wk =   0.0078125
        k(  209) = (   0.3750000  -0.3750000  -0.2500000), wk =   0.0078125
        k(  210) = (   0.3750000  -0.3750000  -0.1250000), wk =   0.0078125
        k(  211) = (   0.3750000  -0.2500000  -0.0000000), wk =   0.0078125
        k(  212) = (   0.3750000  -0.2500000   0.1250000), wk =   0.0078125
        k(  213) = (   0.3750000  -0.2500000   0.2500000), wk =   0.0078125
        k(  214) = (   0.3750000  -0.2500000   0.3750000), wk =   0.0078125
        k(  215) = (   0.3750000  -0.2500000  -0.5000000), wk =   0.0078125
        k(  216) = (   0.3750000  -0.2500000  -0.3750000), wk =   0.0078125
        k(  217) = (   0.3750000  -0.2500000  -0.2500000), wk =   0.0078125
        k(  218) = (   0.3750000  -0.2500000  -0.1250000), wk =   0.0078125
        k(  219) = (   0.3750000  -0.1250000   0.0000000), wk =   0.0078125
        k(  220) = (   0.3750000  -0.1250000   0.1250000), wk =   0.0078125
        k(  221) = (   0.3750000  -0.1250000   0.2500000), wk =   0.0078125
        k(  222) = (   0.3750000  -0.1250000   0.3750000), wk =   0.0078125
        k(  223) = (   0.3750000  -0.1250000  -0.5000000), wk =   0.0078125
        k(  224) = (   0.3750000  -0.1250000  -0.3750000), wk =   0.0078125
        k(  225) = (   0.3750000  -0.1250000  -0.2500000), wk =   0.0078125
        k(  226) = (   0.3750000  -0.1250000  -0.1250000), wk =   0.0078125
        k(  227) = (  -0.5000000   0.0000000  -0.0000000), wk =   0.0039062
        k(  228) = (  -0.5000000   0.0000000   0.1250000), wk =   0.0078125
        k(  229) = (  -0.5000000  -0.0000000   0.2500000), wk =   0.0078125
        k(  230) = (  -0.5000000   0.0000000   0.3750000), wk =   0.0078125
        k(  231) = (  -0.5000000   0.0000000  -0.5000000), wk =   0.0039062
        k(  232) = (  -0.5000000   0.1250000  -0.0000000), wk =   0.0078125
        k(  233) = (  -0.5000000   0.1250000   0.1250000), wk =   0.0078125
        k(  234) = (  -0.5000000   0.1250000   0.2500000), wk =   0.0078125
        k(  235) = (  -0.5000000   0.1250000   0.3750000), wk =   0.0078125
        k(  236) = (  -0.5000000   0.1250000  -0.5000000), wk =   0.0078125
        k(  237) = (  -0.5000000   0.1250000  -0.3750000), wk =   0.0078125
        k(  238) = (  -0.5000000   0.1250000  -0.2500000), wk =   0.0078125
        k(  239) = (  -0.5000000   0.1250000  -0.1250000), wk =   0.0078125
        k(  240) = (  -0.5000000   0.2500000  -0.0000000), wk =   0.0078125
        k(  241) = (  -0.5000000   0.2500000   0.1250000), wk =   0.0078125
        k(  242) = (  -0.5000000   0.2500000   0.2500000), wk =   0.0078125
        k(  243) = (  -0.5000000   0.2500000   0.3750000), wk =   0.0078125
        k(  244) = (  -0.5000000   0.2500000  -0.5000000), wk =   0.0078125
        k(  245) = (  -0.5000000   0.2500000  -0.3750000), wk =   0.0078125
        k(  246) = (  -0.5000000   0.2500000  -0.2500000), wk =   0.0078125
        k(  247) = (  -0.5000000   0.2500000  -0.1250000), wk =   0.0078125
        k(  248) = (  -0.5000000   0.3750000  -0.0000000), wk =   0.0078125
        k(  249) = (  -0.5000000   0.3750000   0.1250000), wk =   0.0078125
        k(  250) = (  -0.5000000   0.3750000   0.2500000), wk =   0.0078125
        k(  251) = (  -0.5000000   0.3750000   0.3750000), wk =   0.0078125
        k(  252) = (  -0.5000000   0.3750000  -0.5000000), wk =   0.0078125
        k(  253) = (  -0.5000000   0.3750000  -0.3750000), wk =   0.0078125
        k(  254) = (  -0.5000000   0.3750000  -0.2500000), wk =   0.0078125
        k(  255) = (  -0.5000000   0.3750000  -0.1250000), wk =   0.0078125
        k(  256) = (  -0.5000000  -0.5000000   0.0000000), wk =   0.0039062
        k(  257) = (  -0.5000000  -0.5000000   0.1250000), wk =   0.0078125
        k(  258) = (  -0.5000000  -0.5000000   0.2500000), wk =   0.0078125
        k(  259) = (  -0.5000000  -0.5000000   0.3750000), wk =   0.0078125
        k(  260) = (  -0.5000000  -0.5000000  -0.5000000), wk =   0.0039062

     Dense  grid:   109931 G-vectors     FFT dimensions: (  60,  60,  60)

     Smooth grid:    78805 G-vectors     FFT dimensions: (  54,  54,  54)

     Dynamical RAM for                 wfc:       0.24 MB

     Dynamical RAM for     wfc (w. buffer):      16.08 MB

     Dynamical RAM for             U proj.:       0.09 MB

     Dynamical RAM for  U proj. (w. buff.):       6.18 MB

     Dynamical RAM for           str. fact:       0.31 MB

     Dynamical RAM for           local pot:       0.00 MB

     Dynamical RAM for          nlocal pot:       0.84 MB

     Dynamical RAM for                qrad:       3.81 MB

     Dynamical RAM for          rho,v,vnew:       0.64 MB

     Dynamical RAM for               rhoin:       0.21 MB

     Dynamical RAM for            rho*nmix:       1.68 MB

     Dynamical RAM for           G-vectors:       0.43 MB

     Dynamical RAM for          h,s,v(r/c):       0.01 MB

     Dynamical RAM for          <psi|beta>:       0.04 MB

     Dynamical RAM for                 psi:       0.49 MB

     Dynamical RAM for                hpsi:       0.49 MB

     Dynamical RAM for                spsi:       0.49 MB

     Dynamical RAM for      wfcinit/wfcrot:       0.66 MB

     Dynamical RAM for           addusdens:       5.03 MB

     Dynamical RAM for          addusforce:       5.12 MB

     Dynamical RAM for         addusstress:       5.31 MB

     Estimated static dynamical RAM per process >      29.49 MB

     Estimated max dynamical RAM per process >      36.47 MB

     Estimated total dynamical RAM >       2.20 GB

     Check: negative core charge=   -0.000002

     Initial potential from superposition of free atoms

     starting charge   42.96025, renormalised to   44.00000
 --- in v_hubbard_extended ---
Hubbard energy    0.3740
 -----------------------------
     Number of +U iterations with fixed ns =  0
     Starting occupations:
 --- enter write_nsg ---
 Atom:    2   Spin:  1
    eigenvalues and eigenvectors of the occupation matrix:
  1.000
  1.000
    occupation matrix before diagonalization:
  1.000
 Atom:    3   Spin:  1
    eigenvalues and eigenvectors of the occupation matrix:
  0.833
  1.000  0.000  0.000
  0.833
  0.000  1.000  0.000
  0.833
  0.000  0.000  1.000
    occupation matrix before diagonalization:
  0.833  0.000  0.000
  0.000  0.833  0.000
  0.000  0.000  0.833
 Atom:    4   Spin:  1
    eigenvalues and eigenvectors of the occupation matrix:
  0.833
  1.000  0.000  0.000
  0.833
  0.000  1.000  0.000
  0.833
  0.000  0.000  1.000
    occupation matrix before diagonalization:
  0.833  0.000  0.000
  0.000  0.833  0.000
  0.000  0.000  0.833
 Atom:    5   Spin:  1
    eigenvalues and eigenvectors of the occupation matrix:
  0.833
  1.000  0.000  0.000
  0.833
  0.000  1.000  0.000
  0.833
  0.000  0.000  1.000
    occupation matrix before diagonalization:
  0.833  0.000  0.000
  0.000  0.833  0.000
  0.000  0.000  0.833
atom    2   Tr[ns(na)]=   2.0000000
atom    3   Tr[ns(na)]=   5.0000000
atom    4   Tr[ns(na)]=   5.0000000
atom    5   Tr[ns(na)]=   5.0000000
 --- exit write_nsg ---
 Atomic wfc used for LDA+U Projector are orthogonalized
     Starting wfcs are   34 randomized atomic wfcs

     total cpu time spent up to now is        3.5 secs

     Self-consistent Calculation

     iteration #  1     ecut=    50.00 Ry     beta= 0.50
     Davidson diagonalization with overlap

---- Real-time Memory Report at c_bands before calling an iterative solver
            74 MiB given to the printing process from OS
             0 MiB allocation reported by mallinfo(arena+hblkhd)
        239308 MiB available memory on the node where the printing process lives
------------------
     ethr =  1.00E-02,  avg # of iterations =  2.4
 --- enter write_nsg ---
 Atom:    2   Spin:  1
    eigenvalues and eigenvectors of the occupation matrix:
  0.946
  1.000
    occupation matrix before diagonalization:
  0.946
 Atom:    3   Spin:  1
    eigenvalues and eigenvectors of the occupation matrix:
  0.848
  0.000 -1.000 -0.000
  0.928
  0.777 -0.000  0.629
  0.928
 -0.629 -0.000  0.777
    occupation matrix before diagonalization:
  0.928  0.000 -0.000
  0.000  0.848 -0.000
 -0.000 -0.000  0.928
 Atom:    4   Spin:  1
    eigenvalues and eigenvectors of the occupation matrix:
  0.848
  0.000  0.000  1.000
  0.928
 -0.843  0.538 -0.000
  0.928
 -0.538 -0.843  0.000
    occupation matrix before diagonalization:
  0.928  0.000 -0.000
  0.000  0.928 -0.000
 -0.000 -0.000  0.848
 Atom:    5   Spin:  1
    eigenvalues and eigenvectors of the occupation matrix:
  0.848
  1.000  0.000  0.000
  0.928
  0.000  0.126 -0.992
  0.928
 -0.000  0.992  0.126
    occupation matrix before diagonalization:
  0.848 -0.000 -0.000
 -0.000  0.928  0.000
 -0.000  0.000  0.928
atom    2   Tr[ns(na)]=   1.8916010
atom    3   Tr[ns(na)]=   5.4078466
atom    4   Tr[ns(na)]=   5.4078866
atom    5   Tr[ns(na)]=   5.4079252
 --- exit write_nsg ---

     Threshold (ethr) on eigenvalues was too large:
     Diagonalizing with lowered threshold

     Davidson diagonalization with overlap

---- Real-time Memory Report at c_bands before calling an iterative solver
            81 MiB given to the printing process from OS
             0 MiB allocation reported by mallinfo(arena+hblkhd)
        238960 MiB available memory on the node where the printing process lives
------------------
     ethr =  6.19E-04,  avg # of iterations =  2.0
 --- enter write_nsg ---
 Atom:    2   Spin:  1
    eigenvalues and eigenvectors of the occupation matrix:
  0.946
  1.000
    occupation matrix before diagonalization:
  0.946
 Atom:    3   Spin:  1
    eigenvalues and eigenvectors of the occupation matrix:
  0.847
  0.000 -1.000 -0.000
  0.927
 -0.662  0.000 -0.749
  0.927
  0.749  0.000 -0.662
    occupation matrix before diagonalization:
  0.927  0.000 -0.000
  0.000  0.847 -0.000
 -0.000 -0.000  0.927
 Atom:    4   Spin:  1
    eigenvalues and eigenvectors of the occupation matrix:
  0.847
 -0.000  0.000  1.000
  0.927
 -0.574  0.819 -0.000
  0.927
 -0.819 -0.574  0.000
    occupation matrix before diagonalization:
  0.927  0.000  0.000
  0.000  0.927 -0.000
  0.000 -0.000  0.847
 Atom:    5   Spin:  1
    eigenvalues and eigenvectors of the occupation matrix:
  0.847
  1.000 -0.000  0.000
  0.927
  0.000  0.027 -1.000
  0.927
  0.000  1.000  0.027
    occupation matrix before diagonalization:
  0.847  0.000 -0.000
  0.000  0.927  0.000
 -0.000  0.000  0.927
atom    2   Tr[ns(na)]=   1.8911415
atom    3   Tr[ns(na)]=   5.4033421
atom    4   Tr[ns(na)]=   5.4033543
atom    5   Tr[ns(na)]=   5.4033729
 --- exit write_nsg ---
 --- in v_hubbard_extended ---
Hubbard energy    0.3140
 -----------------------------

     total cpu time spent up to now is        8.5 secs

     total energy              =    -419.24513509 Ry
     estimated scf accuracy    <       0.28048608 Ry

     iteration #  2     ecut=    50.00 Ry     beta= 0.50
     Davidson diagonalization with overlap

---- Real-time Memory Report at c_bands before calling an iterative solver
            82 MiB given to the printing process from OS
             0 MiB allocation reported by mallinfo(arena+hblkhd)
        238878 MiB available memory on the node where the printing process lives
------------------
     ethr =  6.37E-04,  avg # of iterations =  2.1
 --- enter write_nsg ---
 Atom:    2   Spin:  1
    eigenvalues and eigenvectors of the occupation matrix:
  0.952
  1.000
    occupation matrix before diagonalization:
  0.952
 Atom:    3   Spin:  1
    eigenvalues and eigenvectors of the occupation matrix:
  0.806
  0.000  1.000  0.000
  0.917
 -0.969 -0.000  0.247
  0.917
  0.247 -0.000  0.969
    occupation matrix before diagonalization:
  0.917 -0.000  0.000
 -0.000  0.806 -0.000
  0.000 -0.000  0.917
 Atom:    4   Spin:  1
    eigenvalues and eigenvectors of the occupation matrix:
  0.806
  0.000  0.000  1.000
  0.917
 -1.000  0.019  0.000
  0.917
 -0.019 -1.000  0.000
    occupation matrix before diagonalization:
  0.917  0.000 -0.000
  0.000  0.917 -0.000
 -0.000 -0.000  0.806
 Atom:    5   Spin:  1
    eigenvalues and eigenvectors of the occupation matrix:
  0.806
  1.000  0.000  0.000
  0.917
 -0.000  0.988 -0.153
  0.917
 -0.000  0.153  0.988
    occupation matrix before diagonalization:
  0.806 -0.000 -0.000
 -0.000  0.917  0.000
 -0.000  0.000  0.917
atom    2   Tr[ns(na)]=   1.9048030
atom    3   Tr[ns(na)]=   5.2799783
atom    4   Tr[ns(na)]=   5.2799287
atom    5   Tr[ns(na)]=   5.2799238
 --- exit write_nsg ---
 --- in v_hubbard_extended ---
Hubbard energy    0.2994
 -----------------------------

     total cpu time spent up to now is       11.1 secs

     total energy              =    -419.30283725 Ry
     estimated scf accuracy    <       0.01590251 Ry

     iteration #  3     ecut=    50.00 Ry     beta= 0.50
     Davidson diagonalization with overlap

---- Real-time Memory Report at c_bands before calling an iterative solver
            85 MiB given to the printing process from OS
             0 MiB allocation reported by mallinfo(arena+hblkhd)
        238847 MiB available memory on the node where the printing process lives
------------------
     ethr =  3.61E-05,  avg # of iterations =  6.6
 --- enter write_nsg ---
 Atom:    2   Spin:  1
    eigenvalues and eigenvectors of the occupation matrix:
  0.952
  1.000
    occupation matrix before diagonalization:
  0.952
 Atom:    3   Spin:  1
    eigenvalues and eigenvectors of the occupation matrix:
  0.805
 -0.000  1.000  0.000
  0.918
 -0.957 -0.000  0.292
  0.918
  0.292 -0.000  0.957
    occupation matrix before diagonalization:
  0.918  0.000  0.000
  0.000  0.805 -0.000
  0.000 -0.000  0.918
 Atom:    4   Spin:  1
    eigenvalues and eigenvectors of the occupation matrix:
  0.805
 -0.000 -0.000  1.000
  0.918
  0.998  0.055  0.000
  0.918
 -0.055  0.998  0.000
    occupation matrix before diagonalization:
  0.918 -0.000  0.000
 -0.000  0.918  0.000
  0.000  0.000  0.805
 Atom:    5   Spin:  1
    eigenvalues and eigenvectors of the occupation matrix:
  0.805
  1.000  0.000 -0.000
  0.918
 -0.000  0.999  0.033
  0.918
  0.000 -0.033  0.999
    occupation matrix before diagonalization:
  0.805 -0.000  0.000
 -0.000  0.918 -0.000
  0.000 -0.000  0.918
atom    2   Tr[ns(na)]=   1.9042606
atom    3   Tr[ns(na)]=   5.2819285
atom    4   Tr[ns(na)]=   5.2819233
atom    5   Tr[ns(na)]=   5.2819243
 --- exit write_nsg ---
 --- in v_hubbard_extended ---
Hubbard energy    0.2863
 -----------------------------

     total cpu time spent up to now is       14.8 secs

     total energy              =    -419.30453690 Ry
     estimated scf accuracy    <       0.00353733 Ry

     iteration #  4     ecut=    50.00 Ry     beta= 0.50
     Davidson diagonalization with overlap

---- Real-time Memory Report at c_bands before calling an iterative solver
            85 MiB given to the printing process from OS
             0 MiB allocation reported by mallinfo(arena+hblkhd)
        238827 MiB available memory on the node where the printing process lives
------------------
     c_bands:  1 eigenvalues not converged
     c_bands:  2 eigenvalues not converged
     c_bands:  1 eigenvalues not converged
     c_bands:  1 eigenvalues not converged
     c_bands:  1 eigenvalues not converged
     ethr =  8.04E-06,  avg # of iterations =  5.5
 --- enter write_nsg ---
 Atom:    2   Spin:  1
    eigenvalues and eigenvectors of the occupation matrix:
  0.951
  1.000
    occupation matrix before diagonalization:
  0.951
 Atom:    3   Spin:  1
    eigenvalues and eigenvectors of the occupation matrix:
  0.805
  0.000  1.000  0.000
  0.919
 -0.860 -0.000  0.510
  0.919
  0.510 -0.000  0.860
    occupation matrix before diagonalization:
  0.919 -0.000  0.000
 -0.000  0.805 -0.000
  0.000 -0.000  0.919
 Atom:    4   Spin:  1
    eigenvalues and eigenvectors of the occupation matrix:
  0.805
  0.000 -0.000  1.000
  0.919
 -0.967  0.255  0.000
  0.919
 -0.255 -0.967 -0.000
    occupation matrix before diagonalization:
  0.919  0.000 -0.000
  0.000  0.919  0.000
 -0.000  0.000  0.805
 Atom:    5   Spin:  1
    eigenvalues and eigenvectors of the occupation matrix:
  0.805
  1.000  0.000  0.000
  0.919
  0.000 -0.665  0.747
  0.919
  0.000 -0.747 -0.665
    occupation matrix before diagonalization:
  0.805 -0.000 -0.000
 -0.000  0.919  0.000
 -0.000  0.000  0.919
atom    2   Tr[ns(na)]=   1.9026239
atom    3   Tr[ns(na)]=   5.2847947
atom    4   Tr[ns(na)]=   5.2847921
atom    5   Tr[ns(na)]=   5.2847995
 --- exit write_nsg ---
 --- in v_hubbard_extended ---
Hubbard energy    0.2829
 -----------------------------

     total cpu time spent up to now is       18.9 secs

     total energy              =    -419.30498351 Ry
     estimated scf accuracy    <       0.00019090 Ry

     iteration #  5     ecut=    50.00 Ry     beta= 0.50
     Davidson diagonalization with overlap

---- Real-time Memory Report at c_bands before calling an iterative solver
            86 MiB given to the printing process from OS
             0 MiB allocation reported by mallinfo(arena+hblkhd)
        238810 MiB available memory on the node where the printing process lives
------------------
     c_bands:  1 eigenvalues not converged
     c_bands:  1 eigenvalues not converged
     c_bands:  1 eigenvalues not converged
     ethr =  4.34E-07,  avg # of iterations =  5.2
 --- enter write_nsg ---
 Atom:    2   Spin:  1
    eigenvalues and eigenvectors of the occupation matrix:
  0.951
  1.000
    occupation matrix before diagonalization:
  0.951
 Atom:    3   Spin:  1
    eigenvalues and eigenvectors of the occupation matrix:
  0.804
 -0.000 -1.000  0.000
  0.919
  1.000 -0.000 -0.014
  0.919
  0.014  0.000  1.000
    occupation matrix before diagonalization:
  0.919 -0.000  0.000
 -0.000  0.804  0.000
  0.000  0.000  0.919
 Atom:    4   Spin:  1
    eigenvalues and eigenvectors of the occupation matrix:
  0.804
  0.000 -0.000  1.000
  0.919
 -0.994  0.108  0.000
  0.919
 -0.108 -0.994 -0.000
    occupation matrix before diagonalization:
  0.919  0.000 -0.000
  0.000  0.919  0.000
 -0.000  0.000  0.804
 Atom:    5   Spin:  1
    eigenvalues and eigenvectors of the occupation matrix:
  0.804
  1.000  0.000  0.000
  0.919
 -0.000  0.846  0.533
  0.919
  0.000 -0.533  0.846
    occupation matrix before diagonalization:
  0.804 -0.000 -0.000
 -0.000  0.919 -0.000
 -0.000 -0.000  0.919
atom    2   Tr[ns(na)]=   1.9025824
atom    3   Tr[ns(na)]=   5.2827741
atom    4   Tr[ns(na)]=   5.2827744
atom    5   Tr[ns(na)]=   5.2827727
 --- exit write_nsg ---
 --- in v_hubbard_extended ---
Hubbard energy    0.2825
 -----------------------------

     total cpu time spent up to now is       22.8 secs

     total energy              =    -419.30503798 Ry
     estimated scf accuracy    <       0.00001736 Ry

     iteration #  6     ecut=    50.00 Ry     beta= 0.50
     Davidson diagonalization with overlap

---- Real-time Memory Report at c_bands before calling an iterative solver
            86 MiB given to the printing process from OS
             0 MiB allocation reported by mallinfo(arena+hblkhd)
        238794 MiB available memory on the node where the printing process lives
------------------
     ethr =  3.94E-08,  avg # of iterations =  4.7
 --- enter write_nsg ---
 Atom:    2   Spin:  1
    eigenvalues and eigenvectors of the occupation matrix:
  0.951
  1.000
    occupation matrix before diagonalization:
  0.951
 Atom:    3   Spin:  1
    eigenvalues and eigenvectors of the occupation matrix:
  0.803
  0.000 -1.000  0.000
  0.919
  0.190  0.000 -0.982
  0.919
  0.982  0.000  0.190
    occupation matrix before diagonalization:
  0.919  0.000  0.000
  0.000  0.803  0.000
  0.000  0.000  0.919
 Atom:    4   Spin:  1
    eigenvalues and eigenvectors of the occupation matrix:
  0.803
  0.000  0.000  1.000
  0.919
 -0.515  0.857 -0.000
  0.919
 -0.857 -0.515  0.000
    occupation matrix before diagonalization:
  0.919  0.000 -0.000
  0.000  0.919 -0.000
 -0.000 -0.000  0.803
 Atom:    5   Spin:  1
    eigenvalues and eigenvectors of the occupation matrix:
  0.803
  1.000  0.000  0.000
  0.919
  0.000 -0.630 -0.777
  0.919
 -0.000  0.777 -0.630
    occupation matrix before diagonalization:
  0.803 -0.000 -0.000
 -0.000  0.919 -0.000
 -0.000 -0.000  0.919
atom    2   Tr[ns(na)]=   1.9024588
atom    3   Tr[ns(na)]=   5.2827784
atom    4   Tr[ns(na)]=   5.2827772
atom    5   Tr[ns(na)]=   5.2827744
 --- exit write_nsg ---
 --- in v_hubbard_extended ---
Hubbard energy    0.2824
 -----------------------------

     total cpu time spent up to now is       26.8 secs

     total energy              =    -419.30504699 Ry
     estimated scf accuracy    <       0.00000174 Ry

     iteration #  7     ecut=    50.00 Ry     beta= 0.50
     Davidson diagonalization with overlap

---- Real-time Memory Report at c_bands before calling an iterative solver
            86 MiB given to the printing process from OS
             0 MiB allocation reported by mallinfo(arena+hblkhd)
        238768 MiB available memory on the node where the printing process lives
------------------
     ethr =  3.96E-09,  avg # of iterations =  4.9
 --- enter write_nsg ---
 Atom:    2   Spin:  1
    eigenvalues and eigenvectors of the occupation matrix:
  0.951
  1.000
    occupation matrix before diagonalization:
  0.951
 Atom:    3   Spin:  1
    eigenvalues and eigenvectors of the occupation matrix:
  0.803
 -0.000 -1.000 -0.000
  0.919
  0.946 -0.000 -0.325
  0.919
 -0.325  0.000 -0.946
    occupation matrix before diagonalization:
  0.919 -0.000  0.000
 -0.000  0.803 -0.000
  0.000 -0.000  0.919
 Atom:    4   Spin:  1
    eigenvalues and eigenvectors of the occupation matrix:
  0.803
  0.000  0.000  1.000
  0.919
 -0.991 -0.136  0.000
  0.919
  0.136 -0.991  0.000
    occupation matrix before diagonalization:
  0.919 -0.000 -0.000
 -0.000  0.919 -0.000
 -0.000 -0.000  0.803
 Atom:    5   Spin:  1
    eigenvalues and eigenvectors of the occupation matrix:
  0.803
 -1.000 -0.000 -0.000
  0.919
 -0.000  0.910 -0.415
  0.919
 -0.000  0.415  0.910
    occupation matrix before diagonalization:
  0.803 -0.000 -0.000
 -0.000  0.919  0.000
 -0.000  0.000  0.919
atom    2   Tr[ns(na)]=   1.9023834
atom    3   Tr[ns(na)]=   5.2829814
atom    4   Tr[ns(na)]=   5.2829813
atom    5   Tr[ns(na)]=   5.2829829
 --- exit write_nsg ---
 --- in v_hubbard_extended ---
Hubbard energy    0.2824
 -----------------------------

     total cpu time spent up to now is       31.1 secs

     End of self-consistent calculation

          k = 0.0000 0.0000 0.0000 (  9795 PWs)   bands (ev):

   -18.4901 -18.4901 -18.4787 -18.4787 -18.4787 -18.4498  -8.8875  -8.0203
    -8.0203  -5.2382  -5.2382  -5.2382  -3.2427  -1.2871  -1.2871  -1.2871
     0.4046   0.4046   0.4046   0.7073   0.7073   0.7073   6.3516   7.2888
     7.2890   8.2575

     occupation numbers 
     1.0000   1.0000   1.0000   1.0000   1.0000   1.0000   1.0000   1.0000
     1.0000   1.0000   1.0000   1.0000   1.0000   1.0000   1.0000   1.0000
     1.0000   1.0000   1.0000   1.0000   1.0000   1.0000   0.0000   0.0000
     0.0000   0.0000

          k =-0.0000-0.0000 0.1250 (  9827 PWs)   bands (ev):

   -18.4905 -18.4902 -18.4789 -18.4789 -18.4788 -18.4501  -8.8614  -8.0455
    -8.0202  -5.2362  -5.2362  -5.2325  -3.4351  -1.2670  -1.2670  -1.0002
     0.3944   0.3944   0.4082   0.6813   0.6813   0.7280   6.4911   7.3714
     7.3914   7.7000

     occupation numbers 
     1.0000   1.0000   1.0000   1.0000   1.0000   1.0000   1.0000   1.0000
     1.0000   1.0000   1.0000   1.0000   1.0000   1.0000   1.0000   1.0000
     1.0000   1.0000   1.0000   1.0000   1.0000   1.0000   0.0000   0.0000
     0.0000   0.0000

          k =-0.0000-0.0000 0.2500 (  9807 PWs)   bands (ev):

   -18.4906 -18.4902 -18.4788 -18.4788 -18.4788 -18.4510  -8.7918  -8.1144
    -8.0194  -5.2314  -5.2314  -5.2202  -3.7770  -1.2151  -1.2151  -0.4626
     0.3525   0.3525   0.4185   0.6324   0.6324   0.8690   6.5584   6.8755
     7.6066   7.8785

     occupation numbers 
     1.0000   1.0000   1.0000   1.0000   1.0000   1.0000   1.0000   1.0000
     1.0000   1.0000   1.0000   1.0000   1.0000   1.0000   1.0000   1.0000
     1.0000   1.0000   1.0000   1.0000   1.0000   1.0000   0.0000   0.0000
     0.0000   0.0000

          k =-0.0000-0.0000 0.3750 (  9830 PWs)   bands (ev):

   -18.4911 -18.4903 -18.4790 -18.4790 -18.4788 -18.4517  -8.7051  -8.2021
    -8.0180  -5.2267  -5.2267  -5.2104  -4.0333  -1.1573  -1.1573  -0.1306
     0.2842   0.2842   0.4314   0.6040   0.6040   1.2703   5.4739   7.3866
     7.9423   7.9423

     occupation numbers 
     1.0000   1.0000   1.0000   1.0000   1.0000   1.0000   1.0000   1.0000
     1.0000   1.0000   1.0000   1.0000   1.0000   1.0000   1.0000   1.0000
     1.0000   1.0000   1.0000   1.0000   1.0000   1.0000   0.0000   0.0000
     0.0000   0.0000

          k = 0.0000 0.0000-0.5000 (  9890 PWs)   bands (ev):

   -18.4915 -18.4905 -18.4793 -18.4793 -18.4791 -18.4520  -8.6588  -8.2495
    -8.0172  -5.2247  -5.2247  -5.2074  -4.1243  -1.1313  -1.1313  -0.0534
     0.2490   0.2490   0.4374   0.5970   0.5970   1.5634   4.9778   7.6819
     7.9466   7.9468

     occupation numbers 
     1.0000   1.0000   1.0000   1.0000   1.0000   1.0000   1.0000   1.0000
     1.0000   1.0000   1.0000   1.0000   1.0000   1.0000   1.0000   1.0000
     1.0000   1.0000   1.0000   1.0000   1.0000   1.0000   0.0000   0.0000
     0.0000   0.0000

          k =-0.0000 0.1250-0.0000 (  9827 PWs)   bands (ev):

   -18.4905 -18.4902 -18.4789 -18.4789 -18.4787 -18.4501  -8.8614  -8.0455
    -8.0202  -5.2362  -5.2362  -5.2325  -3.4351  -1.2670  -1.2670  -1.0002
     0.3944   0.3944   0.4082   0.6813   0.6813   0.7280   6.4911   7.3714
     7.3913   7.7037

     occupation numbers 
     1.0000   1.0000   1.0000   1.0000   1.0000   1.0000   1.0000   1.0000
     1.0000   1.0000   1.0000   1.0000   1.0000   1.0000   1.0000   1.0000
     1.0000   1.0000   1.0000   1.0000   1.0000   1.0000   0.0000   0.0000
     0.0000   0.0000

          k =-0.0000 0.1250 0.1250 (  9831 PWs)   bands (ev):

   -18.4906 -18.4903 -18.4789 -18.4789 -18.4787 -18.4504  -8.8360  -8.0564
    -8.0330  -5.2357  -5.2342  -5.2272  -3.6076  -1.2467  -1.1043  -0.8807
     0.3419   0.3873   0.4439   0.6514   0.7035   0.7235   6.6182   7.4449
     7.4641   7.6056

     occupation numbers 
     1.0000   1.0000   1.0000   1.0000   1.0000   1.0000   1.0000   1.0000
     1.0000   1.0000   1.0000   1.0000   1.0000   1.0000   1.0000   1.0000
     1.0000   1.0000   1.0000   1.0000   1.0000   1.0000   0.0000   0.0000
     0.0000   0.0000

          k =-0.0000 0.1250 0.2500 (  9819 PWs)   bands (ev):

   -18.4907 -18.4903 -18.4790 -18.4789 -18.4788 -18.4511  -8.7673  -8.1176
    -8.0371  -5.2318  -5.2295  -5.2180  -3.9280  -1.1944  -0.9969  -0.4414
     0.2741   0.3528   0.4799   0.5934   0.6804   0.8793   6.5163   6.9708
     7.4994   7.6880

     occupation numbers 
     1.0000   1.0000   1.0000   1.0000   1.0000   1.0000   1.0000   1.0000
     1.0000   1.0000   1.0000   1.0000   1.0000   1.0000   1.0000   1.0000
     1.0000   1.0000   1.0000   1.0000   1.0000   1.0000   0.0000   0.0000
     0.0000   0.0000

          k =-0.0000 0.1250 0.3750 (  9823 PWs)   bands (ev):

   -18.4910 -18.4903 -18.4790 -18.4790 -18.4788 -18.4517  -8.6806  -8.2026
    -8.0364  -5.2271  -5.2248  -5.2122  -4.1749  -1.1362  -0.9272  -0.1799
     0.2430   0.2883   0.5221   0.5597   0.6323   1.3036   5.4370   7.3878
     7.5253   7.8513

     occupation numbers 
     1.0000   1.0000   1.0000   1.0000   1.0000   1.0000   1.0000   1.0000
     1.0000   1.0000   1.0000   1.0000   1.0000   1.0000   1.0000   1.0000
     1.0000   1.0000   1.0000   1.0000   1.0000   1.0000   0.0000   0.0000
     0.0000   0.0000

          k = 0.0000 0.1250-0.5000 (  9852 PWs)   bands (ev):

   -18.4914 -18.4905 -18.4792 -18.4791 -18.4788 -18.4519  -8.6336  -8.2495
    -8.0358  -5.2249  -5.2229  -5.2111  -4.2634  -1.1099  -0.8966  -0.1412
     0.2434   0.2533   0.5518   0.5567   0.5953   1.6053   4.9377   7.4276
     7.7531   7.8619

     occupation numbers 
     1.0000   1.0000   1.0000   1.0000   1.0000   1.0000   1.0000   1.0000
     1.0000   1.0000   1.0000   1.0000   1.0000   1.0000   1.0000   1.0000
     1.0000   1.0000   1.0000   1.0000   1.0000   1.0000   0.0000   0.0000
     0.0000   0.0000

          k = 0.0000 0.1250-0.3750 (  9823 PWs)   bands (ev):

   -18.4910 -18.4903 -18.4790 -18.4790 -18.4788 -18.4517  -8.6806  -8.2026
    -8.0364  -5.2271  -5.2248  -5.2122  -4.1749  -1.1362  -0.9272  -0.1799
     0.2430   0.2883   0.5221   0.5597   0.6322   1.3036   5.4370   7.3878
     7.5251   7.8512

     occupation numbers 
     1.0000   1.0000   1.0000   1.0000   1.0000   1.0000   1.0000   1.0000
     1.0000   1.0000   1.0000   1.0000   1.0000   1.0000   1.0000   1.0000
     1.0000   1.0000   1.0000   1.0000   1.0000   1.0000   0.0000   0.0000
     0.0000   0.0000

          k = 0.0000 0.1250-0.2500 (  9819 PWs)   bands (ev):

   -18.4907 -18.4903 -18.4790 -18.4789 -18.4788 -18.4511  -8.7673  -8.1176
    -8.0371  -5.2318  -5.2295  -5.2180  -3.9280  -1.1944  -0.9969  -0.4414
     0.2741   0.3528   0.4799   0.5934   0.6804   0.8793   6.5162   6.9707
     7.5001   7.6852

     occupation numbers 
     1.0000   1.0000   1.0000   1.0000   1.0000   1.0000   1.0000   1.0000
     1.0000   1.0000   1.0000   1.0000   1.0000   1.0000   1.0000   1.0000
     1.0000   1.0000   1.0000   1.0000   1.0000   1.0000   0.0000   0.0000
     0.0000   0.0000

          k = 0.0000 0.1250-0.1250 (  9831 PWs)   bands (ev):

   -18.4906 -18.4903 -18.4789 -18.4789 -18.4787 -18.4504  -8.8360  -8.0564
    -8.0330  -5.2357  -5.2342  -5.2272  -3.6076  -1.2467  -1.1043  -0.8807
     0.3419   0.3873   0.4439   0.6514   0.7035   0.7235   6.6182   7.4448
     7.4642   7.6045

     occupation numbers 
     1.0000   1.0000   1.0000   1.0000   1.0000   1.0000   1.0000   1.0000
     1.0000   1.0000   1.0000   1.0000   1.0000   1.0000   1.0000   1.0000
     1.0000   1.0000   1.0000   1.0000   1.0000   1.0000   0.0000   0.0000
     0.0000   0.0000

          k =-0.0000 0.2500-0.0000 (  9807 PWs)   bands (ev):

   -18.4906 -18.4902 -18.4788 -18.4788 -18.4788 -18.4510  -8.7918  -8.1144
    -8.0194  -5.2314  -5.2314  -5.2202  -3.7770  -1.2151  -1.2151  -0.4626
     0.3525   0.3526   0.4185   0.6324   0.6324   0.8690   6.5584   6.8755
     7.6064   7.8796

     occupation numbers 
     1.0000   1.0000   1.0000   1.0000   1.0000   1.0000   1.0000   1.0000
     1.0000   1.0000   1.0000   1.0000   1.0000   1.0000   1.0000   1.0000
     1.0000   1.0000   1.0000   1.0000   1.0000   1.0000   0.0000   0.0000
     0.0000   0.0000

          k =-0.0000 0.2500 0.1250 (  9819 PWs)   bands (ev):

   -18.4907 -18.4903 -18.4790 -18.4789 -18.4788 -18.4511  -8.7673  -8.1176
    -8.0372  -5.2318  -5.2295  -5.2180  -3.9280  -1.1944  -0.9969  -0.4414
     0.2741   0.3528   0.4799   0.5934   0.6804   0.8793   6.5162   6.9708
     7.5003   7.6871

     occupation numbers 
     1.0000   1.0000   1.0000   1.0000   1.0000   1.0000   1.0000   1.0000
     1.0000   1.0000   1.0000   1.0000   1.0000   1.0000   1.0000   1.0000
     1.0000   1.0000   1.0000   1.0000   1.0000   1.0000   0.0000   0.0000
     0.0000   0.0000

          k =-0.0000 0.2500 0.2500 (  9769 PWs)   bands (ev):

   -18.4907 -18.4903 -18.4789 -18.4787 -18.4787 -18.4514  -8.7000  -8.1400
    -8.0738  -5.2310  -5.2248  -5.2156  -4.2234  -1.1411  -0.6131  -0.3608
     0.2014   0.3424   0.5074   0.5284   0.7831   1.0059   6.3486   6.5103
     7.2763   7.7780

     occupation numbers 
     1.0000   1.0000   1.0000   1.0000   1.0000   1.0000   1.0000   1.0000
     1.0000   1.0000   1.0000   1.0000   1.0000   1.0000   1.0000   1.0000
     1.0000   1.0000   1.0000   1.0000   1.0000   1.0000   0.0000   0.0000
     0.0000   0.0000

          k =-0.0000 0.2500 0.3750 (  9828 PWs)   bands (ev):

   -18.4912 -18.4906 -18.4793 -18.4790 -18.4789 -18.4516  -8.6120  -8.2050
    -8.0888  -5.2281  -5.2203  -5.2169  -4.4602  -1.0813  -0.4367  -0.2704
     0.2145   0.2961   0.4515   0.5701   0.7823   1.4477   5.3436   6.3616
     7.6819   7.7603

     occupation numbers 
     1.0000   1.0000   1.0000   1.0000   1.0000   1.0000   1.0000   1.0000
     1.0000   1.0000   1.0000   1.0000   1.0000   1.0000   1.0000   1.0000
     1.0000   1.0000   1.0000   1.0000   1.0000   1.0000   0.0000   0.0000
     0.0000   0.0000

          k = 0.0000 0.2500-0.5000 (  9844 PWs)   bands (ev):

   -18.4914 -18.4906 -18.4794 -18.4791 -18.4790 -18.4517  -8.5620  -8.2497
    -8.0911  -5.2257  -5.2195  -5.2184  -4.5466  -1.0542  -0.3752  -0.2814
     0.2415   0.2627   0.4404   0.5954   0.7655   1.7600   4.8349   6.3309
     7.7527   7.9737

     occupation numbers 
     1.0000   1.0000   1.0000   1.0000   1.0000   1.0000   1.0000   1.0000
     1.0000   1.0000   1.0000   1.0000   1.0000   1.0000   1.0000   1.0000
     1.0000   1.0000   1.0000   1.0000   1.0000   1.0000   0.0000   0.0000
     0.0000   0.0000

          k = 0.0000 0.2500-0.3750 (  9828 PWs)   bands (ev):

   -18.4912 -18.4906 -18.4793 -18.4790 -18.4789 -18.4516  -8.6120  -8.2050
    -8.0888  -5.2281  -5.2203  -5.2169  -4.4602  -1.0813  -0.4367  -0.2704
     0.2145   0.2961   0.4515   0.5701   0.7823   1.4477   5.3436   6.3616
     7.6820   7.7603

     occupation numbers 
     1.0000   1.0000   1.0000   1.0000   1.0000   1.0000   1.0000   1.0000
     1.0000   1.0000   1.0000   1.0000   1.0000   1.0000   1.0000   1.0000
     1.0000   1.0000   1.0000   1.0000   1.0000   1.0000   0.0000   0.0000
     0.0000   0.0000

          k = 0.0000 0.2500-0.2500 (  9769 PWs)   bands (ev):

   -18.4907 -18.4903 -18.4789 -18.4787 -18.4787 -18.4514  -8.7000  -8.1400
    -8.0738  -5.2310  -5.2248  -5.2156  -4.2234  -1.1411  -0.6131  -0.3608
     0.2014   0.3424   0.5074   0.5284   0.7831   1.0059   6.3486   6.5103
     7.2763   7.7780

     occupation numbers 
     1.0000   1.0000   1.0000   1.0000   1.0000   1.0000   1.0000   1.0000
     1.0000   1.0000   1.0000   1.0000   1.0000   1.0000   1.0000   1.0000
     1.0000   1.0000   1.0000   1.0000   1.0000   1.0000   0.0000   0.0000
     0.0000   0.0000

          k =-0.0000 0.2500-0.1250 (  9819 PWs)   bands (ev):

   -18.4907 -18.4903 -18.4790 -18.4789 -18.4788 -18.4511  -8.7673  -8.1176
    -8.0372  -5.2318  -5.2295  -5.2180  -3.9280  -1.1944  -0.9969  -0.4414
     0.2741   0.3528   0.4799   0.5934   0.6804   0.8793   6.5162   6.9707
     7.5002   7.6854

     occupation numbers 
     1.0000   1.0000   1.0000   1.0000   1.0000   1.0000   1.0000   1.0000
     1.0000   1.0000   1.0000   1.0000   1.0000   1.0000   1.0000   1.0000
     1.0000   1.0000   1.0000   1.0000   1.0000   1.0000   0.0000   0.0000
     0.0000   0.0000

          k =-0.0000 0.3750-0.0000 (  9830 PWs)   bands (ev):

   -18.4911 -18.4903 -18.4790 -18.4790 -18.4788 -18.4517  -8.7051  -8.2021
    -8.0180  -5.2267  -5.2267  -5.2104  -4.0333  -1.1573  -1.1573  -0.1306
     0.2842   0.2842   0.4313   0.6040   0.6040   1.2703   5.4739   7.3863
     7.9422   7.9423

     occupation numbers 
     1.0000   1.0000   1.0000   1.0000   1.0000   1.0000   1.0000   1.0000
     1.0000   1.0000   1.0000   1.0000   1.0000   1.0000   1.0000   1.0000
     1.0000   1.0000   1.0000   1.0000   1.0000   1.0000   0.0000   0.0000
     0.0000   0.0000

          k =-0.0000 0.3750 0.1250 (  9823 PWs)   bands (ev):

   -18.4910 -18.4903 -18.4790 -18.4790 -18.4788 -18.4517  -8.6806  -8.2026
    -8.0364  -5.2271  -5.2248  -5.2122  -4.1749  -1.1362  -0.9272  -0.1799
     0.2430   0.2883   0.5221   0.5597   0.6322   1.3036   5.4370   7.3878
     7.5252   7.8512

     occupation numbers 
     1.0000   1.0000   1.0000   1.0000   1.0000   1.0000   1.0000   1.0000
     1.0000   1.0000   1.0000   1.0000   1.0000   1.0000   1.0000   1.0000
[...]
     1.0000   1.0000   1.0000   1.0000   1.0000   1.0000   0.0000   0.0000
     0.0000   0.0000

          k =-0.5000 0.2500-0.3750 (  9820 PWs)   bands (ev):

   -18.4915 -18.4912 -18.4792 -18.4791 -18.4790 -18.4503  -8.3873  -8.2460
    -8.1890  -5.2521  -5.2447  -5.2296  -5.1975  -0.3088  -0.2487  -0.1175
    -0.0865   0.4380   0.7385   0.7904   0.9374   2.2176   4.5573   5.0755
     6.1294   7.6009

     occupation numbers 
     1.0000   1.0000   1.0000   1.0000   1.0000   1.0000   1.0000   1.0000
     1.0000   1.0000   1.0000   1.0000   1.0000   1.0000   1.0000   1.0000
     1.0000   1.0000   1.0000   1.0000   1.0000   1.0000   0.0000   0.0000
     0.0000   0.0000

          k =-0.5000 0.2500-0.2500 (  9834 PWs)   bands (ev):

   -18.4914 -18.4910 -18.4793 -18.4791 -18.4791 -18.4509  -8.4767  -8.2475
    -8.1329  -5.2413  -5.2354  -5.2205  -4.9595  -0.4060  -0.2749  -0.2580
    -0.0830   0.2940   0.6923   0.7607   0.8031   1.9073   4.6766   6.0874
     6.3038   7.6911

     occupation numbers 
     1.0000   1.0000   1.0000   1.0000   1.0000   1.0000   1.0000   1.0000
     1.0000   1.0000   1.0000   1.0000   1.0000   1.0000   1.0000   1.0000
     1.0000   1.0000   1.0000   1.0000   1.0000   1.0000   0.0000   0.0000
     0.0000   0.0000

          k =-0.5000 0.2500-0.1250 (  9822 PWs)   bands (ev):

   -18.4914 -18.4906 -18.4792 -18.4790 -18.4789 -18.4515  -8.5397  -8.2491
    -8.1011  -5.2326  -5.2241  -5.2167  -4.6792  -0.8389  -0.3526  -0.2747
     0.0474   0.3676   0.4893   0.6683   0.7690   1.7867   4.7898   6.2842
     7.2536   7.8464

     occupation numbers 
     1.0000   1.0000   1.0000   1.0000   1.0000   1.0000   1.0000   1.0000
     1.0000   1.0000   1.0000   1.0000   1.0000   1.0000   1.0000   1.0000
     1.0000   1.0000   1.0000   1.0000   1.0000   1.0000   0.0000   0.0000
     0.0000   0.0000

          k =-0.5000 0.3750-0.0000 (  9826 PWs)   bands (ev):

   -18.4916 -18.4908 -18.4794 -18.4790 -18.4790 -18.4515  -8.4585  -8.2500
    -8.1782  -5.2269  -5.2261  -5.2140  -4.7837  -0.9911  -0.3773   0.0830
     0.2405   0.2707   0.3240   0.6090   0.9371   2.0868   4.7247   5.2249
     7.6900   8.2380

     occupation numbers 
     1.0000   1.0000   1.0000   1.0000   1.0000   1.0000   1.0000   1.0000
     1.0000   1.0000   1.0000   1.0000   1.0000   1.0000   1.0000   1.0000
     1.0000   1.0000   1.0000   1.0000   1.0000   1.0000   0.0000   0.0000
     0.0000   0.0000

          k =-0.5000 0.3750 0.1250 (  9810 PWs)   bands (ev):

   -18.4915 -18.4908 -18.4793 -18.4789 -18.4789 -18.4511  -8.4394  -8.2488
    -8.1804  -5.2328  -5.2311  -5.2181  -4.9175  -0.7648  -0.3567   0.0075
     0.0428   0.3805   0.4991   0.6591   0.9371   2.1118   4.6770   5.1820
     7.1773   7.9678

     occupation numbers 
     1.0000   1.0000   1.0000   1.0000   1.0000   1.0000   1.0000   1.0000
     1.0000   1.0000   1.0000   1.0000   1.0000   1.0000   1.0000   1.0000
     1.0000   1.0000   1.0000   1.0000   1.0000   1.0000   0.0000   0.0000
     0.0000   0.0000

          k =-0.5000 0.3750 0.2500 (  9820 PWs)   bands (ev):

   -18.4916 -18.4912 -18.4792 -18.4791 -18.4790 -18.4503  -8.3873  -8.2460
    -8.1890  -5.2521  -5.2447  -5.2296  -5.1975  -0.3088  -0.2487  -0.1175
    -0.0865   0.4380   0.7385   0.7904   0.9374   2.2176   4.5573   5.0755
     6.1294   7.6010

     occupation numbers 
     1.0000   1.0000   1.0000   1.0000   1.0000   1.0000   1.0000   1.0000
     1.0000   1.0000   1.0000   1.0000   1.0000   1.0000   1.0000   1.0000
     1.0000   1.0000   1.0000   1.0000   1.0000   1.0000   0.0000   0.0000
     0.0000   0.0000

          k =-0.5000 0.3750 0.3750 (  9830 PWs)   bands (ev):

   -18.4916 -18.4914 -18.4793 -18.4791 -18.4791 -18.4495  -8.3182  -8.2432
    -8.2099  -5.4701  -5.2535  -5.2489  -5.2436  -0.2708  -0.2074  -0.1930
     0.2807   0.5041   0.9050   0.9111   0.9492   2.4945   4.4312   4.8856
     5.1044   7.3483

     occupation numbers 
     1.0000   1.0000   1.0000   1.0000   1.0000   1.0000   1.0000   1.0000
     1.0000   1.0000   1.0000   1.0000   1.0000   1.0000   1.0000   1.0000
     1.0000   1.0000   1.0000   1.0000   1.0000   1.0000   0.0000   0.0000
     0.0000   0.0000

          k =-0.5000 0.3750-0.5000 (  9836 PWs)   bands (ev):

   -18.4917 -18.4915 -18.4793 -18.4792 -18.4792 -18.4492  -8.2644  -8.2421
    -8.2421  -5.5704  -5.2542  -5.2542  -5.2523  -0.2743  -0.2178  -0.2178
     0.3932   0.6329   0.9292   0.9292   1.0017   2.7792   4.3770   4.3770
     4.9661   7.2590

     occupation numbers 
     1.0000   1.0000   1.0000   1.0000   1.0000   1.0000   1.0000   1.0000
     1.0000   1.0000   1.0000   1.0000   1.0000   1.0000   1.0000   1.0000
     1.0000   1.0000   1.0000   1.0000   1.0000   1.0000   0.0000   0.0000
     0.0000   0.0000

          k =-0.5000 0.3750-0.3750 (  9830 PWs)   bands (ev):

   -18.4916 -18.4914 -18.4793 -18.4791 -18.4791 -18.4495  -8.3182  -8.2432
    -8.2099  -5.4701  -5.2535  -5.2489  -5.2436  -0.2708  -0.2074  -0.1930
     0.2807   0.5041   0.9050   0.9111   0.9492   2.4945   4.4312   4.8856
     5.1044   7.3482

     occupation numbers 
     1.0000   1.0000   1.0000   1.0000   1.0000   1.0000   1.0000   1.0000
     1.0000   1.0000   1.0000   1.0000   1.0000   1.0000   1.0000   1.0000
     1.0000   1.0000   1.0000   1.0000   1.0000   1.0000   0.0000   0.0000
     0.0000   0.0000

          k =-0.5000 0.3750-0.2500 (  9820 PWs)   bands (ev):

   -18.4916 -18.4912 -18.4792 -18.4791 -18.4790 -18.4503  -8.3873  -8.2460
    -8.1890  -5.2521  -5.2447  -5.2296  -5.1975  -0.3088  -0.2487  -0.1175
    -0.0865   0.4380   0.7385   0.7904   0.9374   2.2176   4.5573   5.0755
     6.1294   7.6009

     occupation numbers 
     1.0000   1.0000   1.0000   1.0000   1.0000   1.0000   1.0000   1.0000
     1.0000   1.0000   1.0000   1.0000   1.0000   1.0000   1.0000   1.0000
     1.0000   1.0000   1.0000   1.0000   1.0000   1.0000   0.0000   0.0000
     0.0000   0.0000

          k =-0.5000 0.3750-0.1250 (  9810 PWs)   bands (ev):

   -18.4915 -18.4908 -18.4793 -18.4789 -18.4789 -18.4511  -8.4394  -8.2488
    -8.1804  -5.2328  -5.2311  -5.2181  -4.9175  -0.7648  -0.3567   0.0075
     0.0428   0.3805   0.4991   0.6591   0.9371   2.1118   4.6770   5.1820
     7.1773   7.9675

     occupation numbers 
     1.0000   1.0000   1.0000   1.0000   1.0000   1.0000   1.0000   1.0000
     1.0000   1.0000   1.0000   1.0000   1.0000   1.0000   1.0000   1.0000
     1.0000   1.0000   1.0000   1.0000   1.0000   1.0000   0.0000   0.0000
     0.0000   0.0000

          k =-0.5000-0.5000 0.0000 (  9844 PWs)   bands (ev):

   -18.4917 -18.4909 -18.4793 -18.4791 -18.4791 -18.4514  -8.3797  -8.2501
    -8.2501  -5.2276  -5.2276  -5.2122  -4.8735  -0.9620  -0.4093   0.2398
     0.2398   0.2735   0.2735   0.6258   1.0036   2.3535   4.6772   4.6772
     7.6707   8.2807

     occupation numbers 
     1.0000   1.0000   1.0000   1.0000   1.0000   1.0000   1.0000   1.0000
     1.0000   1.0000   1.0000   1.0000   1.0000   1.0000   1.0000   1.0000
     1.0000   1.0000   1.0000   1.0000   1.0000   1.0000   0.0000   0.0000
     0.0000   0.0000

          k =-0.5000-0.5000 0.1250 (  9828 PWs)   bands (ev):

   -18.4917 -18.4908 -18.4794 -18.4791 -18.4791 -18.4510  -8.3622  -8.2488
    -8.2488  -5.2321  -5.2321  -5.2195  -5.0091  -0.7303  -0.3855   0.0441
     0.0441   0.5005   0.5005   0.6270   1.0033   2.3848   4.6283   4.6283
     7.1523   8.0111

     occupation numbers 
     1.0000   1.0000   1.0000   1.0000   1.0000   1.0000   1.0000   1.0000
     1.0000   1.0000   1.0000   1.0000   1.0000   1.0000   1.0000   1.0000
     1.0000   1.0000   1.0000   1.0000   1.0000   1.0000   0.0000   0.0000
     0.0000   0.0000

          k =-0.5000-0.5000 0.2500 (  9780 PWs)   bands (ev):

   -18.4914 -18.4910 -18.4791 -18.4789 -18.4789 -18.4501  -8.3164  -8.2454
    -8.2454  -5.3043  -5.2431  -5.2431  -5.2363  -0.3294  -0.1758  -0.1174
    -0.1174   0.6300   0.7420   0.7420   1.0025   2.5018   4.5060   4.5060
     6.0940   7.5703

     occupation numbers 
     1.0000   1.0000   1.0000   1.0000   1.0000   1.0000   1.0000   1.0000
     1.0000   1.0000   1.0000   1.0000   1.0000   1.0000   1.0000   1.0000
     1.0000   1.0000   1.0000   1.0000   1.0000   1.0000   0.0000   0.0000
     0.0000   0.0000

          k =-0.5000-0.5000 0.3750 (  9836 PWs)   bands (ev):

   -18.4917 -18.4915 -18.4793 -18.4792 -18.4792 -18.4492  -8.2644  -8.2421
    -8.2421  -5.5704  -5.2542  -5.2542  -5.2523  -0.2743  -0.2178  -0.2178
     0.3932   0.6329   0.9292   0.9292   1.0017   2.7792   4.3770   4.3770
     4.9661   7.2589

     occupation numbers 
     1.0000   1.0000   1.0000   1.0000   1.0000   1.0000   1.0000   1.0000
     1.0000   1.0000   1.0000   1.0000   1.0000   1.0000   1.0000   1.0000
     1.0000   1.0000   1.0000   1.0000   1.0000   1.0000   0.0000   0.0000
     0.0000   0.0000

          k =-0.5000-0.5000-0.5000 (  9808 PWs)   bands (ev):

   -18.4915 -18.4915 -18.4791 -18.4791 -18.4791 -18.4489  -8.2407  -8.2407
    -8.2407  -5.6751  -5.2587  -5.2587  -5.2587  -0.2517  -0.2517  -0.2517
     0.6341   0.6341   1.0014   1.0014   1.0014   3.0827   4.3214   4.3214
     4.3214   7.1493

     occupation numbers 
     1.0000   1.0000   1.0000   1.0000   1.0000   1.0000   1.0000   1.0000
     1.0000   1.0000   1.0000   1.0000   1.0000   1.0000   1.0000   1.0000
     1.0000   1.0000   1.0000   1.0000   1.0000   1.0000   0.0000   0.0000
     0.0000   0.0000

     the Fermi energy is     3.3462 ev

!    total energy              =    -419.30504818 Ry
     estimated scf accuracy    <       0.00000035 Ry
     smearing contrib. (-TS)   =       0.00000000 Ry
     internal energy E=F+TS    =    -419.30504818 Ry

     The total energy is F=E-TS. E is the sum of the following terms:
     one-electron contribution =    -124.89577739 Ry
     hartree contribution      =      80.88472745 Ry
     xc contribution           =    -218.63496888 Ry
     ewald contribution        =    -156.94143419 Ry
     Hubbard energy            =       0.28240483 Ry

     convergence has been achieved in   7 iterations

     Forces acting on atoms (cartesian axes, Ry/au):

     atom    1 type  1   force =    -0.00000127   -0.00000054    0.00000041
     atom    2 type  2   force =     0.00000570    0.00000033   -0.00000108
     atom    3 type  3   force =    -0.00000221   -0.00000052    0.00000009
     atom    4 type  3   force =    -0.00000103    0.00000095    0.00000007
     atom    5 type  3   force =    -0.00000119   -0.00000022    0.00000051
     The non-local contrib.  to forces
     atom    1 type  1   force =     0.00000046    0.00000081    0.00000033
     atom    2 type  2   force =    -0.00002855    0.00002250    0.00000749
     atom    3 type  3   force =     0.00000560    0.00000218    0.00000100
     atom    4 type  3   force =    -0.00000194   -0.00000516    0.00000082
     atom    5 type  3   force =    -0.00000251    0.00000137   -0.00000241
     The ionic contribution  to forces
     atom    1 type  1   force =    -0.00003325    0.00002019    0.00000800
     atom    2 type  2   force =     0.00011903   -0.00007419   -0.00002906
     atom    3 type  3   force =    -0.00027444   -0.00005659   -0.00002388
     atom    4 type  3   force =     0.00009447    0.00016733   -0.00002399
     atom    5 type  3   force =     0.00009420   -0.00005673    0.00006894
     The local contribution  to forces
     atom    1 type  1   force =     0.00003348   -0.00002097   -0.00000773
     atom    2 type  2   force =    -0.00009215    0.00004965    0.00002235
     atom    3 type  3   force =     0.00026629    0.00005286    0.00002281
     atom    4 type  3   force =    -0.00009336   -0.00015731    0.00002354
     atom    5 type  3   force =    -0.00009308    0.00005432   -0.00006520
     The core correction contribution to forces
     atom    1 type  1   force =    -0.00000010   -0.00000006   -0.00000018
     atom    2 type  2   force =     0.00000003   -0.00000005   -0.00000007
     atom    3 type  3   force =    -0.00000072   -0.00000041   -0.00000021
     atom    4 type  3   force =     0.00000025    0.00000083   -0.00000014
     atom    5 type  3   force =     0.00000035   -0.00000018    0.00000038
     The Hubbard contrib.    to forces
     atom    1 type  1   force =    -0.00000026    0.00000015    0.00000007
     atom    2 type  2   force =     0.00000214   -0.00000131   -0.00000054
     atom    3 type  3   force =     0.00000396    0.00000046    0.00000022
     atom    4 type  3   force =    -0.00000096   -0.00000228    0.00000025
     atom    5 type  3   force =    -0.00000099    0.00000052   -0.00000096
     The SCF correction term to forces
     atom    1 type  1   force =    -0.00000083   -0.00000033   -0.00000006
     atom    2 type  2   force =     0.00000598    0.00000407   -0.00000123
     atom    3 type  3   force =    -0.00000212    0.00000131    0.00000016
     atom    4 type  3   force =     0.00000131   -0.00000213   -0.00000039
     atom    5 type  3   force =     0.00000162    0.00000082   -0.00000022

     Total force =     0.000007     Total SCF correction =     0.000008
     SCF correction compared to forces is large: reduce conv_thr to get better values


     Computing stress (Cartesian axis) and pressure

          total   stress  (Ry/bohr**3)                   (kbar)     P=        4.75
   0.00003230  -0.00000000   0.00000000            4.75       -0.00        0.00
  -0.00000000   0.00003230  -0.00000000           -0.00        4.75       -0.00
   0.00000000  -0.00000000   0.00003230            0.00       -0.00        4.75

     kinetic stress (kbar)   2767.28     -0.00      0.00
                               -0.00   2767.28      0.00
                                0.00      0.00   2767.28

     local   stress (kbar)  -3312.70     -0.00      0.00
                               -0.00  -3312.70      0.00
                                0.00      0.00  -3312.70

     nonloc. stress (kbar)   4564.36     -0.00     -0.00
                               -0.00   4564.36     -0.00
                               -0.00     -0.00   4564.36

     hartree stress (kbar)   2409.82      0.00     -0.00
                                0.00   2409.82     -0.00
                               -0.00     -0.00   2409.82

     exc-cor stress (kbar)  14192.48      0.00     -0.00
                                0.00  14192.48      0.00
                               -0.00      0.00  14192.48

     corecor stress (kbar) -15925.89      0.00      0.00
                                0.00 -15925.89      0.00
                                0.00      0.00 -15925.89

     ewald   stress (kbar)  -4675.80      0.00      0.00
                                0.00  -4675.79      0.00
                                0.00      0.00  -4675.80

     hubbard stress (kbar)    -14.80      0.00      0.00
                                0.00    -14.80     -0.00
                                0.00     -0.00    -14.80

     DFT-D   stress (kbar)      0.00      0.00      0.00
                                0.00      0.00      0.00
                                0.00      0.00      0.00

     XDM     stress (kbar)      0.00      0.00      0.00
                                0.00      0.00      0.00
                                0.00      0.00      0.00

     dft-nl  stress (kbar)      0.00      0.00      0.00
                                0.00      0.00      0.00
                                0.00      0.00      0.00

     TS-vdW  stress (kbar)      0.00      0.00      0.00
                                0.00      0.00      0.00
                                0.00      0.00      0.00


                                0.00      0.00      0.00
                                0.00      0.00      0.00


                                0.00      0.00      0.00


     Writing output data file ./temp/struc.save/
 
     init_run     :      1.38s CPU      2.39s WALL (       1 calls)
     electrons    :     25.88s CPU     27.54s WALL (       1 calls)
     forces       :      4.49s CPU      4.66s WALL (       1 calls)
     stress       :      6.96s CPU      7.31s WALL (       1 calls)

     Called by init_run:
     wfcinit      :      1.10s CPU      1.81s WALL (       1 calls)
     wfcinit:atom :      0.01s CPU      0.01s WALL (      65 calls)
     wfcinit:wfcr :      0.89s CPU      1.48s WALL (      65 calls)
     potinit      :      0.06s CPU      0.12s WALL (       1 calls)
     hinit0       :      0.18s CPU      0.31s WALL (       1 calls)

     Called by electrons:
     c_bands      :     23.54s CPU     24.89s WALL (       8 calls)
     sum_band     :      2.17s CPU      2.26s WALL (       8 calls)
     v_of_rho     :      0.05s CPU      0.08s WALL (       8 calls)
     v_h          :      0.00s CPU      0.00s WALL (       8 calls)
     v_xc         :      0.06s CPU      0.07s WALL (      10 calls)
     newd         :      0.10s CPU      0.12s WALL (       8 calls)
     mix_rho      :      0.01s CPU      0.09s WALL (       8 calls)

     Called by c_bands:
     init_us_2    :      0.34s CPU      0.36s WALL (    1430 calls)
     cegterg      :     20.45s CPU     21.49s WALL (     520 calls)

     Called by sum_band:
     sum_band:wei :      0.00s CPU      0.01s WALL (       8 calls)
     sum_band:loo :      1.90s CPU      1.97s WALL (       8 calls)
     sum_band:buf :      0.03s CPU      0.03s WALL (     520 calls)
     sum_band:ini :      0.12s CPU      0.12s WALL (     520 calls)
     sum_band:cal :      0.20s CPU      0.21s WALL (     520 calls)
     sum_band:bec :      0.01s CPU      0.03s WALL (     520 calls)
     addusdens    :      0.11s CPU      0.12s WALL (       8 calls)
     addusd:skk   :      0.00s CPU      0.00s WALL (      24 calls)
     addusd:dgemm :      0.03s CPU      0.04s WALL (      24 calls)
     addusd:qvan2 :      0.07s CPU      0.07s WALL (      24 calls)

     Called by *egterg:
     cdiaghg      :      4.77s CPU      5.53s WALL (    2900 calls)
     cegterg:over :      1.44s CPU      1.98s WALL (    2445 calls)
     cegterg:upda :      0.96s CPU      0.97s WALL (    2445 calls)
     cegterg:last :      1.50s CPU      1.53s WALL (    1240 calls)
     cdiaghg:chol :      0.33s CPU      0.62s WALL (    2900 calls)
     cdiaghg:inve :      0.10s CPU      0.15s WALL (    2900 calls)
     cdiaghg:para :      0.42s CPU      0.48s WALL (    5800 calls)
     h_psi        :     11.53s CPU     11.73s WALL (    3030 calls)
     s_psi        :      0.73s CPU      0.74s WALL (    3355 calls)
     g_psi        :      0.03s CPU      0.03s WALL (    2445 calls)

     Called by h_psi:
     h_psi:calbec :      0.77s CPU      0.78s WALL (    3030 calls)
     vloc_psi     :      8.98s CPU      9.12s WALL (    3030 calls)
     add_vuspsi   :      0.59s CPU      0.60s WALL (    3030 calls)
     vhpsi        :      1.11s CPU      1.12s WALL (    3030 calls)

     General routines
     calbec       :      5.75s CPU      5.99s WALL (   39665 calls)
     fft          :      0.04s CPU      0.09s WALL (     128 calls)
     ffts         :      0.00s CPU      0.01s WALL (      16 calls)
     fftw         :      9.89s CPU     10.05s WALL (   93582 calls)
     interpolate  :      0.00s CPU      0.01s WALL (       8 calls)
     davcio       :      0.00s CPU      0.01s WALL (      87 calls)
 
     Parallel routines

     Hubbard U routines
     new_nsg      :      0.10s CPU      0.11s WALL (       8 calls)
     alloc_neigh  :      0.00s CPU      0.02s WALL (       1 calls)
     vhpsi        :      1.11s CPU      1.12s WALL (    3030 calls)
     force_hub    :      4.13s CPU      4.24s WALL (       1 calls)
     stres_hub    :      6.21s CPU      6.46s WALL (       1 calls)
 
     PWSCF        :     39.30s CPU     44.03s WALL

 
   This run was terminated on:  18:56:40   7Jul2022            

=------------------------------------------------------------------------------=
   JOB DONE.
=------------------------------------------------------------------------------=
