
     Program PWSCF v.6.4.1 starts on 15Jul2022 at  2:10:51 

     This program is part of the open-source Quantum ESPRESSO suite
     for quantum simulation of materials; please cite
         "P. Giannozzi et al., J. Phys.:Condens. Matter 21 395502 (2009);
         "P. Giannozzi et al., J. Phys.:Condens. Matter 29 465901 (2017);
          URL http://www.quantum-espresso.org", 
     in publications or presentations arising from this work. More details at
     http://www.quantum-espresso.org/quote

     Parallel version (MPI), running on   128 processors

     MPI processes distributed on     2 nodes
     R & G space division:  proc/nbgrp/npool/nimage =     128
     Waiting for input...
     Reading input from standard input
Warning: card &IONS ignored
Warning: card   UPSCALE           = 100.D0, ignored
Warning: card / ignored
Warning: card &CELL ignored
Warning: card   CELL_DYNAMICS     = 'BFGS' ignored
Warning: card   PRESS_CONV_THR    = 0.5D0 ignored
Warning: card   CELL_DOFREE = 'ALL' ignored
Warning: card / ignored

     Current dimensions of program PWSCF are:
     Max number of different atomic species (ntypx) = 10
     Max number of k-points (npk) =  40000
     Max angular momentum in pseudopotentials (lmaxx) =  3

     Atomic positions and unit cell read from directory:
     ./temp/ZnO.save/
 

     Subspace diagonalization in iterative solution of the eigenvalue problem:
     one sub-group per band group will be used
     scalapack distributed-memory algorithm (size of sub-group:  8*  8 procs)

 
     Parallelization info
     --------------------
     sticks:   dense  smooth     PW     G-vecs:    dense   smooth      PW
     Min          91      43     12                 8570     2848     422
     Max          92      44     13                 8577     2855     428
     Sum       11661    5599   1565              1097457   365075   54353
 


     bravais-lattice index     =            0
     lattice parameter (alat)  =      18.3818  a.u.
     unit-cell volume          =    5812.4112 (a.u.)^3
     number of atoms/cell      =           72
     number of atomic types    =            3
     number of electrons       =       856.00
     number of Kohn-Sham states=          428
     kinetic-energy cutoff     =      60.0000  Ry
     charge density cutoff     =     500.0000  Ry
     Exchange-correlation      = SLA  PW   PSX  PSC ( 1  4 10  8 0 0)
     Using LIBXC version       =    4   3   4

     celldm(1)=  18.381787  celldm(2)=   0.000000  celldm(3)=   0.000000
     celldm(4)=   0.000000  celldm(5)=   0.000000  celldm(6)=   0.000000

     crystal axes: (cart. coord. in units of alat)
               a(1) = (   1.000000   0.000460  -0.000016 )  
               a(2) = (  -0.499600   0.866214   0.000205 )  
               a(3) = (  -0.000017   0.000244   1.080072 )  

     reciprocal axes: (cart. coord. in units 2 pi/alat)
               b(1) = (  0.999735  0.576610 -0.000114 )  
               b(2) = ( -0.000531  1.154143 -0.000260 )  
               b(3) = (  0.000015 -0.000211  0.925864 )  


     PseudoPot. # 1 for Zn read from file:
     ./GBRV_PBEsol/zn_pbesol_v1.uspp.F.UPF
     MD5 check sum: 7d8615e52efe7c1e2b1899de8658bae2
     Pseudo is Ultrasoft, Zval = 20.0
     Generated by new atomic code, or converted to UPF format
     Using radial grid of  943 points,  6 beta functions with: 
                l(1) =   0
                l(2) =   0
                l(3) =   1
                l(4) =   1
                l(5) =   2
                l(6) =   2
     Q(r) pseudized with  8 coefficients,  rinner =    1.100   1.100   1.100
                                                       1.100   1.100

     PseudoPot. # 2 for O  read from file:
     ./GBRV_PBEsol/o_pbesol_v1.2.uspp.F.UPF
     MD5 check sum: 501638753501ef6325af9037351f7734
     Pseudo is Ultrasoft + core correction, Zval =  6.0
     Generated by new atomic code, or converted to UPF format
     Using radial grid of  737 points,  5 beta functions with: 
                l(1) =   0
                l(2) =   0
                l(3) =   1
                l(4) =   1
                l(5) =   2
     Q(r) pseudized with  8 coefficients,  rinner =    0.900   0.900   0.900
                                                       0.900   0.900

     PseudoPot. # 3 for Mg read from file:
     ./GBRV_PBEsol/mg_pbesol_v1.4.uspp.F.UPF
     MD5 check sum: 4059f37963cf5867752dbf5ab2400678
     Pseudo is Ultrasoft, Zval = 10.0
     Generated by new atomic code, or converted to UPF format
     Using radial grid of  821 points,  7 beta functions with: 
                l(1) =   0
                l(2) =   0
                l(3) =   0
                l(4) =   1
                l(5) =   1
                l(6) =   2
                l(7) =   2
     Q(r) pseudized with  8 coefficients,  rinner =    1.200   1.200   1.200
                                                       1.200   1.200

     atomic species   valence    mass     pseudopotential
        Zn            20.00    65.38000     Zn( 1.00)
        O              6.00    15.99900     O ( 1.00)
        Mg            10.00    24.30500     Mg( 1.00)

     No symmetry found


                                    s                        frac. trans.

      isym =  1     identity                                     

 cryst.   s( 1) = (     1          0          0      )
                  (     0          1          0      )
                  (     0          0          1      )

 cart.    s( 1) = (  1.0000000 -0.0000000  0.0000000 )
                  (  0.0000000  1.0000000 -0.0000000 )
                  (  0.0000000  0.0000000  1.0000000 )


   Cartesian axes

     site n.     atom                  positions (alat units)
         1           Zn  tau(   1) = (   0.1658252   0.0971586   0.2087018  )
         2           Zn  tau(   2) = (   0.1687185   0.0951943   0.7489620  )
         3           Zn  tau(   3) = (   0.0007337   0.3851185   0.2077775  )
         4           Zn  tau(   4) = (   0.0004578   0.3862047   0.7475270  )
         5           Zn  tau(   5) = (  -0.1658788   0.6745310   0.2099190  )
         6           Zn  tau(   6) = (  -0.1657292   0.6741012   0.7498196  )
         7           Zn  tau(   7) = (   0.4988906   0.0964786   0.2091425  )
         8           Zn  tau(   8) = (   0.5004812   0.0958668   0.7488284  )
         9           Zn  tau(   9) = (   0.3326505   0.3863490   0.2066734  )
        10           Mg  tau(  10) = (   0.3350123   0.3834308   0.7490450  )
        11           Mg  tau(  11) = (   0.1669356   0.6757656   0.2086354  )
        12           Zn  tau(  12) = (   0.1671294   0.6738412   0.7473294  )
        13           Zn  tau(  13) = (   0.8349335   0.0969222   0.2081293  )
        14           Zn  tau(  14) = (   0.8313830   0.0962630   0.7483767  )
        15           Mg  tau(  15) = (   0.6667528   0.3871338   0.2102759  )
        16           Zn  tau(  16) = (   0.6666501   0.3851252   0.7471631  )
        17           Zn  tau(  17) = (   0.4998148   0.6750826   0.2083220  )
        18           Mg  tau(  18) = (   0.5015990   0.6744864   0.7502187  )
        19           Mg  tau(  19) = (  -0.0009563   0.1920235   0.4803861  )
        20           Zn  tau(  20) = (  -0.0005500   0.1922585   1.0177362  )
        21           Zn  tau(  21) = (  -0.1649645   0.4814801   0.4792258  )
        22           Zn  tau(  22) = (  -0.1681393   0.4805920   1.0193062  )
        23           Zn  tau(  23) = (  -0.3329507   0.7698632   0.4788982  )
        24           Zn  tau(  24) = (  -0.3320688   0.7705348   1.0193229  )
        25           Zn  tau(  25) = (   0.3334092   0.1934659   0.4787401  )
        26           Zn  tau(  26) = (   0.3336951   0.1915167   1.0195232  )
        27           Mg  tau(  27) = (   0.1669682   0.4811869   0.4778368  )
        28           Mg  tau(  28) = (   0.1656100   0.4824383   1.0172518  )
        29           Zn  tau(  29) = (  -0.0002091   0.7711667   0.4791323  )
        30           Zn  tau(  30) = (   0.0006908   0.7704102   1.0194900  )
        31           Zn  tau(  31) = (   0.6662889   0.1915300   0.4772524  )
        32           Mg  tau(  32) = (   0.6665275   0.1933758   1.0189693  )
        33           Zn  tau(  33) = (   0.4984718   0.4821932   0.4778220  )
        34           Zn  tau(  34) = (   0.5021252   0.4806903   1.0177872  )
        35           Zn  tau(  35) = (   0.3341369   0.7709014   0.4786798  )
        36           Zn  tau(  36) = (   0.3323638   0.7708582   1.0184496  )
        37           O   tau(  37) = (   0.1662343   0.0964497   0.0046382  )
        38           O   tau(  38) = (   0.1666026   0.0964117   0.5442406  )
        39           O   tau(  39) = (   0.0000690   0.3847816   0.0033072  )
        40           O   tau(  40) = (   0.0012324   0.3845707   0.5434550  )
        41           O   tau(  41) = (  -0.1659557   0.6732460   0.0050510  )
        42           O   tau(  42) = (  -0.1662762   0.6738584   0.5452923  )
        43           O   tau(  43) = (   0.5005747   0.0962589   0.0045838  )
        44           O   tau(  44) = (   0.4996852   0.0969791   0.5446013  )
        45           O   tau(  45) = (   0.3329084   0.3855189   0.0017864  )
        46           O   tau(  46) = (   0.3327975   0.3855772   0.5452986  )
        47           O   tau(  47) = (   0.1668646   0.6733388   0.0052049  )
        48           O   tau(  48) = (   0.1669961   0.6737101   0.5425049  )
        49           O   tau(  49) = (   0.8330453   0.0967282   0.0037167  )
        50           O   tau(  50) = (   0.8327214   0.0966124   0.5443037  )
        51           O   tau(  51) = (   0.6667693   0.3843204   0.0064596  )
        52           O   tau(  52) = (   0.6666334   0.3853460   0.5421931  )
        53           O   tau(  53) = (   0.5002406   0.6738948   0.0032090  )
        54           O   tau(  54) = (   0.5003982   0.6743270   0.5459799  )
        55           O   tau(  55) = (   0.0000052   0.1933464   0.2762001  )
        56           O   tau(  56) = (   0.0001118   0.1922086   0.8126268  )
        57           O   tau(  57) = (  -0.1660392   0.4817666   0.2746253  )
        58           O   tau(  58) = (  -0.1666930   0.4809372   0.8144779  )
        59           O   tau(  59) = (  -0.3332578   0.7704695   0.2744470  )
        60           O   tau(  60) = (  -0.3323390   0.7698153   0.8152650  )
        61           O   tau(  61) = (   0.3327630   0.1939456   0.2741176  )
        62           O   tau(  62) = (   0.3340788   0.1919990   0.8149908  )
        63           O   tau(  63) = (   0.1667096   0.4831681   0.2735274  )
        64           O   tau(  64) = (   0.1683020   0.4809029   0.8132358  )
        65           O   tau(  65) = (   0.0003754   0.7708110   0.2749407  )
        66           O   tau(  66) = (   0.0011827   0.7697667   0.8148407  )
        67           O   tau(  67) = (   0.6667491   0.1935099   0.2726096  )
        68           O   tau(  68) = (   0.6662746   0.1933694   0.8152369  )
        69           O   tau(  69) = (   0.4993728   0.4824111   0.2736859  )
        70           O   tau(  70) = (   0.5003512   0.4817401   0.8133344  )
        71           O   tau(  71) = (   0.3336422   0.7710275   0.2742517  )
        72           O   tau(  72) = (   0.3338757   0.7699041   0.8140019  )

   Crystallographic axes

     site n.     atom                  positions (cryst. coord.)
         1           Zn  tau(   1) = (  0.2217800  0.1119926  0.1932114  )
         2           Zn  tau(   2) = (  0.2234781  0.1095833  0.6934194  )
         3           Zn  tau(   3) = (  0.2227729  0.4444273  0.1922926  )
         4           Zn  tau(   4) = (  0.2230617  0.4455406  0.6920271  )
         5           Zn  tau(   5) = (  0.2230824  0.7785387  0.1942120  )
         6           Zn  tau(   6) = (  0.2229224  0.7779019  0.6940867  )
         7           Zn  tau(   7) = (  0.5543649  0.1110308  0.1936245  )
         8           Zn  tau(   8) = (  0.5555406  0.1101833  0.6933004  )
         9           Zn  tau(   9) = (  0.5553114  0.4456716  0.1912749  )
        10           Mg  tau(  10) = (  0.5559279  0.4421611  0.6934380  )
        11           Mg  tau(  11) = (  0.5565207  0.7797873  0.1930282  )
        12           Zn  tau(  12) = (  0.5555432  0.7774258  0.6917860  )
        13           Zn  tau(  13) = (  0.8905746  0.1113646  0.1926911  )
        14           Zn  tau(  14) = (  0.8865833  0.1104651  0.6928869  )
        15           Mg  tau(  15) = (  0.8897772  0.4463991  0.1946151  )
        16           Zn  tau(  16) = (  0.8884550  0.4439411  0.6917001  )
        17           Zn  tau(  17) = (  0.8889178  0.7788223  0.1927430  )
        18           Mg  tau(  18) = (  0.8902958  0.7779922  0.6944658  )
        19           Mg  tau(  19) = (  0.1097117  0.2214980  0.4447317  )
        20           Zn  tau(  20) = (  0.1101920  0.2216290  0.9422449  )
        21           Zn  tau(  21) = (  0.1126507  0.5556597  0.4435942  )
        22           Zn  tau(  22) = (  0.1089029  0.5544957  0.9436353  )
        23           Zn  tau(  23) = (  0.1109936  0.8885843  0.4432278  )
        24           Zn  tau(  24) = (  0.1122008  0.8892183  0.9435874  )
        25           Zn  tau(  25) = (  0.4448204  0.2229857  0.4432124  )
        26           Zn  tau(  26) = (  0.4439205  0.2205950  0.9439044  )
        27           Mg  tau(  27) = (  0.4443265  0.5551455  0.4423130  )
        28           Mg  tau(  28) = (  0.4436286  0.5564500  0.9417377  )
        29           Zn  tau(  29) = (  0.4443986  0.8899121  0.4434490  )
        30           Zn  tau(  30) = (  0.4448003  0.8888977  0.9437470  )
        31           Zn  tau(  31) = (  0.7764958  0.2205750  0.4418402  )
        32           Mg  tau(  32) = (  0.7777368  0.2225642  0.9433960  )
        33           Zn  tau(  33) = (  0.7763224  0.5561309  0.4423039  )
        34           Zn  tau(  34) = (  0.7790465  0.5542538  0.9422387  )
        35           Zn  tau(  35) = (  0.7785030  0.8894284  0.4430350  )
        36           Zn  tau(  36) = (  0.7766437  0.8892390  0.9427885  )
        37           O   tau(  37) = (  0.2218035  0.1112273  0.0042765  )
        38           O   tau(  38) = (  0.2220882  0.1110428  0.5038749  )
        39           O   tau(  39) = (  0.2219375  0.4440921  0.0029811  )
        40           O   tau(  40) = (  0.2229172  0.4437074  0.5030845  )
        41           O   tau(  41) = (  0.2222880  0.7771090  0.0045325  )
        42           O   tau(  42) = (  0.2222590  0.7776753  0.5047223  )
        43           O   tau(  43) = (  0.5559453  0.1108296  0.0042310  )
        44           O   tau(  44) = (  0.5554096  0.1115206  0.5042136  )
        45           O   tau(  45) = (  0.5551140  0.4447668  0.0015776  )
        46           O   tau(  46) = (  0.5549746  0.4446926  0.5047961  )
        47           O   tau(  47) = (  0.5550736  0.7770394  0.0046797  )
        48           O   tau(  48) = (  0.5553577  0.7773279  0.5021464  )
        49           O   tau(  49) = (  0.8885984  0.1111950  0.0034329  )
        50           O   tau(  50) = (  0.8881461  0.1109207  0.5039430  )
        51           O   tau(  51) = (  0.8881948  0.4432051  0.0059095  )
        52           O   tau(  52) = (  0.8885890  0.4442494  0.5019257  )
        53           O   tau(  53) = (  0.8886821  0.7775046  0.0028366  )
        54           O   tau(  54) = (  0.8890267  0.7778620  0.5053685  )
        55           O   tau(  55) = (  0.1114591  0.2230775  0.2556831  )
        56           O   tau(  56) = (  0.1108483  0.2216245  0.7523415  )
        57           O   tau(  57) = (  0.1117648  0.5560441  0.2541619  )
        58           O   tau(  58) = (  0.1105712  0.5549467  0.7539922  )
        59           O   tau(  59) = (  0.1110595  0.8893374  0.2539335  )
        60           O   tau(  60) = (  0.1115390  0.8884410  0.7546577  )
        61           O   tau(  61) = (  0.4444744  0.2235929  0.2537596  )
        62           O   tau(  62) = (  0.4446056  0.2212047  0.7545351  )
        63           O   tau(  63) = (  0.4452336  0.5574854  0.2531499  )
        64           O   tau(  64) = (  0.4454578  0.5547297  0.7528470  )
        65           O   tau(  65) = (  0.4448012  0.8895543  0.2543955  )
        66           O   tau(  66) = (  0.4449444  0.8882081  0.7542697  )
        67           O   tau(  67) = (  0.7781209  0.2229132  0.2523684  )
        68           O   tau(  68) = (  0.7775034  0.2226099  0.7547675  )
        69           O   tau(  69) = (  0.7773721  0.5564350  0.2533016  )
        70           O   tau(  70) = (  0.7779017  0.5555196  0.7529429  )
        71           O   tau(  71) = (  0.7781045  0.8896275  0.2537624  )
        72           O   tau(  72) = (  0.7776285  0.8881903  0.7534979  )

     number of k points=    80
                       cart. coord. in units 2pi/alat
        k(    1) = (   0.0000000   0.0000000   0.0000000), wk =   0.0156250
        k(    2) = (   0.0000021  -0.0000301   0.1322663), wk =   0.0156250
        k(    3) = (   0.0000042  -0.0000601   0.2645326), wk =   0.0156250
        k(    4) = (   0.0000062  -0.0000902   0.3967989), wk =   0.0156250
        k(    5) = (   0.0000083  -0.0001203   0.5290652), wk =   0.0156250
        k(    6) = (   0.0000104  -0.0001504   0.6613315), wk =   0.0156250
        k(    7) = (   0.0000125  -0.0001804   0.7935978), wk =   0.0156250
        k(    8) = (   0.0000145  -0.0002105   0.9258641), wk =   0.0156250
        k(    9) = (  -0.0001327   0.2885358  -0.0000651), wk =   0.0312500
        k(   10) = (  -0.0001306   0.2885057   0.1322012), wk =   0.0312500
        k(   11) = (  -0.0001286   0.2884756   0.2644675), wk =   0.0312500
        k(   12) = (  -0.0001265   0.2884456   0.3967338), wk =   0.0312500
        k(   13) = (  -0.0001244   0.2884155   0.5290001), wk =   0.0312500
        k(   14) = (  -0.0001223   0.2883854   0.6612664), wk =   0.0312500
        k(   15) = (  -0.0001203   0.2883553   0.7935327), wk =   0.0312500
        k(   16) = (  -0.0001182   0.2883253   0.9257989), wk =   0.0312500
        k(   17) = (   0.0002654  -0.5770715   0.0001302), wk =   0.0156250
        k(   18) = (   0.0002675  -0.5771016   0.1323965), wk =   0.0156250
        k(   19) = (   0.0002696  -0.5771317   0.2646628), wk =   0.0156250
        k(   20) = (   0.0002717  -0.5771617   0.3969291), wk =   0.0156250
        k(   21) = (   0.0002737  -0.5771918   0.5291954), wk =   0.0156250
        k(   22) = (   0.0002758  -0.5772219   0.6614617), wk =   0.0156250
        k(   23) = (   0.0002779  -0.5772520   0.7937280), wk =   0.0156250
        k(   24) = (   0.0002800  -0.5772820   0.9259943), wk =   0.0156250
        k(   25) = (   0.2499337   0.1441525  -0.0000286), wk =   0.0312500
        k(   26) = (   0.2499358   0.1441224   0.1322377), wk =   0.0312500
        k(   27) = (   0.2499379   0.1440923   0.2645040), wk =   0.0312500
        k(   28) = (   0.2499399   0.1440623   0.3967703), wk =   0.0312500
        k(   29) = (   0.2499420   0.1440322   0.5290366), wk =   0.0312500
        k(   30) = (   0.2499441   0.1440021   0.6613029), wk =   0.0312500
        k(   31) = (   0.2499462   0.1439720   0.7935692), wk =   0.0312500
        k(   32) = (   0.2499483   0.1439420   0.9258355), wk =   0.0312500
        k(   33) = (   0.2498010   0.4326882  -0.0000937), wk =   0.0312500
        k(   34) = (   0.2498031   0.4326582   0.1321726), wk =   0.0312500
        k(   35) = (   0.2498052   0.4326281   0.2644389), wk =   0.0312500
        k(   36) = (   0.2498072   0.4325980   0.3967052), wk =   0.0312500
        k(   37) = (   0.2498093   0.4325680   0.5289715), wk =   0.0312500
        k(   38) = (   0.2498114   0.4325379   0.6612378), wk =   0.0312500
        k(   39) = (   0.2498135   0.4325078   0.7935041), wk =   0.0312500
        k(   40) = (   0.2498155   0.4324777   0.9257704), wk =   0.0312500
        k(   41) = (   0.2501992  -0.4329191   0.0001016), wk =   0.0312500
        k(   42) = (   0.2502012  -0.4329491   0.1323679), wk =   0.0312500
        k(   43) = (   0.2502033  -0.4329792   0.2646342), wk =   0.0312500
        k(   44) = (   0.2502054  -0.4330093   0.3969005), wk =   0.0312500
        k(   45) = (   0.2502075  -0.4330393   0.5291668), wk =   0.0312500
        k(   46) = (   0.2502095  -0.4330694   0.6614331), wk =   0.0312500
        k(   47) = (   0.2502116  -0.4330995   0.7936994), wk =   0.0312500
        k(   48) = (   0.2502137  -0.4331296   0.9259657), wk =   0.0312500
        k(   49) = (   0.2500664  -0.1443833   0.0000365), wk =   0.0312500
        k(   50) = (   0.2500685  -0.1444134   0.1323028), wk =   0.0312500
        k(   51) = (   0.2500706  -0.1444434   0.2645691), wk =   0.0312500
        k(   52) = (   0.2500727  -0.1444735   0.3968354), wk =   0.0312500
        k(   53) = (   0.2500747  -0.1445036   0.5291017), wk =   0.0312500
        k(   54) = (   0.2500768  -0.1445336   0.6613680), wk =   0.0312500
        k(   55) = (   0.2500789  -0.1445637   0.7936343), wk =   0.0312500
        k(   56) = (   0.2500810  -0.1445938   0.9259006), wk =   0.0312500
        k(   57) = (  -0.4998674  -0.2883050   0.0000572), wk =   0.0156250
        k(   58) = (  -0.4998654  -0.2883350   0.1323234), wk =   0.0156250
        k(   59) = (  -0.4998633  -0.2883651   0.2645897), wk =   0.0156250
        k(   60) = (  -0.4998612  -0.2883952   0.3968560), wk =   0.0156250
        k(   61) = (  -0.4998591  -0.2884252   0.5291223), wk =   0.0156250
        k(   62) = (  -0.4998571  -0.2884553   0.6613886), wk =   0.0156250
        k(   63) = (  -0.4998550  -0.2884854   0.7936549), wk =   0.0156250
        k(   64) = (  -0.4998529  -0.2885155   0.9259212), wk =   0.0156250
        k(   65) = (  -0.5000002   0.0002308  -0.0000080), wk =   0.0312500
        k(   66) = (  -0.4999981   0.0002007   0.1322583), wk =   0.0312500
        k(   67) = (  -0.4999960   0.0001707   0.2645246), wk =   0.0312500
        k(   68) = (  -0.4999939   0.0001406   0.3967909), wk =   0.0312500
        k(   69) = (  -0.4999919   0.0001105   0.5290572), wk =   0.0312500
        k(   70) = (  -0.4999898   0.0000804   0.6613235), wk =   0.0312500
        k(   71) = (  -0.4999877   0.0000504   0.7935898), wk =   0.0312500
        k(   72) = (  -0.4999856   0.0000203   0.9258561), wk =   0.0312500
        k(   73) = (  -0.4996020  -0.8653765   0.0001874), wk =   0.0156250
        k(   74) = (  -0.4995999  -0.8654066   0.1324537), wk =   0.0156250
        k(   75) = (  -0.4995979  -0.8654366   0.2647200), wk =   0.0156250
        k(   76) = (  -0.4995958  -0.8654667   0.3969862), wk =   0.0156250
        k(   77) = (  -0.4995937  -0.8654968   0.5292525), wk =   0.0156250
        k(   78) = (  -0.4995916  -0.8655269   0.6615188), wk =   0.0156250
        k(   79) = (  -0.4995896  -0.8655569   0.7937851), wk =   0.0156250
        k(   80) = (  -0.4995875  -0.8655870   0.9260514), wk =   0.0156250

                       cryst. coord.
        k(    1) = (   0.0000000   0.0000000   0.0000000), wk =   0.0156250
        k(    2) = (   0.0000000   0.0000000   0.1428571), wk =   0.0156250
        k(    3) = (   0.0000000   0.0000000   0.2857143), wk =   0.0156250
        k(    4) = (   0.0000000  -0.0000000   0.4285714), wk =   0.0156250
        k(    5) = (   0.0000000   0.0000000   0.5714286), wk =   0.0156250
        k(    6) = (   0.0000000   0.0000000   0.7142857), wk =   0.0156250
        k(    7) = (   0.0000000  -0.0000000   0.8571429), wk =   0.0156250
        k(    8) = (   0.0000000  -0.0000000   1.0000000), wk =   0.0156250
        k(    9) = (   0.0000000   0.2500000  -0.0000000), wk =   0.0312500
        k(   10) = (   0.0000000   0.2500000   0.1428571), wk =   0.0312500
        k(   11) = (   0.0000000   0.2500000   0.2857143), wk =   0.0312500
        k(   12) = (   0.0000000   0.2500000   0.4285714), wk =   0.0312500
        k(   13) = (   0.0000000   0.2500000   0.5714286), wk =   0.0312500
        k(   14) = (   0.0000000   0.2500000   0.7142857), wk =   0.0312500
        k(   15) = (   0.0000000   0.2500000   0.8571429), wk =   0.0312500
        k(   16) = (   0.0000000   0.2500000   1.0000000), wk =   0.0312500
        k(   17) = (  -0.0000000  -0.5000000   0.0000000), wk =   0.0156250
        k(   18) = (  -0.0000000  -0.5000000   0.1428571), wk =   0.0156250
        k(   19) = (  -0.0000000  -0.5000000   0.2857143), wk =   0.0156250
        k(   20) = (  -0.0000000  -0.5000000   0.4285714), wk =   0.0156250
        k(   21) = (  -0.0000000  -0.5000000   0.5714286), wk =   0.0156250
        k(   22) = (  -0.0000000  -0.5000000   0.7142857), wk =   0.0156250
        k(   23) = (  -0.0000000  -0.5000000   0.8571429), wk =   0.0156250
        k(   24) = (   0.0000000  -0.5000000   1.0000000), wk =   0.0156250
        k(   25) = (   0.2500000  -0.0000000  -0.0000000), wk =   0.0312500
        k(   26) = (   0.2500000  -0.0000000   0.1428571), wk =   0.0312500
        k(   27) = (   0.2500000  -0.0000000   0.2857143), wk =   0.0312500
        k(   28) = (   0.2500000  -0.0000000   0.4285714), wk =   0.0312500
        k(   29) = (   0.2500000  -0.0000000   0.5714286), wk =   0.0312500
        k(   30) = (   0.2500000  -0.0000000   0.7142857), wk =   0.0312500
        k(   31) = (   0.2500000  -0.0000000   0.8571429), wk =   0.0312500
        k(   32) = (   0.2500000  -0.0000000   1.0000000), wk =   0.0312500
        k(   33) = (   0.2500000   0.2500000  -0.0000000), wk =   0.0312500
        k(   34) = (   0.2500000   0.2500000   0.1428571), wk =   0.0312500
        k(   35) = (   0.2500000   0.2500000   0.2857143), wk =   0.0312500
        k(   36) = (   0.2500000   0.2500000   0.4285714), wk =   0.0312500
        k(   37) = (   0.2500000   0.2500000   0.5714286), wk =   0.0312500
        k(   38) = (   0.2500000   0.2500000   0.7142857), wk =   0.0312500
        k(   39) = (   0.2500000   0.2500000   0.8571429), wk =   0.0312500
        k(   40) = (   0.2500000   0.2500000   1.0000000), wk =   0.0312500
        k(   41) = (   0.2500000  -0.5000000  -0.0000000), wk =   0.0312500
        k(   42) = (   0.2500000  -0.5000000   0.1428571), wk =   0.0312500
        k(   43) = (   0.2500000  -0.5000000   0.2857143), wk =   0.0312500
        k(   44) = (   0.2500000  -0.5000000   0.4285714), wk =   0.0312500
        k(   45) = (   0.2500000  -0.5000000   0.5714286), wk =   0.0312500
        k(   46) = (   0.2500000  -0.5000000   0.7142857), wk =   0.0312500
        k(   47) = (   0.2500000  -0.5000000   0.8571429), wk =   0.0312500
        k(   48) = (   0.2500000  -0.5000000   1.0000000), wk =   0.0312500
        k(   49) = (   0.2500000  -0.2500000  -0.0000000), wk =   0.0312500
        k(   50) = (   0.2500000  -0.2500000   0.1428571), wk =   0.0312500
        k(   51) = (   0.2500000  -0.2500000   0.2857143), wk =   0.0312500
        k(   52) = (   0.2500000  -0.2500000   0.4285714), wk =   0.0312500
        k(   53) = (   0.2500000  -0.2500000   0.5714286), wk =   0.0312500
        k(   54) = (   0.2500000  -0.2500000   0.7142857), wk =   0.0312500
        k(   55) = (   0.2500000  -0.2500000   0.8571429), wk =   0.0312500
        k(   56) = (   0.2500000  -0.2500000   1.0000000), wk =   0.0312500
        k(   57) = (  -0.5000000   0.0000000   0.0000000), wk =   0.0156250
        k(   58) = (  -0.5000000   0.0000000   0.1428571), wk =   0.0156250
        k(   59) = (  -0.5000000   0.0000000   0.2857143), wk =   0.0156250
        k(   60) = (  -0.5000000   0.0000000   0.4285714), wk =   0.0156250
        k(   61) = (  -0.5000000   0.0000000   0.5714286), wk =   0.0156250
        k(   62) = (  -0.5000000   0.0000000   0.7142857), wk =   0.0156250
        k(   63) = (  -0.5000000   0.0000000   0.8571429), wk =   0.0156250
        k(   64) = (  -0.5000000   0.0000000   1.0000000), wk =   0.0156250
        k(   65) = (  -0.5000000   0.2500000   0.0000000), wk =   0.0312500
        k(   66) = (  -0.5000000   0.2500000   0.1428571), wk =   0.0312500
        k(   67) = (  -0.5000000   0.2500000   0.2857143), wk =   0.0312500
        k(   68) = (  -0.5000000   0.2500000   0.4285714), wk =   0.0312500
        k(   69) = (  -0.5000000   0.2500000   0.5714286), wk =   0.0312500
        k(   70) = (  -0.5000000   0.2500000   0.7142857), wk =   0.0312500
        k(   71) = (  -0.5000000   0.2500000   0.8571429), wk =   0.0312500
        k(   72) = (  -0.5000000   0.2500000   1.0000000), wk =   0.0312500
        k(   73) = (  -0.5000000  -0.5000000   0.0000000), wk =   0.0156250
        k(   74) = (  -0.5000000  -0.5000000   0.1428571), wk =   0.0156250
        k(   75) = (  -0.5000000  -0.5000000   0.2857143), wk =   0.0156250
        k(   76) = (  -0.5000000  -0.5000000   0.4285714), wk =   0.0156250
        k(   77) = (  -0.5000000  -0.5000000   0.5714286), wk =   0.0156250
        k(   78) = (  -0.5000000  -0.5000000   0.7142857), wk =   0.0156250
        k(   79) = (  -0.5000000  -0.5000000   0.8571429), wk =   0.0156250
        k(   80) = (  -0.5000000  -0.5000000   1.0000000), wk =   0.0156250

     Dense  grid:  1097457 G-vectors     FFT dimensions: ( 135, 135, 144)

     Smooth grid:   365075 G-vectors     FFT dimensions: (  96,  96, 100)

     Dynamical RAM for                 wfc:       2.32 MB

     Dynamical RAM for     wfc (w. buffer):     188.32 MB

     Dynamical RAM for           str. fact:       0.39 MB

     Dynamical RAM for           local pot:       0.00 MB

     Dynamical RAM for          nlocal pot:       6.11 MB

     Dynamical RAM for                qrad:      20.97 MB

     Dynamical RAM for          rho,v,vnew:       1.23 MB

     Dynamical RAM for           G-vectors:       0.51 MB

     Dynamical RAM for          h,s,v(r/c):       2.10 MB

     Dynamical RAM for          <psi|beta>:       7.34 MB

     Dynamical RAM for                 psi:       9.30 MB

     Dynamical RAM for                hpsi:       9.30 MB

     Dynamical RAM for                spsi:       9.30 MB

     Dynamical RAM for      wfcinit/wfcrot:      12.83 MB

     Dynamical RAM for           addusdens:      31.54 MB

     Estimated static dynamical RAM per process >     219.45 MB

     Estimated max dynamical RAM per process >     256.78 MB

     Estimated total dynamical RAM >      32.10 GB

     Check: negative core charge=   -0.000002

     The potential is recalculated from file :
     ./temp/ZnO.save/charge-density

     Starting wfcs are  548 randomized atomic wfcs

     Band Structure Calculation
     Davidson diagonalization with overlap

     Computing kpt #:     1
     total cpu time spent up to now is       22.0 secs

     Computing kpt #:     2
     total cpu time spent up to now is       37.7 secs

     Computing kpt #:     3
     total cpu time spent up to now is       53.1 secs

     Computing kpt #:     4
     total cpu time spent up to now is       68.4 secs

     Computing kpt #:     5
     total cpu time spent up to now is       83.7 secs

     Computing kpt #:     6
     total cpu time spent up to now is       99.3 secs

     Computing kpt #:     7
     total cpu time spent up to now is      114.9 secs

     Computing kpt #:     8
     total cpu time spent up to now is      130.3 secs

     Computing kpt #:     9
     total cpu time spent up to now is      146.0 secs

     Computing kpt #:    10
     total cpu time spent up to now is      161.3 secs

     Computing kpt #:    11
     total cpu time spent up to now is      176.5 secs

     Computing kpt #:    12
     total cpu time spent up to now is      191.7 secs

     Computing kpt #:    13
     total cpu time spent up to now is      207.2 secs

     Computing kpt #:    14
     total cpu time spent up to now is      222.6 secs

     Computing kpt #:    15
     total cpu time spent up to now is      237.9 secs

     Computing kpt #:    16
     total cpu time spent up to now is      253.3 secs

     Computing kpt #:    17
     total cpu time spent up to now is      268.7 secs

     Computing kpt #:    18
     total cpu time spent up to now is      283.9 secs

     Computing kpt #:    19
     total cpu time spent up to now is      299.1 secs

     Computing kpt #:    20
     total cpu time spent up to now is      314.2 secs

     Computing kpt #:    21
     total cpu time spent up to now is      329.5 secs

     Computing kpt #:    22
     total cpu time spent up to now is      344.7 secs

     Computing kpt #:    23
     total cpu time spent up to now is      359.9 secs

     Computing kpt #:    24
     total cpu time spent up to now is      375.1 secs

     Computing kpt #:    25
     total cpu time spent up to now is      390.7 secs

     Computing kpt #:    26
     total cpu time spent up to now is      406.1 secs

     Computing kpt #:    27
     total cpu time spent up to now is      421.3 secs

     Computing kpt #:    28
     total cpu time spent up to now is      436.5 secs

     Computing kpt #:    29
     total cpu time spent up to now is      451.9 secs

     Computing kpt #:    30
     total cpu time spent up to now is      467.1 secs

     Computing kpt #:    31
     total cpu time spent up to now is      482.4 secs

     Computing kpt #:    32
     total cpu time spent up to now is      497.9 secs

     Computing kpt #:    33
     total cpu time spent up to now is      513.3 secs

     Computing kpt #:    34
     total cpu time spent up to now is      528.4 secs

     Computing kpt #:    35
     total cpu time spent up to now is      543.5 secs

     Computing kpt #:    36
     total cpu time spent up to now is      558.7 secs

     Computing kpt #:    37
     total cpu time spent up to now is      574.0 secs

     Computing kpt #:    38
     total cpu time spent up to now is      589.2 secs

     Computing kpt #:    39
     total cpu time spent up to now is      604.3 secs

     Computing kpt #:    40
     total cpu time spent up to now is      619.6 secs

     Computing kpt #:    41
     total cpu time spent up to now is      634.9 secs

     Computing kpt #:    42
     total cpu time spent up to now is      650.1 secs

     Computing kpt #:    43
     total cpu time spent up to now is      665.2 secs

     Computing kpt #:    44
     total cpu time spent up to now is      680.5 secs

     Computing kpt #:    45
     total cpu time spent up to now is      695.8 secs

     Computing kpt #:    46
     total cpu time spent up to now is      710.9 secs

     Computing kpt #:    47
     total cpu time spent up to now is      726.1 secs

     Computing kpt #:    48
     total cpu time spent up to now is      741.4 secs

     Computing kpt #:    49
     total cpu time spent up to now is      757.1 secs

     Computing kpt #:    50
     total cpu time spent up to now is      772.4 secs

     Computing kpt #:    51
     total cpu time spent up to now is      787.7 secs

     Computing kpt #:    52
     total cpu time spent up to now is      803.0 secs

     Computing kpt #:    53
     total cpu time spent up to now is      818.4 secs

     Computing kpt #:    54
     total cpu time spent up to now is      833.6 secs

     Computing kpt #:    55
     total cpu time spent up to now is      848.9 secs

     Computing kpt #:    56
     total cpu time spent up to now is      864.5 secs

     Computing kpt #:    57
     total cpu time spent up to now is      879.8 secs

     Computing kpt #:    58
     total cpu time spent up to now is      895.0 secs

     Computing kpt #:    59
     total cpu time spent up to now is      910.1 secs

     Computing kpt #:    60
     total cpu time spent up to now is      925.3 secs

     Computing kpt #:    61
     total cpu time spent up to now is      940.5 secs

     Computing kpt #:    62
     total cpu time spent up to now is      955.7 secs

     Computing kpt #:    63
     total cpu time spent up to now is      970.9 secs

     Computing kpt #:    64
     total cpu time spent up to now is      986.2 secs

     Computing kpt #:    65
     total cpu time spent up to now is     1001.5 secs

     Computing kpt #:    66
     total cpu time spent up to now is     1016.6 secs

     Computing kpt #:    67
     total cpu time spent up to now is     1031.8 secs

     Computing kpt #:    68
     total cpu time spent up to now is     1047.1 secs

     Computing kpt #:    69
     total cpu time spent up to now is     1062.3 secs

     Computing kpt #:    70
     total cpu time spent up to now is     1077.3 secs

     Computing kpt #:    71
     total cpu time spent up to now is     1092.5 secs

     Computing kpt #:    72
     total cpu time spent up to now is     1107.9 secs

     Computing kpt #:    73
     total cpu time spent up to now is     1123.2 secs

     Computing kpt #:    74
     total cpu time spent up to now is     1138.4 secs

     Computing kpt #:    75
     total cpu time spent up to now is     1153.5 secs

     Computing kpt #:    76
     total cpu time spent up to now is     1168.8 secs

     Computing kpt #:    77
     total cpu time spent up to now is     1183.9 secs

     Computing kpt #:    78
     total cpu time spent up to now is     1199.1 secs

     Computing kpt #:    79
     total cpu time spent up to now is     1214.5 secs

     Computing kpt #:    80
     total cpu time spent up to now is     1229.9 secs

     ethr =  1.17E-12,  avg # of iterations = 12.9

     total cpu time spent up to now is     1229.9 secs

     End of band structure calculation

          k = 0.0000 0.0000 0.0000 ( 45725 PWs)   bands (ev):

  -115.1905-115.1890-115.1878-115.1848-115.1845-115.1838-115.1835-115.1825
  -115.1820-115.1818-115.1813-115.1810-115.1810-115.1801-115.1765-115.1764
  -115.1762-115.1760-115.1757-115.1747-115.1737-115.1733-115.1730-115.1726
  -115.1718-115.1709-115.1695-115.1635 -69.5496 -69.5469 -69.5465 -69.5463
   -69.5459 -69.5438 -69.5434 -69.5433 -69.5423 -69.5423 -69.5422 -69.5420
   -69.5416 -69.5416 -69.5415 -69.5408 -69.5408 -69.5408 -69.5407 -69.5406
   -69.5404 -69.5400 -69.5394 -69.5393 -69.5390 -69.5389 -69.5385 -69.5383
   -69.5381 -69.5380 -69.5379 -69.5375 -69.5373 -69.5367 -69.5364 -69.5352
   -69.5350 -69.5347 -69.5347 -69.5346 -69.5344 -69.5343 -69.5342 -69.5339
   -69.5337 -69.5333 -69.5330 -69.5329 -69.5325 -69.5324 -69.5321 -69.5319
   -69.5317 -69.5316 -69.5315 -69.5314 -69.5312 -69.5311 -69.5308 -69.5307
   -69.5306 -69.5306 -69.5305 -69.5299 -69.5296 -69.5296 -69.5295 -69.5293
   -69.5292 -69.5283 -69.5280 -69.5279 -69.5278 -69.5275 -69.5273 -69.5262
   -69.5260 -69.5254 -69.5251 -69.5251 -69.5239 -69.5218 -69.5202 -69.5181
   -64.6854 -64.6854 -64.6758 -64.6748 -64.6729 -64.6713 -64.6708 -64.6547
   -31.6734 -31.6734 -31.6716 -31.6713 -31.6702 -31.6694 -31.6647 -31.6633
   -31.6622 -31.6620 -31.6606 -31.6599 -31.6592 -31.6587 -31.6580 -31.6572
   -31.6567 -31.6557 -31.6542 -31.6533 -31.6503 -31.6406 -31.6391 -31.6371
    -9.8828  -9.5599  -9.5395  -9.4523  -9.4366  -9.3992  -9.3907  -9.3488
    -9.3043  -9.2575  -9.2514  -9.2385  -9.2193  -9.2135  -9.1946  -9.1755
    -9.1484  -9.1293  -9.1129  -9.1015  -9.0818  -9.0733  -9.0285  -9.0090
    -8.9995  -8.9898  -8.9863  -8.9668  -8.9580  -8.9412  -8.9122  -8.8832
    -8.8621  -8.8554  -8.8154  -8.7958   1.9075   1.9256   1.9329   1.9515
     1.9562   1.9629   1.9895   2.0170   2.0193   2.0268   2.0579   2.0711
     2.0782   2.0982   2.1091   2.1288   2.1663   2.1734   2.1802   2.2106
     2.2830   2.2946   2.3086   2.3295   2.3462   2.3568   2.3678   2.3794
     2.3958   2.3971   2.4116   2.4233   2.4290   2.4422   2.4457   2.4535
     2.4744   2.4838   2.4929   2.5067   2.5194   2.5216   2.5384   2.5404
     2.5514   2.5584   2.5662   2.5845   2.5975   2.6095   2.6214   2.6238
     2.6278   2.6357   2.6386   2.6429   2.6570   2.6589   2.6620   2.6706
     2.6761   2.6892   2.6973   2.7064   2.7260   2.7453   2.7662   2.7726
     2.8077   2.8339   2.8406   2.8461   2.9175   2.9208   2.9325   2.9379
     2.9520   2.9714   2.9922   3.0043   3.0120   3.0344   3.0419   3.0617
     3.0668   3.0922   3.1006   3.1029   3.1518   3.1600   3.1689   3.1892
     3.2024   3.2306   3.2338   3.2639   3.2697   3.2838   3.3116   3.3384
     3.3438   3.3483   3.3789   3.3927   3.4011   3.4090   3.4207   3.4363
     3.4382   3.4466   3.4510   3.4610   3.4665   3.4714   3.4751   3.4896
     3.4989   3.5003   3.5068   3.5105   3.5224   3.5250   3.5269   3.5320
     3.5348   3.5495   3.5522   3.5625   3.5741   3.5760   3.5865   3.5906
     3.5997   3.6287   3.6468   3.6677   3.6877   3.7173   3.7371   3.7653
     3.7804   3.8726   3.8910   3.9303   3.9821   3.9924   4.0364   4.0527
     4.0734   4.1013   4.1577   4.1881   4.2039   4.2641   4.2897   4.3171
     4.3310   4.3787   4.4179   4.4428   4.4907   4.5205   4.5365   4.5922
     4.6142   4.6519   4.6918   4.7475   4.7533   4.8350   4.8367   4.8761
     4.9324   4.9426   5.0344   5.1203   5.1600   5.1813   5.1938   5.3014
     5.3782   5.4403   5.4633   5.4782   5.5573   5.6751   5.7199   5.8461
     5.8757   5.8978   5.9094   5.9450   5.9535   5.9776   6.0421   6.0536
     6.0786   6.0906   6.1041   6.1129   6.1474   6.2181   6.2834   6.3064
     6.3823   6.3983   6.4327   6.4713   6.4819   6.4995   6.5146   6.5164
     6.5365   6.5479   6.5758   6.5789   6.5981   6.6079   6.6223   6.6354
     6.6581   6.6637   6.6677   6.6869   6.7093   6.7206   6.7450   6.8040
     6.9496   6.9757   6.9928   6.9943   7.0061   7.0238   7.0486   7.0807
     7.1124   7.1530   7.1971   7.2320   7.2664   7.3741   7.3842   7.3977
     7.4366   7.6584   7.7098   7.7201

     occupation numbers 
     1.0000   1.0000   1.0000   1.0000   1.0000   1.0000   1.0000   1.0000
     1.0000   1.0000   1.0000   1.0000   1.0000   1.0000   1.0000   1.0000
     1.0000   1.0000   1.0000   1.0000   1.0000   1.0000   1.0000   1.0000
     1.0000   1.0000   1.0000   1.0000   1.0000   1.0000   1.0000   1.0000
     1.0000   1.0000   1.0000   1.0000   1.0000   1.0000   1.0000   1.0000
     1.0000   1.0000   1.0000   1.0000   1.0000   1.0000   1.0000   1.0000
     1.0000   1.0000   1.0000   1.0000   1.0000   1.0000   1.0000   1.0000
     1.0000   1.0000   1.0000   1.0000   1.0000   1.0000   1.0000   1.0000
     1.0000   1.0000   1.0000   1.0000   1.0000   1.0000   1.0000   1.0000
     1.0000   1.0000   1.0000   1.0000   1.0000   1.0000   1.0000   1.0000
     1.0000   1.0000   1.0000   1.0000   1.0000   1.0000   1.0000   1.0000
     1.0000   1.0000   1.0000   1.0000   1.0000   1.0000   1.0000   1.0000
     1.0000   1.0000   1.0000   1.0000   1.0000   1.0000   1.0000   1.0000
     1.0000   1.0000   1.0000   1.0000   1.0000   1.0000   1.0000   1.0000
     1.0000   1.0000   1.0000   1.0000   1.0000   1.0000   1.0000   1.0000
     1.0000   1.0000   1.0000   1.0000   1.0000   1.0000   1.0000   1.0000
     1.0000   1.0000   1.0000   1.0000   1.0000   1.0000   1.0000   1.0000
     1.0000   1.0000   1.0000   1.0000   1.0000   1.0000   1.0000   1.0000
     1.0000   1.0000   1.0000   1.0000   1.0000   1.0000   1.0000   1.0000
     1.0000   1.0000   1.0000   1.0000   1.0000   1.0000   1.0000   1.0000
     1.0000   1.0000   1.0000   1.0000   1.0000   1.0000   1.0000   1.0000
     1.0000   1.0000   1.0000   1.0000   1.0000   1.0000   1.0000   1.0000
     1.0000   1.0000   1.0000   1.0000   1.0000   1.0000   1.0000   1.0000
     1.0000   1.0000   1.0000   1.0000   1.0000   1.0000   1.0000   1.0000
     1.0000   1.0000   1.0000   1.0000   1.0000   1.0000   1.0000   1.0000
     1.0000   1.0000   1.0000   1.0000   1.0000   1.0000   1.0000   1.0000
     1.0000   1.0000   1.0000   1.0000   1.0000   1.0000   1.0000   1.0000
     1.0000   1.0000   1.0000   1.0000   1.0000   1.0000   1.0000   1.0000
     1.0000   1.0000   1.0000   1.0000   1.0000   1.0000   1.0000   1.0000
     1.0000   1.0000   1.0000   1.0000   1.0000   1.0000   1.0000   1.0000
     1.0000   1.0000   1.0000   1.0000   1.0000   1.0000   1.0000   1.0000
     1.0000   1.0000   1.0000   1.0000   1.0000   1.0000   1.0000   1.0000
     1.0000   1.0000   1.0000   1.0000   1.0000   1.0000   1.0000   1.0000
     1.0000   1.0000   1.0000   1.0000   1.0000   1.0000   1.0000   1.0000
     1.0000   1.0000   1.0000   1.0000   1.0000   1.0000   1.0000   1.0000
     1.0000   1.0000   1.0000   1.0000   1.0000   1.0000   1.0000   1.0000
     1.0000   1.0000   1.0000   1.0000   1.0000   1.0000   1.0000   1.0000
     1.0000   1.0000   1.0000   1.0000   1.0000   1.0000   1.0000   1.0000
     1.0000   1.0000   1.0000   1.0000   1.0000   1.0000   1.0000   1.0000
     1.0000   1.0000   1.0000   1.0000   1.0000   1.0000   1.0000   1.0000
     1.0000   1.0000   1.0000   1.0000   1.0000   1.0000   1.0000   1.0000
     1.0000   1.0000   1.0000   1.0000   1.0000   1.0000   1.0000   1.0000
     1.0000   1.0000   1.0000   1.0000   1.0000   1.0000   1.0000   1.0000
     1.0000   1.0000   1.0000   1.0000   1.0000   1.0000   1.0000   1.0000
     1.0000   1.0000   1.0000   1.0000   1.0000   1.0000   1.0000   1.0000
     1.0000   1.0000   1.0000   1.0000   1.0000   1.0000   1.0000   1.0000
     1.0000   1.0000   1.0000   1.0000   1.0000   1.0000   1.0000   1.0000
     1.0000   1.0000   1.0000   1.0000   1.0000   1.0000   1.0000   1.0000
     1.0000   1.0000   1.0000   1.0000   1.0000   1.0000   1.0000   1.0000
     1.0000   1.0000   1.0000   1.0000   1.0000   1.0000   1.0000   1.0000
     1.0000   1.0000   1.0000   1.0000   1.0000   1.0000   1.0000   1.0000
     1.0000   1.0000   1.0000   1.0000   1.0000   1.0000   1.0000   1.0000
     1.0000   1.0000   1.0000   1.0000   1.0000   1.0000   1.0000   1.0000
     1.0000   1.0000   1.0000   1.0000

          k = 0.0000-0.0000 0.1323 ( 45690 PWs)   bands (ev):

  -115.1905-115.1890-115.1878-115.1848-115.1845-115.1838-115.1835-115.1825
  -115.1820-115.1818-115.1813-115.1810-115.1810-115.1801-115.1765-115.1764
  -115.1762-115.1760-115.1757-115.1747-115.1737-115.1733-115.1730-115.1726
  -115.1718-115.1709-115.1695-115.1635 -69.5496 -69.5469 -69.5465 -69.5463
   -69.5459 -69.5438 -69.5434 -69.5433 -69.5423 -69.5423 -69.5422 -69.5420
   -69.5416 -69.5416 -69.5415 -69.5408 -69.5408 -69.5408 -69.5407 -69.5406
   -69.5404 -69.5400 -69.5394 -69.5393 -69.5390 -69.5389 -69.5385 -69.5383
   -69.5381 -69.5380 -69.5379 -69.5375 -69.5373 -69.5367 -69.5364 -69.5352
   -69.5350 -69.5347 -69.5347 -69.5346 -69.5344 -69.5343 -69.5342 -69.5339
   -69.5337 -69.5333 -69.5330 -69.5329 -69.5325 -69.5324 -69.5321 -69.5319
   -69.5317 -69.5316 -69.5315 -69.5314 -69.5312 -69.5311 -69.5308 -69.5307
   -69.5306 -69.5306 -69.5305 -69.5299 -69.5296 -69.5296 -69.5295 -69.5293
   -69.5292 -69.5283 -69.5280 -69.5279 -69.5278 -69.5275 -69.5273 -69.5262
   -69.5260 -69.5254 -69.5251 -69.5251 -69.5239 -69.5218 -69.5202 -69.5181
   -64.6854 -64.6854 -64.6758 -64.6748 -64.6729 -64.6713 -64.6708 -64.6547
   -31.6734 -31.6734 -31.6716 -31.6713 -31.6702 -31.6694 -31.6647 -31.6633
   -31.6622 -31.6620 -31.6606 -31.6599 -31.6592 -31.6587 -31.6580 -31.6572
   -31.6567 -31.6557 -31.6542 -31.6533 -31.6503 -31.6406 -31.6391 -31.6371
    -9.8744  -9.6219  -9.4863  -9.4472  -9.4304  -9.3921  -9.3852  -9.3438
    -9.3091  -9.2810  -9.2684  -9.2528  -9.2216  -9.2031  -9.1895  -9.1777
    -9.1410  -9.1292  -9.1121  -9.0940  -9.0907  -9.0540  -9.0255  -9.0077
    -9.0005  -8.9921  -8.9853  -8.9670  -8.9603  -8.9400  -8.9135  -8.8815
    -8.8624  -8.8565  -8.8177  -8.7994   1.9142   1.9283   1.9380   1.9543
     1.9632   1.9788   2.0022   2.0164   2.0271   2.0321   2.0650   2.0710
     2.0842   2.0966   2.1068   2.1335   2.1698   2.1785   2.1835   2.2216
     2.2843   2.2972   2.3079   2.3269   2.3429   2.3501   2.3631   2.3739
     2.3894   2.3920   2.4102   2.4125   2.4257   2.4317   2.4416   2.4514
     2.4638   2.4830   2.4948   2.5047   2.5147   2.5241   2.5359   2.5421
     2.5480   2.5623   2.5648   2.5860   2.6039   2.6158   2.6203   2.6243
     2.6320   2.6368   2.6427   2.6467   2.6545   2.6586   2.6640   2.6697
     2.6776   2.6881   2.6928   2.7108   2.7216   2.7453   2.7603   2.7714
     2.8030   2.8239   2.8394   2.8425   2.9026   2.9125   2.9171   2.9294
     2.9427   2.9546   2.9676   2.9872   3.0001   3.0133   3.0230   3.0463
     3.0615   3.0817   3.0999   3.1131   3.1304   3.1572   3.1713   3.1928
     3.1987   3.2241   3.2322   3.2580   3.2738   3.2943   3.3098   3.3273
     3.3390   3.3477   3.3639   3.3901   3.4019   3.4128   3.4278   3.4328
     3.4422   3.4476   3.4588   3.4639   3.4679   3.4740   3.4806   3.4859
     3.4978   3.5005   3.5090   3.5143   3.5185   3.5222   3.5315   3.5359
     3.5468   3.5547   3.5601   3.5675   3.5763   3.5805   3.5870   3.5931
     3.6003   3.6324   3.6431   3.6608   3.6812   3.6924   3.7294   3.7577
     3.8015   3.9148   3.9561   3.9678   4.0134   4.0287   4.0510   4.0683
     4.0791   4.1132   4.1657   4.1971   4.2153   4.2597   4.2968   4.3139
     4.3381   4.3804   4.4034   4.4547   4.5091   4.5271   4.5450   4.5860
     4.6235   4.6586   4.7107   4.7537   4.7543   4.8406   4.8520   4.8680
     4.9123   4.9474   4.9830   5.0298   5.0748   5.1413   5.3087   5.3437
     5.4066   5.4512   5.4721   5.5266   5.5772   5.6897   5.7141   5.8367
     5.8907   5.9116   5.9245   5.9499   5.9637   5.9843   6.0162   6.0449
     6.0621   6.0750   6.0946   6.1016   6.1100   6.1427   6.1684   6.2132
     6.2500   6.3478   6.3828   6.4335   6.4458   6.4655   6.4757   6.5095
     6.5187   6.5317   6.5570   6.5922   6.6333   6.6595   6.6726   6.6963
     6.7072   6.7172   6.7275   6.7520   6.7653   6.7890   6.8065   6.8328
     6.9543   6.9837   6.9958   7.0093   7.0182   7.0315   7.0556   7.0790
     7.1088   7.1460   7.1864   7.2201   7.2556   7.3141   7.3448   7.4551
     7.4824   7.5519   7.7017   7.7122

     occupation numbers 
     1.0000   1.0000   1.0000   1.0000   1.0000   1.0000   1.0000   1.0000
     1.0000   1.0000   1.0000   1.0000   1.0000   1.0000   1.0000   1.0000
     1.0000   1.0000   1.0000   1.0000   1.0000   1.0000   1.0000   1.0000
     1.0000   1.0000   1.0000   1.0000   1.0000   1.0000   1.0000   1.0000
     1.0000   1.0000   1.0000   1.0000   1.0000   1.0000   1.0000   1.0000
     1.0000   1.0000   1.0000   1.0000   1.0000   1.0000   1.0000   1.0000
     1.0000   1.0000   1.0000   1.0000   1.0000   1.0000   1.0000   1.0000
     1.0000   1.0000   1.0000   1.0000   1.0000   1.0000   1.0000   1.0000
     1.0000   1.0000   1.0000   1.0000   1.0000   1.0000   1.0000   1.0000
     1.0000   1.0000   1.0000   1.0000   1.0000   1.0000   1.0000   1.0000
     1.0000   1.0000   1.0000   1.0000   1.0000   1.0000   1.0000   1.0000
     1.0000   1.0000   1.0000   1.0000   1.0000   1.0000   1.0000   1.0000
     1.0000   1.0000   1.0000   1.0000   1.0000   1.0000   1.0000   1.0000
     1.0000   1.0000   1.0000   1.0000   1.0000   1.0000   1.0000   1.0000
     1.0000   1.0000   1.0000   1.0000   1.0000   1.0000   1.0000   1.0000
     1.0000   1.0000   1.0000   1.0000   1.0000   1.0000   1.0000   1.0000
     1.0000   1.0000   1.0000   1.0000   1.0000   1.0000   1.0000   1.0000
     1.0000   1.0000   1.0000   1.0000   1.0000   1.0000   1.0000   1.0000
     1.0000   1.0000   1.0000   1.0000   1.0000   1.0000   1.0000   1.0000
     1.0000   1.0000   1.0000   1.0000   1.0000   1.0000   1.0000   1.0000
     1.0000   1.0000   1.0000   1.0000   1.0000   1.0000   1.0000   1.0000
     1.0000   1.0000   1.0000   1.0000   1.0000   1.0000   1.0000   1.0000
     1.0000   1.0000   1.0000   1.0000   1.0000   1.0000   1.0000   1.0000
     1.0000   1.0000   1.0000   1.0000   1.0000   1.0000   1.0000   1.0000
     1.0000   1.0000   1.0000   1.0000   1.0000   1.0000   1.0000   1.0000
     1.0000   1.0000   1.0000   1.0000   1.0000   1.0000   1.0000   1.0000
     1.0000   1.0000   1.0000   1.0000   1.0000   1.0000   1.0000   1.0000
     1.0000   1.0000   1.0000   1.0000   1.0000   1.0000   1.0000   1.0000
     1.0000   1.0000   1.0000   1.0000   1.0000   1.0000   1.0000   1.0000
     1.0000   1.0000   1.0000   1.0000   1.0000   1.0000   1.0000   1.0000
     1.0000   1.0000   1.0000   1.0000   1.0000   1.0000   1.0000   1.0000
     1.0000   1.0000   1.0000   1.0000   1.0000   1.0000   1.0000   1.0000
     1.0000   1.0000   1.0000   1.0000   1.0000   1.0000   1.0000   1.0000
     1.0000   1.0000   1.0000   1.0000   1.0000   1.0000   1.0000   1.0000
     1.0000   1.0000   1.0000   1.0000   1.0000   1.0000   1.0000   1.0000
     1.0000   1.0000   1.0000   1.0000   1.0000   1.0000   1.0000   1.0000
     1.0000   1.0000   1.0000   1.0000   1.0000   1.0000   1.0000   1.0000
     1.0000   1.0000   1.0000   1.0000   1.0000   1.0000   1.0000   1.0000
     1.0000   1.0000   1.0000   1.0000   1.0000   1.0000   1.0000   1.0000
     1.0000   1.0000   1.0000   1.0000   1.0000   1.0000   1.0000   1.0000
     1.0000   1.0000   1.0000   1.0000   1.0000   1.0000   1.0000   1.0000
     1.0000   1.0000   1.0000   1.0000   1.0000   1.0000   1.0000   1.0000
     1.0000   1.0000   1.0000   1.0000   1.0000   1.0000   1.0000   1.0000
     1.0000   1.0000   1.0000   1.0000   1.0000   1.0000   1.0000   1.0000
     1.0000   1.0000   1.0000   1.0000   1.0000   1.0000   1.0000   1.0000
     1.0000   1.0000   1.0000   1.0000   1.0000   1.0000   1.0000   1.0000
     1.0000   1.0000   1.0000   1.0000   1.0000   1.0000   1.0000   1.0000
     1.0000   1.0000   1.0000   1.0000   1.0000   1.0000   1.0000   1.0000
     1.0000   1.0000   1.0000   1.0000   1.0000   1.0000   1.0000   1.0000
     1.0000   1.0000   1.0000   1.0000   1.0000   1.0000   1.0000   1.0000
     1.0000   1.0000   1.0000   1.0000   1.0000   1.0000   1.0000   1.0000
     1.0000   1.0000   1.0000   1.0000   1.0000   1.0000   1.0000   1.0000
     1.0000   1.0000   1.0000   1.0000   1.0000   1.0000   1.0000   1.0000
     1.0000   1.0000   1.0000   1.0000

          k = 0.0000-0.0001 0.2645 ( 45599 PWs)   bands (ev):

  -115.1905-115.1890-115.1878-115.1848-115.1845-115.1838-115.1835-115.1825
  -115.1820-115.1818-115.1813-115.1810-115.1810-115.1801-115.1765-115.1764
  -115.1762-115.1760-115.1757-115.1747-115.1737-115.1733-115.1730-115.1726
  -115.1718-115.1709-115.1695-115.1635 -69.5496 -69.5469 -69.5465 -69.5463
   -69.5459 -69.5438 -69.5434 -69.5433 -69.5423 -69.5423 -69.5422 -69.5420
   -69.5416 -69.5416 -69.5415 -69.5408 -69.5408 -69.5408 -69.5407 -69.5406
   -69.5404 -69.5400 -69.5394 -69.5393 -69.5390 -69.5389 -69.5385 -69.5383
   -69.5381 -69.5380 -69.5379 -69.5375 -69.5373 -69.5367 -69.5364 -69.5352
   -69.5350 -69.5347 -69.5347 -69.5346 -69.5344 -69.5343 -69.5342 -69.5339
   -69.5337 -69.5333 -69.5330 -69.5329 -69.5325 -69.5324 -69.5321 -69.5319
   -69.5317 -69.5317 -69.5315 -69.5314 -69.5312 -69.5311 -69.5308 -69.5307
   -69.5306 -69.5306 -69.5305 -69.5299 -69.5296 -69.5296 -69.5295 -69.5293
   -69.5292 -69.5283 -69.5280 -69.5279 -69.5278 -69.5275 -69.5273 -69.5262
   -69.5260 -69.5254 -69.5251 -69.5251 -69.5239 -69.5218 -69.5202 -69.5181
   -64.6854 -64.6854 -64.6758 -64.6748 -64.6729 -64.6713 -64.6708 -64.6547
   -31.6734 -31.6734 -31.6716 -31.6713 -31.6702 -31.6694 -31.6647 -31.6633
   -31.6622 -31.6620 -31.6606 -31.6599 -31.6592 -31.6587 -31.6580 -31.6572
   -31.6567 -31.6558 -31.6541 -31.6534 -31.6503 -31.6406 -31.6391 -31.6371
    -9.8496  -9.6921  -9.4452  -9.4332  -9.4122  -9.3806  -9.3667  -9.3367
    -9.3215  -9.3112  -9.2938  -9.2696  -9.2397  -9.2179  -9.1891  -9.1684
    -9.1407  -9.1234  -9.1089  -9.0783  -9.0667  -9.0473  -9.0203  -9.0056
    -9.0006  -8.9932  -8.9846  -8.9688  -8.9653  -8.9376  -8.9158  -8.8791
    -8.8599  -8.8586  -8.8237  -8.8089   1.9313   1.9402   1.9495   1.9673
     1.9813   1.9932   2.0165   2.0320   2.0388   2.0513   2.0650   2.0804
     2.0939   2.1105   2.1140   2.1530   2.1794   2.1885   2.2040   2.2458
     2.2785   2.2909   2.3022   2.3155   2.3264   2.3360   2.3441   2.3594
     2.3686   2.3808   2.3845   2.4032   2.4120   2.4225   2.4363   2.4494
     2.4573   2.4797   2.4929   2.5046   2.5104   2.5254   2.5302   2.5433
     2.5532   2.5628   2.5733   2.5876   2.6066   2.6137   2.6164   2.6245
     2.6296   2.6404   2.6445   2.6502   2.6607   2.6666   2.6715   2.6750
     2.6796   2.6907   2.6987   2.7086   2.7186   2.7462   2.7534   2.7650
     2.7868   2.8033   2.8233   2.8326   2.8506   2.8679   2.8838   2.8915
     2.9128   2.9225   2.9375   2.9624   2.9739   2.9924   3.0030   3.0242
     3.0472   3.0673   3.0954   3.1116   3.1216   3.1481   3.1679   3.1931
     3.1993   3.2129   3.2367   3.2457   3.2648   3.2839   3.2970   3.3279
     3.3410   3.3485   3.3646   3.3973   3.4051   3.4149   3.4291   3.4335
     3.4401   3.4478   3.4603   3.4628   3.4681   3.4746   3.4831   3.4858
     3.4986   3.5052   3.5109   3.5158   3.5215   3.5330   3.5352   3.5474
     3.5550   3.5637   3.5725   3.5761   3.5855   3.5893   3.5934   3.6011
     3.6128   3.6306   3.6386   3.6536   3.6688   3.6747   3.7092   3.7336
     3.8819   3.9748   4.0249   4.0498   4.0617   4.0721   4.0907   4.1110
     4.1294   4.1442   4.1920   4.2123   4.2582   4.2669   4.3053   4.3168
     4.3487   4.3676   4.4012   4.4591   4.5091   4.5328   4.5655   4.6001
     4.6500   4.6755   4.7068   4.7453   4.7751   4.7939   4.8156   4.8645
     4.9066   4.9438   4.9824   5.0170   5.0457   5.1232   5.3353   5.4112
     5.4496   5.4918   5.5219   5.5549   5.5972   5.6719   5.7030   5.7407
     5.8111   5.8577   5.8816   5.9273   5.9487   5.9523   5.9977   6.0149
     6.0340   6.0522   6.0747   6.0856   6.1065   6.1186   6.1361   6.1649
     6.2379   6.2649   6.2986   6.3448   6.3741   6.3913   6.4034   6.4226
     6.4529   6.4708   6.5308   6.5766   6.6885   6.7281   6.7525   6.7707
     6.7955   6.8093   6.8240   6.8522   6.8703   6.8862   6.9005   6.9217
     6.9636   7.0002   7.0176   7.0316   7.0424   7.0547   7.0644   7.0824
     7.1060   7.1319   7.1599   7.1899   7.2270   7.2537   7.2829   7.3228
     7.5241   7.5439   7.6780   7.6889

     occupation numbers 
     1.0000   1.0000   1.0000   1.0000   1.0000   1.0000   1.0000   1.0000
     1.0000   1.0000   1.0000   1.0000   1.0000   1.0000   1.0000   1.0000
     1.0000   1.0000   1.0000   1.0000   1.0000   1.0000   1.0000   1.0000
     1.0000   1.0000   1.0000   1.0000   1.0000   1.0000   1.0000   1.0000
     1.0000   1.0000   1.0000   1.0000   1.0000   1.0000   1.0000   1.0000
     1.0000   1.0000   1.0000   1.0000   1.0000   1.0000   1.0000   1.0000
     1.0000   1.0000   1.0000   1.0000   1.0000   1.0000   1.0000   1.0000
     1.0000   1.0000   1.0000   1.0000   1.0000   1.0000   1.0000   1.0000
     1.0000   1.0000   1.0000   1.0000   1.0000   1.0000   1.0000   1.0000
     1.0000   1.0000   1.0000   1.0000   1.0000   1.0000   1.0000   1.0000
     1.0000   1.0000   1.0000   1.0000   1.0000   1.0000   1.0000   1.0000
     1.0000   1.0000   1.0000   1.0000   1.0000   1.0000   1.0000   1.0000
     1.0000   1.0000   1.0000   1.0000   1.0000   1.0000   1.0000   1.0000
     1.0000   1.0000   1.0000   1.0000   1.0000   1.0000   1.0000   1.0000
     1.0000   1.0000   1.0000   1.0000   1.0000   1.0000   1.0000   1.0000
     1.0000   1.0000   1.0000   1.0000   1.0000   1.0000   1.0000   1.0000
     1.0000   1.0000   1.0000   1.0000   1.0000   1.0000   1.0000   1.0000
     1.0000   1.0000   1.0000   1.0000   1.0000   1.0000   1.0000   1.0000
     1.0000   1.0000   1.0000   1.0000   1.0000   1.0000   1.0000   1.0000
     1.0000   1.0000   1.0000   1.0000   1.0000   1.0000   1.0000   1.0000
     1.0000   1.0000   1.0000   1.0000   1.0000   1.0000   1.0000   1.0000
     1.0000   1.0000   1.0000   1.0000   1.0000   1.0000   1.0000   1.0000
     1.0000   1.0000   1.0000   1.0000   1.0000   1.0000   1.0000   1.0000
     1.0000   1.0000   1.0000   1.0000   1.0000   1.0000   1.0000   1.0000
     1.0000   1.0000   1.0000   1.0000   1.0000   1.0000   1.0000   1.0000
     1.0000   1.0000   1.0000   1.0000   1.0000   1.0000   1.0000   1.0000
     1.0000   1.0000   1.0000   1.0000   1.0000   1.0000   1.0000   1.0000
     1.0000   1.0000   1.0000   1.0000   1.0000   1.0000   1.0000   1.0000
     1.0000   1.0000   1.0000   1.0000   1.0000   1.0000   1.0000   1.0000
     1.0000   1.0000   1.0000   1.0000   1.0000   1.0000   1.0000   1.0000
     1.0000   1.0000   1.0000   1.0000   1.0000   1.0000   1.0000   1.0000
     1.0000   1.0000   1.0000   1.0000   1.0000   1.0000   1.0000   1.0000
     1.0000   1.0000   1.0000   1.0000   1.0000   1.0000   1.0000   1.0000
     1.0000   1.0000   1.0000   1.0000   1.0000   1.0000   1.0000   1.0000
     1.0000   1.0000   1.0000   1.0000   1.0000   1.0000   1.0000   1.0000
     1.0000   1.0000   1.0000   1.0000   1.0000   1.0000   1.0000   1.0000
     1.0000   1.0000   1.0000   1.0000   1.0000   1.0000   1.0000   1.0000
     1.0000   1.0000   1.0000   1.0000   1.0000   1.0000   1.0000   1.0000
     1.0000   1.0000   1.0000   1.0000   1.0000   1.0000   1.0000   1.0000
     1.0000   1.0000   1.0000   1.0000   1.0000   1.0000   1.0000   1.0000
     1.0000   1.0000   1.0000   1.0000   1.0000   1.0000   1.0000   1.0000
     1.0000   1.0000   1.0000   1.0000   1.0000   1.0000   1.0000   1.0000
     1.0000   1.0000   1.0000   1.0000   1.0000   1.0000   1.0000   1.0000
     1.0000   1.0000   1.0000   1.0000   1.0000   1.0000   1.0000   1.0000
     1.0000   1.0000   1.0000   1.0000   1.0000   1.0000   1.0000   1.0000
     1.0000   1.0000   1.0000   1.0000   1.0000   1.0000   1.0000   1.0000
     1.0000   1.0000   1.0000   1.0000   1.0000   1.0000   1.0000   1.0000
     1.0000   1.0000   1.0000   1.0000   1.0000   1.0000   1.0000   1.0000
     1.0000   1.0000   1.0000   1.0000   1.0000   1.0000   1.0000   1.0000
     1.0000   1.0000   1.0000   1.0000   1.0000   1.0000   1.0000   1.0000
     1.0000   1.0000   1.0000   1.0000   1.0000   1.0000   1.0000   1.0000
     1.0000   1.0000   1.0000   1.0000   1.0000   1.0000   1.0000   1.0000
     1.0000   1.0000   1.0000   1.0000   1.0000   1.0000   1.0000   1.0000
     1.0000   1.0000   1.0000   1.0000

          k = 0.0000-0.0001 0.3968 ( 45610 PWs)   bands (ev):

  -115.1905-115.1890-115.1878-115.1848-115.1845-115.1838-115.1835-115.1825
  -115.1820-115.1818-115.1813-115.1810-115.1810-115.1801-115.1765-115.1764
  -115.1762-115.1760-115.1757-115.1747-115.1737-115.1733-115.1730-115.1726
  -115.1718-115.1709-115.1695-115.1635 -69.5496 -69.5469 -69.5465 -69.5463
   -69.5459 -69.5438 -69.5434 -69.5433 -69.5423 -69.5423 -69.5422 -69.5420
   -69.5416 -69.5416 -69.5415 -69.5408 -69.5408 -69.5408 -69.5407 -69.5406
   -69.5404 -69.5400 -69.5394 -69.5393 -69.5390 -69.5389 -69.5385 -69.5383
   -69.5381 -69.5380 -69.5379 -69.5375 -69.5373 -69.5367 -69.5364 -69.5352
   -69.5350 -69.5347 -69.5347 -69.5346 -69.5344 -69.5343 -69.5342 -69.5339
   -69.5337 -69.5333 -69.5330 -69.5330 -69.5325 -69.5324 -69.5321 -69.5319
   -69.5317 -69.5317 -69.5315 -69.5314 -69.5312 -69.5311 -69.5308 -69.5307
   -69.5307 -69.5306 -69.5305 -69.5299 -69.5296 -69.5296 -69.5295 -69.5293
   -69.5292 -69.5283 -69.5280 -69.5279 -69.5278 -69.5275 -69.5273 -69.5262
   -69.5260 -69.5254 -69.5251 -69.5251 -69.5239 -69.5218 -69.5202 -69.5181
   -64.6854 -64.6854 -64.6758 -64.6748 -64.6729 -64.6713 -64.6708 -64.6547
   -31.6734 -31.6733 -31.6716 -31.6713 -31.6702 -31.6694 -31.6647 -31.6633
   -31.6622 -31.6621 -31.6606 -31.6599 -31.6592 -31.6587 -31.6580 -31.6572
   -31.6567 -31.6558 -31.6540 -31.6534 -31.6503 -31.6406 -31.6391 -31.6371
    -9.8095  -9.7559  -9.4194  -9.4173  -9.3899  -9.3789  -9.3645  -9.3523
    -9.3349  -9.3130  -9.2885  -9.2827  -9.2534  -9.2217  -9.2072  -9.1880
    -9.1304  -9.1149  -9.0911  -9.0675  -9.0520  -9.0423  -9.0250  -9.0119
    -8.9954  -8.9877  -8.9839  -8.9740  -8.9673  -8.9373  -8.9161  -8.8795
    -8.8605  -8.8499  -8.8322  -8.8189   1.9492   1.9546   1.9667   1.9771
     1.9863   1.9954   2.0180   2.0350   2.0447   2.0565   2.0785   2.0896
     2.1217   2.1370   2.1514   2.1797   2.1941   2.2105   2.2285   2.2327
     2.2641   2.2720   2.2801   2.2914   2.3124   2.3173   2.3342   2.3442
     2.3495   2.3605   2.3772   2.3878   2.4024   2.4179   2.4259   2.4570
     2.4653   2.4774   2.4826   2.5072   2.5183   2.5305   2.5346   2.5450
     2.5531   2.5647   2.5735   2.5867   2.5976   2.6064   2.6147   2.6237
     2.6312   2.6355   2.6424   2.6538   2.6650   2.6685   2.6785   2.6856
     2.6876   2.6966   2.7020   2.7181   2.7228   2.7447   2.7517   2.7623
     2.7738   2.7853   2.7987   2.8042   2.8153   2.8246   2.8388   2.8529
     2.8877   2.8978   2.9282   2.9494   2.9690   2.9872   2.9981   3.0110
     3.0392   3.0545   3.0874   3.1079   3.1303   3.1413   3.1613   3.1869
     3.2019   3.2106   3.2225   3.2498   3.2538   3.2638   3.3010   3.3313
     3.3404   3.3570   3.3807   3.4010   3.4086   3.4113   3.4199   3.4308
     3.4408   3.4500   3.4558   3.4609   3.4703   3.4732   3.4790   3.4858
     3.4972   3.5064   3.5137   3.5219   3.5281   3.5347   3.5409   3.5582
     3.5628   3.5660   3.5745   3.5815   3.5909   3.5967   3.5992   3.6126
     3.6223   3.6377   3.6447   3.6491   3.6639   3.6711   3.6890   3.7031
     3.9615   4.0283   4.0550   4.0738   4.0871   4.1048   4.1191   4.1443
     4.1526   4.1797   4.2133   4.2503   4.2840   4.2965   4.3274   4.3458
     4.3651   4.3976   4.4177   4.4571   4.4711   4.4914   4.5119   4.5607
     4.6160   4.6333   4.6773   4.7315   4.7733   4.8086   4.8743   4.8964
     4.9790   5.0146   5.0329   5.0678   5.0800   5.1390   5.3242   5.4112
     5.4380   5.4777   5.4977   5.5610   5.5944   5.6135   5.6433   5.6810
     5.7325   5.7487   5.7855   5.8462   5.8726   5.8830   6.0308   6.0516
     6.0810   6.0966   6.1142   6.1421   6.1632   6.1752   6.1875   6.2000
     6.2197   6.2374   6.2645   6.2811   6.2909   6.3106   6.3242   6.3384
     6.3707   6.3778   6.5756   6.6090   6.7132   6.7740   6.7996   6.8153
     6.8309   6.8503   6.8682   6.9010   6.9261   6.9573   6.9748   6.9802
     6.9987   7.0193   7.0301   7.0412   7.0580   7.0658   7.0818   7.0912
     7.0990   7.1190   7.1281   7.1548   7.1629   7.1968   7.2100   7.2230
     7.5858   7.6007   7.6400   7.6522

     occupation numbers 
     1.0000   1.0000   1.0000   1.0000   1.0000   1.0000   1.0000   1.0000
     1.0000   1.0000   1.0000   1.0000   1.0000   1.0000   1.0000   1.0000
     1.0000   1.0000   1.0000   1.0000   1.0000   1.0000   1.0000   1.0000
     1.0000   1.0000   1.0000   1.0000   1.0000   1.0000   1.0000   1.0000
     1.0000   1.0000   1.0000   1.0000   1.0000   1.0000   1.0000   1.0000
     1.0000   1.0000   1.0000   1.0000   1.0000   1.0000   1.0000   1.0000
     1.0000   1.0000   1.0000   1.0000   1.0000   1.0000   1.0000   1.0000
     1.0000   1.0000   1.0000   1.0000   1.0000   1.0000   1.0000   1.0000
     1.0000   1.0000   1.0000   1.0000   1.0000   1.0000   1.0000   1.0000
     1.0000   1.0000   1.0000   1.0000   1.0000   1.0000   1.0000   1.0000
     1.0000   1.0000   1.0000   1.0000   1.0000   1.0000   1.0000   1.0000
     1.0000   1.0000   1.0000   1.0000   1.0000   1.0000   1.0000   1.0000
     1.0000   1.0000   1.0000   1.0000   1.0000   1.0000   1.0000   1.0000
     1.0000   1.0000   1.0000   1.0000   1.0000   1.0000   1.0000   1.0000
     1.0000   1.0000   1.0000   1.0000   1.0000   1.0000   1.0000   1.0000
     1.0000   1.0000   1.0000   1.0000   1.0000   1.0000   1.0000   1.0000
     1.0000   1.0000   1.0000   1.0000   1.0000   1.0000   1.0000   1.0000
     1.0000   1.0000   1.0000   1.0000   1.0000   1.0000   1.0000   1.0000
     1.0000   1.0000   1.0000   1.0000   1.0000   1.0000   1.0000   1.0000
     1.0000   1.0000   1.0000   1.0000   1.0000   1.0000   1.0000   1.0000
     1.0000   1.0000   1.0000   1.0000   1.0000   1.0000   1.0000   1.0000
     1.0000   1.0000   1.0000   1.0000   1.0000   1.0000   1.0000   1.0000
     1.0000   1.0000   1.0000   1.0000   1.0000   1.0000   1.0000   1.0000
     1.0000   1.0000   1.0000   1.0000   1.0000   1.0000   1.0000   1.0000
     1.0000   1.0000   1.0000   1.0000   1.0000   1.0000   1.0000   1.0000
     1.0000   1.0000   1.0000   1.0000   1.0000   1.0000   1.0000   1.0000
     1.0000   1.0000   1.0000   1.0000   1.0000   1.0000   1.0000   1.0000
     1.0000   1.0000   1.0000   1.0000   1.0000   1.0000   1.0000   1.0000
     1.0000   1.0000   1.0000   1.0000   1.0000   1.0000   1.0000   1.0000
     1.0000   1.0000   1.0000   1.0000   1.0000   1.0000   1.0000   1.0000
     1.0000   1.0000   1.0000   1.0000   1.0000   1.0000   1.0000   1.0000
     1.0000   1.0000   1.0000   1.0000   1.0000   1.0000   1.0000   1.0000
     1.0000   1.0000   1.0000   1.0000   1.0000   1.0000   1.0000   1.0000
     1.0000   1.0000   1.0000   1.0000   1.0000   1.0000   1.0000   1.0000
     1.0000   1.0000   1.0000   1.0000   1.0000   1.0000   1.0000   1.0000
     1.0000   1.0000   1.0000   1.0000   1.0000   1.0000   1.0000   1.0000
     1.0000   1.0000   1.0000   1.0000   1.0000   1.0000   1.0000   1.0000
     1.0000   1.0000   1.0000   1.0000   1.0000   1.0000   1.0000   1.0000
     1.0000   1.0000   1.0000   1.0000   1.0000   1.0000   1.0000   1.0000
     1.0000   1.0000   1.0000   1.0000   1.0000   1.0000   1.0000   1.0000
     1.0000   1.0000   1.0000   1.0000   1.0000   1.0000   1.0000   1.0000
     1.0000   1.0000   1.0000   1.0000   1.0000   1.0000   1.0000   1.0000
     1.0000   1.0000   1.0000   1.0000   1.0000   1.0000   1.0000   1.0000
     1.0000   1.0000   1.0000   1.0000   1.0000   1.0000   1.0000   1.0000
     1.0000   1.0000   1.0000   1.0000   1.0000   1.0000   1.0000   1.0000
     1.0000   1.0000   1.0000   1.0000   1.0000   1.0000   1.0000   1.0000
     1.0000   1.0000   1.0000   1.0000   1.0000   1.0000   1.0000   1.0000
     1.0000   1.0000   1.0000   1.0000   1.0000   1.0000   1.0000   1.0000
     1.0000   1.0000   1.0000   1.0000   1.0000   1.0000   1.0000   1.0000
     1.0000   1.0000   1.0000   1.0000   1.0000   1.0000   1.0000   1.0000
     1.0000   1.0000   1.0000   1.0000   1.0000   1.0000   1.0000   1.0000
     1.0000   1.0000   1.0000   1.0000   1.0000   1.0000   1.0000   1.0000
     1.0000   1.0000   1.0000   1.0000   1.0000   1.0000   1.0000   1.0000
     1.0000   1.0000   1.0000   1.0000

          k = 0.0000-0.0001 0.5291 ( 45610 PWs)   bands (ev):

  -115.1905-115.1890-115.1878-115.1848-115.1845-115.1838-115.1835-115.1825
  -115.1820-115.1818-115.1813-115.1810-115.1810-115.1801-115.1765-115.1764
  -115.1762-115.1760-115.1757-115.1747-115.1737-115.1733-115.1730-115.1726
  -115.1718-115.1709-115.1695-115.1635 -69.5496 -69.5469 -69.5465 -69.5463
   -69.5459 -69.5438 -69.5434 -69.5433 -69.5423 -69.5423 -69.5422 -69.5420
   -69.5416 -69.5416 -69.5415 -69.5408 -69.5408 -69.5408 -69.5407 -69.5406
   -69.5404 -69.5400 -69.5394 -69.5393 -69.5390 -69.5389 -69.5385 -69.5383
   -69.5381 -69.5380 -69.5379 -69.5375 -69.5373 -69.5367 -69.5364 -69.5352
   -69.5350 -69.5347 -69.5347 -69.5346 -69.5344 -69.5343 -69.5342 -69.5339
   -69.5337 -69.5333 -69.5330 -69.5330 -69.5325 -69.5324 -69.5321 -69.5319
   -69.5317 -69.5317 -69.5315 -69.5314 -69.5312 -69.5311 -69.5308 -69.5307
   -69.5307 -69.5306 -69.5305 -69.5299 -69.5296 -69.5296 -69.5295 -69.5293
   -69.5292 -69.5283 -69.5280 -69.5279 -69.5278 -69.5275 -69.5273 -69.5262
   -69.5260 -69.5254 -69.5251 -69.5251 -69.5239 -69.5218 -69.5202 -69.5181
   -64.6854 -64.6854 -64.6758 -64.6748 -64.6729 -64.6713 -64.6708 -64.6547
   -31.6734 -31.6733 -31.6716 -31.6713 -31.6702 -31.6694 -31.6647 -31.6633
   -31.6622 -31.6621 -31.6606 -31.6599 -31.6592 -31.6587 -31.6580 -31.6572
   -31.6567 -31.6558 -31.6540 -31.6534 -31.6503 -31.6406 -31.6391 -31.6371
    -9.8095  -9.7559  -9.4194  -9.4173  -9.3899  -9.3789  -9.3645  -9.3523
    -9.3349  -9.3130  -9.2885  -9.2827  -9.2534  -9.2217  -9.2072  -9.1880
    -9.1304  -9.1149  -9.0911  -9.0675  -9.0520  -9.0423  -9.0250  -9.0119
    -8.9954  -8.9877  -8.9839  -8.9740  -8.9673  -8.9373  -8.9161  -8.8795
    -8.8605  -8.8499  -8.8322  -8.8189   1.9492   1.9546   1.9667   1.9771
     1.9863   1.9954   2.0180   2.0350   2.0447   2.0565   2.0785   2.0896
     2.1217   2.1370   2.1514   2.1797   2.1941   2.2105   2.2285   2.2327
     2.2641   2.2720   2.2801   2.2914   2.3124   2.3173   2.3342   2.3442
     2.3495   2.3605   2.3772   2.3878   2.4024   2.4179   2.4259   2.4570
     2.4653   2.4774   2.4826   2.5072   2.5183   2.5305   2.5346   2.5450
     2.5531   2.5647   2.5735   2.5867   2.5976   2.6064   2.6147   2.6237
     2.6312   2.6355   2.6424   2.6538   2.6650   2.6685   2.6785   2.6856
     2.6876   2.6966   2.7020   2.7181   2.7228   2.7447   2.7517   2.7623
     2.7738   2.7853   2.7987   2.8042   2.8153   2.8246   2.8388   2.8529
     2.8877   2.8978   2.9282   2.9494   2.9690   2.9872   2.9981   3.0110
     3.0392   3.0545   3.0874   3.1079   3.1303   3.1413   3.1613   3.1869
     3.2019   3.2106   3.2225   3.2498   3.2538   3.2638   3.3010   3.3313
     3.3404   3.3570   3.3807   3.4010   3.4086   3.4113   3.4199   3.4308
     3.4408   3.4500   3.4558   3.4609   3.4703   3.4732   3.4790   3.4858
     3.4972   3.5064   3.5137   3.5219   3.5281   3.5347   3.5409   3.5582
     3.5628   3.5660   3.5745   3.5815   3.5909   3.5967   3.5992   3.6126
     3.6223   3.6377   3.6447   3.6491   3.6639   3.6711   3.6890   3.7031
     3.9615   4.0283   4.0550   4.0738   4.0871   4.1048   4.1191   4.1443
     4.1526   4.1797   4.2133   4.2503   4.2840   4.2965   4.3274   4.3458
     4.3651   4.3976   4.4177   4.4571   4.4711   4.4914   4.5119   4.5607
     4.6160   4.6333   4.6773   4.7315   4.7733   4.8086   4.8743   4.8964
     4.9790   5.0146   5.0329   5.0678   5.0800   5.1390   5.3242   5.4112
     5.4380   5.4777   5.4977   5.5610   5.5944   5.6135   5.6433   5.6810
     5.7325   5.7487   5.7855   5.8462   5.8726   5.8830   6.0308   6.0516
     6.0810   6.0966   6.1142   6.1421   6.1632   6.1752   6.1875   6.2000
     6.2197   6.2374   6.2645   6.2811   6.2909   6.3106   6.3242   6.3384
     6.3707   6.3778   6.5756   6.6090   6.7132   6.7740   6.7996   6.8153
     6.8309   6.8503   6.8682   6.9010   6.9261   6.9573   6.9748   6.9802
     6.9987   7.0193   7.0301   7.0412   7.0580   7.0658   7.0818   7.0912
     7.0990   7.1190   7.1281   7.1548   7.1629   7.1968   7.2100   7.2230
     7.5858   7.6007   7.6400   7.6522

     occupation numbers 
     1.0000   1.0000   1.0000   1.0000   1.0000   1.0000   1.0000   1.0000
     1.0000   1.0000   1.0000   1.0000   1.0000   1.0000   1.0000   1.0000
     1.0000   1.0000   1.0000   1.0000   1.0000   1.0000   1.0000   1.0000
     1.0000   1.0000   1.0000   1.0000   1.0000   1.0000   1.0000   1.0000
     1.0000   1.0000   1.0000   1.0000   1.0000   1.0000   1.0000   1.0000
     1.0000   1.0000   1.0000   1.0000   1.0000   1.0000   1.0000   1.0000
     1.0000   1.0000   1.0000   1.0000   1.0000   1.0000   1.0000   1.0000
     1.0000   1.0000   1.0000   1.0000   1.0000   1.0000   1.0000   1.0000
     1.0000   1.0000   1.0000   1.0000   1.0000   1.0000   1.0000   1.0000
     1.0000   1.0000   1.0000   1.0000   1.0000   1.0000   1.0000   1.0000
     1.0000   1.0000   1.0000   1.0000   1.0000   1.0000   1.0000   1.0000
     1.0000   1.0000   1.0000   1.0000   1.0000   1.0000   1.0000   1.0000
     1.0000   1.0000   1.0000   1.0000   1.0000   1.0000   1.0000   1.0000
     1.0000   1.0000   1.0000   1.0000   1.0000   1.0000   1.0000   1.0000
     1.0000   1.0000   1.0000   1.0000   1.0000   1.0000   1.0000   1.0000
     1.0000   1.0000   1.0000   1.0000   1.0000   1.0000   1.0000   1.0000
     1.0000   1.0000   1.0000   1.0000   1.0000   1.0000   1.0000   1.0000
     1.0000   1.0000   1.0000   1.0000   1.0000   1.0000   1.0000   1.0000
     1.0000   1.0000   1.0000   1.0000   1.0000   1.0000   1.0000   1.0000
     1.0000   1.0000   1.0000   1.0000   1.0000   1.0000   1.0000   1.0000
     1.0000   1.0000   1.0000   1.0000   1.0000   1.0000   1.0000   1.0000
     1.0000   1.0000   1.0000   1.0000   1.0000   1.0000   1.0000   1.0000
     1.0000   1.0000   1.0000   1.0000   1.0000   1.0000   1.0000   1.0000
     1.0000   1.0000   1.0000   1.0000   1.0000   1.0000   1.0000   1.0000
     1.0000   1.0000   1.0000   1.0000   1.0000   1.0000   1.0000   1.0000
     1.0000   1.0000   1.0000   1.0000   1.0000   1.0000   1.0000   1.0000
     1.0000   1.0000   1.0000   1.0000   1.0000   1.0000   1.0000   1.0000
     1.0000   1.0000   1.0000   1.0000   1.0000   1.0000   1.0000   1.0000
     1.0000   1.0000   1.0000   1.0000   1.0000   1.0000   1.0000   1.0000
     1.0000   1.0000   1.0000   1.0000   1.0000   1.0000   1.0000   1.0000
     1.0000   1.0000   1.0000   1.0000   1.0000   1.0000   1.0000   1.0000
     1.0000   1.0000   1.0000   1.0000   1.0000   1.0000   1.0000   1.0000
     1.0000   1.0000   1.0000   1.0000   1.0000   1.0000   1.0000   1.0000
     1.0000   1.0000   1.0000   1.0000   1.0000   1.0000   1.0000   1.0000
     1.0000   1.0000   1.0000   1.0000   1.0000   1.0000   1.0000   1.0000
     1.0000   1.0000   1.0000   1.0000   1.0000   1.0000   1.0000   1.0000
     1.0000   1.0000   1.0000   1.0000   1.0000   1.0000   1.0000   1.0000
     1.0000   1.0000   1.0000   1.0000   1.0000   1.0000   1.0000   1.0000
     1.0000   1.0000   1.0000   1.0000   1.0000   1.0000   1.0000   1.0000
     1.0000   1.0000   1.0000   1.0000   1.0000   1.0000   1.0000   1.0000
     1.0000   1.0000   1.0000   1.0000   1.0000   1.0000   1.0000   1.0000
     1.0000   1.0000   1.0000   1.0000   1.0000   1.0000   1.0000   1.0000
     1.0000   1.0000   1.0000   1.0000   1.0000   1.0000   1.0000   1.0000
     1.0000   1.0000   1.0000   1.0000   1.0000   1.0000   1.0000   1.0000
     1.0000   1.0000   1.0000   1.0000   1.0000   1.0000   1.0000   1.0000
     1.0000   1.0000   1.0000   1.0000   1.0000   1.0000   1.0000   1.0000
     1.0000   1.0000   1.0000   1.0000   1.0000   1.0000   1.0000   1.0000
     1.0000   1.0000   1.0000   1.0000   1.0000   1.0000   1.0000   1.0000
     1.0000   1.0000   1.0000   1.0000   1.0000   1.0000   1.0000   1.0000
     1.0000   1.0000   1.0000   1.0000   1.0000   1.0000   1.0000   1.0000
     1.0000   1.0000   1.0000   1.0000   1.0000   1.0000   1.0000   1.0000
     1.0000   1.0000   1.0000   1.0000   1.0000   1.0000   1.0000   1.0000
     1.0000   1.0000   1.0000   1.0000   1.0000   1.0000   1.0000   1.0000
     1.0000   1.0000   1.0000   1.0000

          k = 0.0000-0.0002 0.6613 ( 45599 PWs)   bands (ev):

  -115.1905-115.1890-115.1878-115.1848-115.1845-115.1838-115.1835-115.1825
  -115.1820-115.1818-115.1813-115.1810-115.1810-115.1801-115.1765-115.1764
  -115.1762-115.1760-115.1757-115.1747-115.1737-115.1733-115.1730-115.1726
  -115.1718-115.1709-115.1695-115.1635 -69.5496 -69.5469 -69.5465 -69.5463
   -69.5459 -69.5438 -69.5434 -69.5433 -69.5423 -69.5423 -69.5422 -69.5420
   -69.5416 -69.5416 -69.5415 -69.5408 -69.5408 -69.5408 -69.5407 -69.5406
   -69.5404 -69.5400 -69.5394 -69.5393 -69.5390 -69.5389 -69.5385 -69.5383
   -69.5381 -69.5380 -69.5379 -69.5375 -69.5373 -69.5367 -69.5364 -69.5352
   -69.5350 -69.5347 -69.5347 -69.5346 -69.5344 -69.5343 -69.5342 -69.5339
   -69.5337 -69.5333 -69.5330 -69.5329 -69.5325 -69.5324 -69.5321 -69.5319
   -69.5317 -69.5317 -69.5315 -69.5314 -69.5312 -69.5311 -69.5308 -69.5307
   -69.5306 -69.5306 -69.5305 -69.5299 -69.5296 -69.5296 -69.5295 -69.5293
   -69.5292 -69.5283 -69.5280 -69.5279 -69.5278 -69.5275 -69.5273 -69.5262
   -69.5260 -69.5254 -69.5251 -69.5251 -69.5239 -69.5218 -69.5202 -69.5181
   -64.6854 -64.6854 -64.6758 -64.6748 -64.6729 -64.6713 -64.6708 -64.6547
   -31.6734 -31.6734 -31.6716 -31.6713 -31.6702 -31.6694 -31.6647 -31.6633
   -31.6622 -31.6620 -31.6606 -31.6599 -31.6592 -31.6587 -31.6580 -31.6572
   -31.6567 -31.6558 -31.6541 -31.6534 -31.6503 -31.6406 -31.6391 -31.6371
    -9.8496  -9.6921  -9.4452  -9.4332  -9.4122  -9.3806  -9.3667  -9.3367
    -9.3215  -9.3112  -9.2938  -9.2696  -9.2397  -9.2179  -9.1891  -9.1684
    -9.1407  -9.1234  -9.1089  -9.0783  -9.0667  -9.0473  -9.0203  -9.0056
    -9.0006  -8.9932  -8.9846  -8.9688  -8.9653  -8.9376  -8.9158  -8.8791
    -8.8599  -8.8586  -8.8237  -8.8089   1.9313   1.9402   1.9495   1.9673
     1.9813   1.9932   2.0165   2.0320   2.0388   2.0513   2.0650   2.0804
     2.0939   2.1105   2.1140   2.1530   2.1794   2.1885   2.2040   2.2458
[...]
    -9.1342  -9.1223  -9.0995  -9.0791  -9.0630  -9.0554  -9.0485  -9.0344
    -9.0274  -8.9974  -8.9843  -8.9667  -8.9556  -8.9417  -8.9102  -8.8880
    -8.8679  -8.8426  -8.8137  -8.7959   1.9272   1.9523   1.9707   1.9775
     1.9832   2.0047   2.0398   2.0510   2.0689   2.0821   2.0881   2.0982
     2.1282   2.1349   2.1531   2.1682   2.1891   2.2072   2.2100   2.2363
     2.2498   2.2570   2.2879   2.2937   2.3084   2.3172   2.3536   2.3612
     2.3708   2.3887   2.3987   2.4116   2.4228   2.4333   2.4412   2.4537
     2.4550   2.4683   2.4802   2.4934   2.4972   2.5067   2.5177   2.5243
     2.5301   2.5393   2.5511   2.5568   2.5679   2.5791   2.5916   2.5975
     2.6063   2.6167   2.6241   2.6308   2.6339   2.6463   2.6487   2.6722
     2.6799   2.6911   2.7014   2.7132   2.7312   2.7492   2.7585   2.7669
     2.7717   2.7901   2.8001   2.8138   2.8202   2.8359   2.8596   2.8745
     2.8993   2.9068   2.9540   2.9582   2.9854   3.0025   3.0036   3.0367
     3.0556   3.0764   3.1008   3.1104   3.1229   3.1421   3.1522   3.1879
     3.2149   3.2278   3.2398   3.2516   3.2727   3.2918   3.3086   3.3290
     3.3461   3.3523   3.3703   3.3817   3.3978   3.4038   3.4150   3.4240
     3.4344   3.4402   3.4562   3.4591   3.4670   3.4827   3.4909   3.4969
     3.5022   3.5109   3.5201   3.5235   3.5372   3.5423   3.5490   3.5642
     3.5674   3.5732   3.5778   3.5871   3.5982   3.6017   3.6105   3.6231
     3.6332   3.6368   3.6413   3.6721   3.6844   3.7034   3.7069   3.7352
     3.7612   3.8014   3.8545   3.8914   3.9386   3.9535   3.9880   4.0035
     4.0481   4.0766   4.1211   4.1444   4.1675   4.2103   4.2437   4.3042
     4.3288   4.3692   4.3983   4.4236   4.4941   4.5622   4.6313   4.6505
     4.8283   4.8726   4.9322   4.9991   5.0108   5.0560   5.1089   5.1173
     5.1445   5.1802   5.2423   5.2649   5.2957   5.3031   5.3222   5.3688
     5.3784   5.4570   5.5186   5.5329   5.5653   5.6736   5.6893   5.7671
     5.7819   5.8067   5.8274   5.8521   5.8767   5.8935   6.0287   6.0538
     6.1130   6.1284   6.1928   6.2352   6.2757   6.3007   6.3306   6.3612
     6.3759   6.3821   6.3954   6.4298   6.4624   6.4829   6.5025   6.5087
     6.5220   6.5263   6.5448   6.5649   6.5689   6.5909   6.5981   6.6198
     6.6209   6.6310   6.6386   6.6428   6.6503   6.6730   6.7039   6.7133
     6.7492   6.7819   6.7948   6.8234   6.8858   6.9156   6.9313   6.9540
     6.9996   7.1032   7.1086   7.1288   7.1559   7.1817   7.2032   7.2444
     7.4380   7.5014   7.5500   7.6298

     occupation numbers 
     1.0000   1.0000   1.0000   1.0000   1.0000   1.0000   1.0000   1.0000
     1.0000   1.0000   1.0000   1.0000   1.0000   1.0000   1.0000   1.0000
     1.0000   1.0000   1.0000   1.0000   1.0000   1.0000   1.0000   1.0000
     1.0000   1.0000   1.0000   1.0000   1.0000   1.0000   1.0000   1.0000
     1.0000   1.0000   1.0000   1.0000   1.0000   1.0000   1.0000   1.0000
     1.0000   1.0000   1.0000   1.0000   1.0000   1.0000   1.0000   1.0000
     1.0000   1.0000   1.0000   1.0000   1.0000   1.0000   1.0000   1.0000
     1.0000   1.0000   1.0000   1.0000   1.0000   1.0000   1.0000   1.0000
     1.0000   1.0000   1.0000   1.0000   1.0000   1.0000   1.0000   1.0000
     1.0000   1.0000   1.0000   1.0000   1.0000   1.0000   1.0000   1.0000
     1.0000   1.0000   1.0000   1.0000   1.0000   1.0000   1.0000   1.0000
     1.0000   1.0000   1.0000   1.0000   1.0000   1.0000   1.0000   1.0000
     1.0000   1.0000   1.0000   1.0000   1.0000   1.0000   1.0000   1.0000
     1.0000   1.0000   1.0000   1.0000   1.0000   1.0000   1.0000   1.0000
     1.0000   1.0000   1.0000   1.0000   1.0000   1.0000   1.0000   1.0000
     1.0000   1.0000   1.0000   1.0000   1.0000   1.0000   1.0000   1.0000
     1.0000   1.0000   1.0000   1.0000   1.0000   1.0000   1.0000   1.0000
     1.0000   1.0000   1.0000   1.0000   1.0000   1.0000   1.0000   1.0000
     1.0000   1.0000   1.0000   1.0000   1.0000   1.0000   1.0000   1.0000
     1.0000   1.0000   1.0000   1.0000   1.0000   1.0000   1.0000   1.0000
     1.0000   1.0000   1.0000   1.0000   1.0000   1.0000   1.0000   1.0000
     1.0000   1.0000   1.0000   1.0000   1.0000   1.0000   1.0000   1.0000
     1.0000   1.0000   1.0000   1.0000   1.0000   1.0000   1.0000   1.0000
     1.0000   1.0000   1.0000   1.0000   1.0000   1.0000   1.0000   1.0000
     1.0000   1.0000   1.0000   1.0000   1.0000   1.0000   1.0000   1.0000
     1.0000   1.0000   1.0000   1.0000   1.0000   1.0000   1.0000   1.0000
     1.0000   1.0000   1.0000   1.0000   1.0000   1.0000   1.0000   1.0000
     1.0000   1.0000   1.0000   1.0000   1.0000   1.0000   1.0000   1.0000
     1.0000   1.0000   1.0000   1.0000   1.0000   1.0000   1.0000   1.0000
     1.0000   1.0000   1.0000   1.0000   1.0000   1.0000   1.0000   1.0000
     1.0000   1.0000   1.0000   1.0000   1.0000   1.0000   1.0000   1.0000
     1.0000   1.0000   1.0000   1.0000   1.0000   1.0000   1.0000   1.0000
     1.0000   1.0000   1.0000   1.0000   1.0000   1.0000   1.0000   1.0000
     1.0000   1.0000   1.0000   1.0000   1.0000   1.0000   1.0000   1.0000
     1.0000   1.0000   1.0000   1.0000   1.0000   1.0000   1.0000   1.0000
     1.0000   1.0000   1.0000   1.0000   1.0000   1.0000   1.0000   1.0000
     1.0000   1.0000   1.0000   1.0000   1.0000   1.0000   1.0000   1.0000
     1.0000   1.0000   1.0000   1.0000   1.0000   1.0000   1.0000   1.0000
     1.0000   1.0000   1.0000   1.0000   1.0000   1.0000   1.0000   1.0000
     1.0000   1.0000   1.0000   1.0000   1.0000   1.0000   1.0000   1.0000
     1.0000   1.0000   1.0000   1.0000   1.0000   1.0000   1.0000   1.0000
     1.0000   1.0000   1.0000   1.0000   1.0000   1.0000   1.0000   1.0000
     1.0000   1.0000   1.0000   1.0000   1.0000   1.0000   1.0000   1.0000
     1.0000   1.0000   1.0000   1.0000   1.0000   1.0000   1.0000   1.0000
     1.0000   1.0000   1.0000   1.0000   1.0000   1.0000   1.0000   1.0000
     1.0000   1.0000   1.0000   1.0000   1.0000   1.0000   1.0000   1.0000
     1.0000   1.0000   1.0000   1.0000   1.0000   1.0000   1.0000   1.0000
     1.0000   1.0000   1.0000   1.0000   1.0000   1.0000   1.0000   1.0000
     1.0000   1.0000   1.0000   1.0000   1.0000   1.0000   1.0000   1.0000
     1.0000   1.0000   1.0000   1.0000   1.0000   1.0000   1.0000   1.0000
     1.0000   1.0000   1.0000   1.0000   1.0000   1.0000   1.0000   1.0000
     1.0000   1.0000   1.0000   1.0000   1.0000   1.0000   1.0000   1.0000
     1.0000   1.0000   1.0000   1.0000   1.0000   1.0000   1.0000   1.0000
     1.0000   1.0000   1.0000   1.0000

     highest occupied level (ev):     7.7201



               ==================================================
                            POLARIZATION CALCULATION
                         !!! NOT THOROUGHLY TESTED !!!
               --------------------------------------------------


                     K-POINTS STRINGS USED IN CALCULATIONS
                     ~~~~~~~~~~~~~~~~~~~~~~~~~~~~~~~~~~~~~

       G-vector along string (2 pi/a):  0.00001 -0.00021  0.92586
       Modulus of the vector (1/bohr):  0.31647
       Number of k-points per string:   8
       Number of different strings  :  10


                               IONIC POLARIZATION
                               ~~~~~~~~~~~~~~~~~~

        Note: (mod 1) means that the phases (angles ranging from
        -pi to pi) have been mapped to the interval [-1/2,+1/2) by
        dividing by 2*pi; (mod 2) refers to the interval [-1,+1)

  ============================================================================
    Ion    Species    Charge              Position                Phase
  ----------------------------------------------------------------------------
     1        Zn      20.000       0.1658  0.0972  0.2087    -0.13577 (mod 2)
     2        Zn      20.000       0.1687  0.0952  0.7490    -0.13161 (mod 2)
     3        Zn      20.000       0.0007  0.3851  0.2078    -0.15415 (mod 2)
     4        Zn      20.000       0.0005  0.3862  0.7475    -0.15946 (mod 2)
     5        Zn      20.000      -0.1659  0.6745  0.2099    -0.11576 (mod 2)
     6        Zn      20.000      -0.1657  0.6741  0.7498    -0.11827 (mod 2)
     7        Zn      20.000       0.4989  0.0965  0.2091    -0.12751 (mod 2)
     8        Zn      20.000       0.5005  0.0959  0.7488    -0.13399 (mod 2)
     9        Zn      20.000       0.3327  0.3863  0.2067    -0.17450 (mod 2)
    10        Mg      10.000       0.3350  0.3834  0.7490     0.93438 (mod 2)
    11        Mg      10.000       0.1669  0.6758  0.2086    -0.06972 (mod 2)
    12        Zn      20.000       0.1671  0.6738  0.7473    -0.16428 (mod 2)
    13        Zn      20.000       0.8349  0.0969  0.2081    -0.14618 (mod 2)
    14        Zn      20.000       0.8314  0.0963  0.7484    -0.14226 (mod 2)
    15        Mg      10.000       0.6668  0.3871  0.2103    -0.05385 (mod 2)
    16        Zn      20.000       0.6667  0.3851  0.7472    -0.16600 (mod 2)
    17        Zn      20.000       0.4998  0.6751  0.2083    -0.14514 (mod 2)
    18        Mg      10.000       0.5016  0.6745  0.7502     0.94466 (mod 2)
    19        Mg      10.000      -0.0010  0.1920  0.4804     0.44732 (mod 2)
    20        Zn      20.000      -0.0005  0.1923  1.0177     0.84490 (mod 2)
    21        Zn      20.000      -0.1650  0.4815  0.4792     0.87188 (mod 2)
    22        Zn      20.000      -0.1681  0.4806  1.0193     0.87271 (mod 2)
    23        Zn      20.000      -0.3330  0.7699  0.4789     0.86456 (mod 2)
    24        Zn      20.000      -0.3321  0.7705  1.0193     0.87175 (mod 2)
    25        Zn      20.000       0.3334  0.1935  0.4787     0.86425 (mod 2)
    26        Zn      20.000       0.3337  0.1915  1.0195     0.87809 (mod 2)
    27        Mg      10.000       0.1670  0.4812  0.4778     0.42313 (mod 2)
    28        Mg      10.000       0.1656  0.4824  1.0173    -0.58262 (mod 2)
    29        Zn      20.000      -0.0002  0.7712  0.4791     0.86898 (mod 2)
    30        Zn      20.000       0.0007  0.7704  1.0195     0.87494 (mod 2)
    31        Zn      20.000       0.6663  0.1915  0.4773     0.83680 (mod 2)
    32        Mg      10.000       0.6665  0.1934  1.0190    -0.56604 (mod 2)
    33        Zn      20.000       0.4985  0.4822  0.4778     0.84608 (mod 2)
    34        Zn      20.000       0.5021  0.4807  1.0178     0.84477 (mod 2)
    35        Zn      20.000       0.3341  0.7709  0.4787     0.86070 (mod 2)
    36        Zn      20.000       0.3324  0.7709  1.0184     0.85577 (mod 2)
    37        O        6.000       0.1662  0.0964  0.0046     0.02566 (mod 2)
    38        O        6.000       0.1666  0.0964  0.5442    -0.97675 (mod 2)
    39        O        6.000       0.0001  0.3848  0.0033     0.01789 (mod 2)
    40        O        6.000       0.0012  0.3846  0.5435    -0.98149 (mod 2)
    41        O        6.000      -0.1660  0.6732  0.0051     0.02719 (mod 2)
    42        O        6.000      -0.1663  0.6739  0.5453    -0.97167 (mod 2)
    43        O        6.000       0.5006  0.0963  0.0046     0.02539 (mod 2)
    44        O        6.000       0.4997  0.0970  0.5446    -0.97472 (mod 2)
    45        O        6.000       0.3329  0.3855  0.0018     0.00947 (mod 2)
    46        O        6.000       0.3328  0.3856  0.5453    -0.97122 (mod 2)
    47        O        6.000       0.1669  0.6733  0.0052     0.02808 (mod 2)
    48        O        6.000       0.1670  0.6737  0.5425    -0.98712 (mod 2)
    49        O        6.000       0.8330  0.0967  0.0037     0.02060 (mod 2)
    50        O        6.000       0.8327  0.0966  0.5443    -0.97634 (mod 2)
    51        O        6.000       0.6668  0.3843  0.0065     0.03546 (mod 2)
    52        O        6.000       0.6666  0.3853  0.5422    -0.98845 (mod 2)
    53        O        6.000       0.5002  0.6739  0.0032     0.01702 (mod 2)
    54        O        6.000       0.5004  0.6743  0.5460    -0.96779 (mod 2)
    55        O        6.000       0.0000  0.1933  0.2762    -0.46590 (mod 2)
    56        O        6.000       0.0001  0.1922  0.8126     0.51405 (mod 2)
    57        O        6.000      -0.1660  0.4818  0.2746    -0.47503 (mod 2)
    58        O        6.000      -0.1667  0.4809  0.8145     0.52395 (mod 2)
    59        O        6.000      -0.3333  0.7705  0.2744    -0.47640 (mod 2)
    60        O        6.000      -0.3323  0.7698  0.8153     0.52795 (mod 2)
    61        O        6.000       0.3328  0.1939  0.2741    -0.47744 (mod 2)
    62        O        6.000       0.3341  0.1920  0.8150     0.52721 (mod 2)
    63        O        6.000       0.1667  0.4832  0.2735    -0.48110 (mod 2)
    64        O        6.000       0.1683  0.4809  0.8132     0.51708 (mod 2)
    65        O        6.000       0.0004  0.7708  0.2749    -0.47363 (mod 2)
    66        O        6.000       0.0012  0.7698  0.8148     0.52562 (mod 2)
    67        O        6.000       0.6667  0.1935  0.2726    -0.48579 (mod 2)
    68        O        6.000       0.6663  0.1934  0.8152     0.52860 (mod 2)
    69        O        6.000       0.4994  0.4824  0.2737    -0.48019 (mod 2)
    70        O        6.000       0.5004  0.4817  0.8133     0.51766 (mod 2)
    71        O        6.000       0.3336  0.7710  0.2743    -0.47743 (mod 2)
    72        O        6.000       0.3339  0.7699  0.8140     0.52099 (mod 2)
  ----------------------------------------------------------------------------
                                               IONIC PHASE:  -0.66005 (mod 2)
  ============================================================================


                            ELECTRONIC POLARIZATION
                            ~~~~~~~~~~~~~~~~~~~~~~~

        Note: (mod 1) means that the phases (angles ranging from
        -pi to pi) have been mapped to the interval [-1/2,+1/2) by
        dividing by 2*pi; (mod 2) refers to the interval [-1,+1)

  ============================================================================
   Spin    String     Weight      First k-point in string         Phase
  ----------------------------------------------------------------------------
    up        1      0.062500      0.0000  0.0000  0.0000     0.17202 (mod 1)
    up        2      0.125000     -0.0001  0.2885 -0.0001     0.16683 (mod 1)
    up        3      0.062500      0.0003 -0.5771  0.0001     0.16382 (mod 1)
    up        4      0.125000      0.2499  0.1442 -0.0000     0.16688 (mod 1)
    up        5      0.125000      0.2498  0.4327 -0.0001     0.16381 (mod 1)
    up        6      0.125000      0.2502 -0.4329  0.0001     0.16379 (mod 1)
    up        7      0.125000      0.2501 -0.1444  0.0000     0.16686 (mod 1)
    up        8      0.062500     -0.4999 -0.2883  0.0001     0.16386 (mod 1)
    up        9      0.125000     -0.5000  0.0002 -0.0000     0.16382 (mod 1)
    up       10      0.062500     -0.4996 -0.8654  0.0002     0.16382 (mod 1)
  ----------------------------------------------------------------------------
   down       1      0.062500      0.0000  0.0000  0.0000     0.17202 (mod 1)
   down       2      0.125000     -0.0001  0.2885 -0.0001     0.16683 (mod 1)
   down       3      0.062500      0.0003 -0.5771  0.0001     0.16382 (mod 1)
   down       4      0.125000      0.2499  0.1442 -0.0000     0.16688 (mod 1)
   down       5      0.125000      0.2498  0.4327 -0.0001     0.16381 (mod 1)
   down       6      0.125000      0.2502 -0.4329  0.0001     0.16379 (mod 1)
   down       7      0.125000      0.2501 -0.1444  0.0000     0.16686 (mod 1)
   down       8      0.062500     -0.4999 -0.2883  0.0001     0.16386 (mod 1)
   down       9      0.125000     -0.5000  0.0002 -0.0000     0.16382 (mod 1)
   down      10      0.062500     -0.4996 -0.8654  0.0002     0.16382 (mod 1)
  ----------------------------------------------------------------------------
                                        Average phase (up):   0.16547 (mod 1)
                                      Average phase (down):   0.16547 (mod 1)
                                          ELECTRONIC PHASE:   0.33094 (mod 2)
  ============================================================================


                               SUMMARY OF PHASES
                               ~~~~~~~~~~~~~~~~~

                          Ionic Phase: -0.66005 (mod 2)
                     Electronic Phase:  0.33094 (mod 2)
                          TOTAL PHASE: -0.32911 (mod 2)


                             VALUES OF POLARIZATION
                             ~~~~~~~~~~~~~~~~~~~~~~

        The calculation of phases done along the direction of vector 3
        of the reciprocal lattice gives the following contribution to
        the polarization vector (in different units, and being Omega
        the volume of the unit cell):

           P =  -6.5340775  (mod  39.7073173)  (e/Omega).bohr

           P =  -0.0011242  (mod   0.0068315)  e/bohr^2

           P =  -0.0642701  (mod   0.3905670)  C/m^2

        The polarization direction is:  (-0.00002 , 0.00023 , 1.00000 )


               ==================================================



     Writing output data file ZnO.save/
 
     init_run     :      2.47s CPU      5.30s WALL (       1 calls)
     electrons    :   1653.07s CPU   1689.30s WALL (       1 calls)

     Called by init_run:
     wfcinit      :      0.00s CPU      0.00s WALL (       1 calls)
     wfcinit:atom :      0.05s CPU      0.18s WALL (      80 calls)
     wfcinit:wfcr :     71.22s CPU     73.36s WALL (      80 calls)
     potinit      :      0.20s CPU      0.25s WALL (       1 calls)
     hinit0       :      1.44s CPU      4.03s WALL (       1 calls)

     Called by electrons:
     c_bands      :   1189.83s CPU   1223.81s WALL (       1 calls)
     v_of_rho     :      0.15s CPU      0.17s WALL (       1 calls)
     v_h          :      0.01s CPU      0.01s WALL (       1 calls)
     v_xc         :      0.14s CPU      0.16s WALL (       1 calls)
     newd         :      0.09s CPU      0.13s WALL (       1 calls)

     Called by c_bands:
     init_us_2    :      0.66s CPU      0.71s WALL (     220 calls)
     cegterg      :   1116.24s CPU   1146.15s WALL (      80 calls)

     Called by sum_band:

     Called by *egterg:
     h_psi        :    452.19s CPU    464.55s WALL (    1196 calls)
     s_psi        :     38.32s CPU     38.42s WALL (    1196 calls)
     g_psi        :      0.33s CPU      0.33s WALL (    1036 calls)
     cdiaghg      :    397.54s CPU    404.93s WALL (    1116 calls)
     cegterg:over :     90.08s CPU    101.15s WALL (    1036 calls)
     cegterg:upda :     98.54s CPU     98.87s WALL (    1036 calls)
     cegterg:last :     93.13s CPU     93.44s WALL (     320 calls)
     cdiaghg:chol :     26.22s CPU     26.58s WALL (    1116 calls)
     cdiaghg:inve :     16.40s CPU     16.48s WALL (    1116 calls)
     cdiaghg:para :     81.23s CPU     85.52s WALL (    2232 calls)

     Called by h_psi:
     h_psi:pot    :    451.18s CPU    463.47s WALL (    1196 calls)
     h_psi:calbec :     55.54s CPU     64.39s WALL (    1196 calls)
     vloc_psi     :    357.05s CPU    359.89s WALL (    1196 calls)
     add_vuspsi   :     38.58s CPU     39.18s WALL (    1196 calls)

     General routines
     calbec       :     67.16s CPU     77.26s WALL (    1336 calls)
     fft          :      1.38s CPU      3.89s WALL (      13 calls)
     ffts         :      0.01s CPU      0.01s WALL (       1 calls)
     fftw         :    353.20s CPU    356.03s WALL (  779120 calls)
     interpolate  :      0.02s CPU      0.02s WALL (       1 calls)
 
     Parallel routines
     fft_scatt_xy :     10.06s CPU     10.13s WALL (  779134 calls)
     fft_scatt_yz :    304.17s CPU    309.14s WALL (  779134 calls)
 
     PWSCF        :  28m47.52s CPU  29m48.94s WALL

 
   This run was terminated on:   2:40:40  15Jul2022            

=------------------------------------------------------------------------------=
   JOB DONE.
=------------------------------------------------------------------------------=
