
     Program PWSCF v.6.4.1 starts on 15Jul2022 at  1:24:41 

     This program is part of the open-source Quantum ESPRESSO suite
     for quantum simulation of materials; please cite
         "P. Giannozzi et al., J. Phys.:Condens. Matter 21 395502 (2009);
         "P. Giannozzi et al., J. Phys.:Condens. Matter 29 465901 (2017);
          URL http://www.quantum-espresso.org", 
     in publications or presentations arising from this work. More details at
     http://www.quantum-espresso.org/quote

     Parallel version (MPI), running on   128 processors

     MPI processes distributed on     2 nodes
     K-points division:     npool     =       8
     R & G space division:  proc/nbgrp/npool/nimage =      16
     Waiting for input...
     Reading input from standard input
Warning: card &IONS ignored
Warning: card   UPSCALE           = 100.D0, ignored
Warning: card / ignored
Warning: card &CELL ignored
Warning: card   CELL_DYNAMICS     = 'BFGS' ignored
Warning: card   PRESS_CONV_THR    = 0.5D0 ignored
Warning: card   CELL_DOFREE = 'ALL' ignored
Warning: card / ignored

     Current dimensions of program PWSCF are:
     Max number of different atomic species (ntypx) = 10
     Max number of k-points (npk) =  40000
     Max angular momentum in pseudopotentials (lmaxx) =  3

     Subspace diagonalization in iterative solution of the eigenvalue problem:
     one sub-group per band group will be used
     scalapack distributed-memory algorithm (size of sub-group:  2*  2 procs)

 
     Parallelization info
     --------------------
     sticks:   dense  smooth     PW     G-vecs:    dense   smooth      PW
     Min         727     349     95                68580    22809    3284
     Max         728     350     96                68583    22814    3286
     Sum       11641    5599   1531              1097301   364987   52569
 


     bravais-lattice index     =            0
     lattice parameter (alat)  =      18.3770  a.u.
     unit-cell volume          =    5811.2876 (a.u.)^3
     number of atoms/cell      =           72
     number of atomic types    =            3
     number of electrons       =       876.00
     number of Kohn-Sham states=          526
     kinetic-energy cutoff     =      60.0000  Ry
     charge density cutoff     =     500.0000  Ry
     convergence threshold     =      1.0E-08
     mixing beta               =       0.5000
     number of iterations used =            8  plain     mixing
     Exchange-correlation      = SLA  PW   PSX  PSC ( 1  4 10  8 0 0)
     Using LIBXC version       =    4   3   4

     celldm(1)=  18.377017  celldm(2)=   0.000000  celldm(3)=   0.000000
     celldm(4)=   0.000000  celldm(5)=   0.000000  celldm(6)=   0.000000

     crystal axes: (cart. coord. in units of alat)
               a(1) = (   1.000000   0.000006   0.000017 )  
               a(2) = (  -0.499993   0.865992  -0.000022 )  
               a(3) = (   0.000019  -0.000017   1.081265 )  

     reciprocal axes: (cart. coord. in units 2 pi/alat)
               b(1) = (  0.999997  0.577363 -0.000009 )  
               b(2) = ( -0.000007  1.154742  0.000018 )  
               b(3) = ( -0.000016  0.000014  0.924843 )  


     PseudoPot. # 1 for Zn read from file:
     ./GBRV_PBEsol/zn_pbesol_v1.uspp.F.UPF
     MD5 check sum: 7d8615e52efe7c1e2b1899de8658bae2
     Pseudo is Ultrasoft, Zval = 20.0
     Generated by new atomic code, or converted to UPF format
     Using radial grid of  943 points,  6 beta functions with: 
                l(1) =   0
                l(2) =   0
                l(3) =   1
                l(4) =   1
                l(5) =   2
                l(6) =   2
     Q(r) pseudized with  8 coefficients,  rinner =    1.100   1.100   1.100
                                                       1.100   1.100

     PseudoPot. # 2 for O  read from file:
     ./GBRV_PBEsol/o_pbesol_v1.2.uspp.F.UPF
     MD5 check sum: 501638753501ef6325af9037351f7734
     Pseudo is Ultrasoft + core correction, Zval =  6.0
     Generated by new atomic code, or converted to UPF format
     Using radial grid of  737 points,  5 beta functions with: 
                l(1) =   0
                l(2) =   0
                l(3) =   1
                l(4) =   1
                l(5) =   2
     Q(r) pseudized with  8 coefficients,  rinner =    0.900   0.900   0.900
                                                       0.900   0.900

     PseudoPot. # 3 for Mg read from file:
     ./GBRV_PBEsol/mg_pbesol_v1.4.uspp.F.UPF
     MD5 check sum: 4059f37963cf5867752dbf5ab2400678
     Pseudo is Ultrasoft, Zval = 10.0
     Generated by new atomic code, or converted to UPF format
     Using radial grid of  821 points,  7 beta functions with: 
                l(1) =   0
                l(2) =   0
                l(3) =   0
                l(4) =   1
                l(5) =   1
                l(6) =   2
                l(7) =   2
     Q(r) pseudized with  8 coefficients,  rinner =    1.200   1.200   1.200
                                                       1.200   1.200

     atomic species   valence    mass     pseudopotential
        Zn            20.00    65.38000     Zn( 1.00)
        O              6.00    15.99900     O ( 1.00)
        Mg            10.00    24.30500     Mg( 1.00)

     No symmetry found


                                    s                        frac. trans.

      isym =  1     identity                                     

 cryst.   s( 1) = (     1          0          0      )
                  (     0          1          0      )
                  (     0          0          1      )

 cart.    s( 1) = (  1.0000000  0.0000000 -0.0000000 )
                  ( -0.0000000  1.0000000  0.0000000 )
                  ( -0.0000000 -0.0000000  1.0000000 )


   Cartesian axes

     site n.     atom                  positions (alat units)
         1           Zn  tau(   1) = (   0.1666675   0.0973772   0.2084995  )
         2           Zn  tau(   2) = (   0.4998314   0.0954053   0.2081771  )
         3           Zn  tau(   3) = (   0.8332109   0.0973695   0.2069724  )
         4           Zn  tau(   4) = (   0.0000110   0.3848398   0.2079296  )
         5           Zn  tau(   5) = (   0.3333019   0.3847791   0.2092407  )
         6           Zn  tau(   6) = (   0.6668840   0.3848872   0.2090229  )
         7           Zn  tau(   7) = (  -0.1648628   0.6732968   0.2082098  )
         8           Zn  tau(   8) = (   0.1648774   0.6732845   0.2083329  )
         9           Zn  tau(   9) = (   0.5002173   0.6727580   0.2062988  )
        10           Zn  tau(  10) = (   0.1659034   0.0951510   0.7497393  )
        11           Zn  tau(  11) = (   0.4993990   0.0977435   0.7496365  )
        12           Zn  tau(  12) = (   0.3340597   0.3847392   0.7503525  )
        13           Zn  tau(  13) = (   0.6659296   0.3846958   0.7504916  )
        14           Zn  tau(  14) = (  -0.1687186   0.6739948   0.7490677  )
        15           Zn  tau(  15) = (   0.1700064   0.6739853   0.7494693  )
        16           Zn  tau(  16) = (  -0.0007290   0.1928849   0.4785446  )
        17           Zn  tau(  17) = (   0.3335624   0.1927136   0.4799159  )
        18           Zn  tau(  18) = (   0.6666436   0.1925221   0.4789335  )
        19           Zn  tau(  19) = (  -0.1665730   0.4808908   0.4794148  )
        20           Zn  tau(  20) = (   0.1667560   0.4810361   0.4793399  )
        21           Zn  tau(  21) = (   0.5001026   0.4815385   0.4785403  )
        22           Zn  tau(  22) = (  -0.3339041   0.7689777   0.4773142  )
        23           Zn  tau(  23) = (   0.3340656   0.7696906   0.4765180  )
        24           Zn  tau(  24) = (   0.0004925   0.1922875   1.0183777  )
        25           Zn  tau(  25) = (   0.3328453   0.1930304   1.0203199  )
        26           Zn  tau(  26) = (   0.6661015   0.1932892   1.0196381  )
        27           Zn  tau(  27) = (  -0.1667023   0.4814763   1.0192460  )
        28           Zn  tau(  28) = (   0.1669411   0.4813463   1.0197533  )
        29           Zn  tau(  29) = (   0.5001866   0.4811330   1.0200207  )
        30           Zn  tau(  30) = (   0.0000898   0.7686064   1.0184126  )
        31           Mg  tau(  31) = (   0.8324755   0.0951363   0.7498098  )
        32           Mg  tau(  32) = (   0.0011765   0.3855254   0.7504672  )
        33           Mg  tau(  33) = (   0.4998697   0.6729047   0.7488222  )
        34           Mg  tau(  34) = (   0.0000941   0.7698321   0.4808286  )
        35           Mg  tau(  35) = (  -0.3315315   0.7698709   1.0208642  )
        36           Mg  tau(  36) = (   0.3318873   0.7685611   1.0208165  )
        37           O   tau(  37) = (   0.1666024   0.0962297   0.0043475  )
        38           O   tau(  38) = (   0.4997026   0.0956379   0.0038972  )
        39           O   tau(  39) = (   0.8331086   0.0958911   0.0025567  )
        40           O   tau(  40) = (   0.0000308   0.3846545   0.0033606  )
        41           O   tau(  41) = (   0.3335418   0.3851688   0.0049569  )
        42           O   tau(  42) = (   0.6667866   0.3852021   0.0048024  )
        43           O   tau(  43) = (  -0.1659654   0.6733887   0.0042998  )
        44           O   tau(  44) = (   0.1659000   0.6732346   0.0045093  )
        45           O   tau(  45) = (   0.5004064   0.6744455   0.0020033  )
        46           O   tau(  46) = (   0.1663077   0.0957973   0.5446346  )
        47           O   tau(  47) = (   0.5000655   0.0962716   0.5452893  )
        48           O   tau(  48) = (   0.8331384   0.0957746   0.5454305  )
        49           O   tau(  49) = (   0.0001355   0.3849895   0.5462773  )
        50           O   tau(  50) = (   0.3335500   0.3850909   0.5455509  )
        51           O   tau(  51) = (   0.6665924   0.3849011   0.5453713  )
        52           O   tau(  52) = (  -0.1669745   0.6736970   0.5445751  )
        53           O   tau(  53) = (   0.1673345   0.6738652   0.5446340  )
        54           O   tau(  54) = (   0.4998681   0.6737310   0.5449258  )
        55           O   tau(  55) = (  -0.0003252   0.1926599   0.2743877  )
        56           O   tau(  56) = (   0.3336067   0.1924003   0.2751909  )
        57           O   tau(  57) = (   0.6664355   0.1922947   0.2744306  )
        58           O   tau(  58) = (  -0.1663548   0.4809681   0.2748572  )
        59           O   tau(  59) = (   0.1664476   0.4809205   0.2748443  )
        60           O   tau(  60) = (   0.5000879   0.4812162   0.2744754  )
        61           O   tau(  61) = (  -0.3330645   0.7696615   0.2726104  )
        62           O   tau(  62) = (   0.0000231   0.7700009   0.2768020  )
        63           O   tau(  63) = (   0.3332598   0.7698377   0.2719555  )
        64           O   tau(  64) = (  -0.0010319   0.1926943   0.8139065  )
        65           O   tau(  65) = (   0.3323331   0.1922327   0.8158207  )
        66           O   tau(  66) = (   0.6667087   0.1922716   0.8153658  )
        67           O   tau(  67) = (  -0.1664282   0.4810193   0.8149497  )
        68           O   tau(  68) = (   0.1673861   0.4815091   0.8155340  )
        69           O   tau(  69) = (   0.5001005   0.4812709   0.8155062  )
        70           O   tau(  70) = (  -0.3344794   0.7692893   0.8168190  )
        71           O   tau(  71) = (   0.0003583   0.7694827   0.8134057  )
        72           O   tau(  72) = (   0.3351136   0.7700762   0.8168624  )

   Crystallographic axes

     site n.     atom                  positions (cryst. coord.)
         1           Zn  tau(   1) = (  0.2228872  0.1124481  0.1928279  )
         2           Zn  tau(   2) = (  0.5549115  0.1101688  0.1925244  )
         3           Zn  tau(   3) = (  0.8894239  0.1124348  0.1914049  )
         4           Zn  tau(   4) = (  0.2222016  0.4443943  0.1923077  )
         5           Zn  tau(   5) = (  0.5554564  0.4443220  0.1935148  )
         6           Zn  tau(   6) = (  0.8890997  0.4444446  0.1933080  )
         7           Zn  tau(   7) = (  0.2238729  0.7774888  0.1925736  )
         8           Zn  tau(   8) = (  0.5536049  0.7774724  0.1926821  )
         9           Zn  tau(   9) = (  0.8886397  0.7768621  0.1907954  )
        10           Zn  tau(  10) = (  0.2208331  0.1098870  0.6933895  )
        11           Zn  tau(  11) = (  0.5558245  0.1128784  0.6932891  )
        12           Zn  tau(  12) = (  0.5561865  0.4442855  0.6939580  )
        13           Zn  tau(  13) = (  0.8880302  0.4442332  0.6940813  )
        14           Zn  tau(  14) = (  0.2204155  0.7783045  0.6927820  )
        15           Zn  tau(  15) = (  0.5591338  0.7782911  0.6931480  )
        16           Zn  tau(  16) = (  0.1106316  0.2227407  0.4425812  )
        17           Zn  tau(  17) = (  0.4448230  0.2225407  0.4438440  )
        18           Zn  tau(  18) = (  0.7777925  0.2223173  0.4429301  )
        19           Zn  tau(  19) = (  0.1110722  0.5553144  0.4433927  )
        20           Zn  tau(  20) = (  0.4444840  0.5554799  0.4433181  )
        21           Zn  tau(  21) = (  0.7781195  0.5560578  0.4425733  )
        22           Zn  tau(  22) = (  0.1100725  0.8879814  0.4414569  )
        23           Zn  tau(  23) = (  0.7784515  0.8888001  0.4407097  )
        24           Zn  tau(  24) = (  0.1115036  0.2220604  0.9418418  )
        25           Zn  tau(  25) = (  0.4442842  0.2229161  0.9436326  )
        26           Zn  tau(  26) = (  0.7776887  0.2232127  0.9429967  )
        27           Zn  tau(  27) = (  0.1112764  0.5560000  0.9426516  )
        28           Zn  tau(  28) = (  0.4448436  0.5558477  0.9431154  )
        29           Zn  tau(  29) = (  0.7779649  0.5555992  0.9433573  )
        30           Zn  tau(  30) = (  0.4438463  0.8875601  0.9418822  )
        31           Mg  tau(  31) = (  0.8873945  0.1098655  0.6934440  )
        32           Mg  tau(  32) = (  0.2237583  0.4451956  0.6940695  )
        33           Mg  tau(  33) = (  0.8883722  0.7770411  0.6925442  )
        34           Mg  tau(  34) = (  0.4445628  0.8889659  0.4447017  )
        35           Mg  tau(  35) = (  0.1129562  0.8890225  0.9441549  )
        36           Mg  tau(  36) = (  0.7756165  0.8875055  0.9441001  )
        37           O   tau(  37) = (  0.2221614  0.1111195  0.0040195  )
        38           O   tau(  38) = (  0.5549187  0.1104337  0.0035976  )
        39           O   tau(  39) = (  0.8884698  0.1107239  0.0023525  )
        40           O   tau(  40) = (  0.2221162  0.4441767  0.0031135  )
        41           O   tau(  41) = (  0.5559230  0.4447684  0.0045845  )
        42           O   tau(  42) = (  0.8891859  0.4448046  0.0044362  )
        43           O   tau(  43) = (  0.2228251  0.7775913  0.0039889  )
        44           O   tau(  44) = (  0.5546003  0.7774111  0.0041773  )
        45           O   tau(  45) = (  0.8898048  0.7788071  0.0018543  )
        46           O   tau(  46) = (  0.2216124  0.1106297  0.5036999  )
        47           O   tau(  47) = (  0.5556428  0.1111751  0.5043001  )
        48           O   tau(  48) = (  0.8884277  0.1105991  0.5044252  )
        49           O   tau(  49) = (  0.2224097  0.4445732  0.5052260  )
        50           O   tau(  50) = (  0.5558816  0.4446880  0.5045488  )
        51           O   tau(  51) = (  0.8888133  0.4444666  0.5043773  )
        52           O   tau(  52) = (  0.2219894  0.7779569  0.5036585  )
        53           O   tau(  53) = (  0.5563944  0.7781489  0.5037076  )
        54           O   tau(  54) = (  0.8888493  0.7779917  0.5039721  )
        55           O   tau(  55) = (  0.1109072  0.2224773  0.2537682  )
        56           O   tau(  56) = (  0.4446881  0.2221753  0.2545056  )
        57           O   tau(  57) = (  0.7774549  0.2220512  0.2537971  )
        58           O   tau(  58) = (  0.1113368  0.5554000  0.2542091  )
        59           O   tau(  59) = (  0.4441106  0.5553428  0.2541919  )
        60           O   tau(  60) = (  0.7779205  0.5556821  0.2538454  )
        61           O   tau(  61) = (  0.1113086  0.8887675  0.2521380  )
        62           O   tau(  62) = (  0.4445910  0.8891571  0.2560093  )
        63           O   tau(  63) = (  0.7777324  0.8889664  0.2515217  )
        64           O   tau(  64) = (  0.1102158  0.2225265  0.7527381  )
        65           O   tau(  65) = (  0.4433132  0.2219914  0.7545031  )
        66           O   tau(  66) = (  0.7777101  0.2220340  0.7540770  )
        67           O   tau(  67) = (  0.1112884  0.5554687  0.7537097  )
        68           O   tau(  68) = (  0.4453843  0.5560320  0.7542447  )
        69           O   tau(  69) = (  0.7779601  0.5557548  0.7542136  )
        70           O   tau(  70) = (  0.1096742  0.8883472  0.7554453  )
        71           O   tau(  71) = (  0.4446225  0.8885683  0.7522832  )
        72           O   tau(  72) = (  0.7797193  0.8892515  0.7554747  )

     number of k points=    36  Marzari-Vanderbilt smearing, width (Ry)=  0.0010
                       cart. coord. in units 2pi/alat
        k(    1) = (   0.0000000   0.0000000   0.0000000), wk =   0.0312500
        k(    2) = (  -0.0000040   0.0000036   0.2312106), wk =   0.0625000
        k(    3) = (   0.0000081  -0.0000071  -0.4624213), wk =   0.0312500
        k(    4) = (  -0.0000017   0.2886855   0.0000044), wk =   0.0625000
        k(    5) = (  -0.0000057   0.2886890   0.2312151), wk =   0.0625000
        k(    6) = (   0.0000064   0.2886783  -0.4624168), wk =   0.0625000
        k(    7) = (   0.0000023   0.2886819  -0.2312062), wk =   0.0625000
        k(    8) = (   0.0000034  -0.5773709  -0.0000089), wk =   0.0312500
        k(    9) = (  -0.0000007  -0.5773674   0.2312018), wk =   0.0625000
        k(   10) = (   0.0000114  -0.5773781  -0.4624301), wk =   0.0312500
        k(   11) = (   0.2499992   0.1443408  -0.0000021), wk =   0.0625000
        k(   12) = (   0.2499951   0.1443444   0.2312085), wk =   0.0625000
        k(   13) = (   0.2500072   0.1443337  -0.4624234), wk =   0.0625000
        k(   14) = (   0.2500032   0.1443373  -0.2312128), wk =   0.0625000
        k(   15) = (   0.2499975   0.4330263   0.0000023), wk =   0.0625000
        k(   16) = (   0.2499935   0.4330299   0.2312129), wk =   0.0625000
        k(   17) = (   0.2500055   0.4330192  -0.4624190), wk =   0.0625000
        k(   18) = (   0.2500015   0.4330227  -0.2312083), wk =   0.0625000
        k(   19) = (   0.2500025  -0.4330301  -0.0000110), wk =   0.0625000
        k(   20) = (   0.2499985  -0.4330265   0.2311997), wk =   0.0625000
        k(   21) = (   0.2500106  -0.4330372  -0.4624322), wk =   0.0625000
        k(   22) = (   0.2500065  -0.4330337  -0.2312216), wk =   0.0625000
        k(   23) = (   0.2500008  -0.1443446  -0.0000066), wk =   0.0625000
        k(   24) = (   0.2499968  -0.1443411   0.2312041), wk =   0.0625000
        k(   25) = (   0.2500089  -0.1443518  -0.4624278), wk =   0.0625000
        k(   26) = (   0.2500049  -0.1443482  -0.2312172), wk =   0.0625000
        k(   27) = (  -0.4999983  -0.2886817   0.0000043), wk =   0.0312500
        k(   28) = (  -0.5000023  -0.2886781   0.2312149), wk =   0.0625000
        k(   29) = (  -0.4999903  -0.2886888  -0.4624170), wk =   0.0312500
        k(   30) = (  -0.5000000   0.0000038   0.0000087), wk =   0.0625000
        k(   31) = (  -0.5000040   0.0000074   0.2312193), wk =   0.0625000
        k(   32) = (  -0.4999919  -0.0000033  -0.4624126), wk =   0.0625000
        k(   33) = (  -0.4999960   0.0000002  -0.2312020), wk =   0.0625000
        k(   34) = (  -0.4999950  -0.8660526  -0.0000046), wk =   0.0312500
        k(   35) = (  -0.4999990  -0.8660490   0.2312060), wk =   0.0625000
        k(   36) = (  -0.4999869  -0.8660597  -0.4624259), wk =   0.0312500

                       cryst. coord.
        k(    1) = (   0.0000000   0.0000000   0.0000000), wk =   0.0312500
        k(    2) = (  -0.0000000   0.0000000   0.2500000), wk =   0.0625000
        k(    3) = (   0.0000000  -0.0000000  -0.5000000), wk =   0.0312500
        k(    4) = (  -0.0000000   0.2500000   0.0000000), wk =   0.0625000
        k(    5) = (  -0.0000000   0.2500000   0.2500000), wk =   0.0625000
        k(    6) = (   0.0000000   0.2500000  -0.5000000), wk =   0.0625000
        k(    7) = (  -0.0000000   0.2500000  -0.2500000), wk =   0.0625000
        k(    8) = (   0.0000000  -0.5000000  -0.0000000), wk =   0.0312500
        k(    9) = (  -0.0000000  -0.5000000   0.2500000), wk =   0.0625000
        k(   10) = (   0.0000000  -0.5000000  -0.5000000), wk =   0.0312500
        k(   11) = (   0.2500000   0.0000000  -0.0000000), wk =   0.0625000
        k(   12) = (   0.2500000   0.0000000   0.2500000), wk =   0.0625000
        k(   13) = (   0.2500000   0.0000000  -0.5000000), wk =   0.0625000
        k(   14) = (   0.2500000   0.0000000  -0.2500000), wk =   0.0625000
        k(   15) = (   0.2500000   0.2500000  -0.0000000), wk =   0.0625000
        k(   16) = (   0.2500000   0.2500000   0.2500000), wk =   0.0625000
        k(   17) = (   0.2500000   0.2500000  -0.5000000), wk =   0.0625000
        k(   18) = (   0.2500000   0.2500000  -0.2500000), wk =   0.0625000
        k(   19) = (   0.2500000  -0.5000000   0.0000000), wk =   0.0625000
        k(   20) = (   0.2500000  -0.5000000   0.2500000), wk =   0.0625000
        k(   21) = (   0.2500000  -0.5000000  -0.5000000), wk =   0.0625000
        k(   22) = (   0.2500000  -0.5000000  -0.2500000), wk =   0.0625000
        k(   23) = (   0.2500000  -0.2500000   0.0000000), wk =   0.0625000
        k(   24) = (   0.2500000  -0.2500000   0.2500000), wk =   0.0625000
        k(   25) = (   0.2500000  -0.2500000  -0.5000000), wk =   0.0625000
        k(   26) = (   0.2500000  -0.2500000  -0.2500000), wk =   0.0625000
        k(   27) = (  -0.5000000  -0.0000000   0.0000000), wk =   0.0312500
        k(   28) = (  -0.5000000  -0.0000000   0.2500000), wk =   0.0625000
        k(   29) = (  -0.5000000  -0.0000000  -0.5000000), wk =   0.0312500
        k(   30) = (  -0.5000000   0.2500000   0.0000000), wk =   0.0625000
        k(   31) = (  -0.5000000   0.2500000   0.2500000), wk =   0.0625000
        k(   32) = (  -0.5000000   0.2500000  -0.5000000), wk =   0.0625000
        k(   33) = (  -0.5000000   0.2500000  -0.2500000), wk =   0.0625000
        k(   34) = (  -0.5000000  -0.5000000   0.0000000), wk =   0.0312500
        k(   35) = (  -0.5000000  -0.5000000   0.2500000), wk =   0.0625000
        k(   36) = (  -0.5000000  -0.5000000  -0.5000000), wk =   0.0312500

     Dense  grid:  1097301 G-vectors     FFT dimensions: ( 135, 135, 144)

     Smooth grid:   364987 G-vectors     FFT dimensions: (  96,  96, 100)

     Dynamical RAM for                 wfc:      22.87 MB

     Dynamical RAM for     wfc (w. buffer):     137.25 MB

     Dynamical RAM for           str. fact:       3.14 MB

     Dynamical RAM for           local pot:       0.00 MB

     Dynamical RAM for          nlocal pot:      48.79 MB

     Dynamical RAM for                qrad:      20.97 MB

     Dynamical RAM for          rho,v,vnew:       6.89 MB

     Dynamical RAM for               rhoin:       2.30 MB

     Dynamical RAM for            rho*nmix:      16.74 MB

     Dynamical RAM for           G-vectors:       4.10 MB

     Dynamical RAM for          h,s,v(r/c):      50.66 MB

     Dynamical RAM for          <psi|beta>:       9.01 MB

     Dynamical RAM for                 psi:      91.50 MB

     Dynamical RAM for                hpsi:      91.50 MB

     Dynamical RAM for                spsi:      91.50 MB

     Dynamical RAM for      wfcinit/wfcrot:      56.34 MB

     Dynamical RAM for           addusdens:      32.44 MB

     Estimated static dynamical RAM per process >     250.62 MB

     Estimated max dynamical RAM per process >     584.78 MB

     Estimated total dynamical RAM >      73.10 GB

     Check: negative core charge=   -0.000002

     Initial potential from superposition of free atoms

     starting charge  874.19467, renormalised to  876.00000
     Starting wfcs are  564 randomized atomic wfcs

     total cpu time spent up to now is       18.0 secs

     Self-consistent Calculation

     iteration #  1     ecut=    60.00 Ry     beta= 0.50
     Davidson diagonalization with overlap
     ethr =  1.00E-02,  avg # of iterations =  4.5

     total cpu time spent up to now is       94.7 secs

     total energy              =  -15745.11448871 Ry
     Harris-Foulkes estimate   =  -15756.38364945 Ry
     estimated scf accuracy    <      17.23708272 Ry

     iteration #  2     ecut=    60.00 Ry     beta= 0.50
     Davidson diagonalization with overlap
     ethr =  1.97E-03,  avg # of iterations =  3.9

     total cpu time spent up to now is      193.4 secs

     total energy              =  -15750.02255258 Ry
     Harris-Foulkes estimate   =  -15753.94068164 Ry
     estimated scf accuracy    <       9.01617305 Ry

     iteration #  3     ecut=    60.00 Ry     beta= 0.50
     Davidson diagonalization with overlap
     ethr =  1.03E-03,  avg # of iterations =  2.3

     total cpu time spent up to now is      253.4 secs

     total energy              =  -15751.67509716 Ry
     Harris-Foulkes estimate   =  -15751.74944935 Ry
     estimated scf accuracy    <       0.19299323 Ry

     iteration #  4     ecut=    60.00 Ry     beta= 0.50
     Davidson diagonalization with overlap
     ethr =  2.20E-05,  avg # of iterations =  4.8

     total cpu time spent up to now is      372.7 secs

     total energy              =  -15751.69864965 Ry
     Harris-Foulkes estimate   =  -15751.73380123 Ry
     estimated scf accuracy    <       0.10048449 Ry

     iteration #  5     ecut=    60.00 Ry     beta= 0.50
     Davidson diagonalization with overlap
     ethr =  1.15E-05,  avg # of iterations =  4.3

     total cpu time spent up to now is      450.3 secs

     total energy              =  -15751.71319977 Ry
     Harris-Foulkes estimate   =  -15751.71445716 Ry
     estimated scf accuracy    <       0.00409515 Ry

     iteration #  6     ecut=    60.00 Ry     beta= 0.50
     Davidson diagonalization with overlap
     ethr =  4.67E-07,  avg # of iterations =  2.0

     total cpu time spent up to now is      511.3 secs

     total energy              =  -15751.71390908 Ry
     Harris-Foulkes estimate   =  -15751.71412790 Ry
     estimated scf accuracy    <       0.00058078 Ry

     iteration #  7     ecut=    60.00 Ry     beta= 0.50
     Davidson diagonalization with overlap
     ethr =  6.63E-08,  avg # of iterations =  2.0

     total cpu time spent up to now is      567.2 secs

     total energy              =  -15751.71403452 Ry
     Harris-Foulkes estimate   =  -15751.71404971 Ry
     estimated scf accuracy    <       0.00009288 Ry

     iteration #  8     ecut=    60.00 Ry     beta= 0.50
     Davidson diagonalization with overlap
     ethr =  1.06E-08,  avg # of iterations =  2.0

     total cpu time spent up to now is      618.7 secs

     total energy              =  -15751.71405381 Ry
     Harris-Foulkes estimate   =  -15751.71405387 Ry
     estimated scf accuracy    <       0.00001784 Ry

     iteration #  9     ecut=    60.00 Ry     beta= 0.50
     Davidson diagonalization with overlap
     ethr =  2.04E-09,  avg # of iterations =  2.0

     total cpu time spent up to now is      677.5 secs

     total energy              =  -15751.71405718 Ry
     Harris-Foulkes estimate   =  -15751.71405764 Ry
     estimated scf accuracy    <       0.00000259 Ry

     iteration # 10     ecut=    60.00 Ry     beta= 0.50
     Davidson diagonalization with overlap
     ethr =  2.95E-10,  avg # of iterations =  2.0

     total cpu time spent up to now is      728.6 secs

     total energy              =  -15751.71405767 Ry
     Harris-Foulkes estimate   =  -15751.71405772 Ry
     estimated scf accuracy    <       0.00000043 Ry

     iteration # 11     ecut=    60.00 Ry     beta= 0.50
     Davidson diagonalization with overlap
     ethr =  4.90E-11,  avg # of iterations =  2.0

     total cpu time spent up to now is      780.2 secs

     total energy              =  -15751.71405777 Ry
     Harris-Foulkes estimate   =  -15751.71405776 Ry
     estimated scf accuracy    <       0.00000005 Ry

     iteration # 12     ecut=    60.00 Ry     beta= 0.50
     Davidson diagonalization with overlap
     ethr =  5.36E-12,  avg # of iterations =  2.0

     total cpu time spent up to now is      834.0 secs

     End of self-consistent calculation

          k = 0.0000 0.0000 0.0000 ( 45709 PWs)   bands (ev):

  -115.0285-115.0260-115.0214-115.0204-115.0195-115.0193-115.0188-115.0170
  -115.0166-115.0161-115.0145-115.0137-115.0130-115.0118-115.0118-115.0116
  -115.0098-115.0092-115.0088-115.0082-115.0059-115.0056-115.0050-115.0045
  -115.0034-115.0033-115.0018-115.0016-114.9997-114.9959 -69.3880 -69.3851
   -69.3848 -69.3832 -69.3800 -69.3799 -69.3795 -69.3794 -69.3790 -69.3784
   -69.3783 -69.3779 -69.3767 -69.3764 -69.3759 -69.3751 -69.3750 -69.3743
   -69.3741 -69.3737 -69.3732 -69.3732 -69.3728 -69.3725 -69.3724 -69.3723
   -69.3723 -69.3718 -69.3717 -69.3717 -69.3715 -69.3711 -69.3708 -69.3704
   -69.3701 -69.3701 -69.3699 -69.3698 -69.3695 -69.3691 -69.3689 -69.3689
   -69.3688 -69.3676 -69.3673 -69.3673 -69.3672 -69.3668 -69.3660 -69.3659
   -69.3658 -69.3656 -69.3655 -69.3652 -69.3651 -69.3650 -69.3648 -69.3645
   -69.3644 -69.3643 -69.3640 -69.3636 -69.3634 -69.3631 -69.3630 -69.3627
   -69.3622 -69.3620 -69.3618 -69.3616 -69.3610 -69.3605 -69.3601 -69.3598
   -69.3592 -69.3589 -69.3588 -69.3588 -69.3582 -69.3581 -69.3580 -69.3571
   -69.3571 -69.3566 -69.3565 -69.3558 -69.3546 -69.3532 -69.3531 -69.3493
   -64.5195 -64.5147 -64.5051 -64.5041 -64.4955 -64.4906 -31.5065 -31.5042
   -31.5032 -31.5019 -31.5005 -31.4986 -31.4969 -31.4946 -31.4923 -31.4906
   -31.4887 -31.4852 -31.4833 -31.4802 -31.4784 -31.4765 -31.4738 -31.4713
    -9.7663  -9.4224  -9.4069  -9.3249  -9.3092  -9.3028  -9.2622  -9.2481
    -9.2297  -9.1265  -9.1204  -9.1002  -9.0895  -9.0848  -9.0613  -9.0542
    -9.0142  -9.0057  -8.9960  -8.9813  -8.9776  -8.9691  -8.9648  -8.9292
    -8.9174  -8.8736  -8.8524  -8.8379  -8.8345  -8.8071  -8.8028  -8.7970
    -8.7592  -8.7068  -8.6592  -8.5320   2.0226   2.0322   2.0414   2.0519
     2.0644   2.0788   2.0866   2.0940   2.1183   2.1391   2.1625   2.1673
     2.1789   2.2097   2.2215   2.2424   2.2745   2.2788   2.2834   2.3641
     2.4040   2.4297   2.4357   2.4378   2.4619   2.4641   2.4804   2.4894
     2.5013   2.5219   2.5315   2.5387   2.5458   2.5550   2.5625   2.5767
     2.5912   2.6008   2.6126   2.6224   2.6282   2.6461   2.6516   2.6626
     2.6797   2.6893   2.6958   2.7016   2.7177   2.7225   2.7379   2.7490
     2.7717   2.7747   2.7796   2.7808   2.7869   2.7884   2.7911   2.8005
     2.8044   2.8047   2.8154   2.8222   2.8307   2.8464   2.8528   2.8659
     2.8723   2.9010   2.9024   2.9128   2.9302   2.9531   2.9638   2.9838
     3.0239   3.0518   3.0737   3.0878   3.1012   3.1118   3.1276   3.1427
     3.1709   3.1757   3.1890   3.2240   3.2319   3.2374   3.2493   3.2899
     3.3011   3.3146   3.3431   3.3678   3.3875   3.4026   3.4191   3.4331
     3.4479   3.4811   3.4974   3.5106   3.5239   3.5291   3.5404   3.5446
     3.5542   3.5738   3.5813   3.5952   3.6007   3.6072   3.6192   3.6264
     3.6326   3.6349   3.6446   3.6552   3.6558   3.6600   3.6673   3.6726
     3.6819   3.6854   3.6872   3.6915   3.6970   3.7001   3.7045   3.7080
     3.7109   3.7247   3.7309   3.7405   3.7456   3.7549   3.7601   3.7653
     3.7715   3.7769   3.7946   3.8159   3.8704   3.8919   3.9089   3.9157
     3.9274   3.9591   3.9662   4.0597   4.0689   4.0917   4.1557   4.1757
     4.2004   4.2655   4.2884   4.3086   4.3204   4.3602   4.3885   4.3976
     4.4418   4.5476   4.5738   4.6017   4.6271   4.6761   4.7274   4.7710
     4.8094   4.8248   4.8403   4.8592   4.8864   4.9097   4.9543   4.9733
     5.0401   5.0606   5.1001   5.1481   5.1889   5.3154   5.3314   5.3486
     5.3645   5.5516   5.5853   5.6061   5.6708   5.7393   5.7641   5.8425
     5.8616   6.0214   6.0569   6.0848   6.0994   6.1126   6.1401   6.1733
     6.1929   6.2387   6.2511   6.2843   6.2968   6.3419   6.4010   6.4256
     6.4597   6.5089   6.5566   6.5918   6.6228   6.6483   6.6601   6.6625
     6.6853   6.6927   6.7152   6.7257   6.7424   6.7621   6.7759   6.7837
     6.7940   6.8153   6.8265   6.8454   6.8664   6.8775   6.8814   6.8994
     6.9209   7.0999   7.1340   7.1610   7.1691   7.1911   7.2012   7.2097
     7.2405   7.2980   7.3216   7.3694   7.3943   7.4398   7.4501   7.5787
     7.5935   7.6054   7.6131   7.8703   7.9615   7.9674   9.0170  11.5881
    11.6043  12.2914  12.3247  12.3585  12.4178  12.4721  12.5207  13.2479
    13.2506  13.2600  13.2710  13.2928  13.3009  13.3152  13.4046  13.4331
    13.4909  13.5499  13.6255  13.7447  15.3845  15.4017  15.4487  15.4687
    15.4962  15.5109  15.5363  15.6162  15.7579  15.7686  15.7858  15.7992
    15.8163  15.8446  15.8541  15.8702  15.8902  15.9089  15.9458  15.9525
    15.9653  16.0260  16.0289  16.0564  16.1625  16.1936  16.2157  16.2601
    16.4294  16.7779  16.7858  16.7972  16.8088  16.8187  16.8339  16.8513
    16.8669  16.8793  16.8816  16.8903  16.8942  16.9121  16.9130  16.9214
    16.9298  17.4783  17.5815  17.9057  17.9590  17.9931  18.0832  18.2817
    18.3225  18.6939  18.7262  18.7443  18.9025  18.9614  19.0110  19.0711
    19.0907  19.1346  19.1847  19.2289  19.2587  19.2690

     occupation numbers 
     1.0000   1.0000   1.0000   1.0000   1.0000   1.0000   1.0000   1.0000
     1.0000   1.0000   1.0000   1.0000   1.0000   1.0000   1.0000   1.0000
     1.0000   1.0000   1.0000   1.0000   1.0000   1.0000   1.0000   1.0000
     1.0000   1.0000   1.0000   1.0000   1.0000   1.0000   1.0000   1.0000
     1.0000   1.0000   1.0000   1.0000   1.0000   1.0000   1.0000   1.0000
     1.0000   1.0000   1.0000   1.0000   1.0000   1.0000   1.0000   1.0000
     1.0000   1.0000   1.0000   1.0000   1.0000   1.0000   1.0000   1.0000
     1.0000   1.0000   1.0000   1.0000   1.0000   1.0000   1.0000   1.0000
     1.0000   1.0000   1.0000   1.0000   1.0000   1.0000   1.0000   1.0000
     1.0000   1.0000   1.0000   1.0000   1.0000   1.0000   1.0000   1.0000
     1.0000   1.0000   1.0000   1.0000   1.0000   1.0000   1.0000   1.0000
     1.0000   1.0000   1.0000   1.0000   1.0000   1.0000   1.0000   1.0000
     1.0000   1.0000   1.0000   1.0000   1.0000   1.0000   1.0000   1.0000
     1.0000   1.0000   1.0000   1.0000   1.0000   1.0000   1.0000   1.0000
     1.0000   1.0000   1.0000   1.0000   1.0000   1.0000   1.0000   1.0000
     1.0000   1.0000   1.0000   1.0000   1.0000   1.0000   1.0000   1.0000
     1.0000   1.0000   1.0000   1.0000   1.0000   1.0000   1.0000   1.0000
     1.0000   1.0000   1.0000   1.0000   1.0000   1.0000   1.0000   1.0000
     1.0000   1.0000   1.0000   1.0000   1.0000   1.0000   1.0000   1.0000
     1.0000   1.0000   1.0000   1.0000   1.0000   1.0000   1.0000   1.0000
     1.0000   1.0000   1.0000   1.0000   1.0000   1.0000   1.0000   1.0000
     1.0000   1.0000   1.0000   1.0000   1.0000   1.0000   1.0000   1.0000
     1.0000   1.0000   1.0000   1.0000   1.0000   1.0000   1.0000   1.0000
     1.0000   1.0000   1.0000   1.0000   1.0000   1.0000   1.0000   1.0000
     1.0000   1.0000   1.0000   1.0000   1.0000   1.0000   1.0000   1.0000
     1.0000   1.0000   1.0000   1.0000   1.0000   1.0000   1.0000   1.0000
     1.0000   1.0000   1.0000   1.0000   1.0000   1.0000   1.0000   1.0000
     1.0000   1.0000   1.0000   1.0000   1.0000   1.0000   1.0000   1.0000
     1.0000   1.0000   1.0000   1.0000   1.0000   1.0000   1.0000   1.0000
     1.0000   1.0000   1.0000   1.0000   1.0000   1.0000   1.0000   1.0000
     1.0000   1.0000   1.0000   1.0000   1.0000   1.0000   1.0000   1.0000
     1.0000   1.0000   1.0000   1.0000   1.0000   1.0000   1.0000   1.0000
     1.0000   1.0000   1.0000   1.0000   1.0000   1.0000   1.0000   1.0000
     1.0000   1.0000   1.0000   1.0000   1.0000   1.0000   1.0000   1.0000
     1.0000   1.0000   1.0000   1.0000   1.0000   1.0000   1.0000   1.0000
     1.0000   1.0000   1.0000   1.0000   1.0000   1.0000   1.0000   1.0000
     1.0000   1.0000   1.0000   1.0000   1.0000   1.0000   1.0000   1.0000
     1.0000   1.0000   1.0000   1.0000   1.0000   1.0000   1.0000   1.0000
     1.0000   1.0000   1.0000   1.0000   1.0000   1.0000   1.0000   1.0000
     1.0000   1.0000   1.0000   1.0000   1.0000   1.0000   1.0000   1.0000
     1.0000   1.0000   1.0000   1.0000   1.0000   1.0000   1.0000   1.0000
     1.0000   1.0000   1.0000   1.0000   1.0000   1.0000   1.0000   1.0000
     1.0000   1.0000   1.0000   1.0000   1.0000   1.0000   1.0000   1.0000
     1.0000   1.0000   1.0000   1.0000   1.0000   1.0000   1.0000   1.0000
     1.0000   1.0000   1.0000   1.0000   1.0000   1.0000   1.0000   1.0000
     1.0000   1.0000   1.0000   1.0000   1.0000   1.0000   1.0000   1.0000
     1.0000   1.0000   1.0000   1.0000   1.0000   1.0000   1.0000   1.0000
     1.0000   1.0000   1.0000   1.0000   1.0000   1.0000   1.0000   1.0000
     1.0000   1.0000   1.0000   1.0000   1.0000   1.0000   1.0000   1.0000
     1.0000   1.0000   1.0000   1.0000   1.0000   1.0000   1.0000   1.0000
     1.0000   1.0000   1.0000   1.0000   1.0000   1.0000   1.0000   1.0000
     1.0000   1.0000   1.0000   1.0000   1.0000   1.0000   1.0000   1.0000
     1.0000   1.0000   1.0000   1.0000   1.0000   1.0000   1.0000   1.0000
     1.0000   1.0000   1.0000   1.0000   1.0000   1.0000   1.0000   1.0000
     1.0000   1.0000   1.0000   1.0000   1.0000   1.0000   0.0000   0.0000
     0.0000   0.0000   0.0000   0.0000   0.0000   0.0000   0.0000   0.0000
     0.0000   0.0000   0.0000   0.0000   0.0000   0.0000   0.0000   0.0000
     0.0000   0.0000   0.0000   0.0000   0.0000   0.0000   0.0000   0.0000
     0.0000   0.0000   0.0000   0.0000   0.0000   0.0000   0.0000   0.0000
     0.0000   0.0000   0.0000   0.0000   0.0000   0.0000   0.0000   0.0000
     0.0000   0.0000   0.0000   0.0000   0.0000   0.0000   0.0000   0.0000
     0.0000   0.0000   0.0000   0.0000   0.0000   0.0000   0.0000   0.0000
     0.0000   0.0000   0.0000   0.0000   0.0000   0.0000   0.0000   0.0000
     0.0000   0.0000   0.0000   0.0000   0.0000   0.0000   0.0000   0.0000
     0.0000   0.0000   0.0000   0.0000   0.0000   0.0000   0.0000   0.0000
     0.0000   0.0000   0.0000   0.0000   0.0000   0.0000

          k =-0.0000 0.0000 0.2312 ( 45613 PWs)   bands (ev):

  -115.0285-115.0260-115.0214-115.0204-115.0195-115.0193-115.0188-115.0170
  -115.0166-115.0161-115.0145-115.0137-115.0130-115.0118-115.0118-115.0116
  -115.0098-115.0092-115.0088-115.0082-115.0059-115.0056-115.0050-115.0045
  -115.0034-115.0033-115.0018-115.0016-114.9997-114.9959 -69.3880 -69.3851
   -69.3848 -69.3832 -69.3800 -69.3799 -69.3795 -69.3794 -69.3790 -69.3784
   -69.3783 -69.3779 -69.3767 -69.3764 -69.3759 -69.3751 -69.3750 -69.3743
   -69.3741 -69.3737 -69.3732 -69.3732 -69.3728 -69.3725 -69.3724 -69.3723
   -69.3723 -69.3718 -69.3717 -69.3717 -69.3715 -69.3711 -69.3708 -69.3704
   -69.3701 -69.3701 -69.3699 -69.3698 -69.3695 -69.3691 -69.3689 -69.3689
   -69.3688 -69.3676 -69.3673 -69.3673 -69.3672 -69.3668 -69.3660 -69.3659
   -69.3658 -69.3656 -69.3655 -69.3652 -69.3651 -69.3650 -69.3648 -69.3645
   -69.3644 -69.3643 -69.3640 -69.3636 -69.3634 -69.3631 -69.3630 -69.3627
   -69.3622 -69.3620 -69.3618 -69.3616 -69.3610 -69.3605 -69.3601 -69.3598
   -69.3592 -69.3589 -69.3588 -69.3588 -69.3582 -69.3581 -69.3580 -69.3571
   -69.3571 -69.3566 -69.3565 -69.3558 -69.3546 -69.3532 -69.3531 -69.3493
   -64.5195 -64.5147 -64.5051 -64.5041 -64.4955 -64.4906 -31.5065 -31.5042
   -31.5032 -31.5019 -31.5005 -31.4986 -31.4969 -31.4946 -31.4923 -31.4906
   -31.4887 -31.4852 -31.4833 -31.4802 -31.4784 -31.4765 -31.4738 -31.4713
    -9.7434  -9.5398  -9.3177  -9.3061  -9.2953  -9.2779  -9.2522  -9.2402
    -9.2163  -9.1899  -9.1539  -9.1454  -9.1181  -9.0789  -9.0610  -9.0312
    -9.0268  -9.0028  -8.9797  -8.9695  -8.9648  -8.9454  -8.9339  -8.9210
    -8.9169  -8.8759  -8.8538  -8.8412  -8.8392  -8.8151  -8.8062  -8.8006
    -8.7609  -8.7114  -8.6617  -8.5333   2.0352   2.0411   2.0495   2.0672
     2.0727   2.0841   2.1177   2.1204   2.1389   2.1600   2.1774   2.1852
     2.2034   2.2238   2.2309   2.2535   2.2747   2.2873   2.3148   2.3727
     2.4111   2.4215   2.4305   2.4339   2.4425   2.4541   2.4634   2.4723
     2.4905   2.4993   2.5126   2.5263   2.5390   2.5456   2.5571   2.5664
     2.5744   2.5908   2.5972   2.6170   2.6286   2.6393   2.6531   2.6678
     2.6772   2.6851   2.6916   2.7064   2.7242   2.7298   2.7414   2.7550
     2.7593   2.7694   2.7741   2.7818   2.7865   2.7886   2.7942   2.8007
     2.8062   2.8122   2.8157   2.8303   2.8349   2.8444   2.8504   2.8668
     2.8806   2.8984   2.9006   2.9136   2.9309   2.9425   2.9551   2.9598
     3.0018   3.0160   3.0276   3.0429   3.0507   3.0659   3.0780   3.1022
     3.1247   3.1405   3.1631   3.1720   3.1920   3.2182   3.2412   3.2586
     3.2872   3.3154   3.3268   3.3744   3.3837   3.3989   3.4316   3.4423
     3.4540   3.4693   3.4850   3.4972   3.5169   3.5264   3.5406   3.5495
     3.5586   3.5737   3.5963   3.6012   3.6029   3.6147   3.6157   3.6272
     3.6351   3.6362   3.6434   3.6511   3.6539   3.6590   3.6631   3.6688
     3.6743   3.6801   3.6892   3.7006   3.7101   3.7170   3.7214   3.7319
     3.7358   3.7416   3.7450   3.7504   3.7542   3.7582   3.7619   3.7663
     3.7817   3.7937   3.8054   3.8249   3.8475   3.8517   3.8759   3.8981
     3.9070   3.9412   4.0489   4.1782   4.1974   4.2079   4.2293   4.2571
     4.2766   4.3035   4.3205   4.3449   4.3620   4.3775   4.4208   4.4299
     4.4519   4.5317   4.5644   4.6172   4.6324   4.6778   4.7520   4.7710
     4.8160   4.8376   4.8536   4.8670   4.9084   4.9246   4.9312   4.9916
     5.0193   5.0245   5.0848   5.1046   5.1558   5.1869   5.2107   5.2998
     5.5581   5.5994   5.6293   5.6740   5.7233   5.7383   5.7766   5.8181
     5.9384   5.9788   6.0472   6.0642   6.1117   6.1198   6.1586   6.1709
     6.1784   6.2000   6.2156   6.2209   6.2425   6.2596   6.2612   6.2717
     6.3044   6.3191   6.3789   6.4955   6.5179   6.5440   6.5884   6.6013
     6.6128   6.6217   6.6369   6.6666   6.7131   6.7945   6.8492   6.8911
     6.9246   6.9351   6.9707   6.9928   7.0033   7.0259   7.0382   7.0594
     7.0802   7.1398   7.1688   7.1847   7.1997   7.2125   7.2268   7.2351
     7.2548   7.2922   7.3080   7.3457   7.3644   7.4056   7.4108   7.4779
     7.4812   7.5715   7.7077   7.7157   7.9435   7.9486   9.3846  10.8479
    12.2419  12.3231  12.3541  12.3882  12.4402  12.4872  12.5480  12.7677
    12.8240  12.8650  12.9202  13.0207  13.1239  13.4281  13.8660  13.9046
    13.9512  13.9837  14.0529  14.1001  15.0789  15.1068  15.1475  15.1640
    15.2005  15.2691  15.4681  15.4713  15.7144  15.7220  15.7767  15.7877
    15.7956  15.8689  15.8925  15.9228  15.9536  16.0057  16.0203  16.0289
    16.0738  16.1418  16.1582  16.2061  16.2931  16.3179  16.3413  16.3673
    16.5098  16.7260  16.7543  16.7849  16.7880  16.8048  16.8111  16.8216
    16.8628  16.8818  16.8935  16.9055  16.9453  16.9707  17.0420  17.0527
    17.0686  17.1899  17.5708  17.7831  17.8523  17.9087  17.9712  18.0864
    18.4182  18.5016  18.5393  18.7195  18.8457  18.8936  18.9189  18.9452
    18.9567  18.9859  19.0654  19.2200  19.3004  19.4792

     occupation numbers 
     1.0000   1.0000   1.0000   1.0000   1.0000   1.0000   1.0000   1.0000
     1.0000   1.0000   1.0000   1.0000   1.0000   1.0000   1.0000   1.0000
     1.0000   1.0000   1.0000   1.0000   1.0000   1.0000   1.0000   1.0000
     1.0000   1.0000   1.0000   1.0000   1.0000   1.0000   1.0000   1.0000
     1.0000   1.0000   1.0000   1.0000   1.0000   1.0000   1.0000   1.0000
     1.0000   1.0000   1.0000   1.0000   1.0000   1.0000   1.0000   1.0000
     1.0000   1.0000   1.0000   1.0000   1.0000   1.0000   1.0000   1.0000
     1.0000   1.0000   1.0000   1.0000   1.0000   1.0000   1.0000   1.0000
     1.0000   1.0000   1.0000   1.0000   1.0000   1.0000   1.0000   1.0000
     1.0000   1.0000   1.0000   1.0000   1.0000   1.0000   1.0000   1.0000
     1.0000   1.0000   1.0000   1.0000   1.0000   1.0000   1.0000   1.0000
     1.0000   1.0000   1.0000   1.0000   1.0000   1.0000   1.0000   1.0000
     1.0000   1.0000   1.0000   1.0000   1.0000   1.0000   1.0000   1.0000
     1.0000   1.0000   1.0000   1.0000   1.0000   1.0000   1.0000   1.0000
     1.0000   1.0000   1.0000   1.0000   1.0000   1.0000   1.0000   1.0000
     1.0000   1.0000   1.0000   1.0000   1.0000   1.0000   1.0000   1.0000
     1.0000   1.0000   1.0000   1.0000   1.0000   1.0000   1.0000   1.0000
     1.0000   1.0000   1.0000   1.0000   1.0000   1.0000   1.0000   1.0000
     1.0000   1.0000   1.0000   1.0000   1.0000   1.0000   1.0000   1.0000
     1.0000   1.0000   1.0000   1.0000   1.0000   1.0000   1.0000   1.0000
     1.0000   1.0000   1.0000   1.0000   1.0000   1.0000   1.0000   1.0000
     1.0000   1.0000   1.0000   1.0000   1.0000   1.0000   1.0000   1.0000
     1.0000   1.0000   1.0000   1.0000   1.0000   1.0000   1.0000   1.0000
     1.0000   1.0000   1.0000   1.0000   1.0000   1.0000   1.0000   1.0000
     1.0000   1.0000   1.0000   1.0000   1.0000   1.0000   1.0000   1.0000
     1.0000   1.0000   1.0000   1.0000   1.0000   1.0000   1.0000   1.0000
     1.0000   1.0000   1.0000   1.0000   1.0000   1.0000   1.0000   1.0000
     1.0000   1.0000   1.0000   1.0000   1.0000   1.0000   1.0000   1.0000
     1.0000   1.0000   1.0000   1.0000   1.0000   1.0000   1.0000   1.0000
     1.0000   1.0000   1.0000   1.0000   1.0000   1.0000   1.0000   1.0000
     1.0000   1.0000   1.0000   1.0000   1.0000   1.0000   1.0000   1.0000
     1.0000   1.0000   1.0000   1.0000   1.0000   1.0000   1.0000   1.0000
     1.0000   1.0000   1.0000   1.0000   1.0000   1.0000   1.0000   1.0000
     1.0000   1.0000   1.0000   1.0000   1.0000   1.0000   1.0000   1.0000
     1.0000   1.0000   1.0000   1.0000   1.0000   1.0000   1.0000   1.0000
     1.0000   1.0000   1.0000   1.0000   1.0000   1.0000   1.0000   1.0000
     1.0000   1.0000   1.0000   1.0000   1.0000   1.0000   1.0000   1.0000
     1.0000   1.0000   1.0000   1.0000   1.0000   1.0000   1.0000   1.0000
     1.0000   1.0000   1.0000   1.0000   1.0000   1.0000   1.0000   1.0000
     1.0000   1.0000   1.0000   1.0000   1.0000   1.0000   1.0000   1.0000
     1.0000   1.0000   1.0000   1.0000   1.0000   1.0000   1.0000   1.0000
     1.0000   1.0000   1.0000   1.0000   1.0000   1.0000   1.0000   1.0000
     1.0000   1.0000   1.0000   1.0000   1.0000   1.0000   1.0000   1.0000
     1.0000   1.0000   1.0000   1.0000   1.0000   1.0000   1.0000   1.0000
     1.0000   1.0000   1.0000   1.0000   1.0000   1.0000   1.0000   1.0000
     1.0000   1.0000   1.0000   1.0000   1.0000   1.0000   1.0000   1.0000
     1.0000   1.0000   1.0000   1.0000   1.0000   1.0000   1.0000   1.0000
     1.0000   1.0000   1.0000   1.0000   1.0000   1.0000   1.0000   1.0000
     1.0000   1.0000   1.0000   1.0000   1.0000   1.0000   1.0000   1.0000
     1.0000   1.0000   1.0000   1.0000   1.0000   1.0000   1.0000   1.0000
     1.0000   1.0000   1.0000   1.0000   1.0000   1.0000   1.0000   1.0000
     1.0000   1.0000   1.0000   1.0000   1.0000   1.0000   1.0000   1.0000
     1.0000   1.0000   1.0000   1.0000   1.0000   1.0000   1.0000   1.0000
     1.0000   1.0000   1.0000   1.0000   1.0000   1.0000   1.0000   1.0000
     1.0000   1.0000   1.0000   1.0000   1.0000   1.0000   0.0000   0.0000
     0.0000   0.0000   0.0000   0.0000   0.0000   0.0000   0.0000   0.0000
     0.0000   0.0000   0.0000   0.0000   0.0000   0.0000   0.0000   0.0000
     0.0000   0.0000   0.0000   0.0000   0.0000   0.0000   0.0000   0.0000
     0.0000   0.0000   0.0000   0.0000   0.0000   0.0000   0.0000   0.0000
     0.0000   0.0000   0.0000   0.0000   0.0000   0.0000   0.0000   0.0000
     0.0000   0.0000   0.0000   0.0000   0.0000   0.0000   0.0000   0.0000
     0.0000   0.0000   0.0000   0.0000   0.0000   0.0000   0.0000   0.0000
     0.0000   0.0000   0.0000   0.0000   0.0000   0.0000   0.0000   0.0000
     0.0000   0.0000   0.0000   0.0000   0.0000   0.0000   0.0000   0.0000
     0.0000   0.0000   0.0000   0.0000   0.0000   0.0000   0.0000   0.0000
     0.0000   0.0000   0.0000   0.0000   0.0000   0.0000

          k = 0.0000-0.0000-0.4624 ( 45528 PWs)   bands (ev):

  -115.0285-115.0260-115.0214-115.0204-115.0195-115.0193-115.0188-115.0170
  -115.0166-115.0161-115.0145-115.0137-115.0130-115.0118-115.0118-115.0116
  -115.0098-115.0092-115.0088-115.0082-115.0059-115.0056-115.0050-115.0045
  -115.0034-115.0033-115.0018-115.0016-114.9997-114.9959 -69.3880 -69.3851
   -69.3848 -69.3832 -69.3800 -69.3799 -69.3795 -69.3794 -69.3790 -69.3784
   -69.3783 -69.3779 -69.3767 -69.3764 -69.3759 -69.3751 -69.3750 -69.3743
   -69.3741 -69.3737 -69.3732 -69.3732 -69.3728 -69.3725 -69.3724 -69.3723
   -69.3723 -69.3718 -69.3717 -69.3717 -69.3715 -69.3711 -69.3708 -69.3704
   -69.3701 -69.3701 -69.3699 -69.3698 -69.3695 -69.3691 -69.3689 -69.3689
   -69.3688 -69.3676 -69.3673 -69.3673 -69.3672 -69.3668 -69.3660 -69.3659
   -69.3658 -69.3656 -69.3655 -69.3652 -69.3651 -69.3650 -69.3648 -69.3645
   -69.3644 -69.3643 -69.3640 -69.3636 -69.3634 -69.3631 -69.3630 -69.3627
   -69.3622 -69.3619 -69.3619 -69.3616 -69.3610 -69.3605 -69.3601 -69.3598
   -69.3592 -69.3589 -69.3588 -69.3588 -69.3582 -69.3581 -69.3580 -69.3571
   -69.3571 -69.3566 -69.3565 -69.3558 -69.3546 -69.3532 -69.3531 -69.3493
   -64.5195 -64.5147 -64.5051 -64.5041 -64.4955 -64.4906 -31.5065 -31.5042
   -31.5032 -31.5019 -31.5005 -31.4986 -31.4969 -31.4946 -31.4923 -31.4906
   -31.4887 -31.4852 -31.4833 -31.4802 -31.4783 -31.4765 -31.4738 -31.4713
    -9.7025  -9.6175  -9.2894  -9.2845  -9.2776  -9.2502  -9.2358  -9.2332
    -9.2279  -9.1945  -9.1846  -9.1725  -9.1513  -9.0991  -9.0813  -9.0569
    -8.9963  -8.9832  -8.9652  -8.9617  -8.9473  -8.9376  -8.9280  -8.9052
    -8.9005  -8.8801  -8.8554  -8.8485  -8.8397  -8.8274  -8.8124  -8.8022
    -8.7623  -8.7166  -8.6643  -8.5345   2.0481   2.0572   2.0652   2.0749
     2.0901   2.0947   2.1168   2.1323   2.1525   2.1700   2.1857   2.2141
     2.2650   2.2790   2.2874   2.2937   2.3062   2.3153   2.3299   2.3519
     2.3557   2.3820   2.4085   2.4206   2.4282   2.4319   2.4370   2.4465
     2.4610   2.4692   2.4852   2.5099   2.5345   2.5408   2.5533   2.5753
     2.5861   2.5936   2.6074   2.6170   2.6229   2.6441   2.6480   2.6720
     2.6791   2.6809   2.6867   2.7043   2.7136   2.7275   2.7312   2.7369
     2.7484   2.7576   2.7601   2.7777   2.7798   2.7883   2.7980   2.8047
     2.8081   2.8225   2.8331   2.8408   2.8568   2.8638   2.8695   2.8882
     2.8897   2.8947   2.9040   2.9148   2.9183   2.9244   2.9365   2.9407
     2.9520   2.9606   2.9654   2.9762   2.9914   3.0075   3.0154   3.0919
     3.1200   3.1268   3.1499   3.1571   3.1688   3.2057   3.2361   3.2433
     3.2722   3.2989   3.3152   3.3593   3.3695   3.4042   3.4080   3.4572
     3.4727   3.4804   3.4959   3.5056   3.5194   3.5273   3.5368   3.5599
     3.5713   3.5827   3.5878   3.5906   3.5958   3.6035   3.6082   3.6187
     3.6259   3.6277   3.6336   3.6460   3.6505   3.6572   3.6621   3.6696
     3.6848   3.6877   3.6944   3.7056   3.7196   3.7288   3.7359   3.7368
     3.7454   3.7499   3.7536   3.7574   3.7663   3.7759   3.7803   3.7865
     3.7978   3.8061   3.8120   3.8277   3.8380   3.8454   3.8613   3.8818
     3.9027   3.9032   4.1783   4.2274   4.2411   4.2568   4.2888   4.3173
     4.3290   4.3485   4.3582   4.4086   4.4262   4.4585   4.4818   4.4864
     4.5391   4.5667   4.5752   4.6017   4.6290   4.6532   4.6628   4.7070
     4.7227   4.7611   4.7716   4.8437   4.9003   4.9334   4.9582   5.0451
     5.0666   5.1106   5.1421   5.1756   5.1899   5.2234   5.2608   5.2986
     5.5650   5.5776   5.6766   5.6896   5.7221   5.7429   5.7566   5.7692
     5.8016   5.8293   5.8870   5.9347   5.9499   5.9647   6.0505   6.0594
     6.2087   6.2594   6.2847   6.2901   6.3012   6.3456   6.3610   6.3819
     6.3940   6.4055   6.4103   6.4138   6.4255   6.4499   6.4633   6.4759
     6.4878   6.5028   6.5058   6.5218   6.7028   6.8773   6.9175   6.9602
     6.9951   7.0085   7.0347   7.1024   7.1212   7.1235   7.1511   7.1653
     7.1862   7.1986   7.2084   7.2136   7.2296   7.2397   7.2454   7.2488
     7.2719   7.2757   7.2983   7.3093   7.3194   7.3263   7.3350   7.3557
     7.3950   7.4025   7.7687   7.7755   7.9177   7.9220  10.0001  10.1630
    12.4271  12.4441  12.4449  12.4690  12.4838  12.4908  12.5064  12.5990
    12.6213  12.6373  12.7972  12.8333  13.0401  13.1799  14.4718  14.4992
    14.5071  14.5144  14.5388  14.5484  14.5874  14.6104  14.6355  14.6536
    14.7113  14.7918  15.5384  15.5409  15.6290  15.6331  15.7769  15.7853
    15.7897  15.8923  15.9051  15.9424  15.9456  15.9789  16.0232  16.0275
    16.0964  16.2079  16.4486  16.4617  16.4773  16.4939  16.4962  16.5316
    16.5950  16.6075  16.6589  16.6696  16.6837  16.7356  16.7682  16.7878
    16.8637  16.8675  16.8812  16.8942  16.9022  16.9148  17.1016  17.2656
    17.3444  17.3767  17.4793  17.6935  17.7345  17.7561  17.8535  18.0328
    18.1857  18.2438  18.3589  18.5664  18.7850  18.8352  18.8580  18.8781
    18.8909  18.9313  19.0946  19.2350  19.4434  19.6802

     occupation numbers 
     1.0000   1.0000   1.0000   1.0000   1.0000   1.0000   1.0000   1.0000
     1.0000   1.0000   1.0000   1.0000   1.0000   1.0000   1.0000   1.0000
     1.0000   1.0000   1.0000   1.0000   1.0000   1.0000   1.0000   1.0000
     1.0000   1.0000   1.0000   1.0000   1.0000   1.0000   1.0000   1.0000
     1.0000   1.0000   1.0000   1.0000   1.0000   1.0000   1.0000   1.0000
     1.0000   1.0000   1.0000   1.0000   1.0000   1.0000   1.0000   1.0000
     1.0000   1.0000   1.0000   1.0000   1.0000   1.0000   1.0000   1.0000
     1.0000   1.0000   1.0000   1.0000   1.0000   1.0000   1.0000   1.0000
     1.0000   1.0000   1.0000   1.0000   1.0000   1.0000   1.0000   1.0000
     1.0000   1.0000   1.0000   1.0000   1.0000   1.0000   1.0000   1.0000
     1.0000   1.0000   1.0000   1.0000   1.0000   1.0000   1.0000   1.0000
     1.0000   1.0000   1.0000   1.0000   1.0000   1.0000   1.0000   1.0000
     1.0000   1.0000   1.0000   1.0000   1.0000   1.0000   1.0000   1.0000
     1.0000   1.0000   1.0000   1.0000   1.0000   1.0000   1.0000   1.0000
     1.0000   1.0000   1.0000   1.0000   1.0000   1.0000   1.0000   1.0000
     1.0000   1.0000   1.0000   1.0000   1.0000   1.0000   1.0000   1.0000
     1.0000   1.0000   1.0000   1.0000   1.0000   1.0000   1.0000   1.0000
     1.0000   1.0000   1.0000   1.0000   1.0000   1.0000   1.0000   1.0000
     1.0000   1.0000   1.0000   1.0000   1.0000   1.0000   1.0000   1.0000
     1.0000   1.0000   1.0000   1.0000   1.0000   1.0000   1.0000   1.0000
     1.0000   1.0000   1.0000   1.0000   1.0000   1.0000   1.0000   1.0000
     1.0000   1.0000   1.0000   1.0000   1.0000   1.0000   1.0000   1.0000
     1.0000   1.0000   1.0000   1.0000   1.0000   1.0000   1.0000   1.0000
     1.0000   1.0000   1.0000   1.0000   1.0000   1.0000   1.0000   1.0000
     1.0000   1.0000   1.0000   1.0000   1.0000   1.0000   1.0000   1.0000
     1.0000   1.0000   1.0000   1.0000   1.0000   1.0000   1.0000   1.0000
     1.0000   1.0000   1.0000   1.0000   1.0000   1.0000   1.0000   1.0000
     1.0000   1.0000   1.0000   1.0000   1.0000   1.0000   1.0000   1.0000
     1.0000   1.0000   1.0000   1.0000   1.0000   1.0000   1.0000   1.0000
     1.0000   1.0000   1.0000   1.0000   1.0000   1.0000   1.0000   1.0000
     1.0000   1.0000   1.0000   1.0000   1.0000   1.0000   1.0000   1.0000
     1.0000   1.0000   1.0000   1.0000   1.0000   1.0000   1.0000   1.0000
     1.0000   1.0000   1.0000   1.0000   1.0000   1.0000   1.0000   1.0000
     1.0000   1.0000   1.0000   1.0000   1.0000   1.0000   1.0000   1.0000
     1.0000   1.0000   1.0000   1.0000   1.0000   1.0000   1.0000   1.0000
     1.0000   1.0000   1.0000   1.0000   1.0000   1.0000   1.0000   1.0000
     1.0000   1.0000   1.0000   1.0000   1.0000   1.0000   1.0000   1.0000
     1.0000   1.0000   1.0000   1.0000   1.0000   1.0000   1.0000   1.0000
     1.0000   1.0000   1.0000   1.0000   1.0000   1.0000   1.0000   1.0000
     1.0000   1.0000   1.0000   1.0000   1.0000   1.0000   1.0000   1.0000
     1.0000   1.0000   1.0000   1.0000   1.0000   1.0000   1.0000   1.0000
     1.0000   1.0000   1.0000   1.0000   1.0000   1.0000   1.0000   1.0000
     1.0000   1.0000   1.0000   1.0000   1.0000   1.0000   1.0000   1.0000
     1.0000   1.0000   1.0000   1.0000   1.0000   1.0000   1.0000   1.0000
     1.0000   1.0000   1.0000   1.0000   1.0000   1.0000   1.0000   1.0000
     1.0000   1.0000   1.0000   1.0000   1.0000   1.0000   1.0000   1.0000
     1.0000   1.0000   1.0000   1.0000   1.0000   1.0000   1.0000   1.0000
     1.0000   1.0000   1.0000   1.0000   1.0000   1.0000   1.0000   1.0000
     1.0000   1.0000   1.0000   1.0000   1.0000   1.0000   1.0000   1.0000
     1.0000   1.0000   1.0000   1.0000   1.0000   1.0000   1.0000   1.0000
     1.0000   1.0000   1.0000   1.0000   1.0000   1.0000   1.0000   1.0000
     1.0000   1.0000   1.0000   1.0000   1.0000   1.0000   1.0000   1.0000
     1.0000   1.0000   1.0000   1.0000   1.0000   1.0000   1.0000   1.0000
     1.0000   1.0000   1.0000   1.0000   1.0000   1.0000   1.0000   1.0000
     1.0000   1.0000   1.0000   1.0000   1.0000   1.0000   0.0000   0.0000
     0.0000   0.0000   0.0000   0.0000   0.0000   0.0000   0.0000   0.0000
     0.0000   0.0000   0.0000   0.0000   0.0000   0.0000   0.0000   0.0000
     0.0000   0.0000   0.0000   0.0000   0.0000   0.0000   0.0000   0.0000
     0.0000   0.0000   0.0000   0.0000   0.0000   0.0000   0.0000   0.0000
     0.0000   0.0000   0.0000   0.0000   0.0000   0.0000   0.0000   0.0000
     0.0000   0.0000   0.0000   0.0000   0.0000   0.0000   0.0000   0.0000
     0.0000   0.0000   0.0000   0.0000   0.0000   0.0000   0.0000   0.0000
     0.0000   0.0000   0.0000   0.0000   0.0000   0.0000   0.0000   0.0000
     0.0000   0.0000   0.0000   0.0000   0.0000   0.0000   0.0000   0.0000
     0.0000   0.0000   0.0000   0.0000   0.0000   0.0000   0.0000   0.0000
     0.0000   0.0000   0.0000   0.0000   0.0000   0.0000

          k =-0.0000 0.2887 0.0000 ( 45591 PWs)   bands (ev):

  -115.0285-115.0260-115.0214-115.0204-115.0195-115.0193-115.0188-115.0170
  -115.0166-115.0161-115.0145-115.0137-115.0130-115.0118-115.0118-115.0116
  -115.0098-115.0092-115.0088-115.0082-115.0059-115.0056-115.0050-115.0045
  -115.0034-115.0033-115.0018-115.0016-114.9997-114.9959 -69.3880 -69.3851
   -69.3848 -69.3832 -69.3801 -69.3799 -69.3795 -69.3794 -69.3790 -69.3784
   -69.3783 -69.3779 -69.3767 -69.3764 -69.3759 -69.3751 -69.3750 -69.3743
   -69.3741 -69.3737 -69.3732 -69.3732 -69.3728 -69.3725 -69.3724 -69.3724
   -69.3723 -69.3718 -69.3717 -69.3717 -69.3715 -69.3711 -69.3708 -69.3704
   -69.3701 -69.3701 -69.3699 -69.3698 -69.3695 -69.3691 -69.3689 -69.3689
   -69.3688 -69.3676 -69.3673 -69.3673 -69.3672 -69.3668 -69.3661 -69.3659
   -69.3658 -69.3656 -69.3655 -69.3652 -69.3651 -69.3650 -69.3648 -69.3645
   -69.3644 -69.3643 -69.3640 -69.3636 -69.3634 -69.3631 -69.3630 -69.3627
   -69.3622 -69.3620 -69.3618 -69.3616 -69.3610 -69.3605 -69.3601 -69.3598
   -69.3592 -69.3589 -69.3588 -69.3588 -69.3582 -69.3581 -69.3580 -69.3571
   -69.3571 -69.3566 -69.3564 -69.3558 -69.3546 -69.3532 -69.3531 -69.3493
   -64.5195 -64.5147 -64.5051 -64.5041 -64.4955 -64.4906 -31.5065 -31.5042
   -31.5032 -31.5019 -31.5005 -31.4986 -31.4969 -31.4946 -31.4923 -31.4906
   -31.4887 -31.4852 -31.4833 -31.4802 -31.4784 -31.4765 -31.4738 -31.4713
    -9.7290  -9.4563  -9.4013  -9.3825  -9.3578  -9.3298  -9.2063  -9.1909
    -9.1745  -9.1496  -9.1426  -9.1304  -9.1047  -9.0979  -9.0748  -9.0366
    -9.0047  -9.0011  -8.9847  -8.9780  -8.9672  -8.9490  -8.9400  -8.9259
    -8.9145  -8.8846  -8.8598  -8.8525  -8.8399  -8.8207  -8.8011  -8.7806
    -8.7555  -8.7159  -8.6541  -8.5312   2.0369   2.0443   2.0670   2.0765
     2.0838   2.1032   2.1145   2.1277   2.1436   2.1601   2.1805   2.1920
     2.2083   2.2365   2.2430   2.2576   2.2648   2.2877   2.3056   2.3391
     2.3647   2.3882   2.4155   2.4248   2.4325   2.4564   2.4624   2.4843
     2.5019   2.5080   2.5242   2.5488   2.5512   2.5571   2.5627   2.5729
     2.5872   2.5900   2.6052   2.6100   2.6284   2.6351   2.6546   2.6631
     2.6741   2.6770   2.6886   2.6905   2.7027   2.7143   2.7187   2.7253
     2.7372   2.7447   2.7554   2.7656   2.7681   2.7751   2.7856   2.7934
     2.7958   2.8038   2.8196   2.8280   2.8352   2.8557   2.8764   2.8841
     2.8887   2.9083   2.9173   2.9294   2.9389   2.9453   2.9590   2.9729
     2.9984   3.0045   3.0156   3.0362   3.0471   3.0607   3.0834   3.1048
     3.1268   3.1474   3.1655   3.1858   3.2033   3.2243   3.2362   3.2735
     3.2973   3.3010   3.3366   3.3524   3.3613   3.3863   3.4178   3.4323
     3.4581   3.4805   3.4855   3.4998   3.5043   3.5213   3.5402   3.5561
     3.5725   3.5849   3.5881   3.6004   3.6079   3.6193   3.6242   3.6347
     3.6386   3.6512   3.6572   3.6634   3.6676   3.6766   3.6814   3.6898
     3.6943   3.6954   3.7015   3.7073   3.7131   3.7217   3.7288   3.7354
     3.7388   3.7475   3.7495   3.7536   3.7610   3.7673   3.7757   3.7769
     3.7856   3.7982   3.8198   3.8375   3.8677   3.8810   3.8922   3.9165
     3.9322   3.9365   3.9562   4.0031   4.0503   4.0870   4.1396   4.1524
     4.1878   4.2447   4.2607   4.3143   4.3224   4.3855   4.3938   4.4358
     4.4778   4.4889   4.5552   4.5603   4.6111   4.6346   4.6741   4.6960
     4.7199   4.7556   4.8513   4.8690   5.0233   5.0495   5.1138   5.1428
     5.2073   5.2399   5.2828   5.3176   5.3803   5.4237   5.4564   5.4954
     5.5128   5.5490   5.5716   5.5966   5.6366   5.6944   5.7325   5.7743
     5.8045   5.8796   5.9047   5.9229   5.9651   6.1319   6.2441   6.2471
     6.2775   6.3014   6.3424   6.3740   6.3932   6.4272   6.4615   6.4748
     6.4877   6.5035   6.5291   6.5490   6.5708   6.5965   6.6019   6.6201
     6.6332   6.6758   6.6839   6.7078   6.7258   6.7338   6.7499   6.7663
     6.7871   6.7941   6.8094   6.8248   6.8393   6.8584   6.8823   6.8943
     6.9732   6.9883   7.0032   7.0304   7.0744   7.1131   7.1542   7.2092
     7.2457   7.2752   7.3084   7.3340   7.3877   7.4205   7.4659   7.4734
     7.5064   7.5403   7.5676   7.5976   7.8326   7.9239   9.5290  11.4018
    11.7828  11.8138  12.0308  12.1247  12.8472  12.8907  12.9975  13.1076
    13.1927  13.2351  13.2630  13.2906  13.3940  13.5970  13.6639  13.6792
    13.6981  13.7391  13.8378  13.9979  14.8953  14.9487  15.0311  15.0551
    15.1113  15.1360  15.2589  15.3988  15.4211  15.4299  15.4736  15.4935
    15.5347  15.5984  15.6626  15.8675  15.8988  15.9679  16.0127  16.0615
    16.1166  16.1343  16.2120  16.4258  16.4444  16.5212  16.5299  16.5407
    16.5822  16.6194  16.6532  16.6704  16.7453  16.8976  16.9222  16.9319
    17.0087  17.0870  17.1296  17.1790  17.2143  17.2311  17.2644  17.3277
    17.5067  17.6271  17.7483  17.9784  18.0558  18.0818  18.2367  18.3212
    18.3666  18.6449  18.6742  18.7732  18.7992  18.8729  18.9706  19.0032
    19.0569  19.0694  19.1206  19.1872  19.1949  19.2356

     occupation numbers 
     1.0000   1.0000   1.0000   1.0000   1.0000   1.0000   1.0000   1.0000
     1.0000   1.0000   1.0000   1.0000   1.0000   1.0000   1.0000   1.0000
     1.0000   1.0000   1.0000   1.0000   1.0000   1.0000   1.0000   1.0000
     1.0000   1.0000   1.0000   1.0000   1.0000   1.0000   1.0000   1.0000
     1.0000   1.0000   1.0000   1.0000   1.0000   1.0000   1.0000   1.0000
     1.0000   1.0000   1.0000   1.0000   1.0000   1.0000   1.0000   1.0000
     1.0000   1.0000   1.0000   1.0000   1.0000   1.0000   1.0000   1.0000
     1.0000   1.0000   1.0000   1.0000   1.0000   1.0000   1.0000   1.0000
     1.0000   1.0000   1.0000   1.0000   1.0000   1.0000   1.0000   1.0000
     1.0000   1.0000   1.0000   1.0000   1.0000   1.0000   1.0000   1.0000
     1.0000   1.0000   1.0000   1.0000   1.0000   1.0000   1.0000   1.0000
     1.0000   1.0000   1.0000   1.0000   1.0000   1.0000   1.0000   1.0000
     1.0000   1.0000   1.0000   1.0000   1.0000   1.0000   1.0000   1.0000
     1.0000   1.0000   1.0000   1.0000   1.0000   1.0000   1.0000   1.0000
     1.0000   1.0000   1.0000   1.0000   1.0000   1.0000   1.0000   1.0000
     1.0000   1.0000   1.0000   1.0000   1.0000   1.0000   1.0000   1.0000
     1.0000   1.0000   1.0000   1.0000   1.0000   1.0000   1.0000   1.0000
     1.0000   1.0000   1.0000   1.0000   1.0000   1.0000   1.0000   1.0000
     1.0000   1.0000   1.0000   1.0000   1.0000   1.0000   1.0000   1.0000
     1.0000   1.0000   1.0000   1.0000   1.0000   1.0000   1.0000   1.0000
     1.0000   1.0000   1.0000   1.0000   1.0000   1.0000   1.0000   1.0000
     1.0000   1.0000   1.0000   1.0000   1.0000   1.0000   1.0000   1.0000
     1.0000   1.0000   1.0000   1.0000   1.0000   1.0000   1.0000   1.0000
     1.0000   1.0000   1.0000   1.0000   1.0000   1.0000   1.0000   1.0000
     1.0000   1.0000   1.0000   1.0000   1.0000   1.0000   1.0000   1.0000
     1.0000   1.0000   1.0000   1.0000   1.0000   1.0000   1.0000   1.0000
     1.0000   1.0000   1.0000   1.0000   1.0000   1.0000   1.0000   1.0000
     1.0000   1.0000   1.0000   1.0000   1.0000   1.0000   1.0000   1.0000
     1.0000   1.0000   1.0000   1.0000   1.0000   1.0000   1.0000   1.0000
     1.0000   1.0000   1.0000   1.0000   1.0000   1.0000   1.0000   1.0000
     1.0000   1.0000   1.0000   1.0000   1.0000   1.0000   1.0000   1.0000
     1.0000   1.0000   1.0000   1.0000   1.0000   1.0000   1.0000   1.0000
     1.0000   1.0000   1.0000   1.0000   1.0000   1.0000   1.0000   1.0000
     1.0000   1.0000   1.0000   1.0000   1.0000   1.0000   1.0000   1.0000
     1.0000   1.0000   1.0000   1.0000   1.0000   1.0000   1.0000   1.0000
     1.0000   1.0000   1.0000   1.0000   1.0000   1.0000   1.0000   1.0000
     1.0000   1.0000   1.0000   1.0000   1.0000   1.0000   1.0000   1.0000
     1.0000   1.0000   1.0000   1.0000   1.0000   1.0000   1.0000   1.0000
     1.0000   1.0000   1.0000   1.0000   1.0000   1.0000   1.0000   1.0000
     1.0000   1.0000   1.0000   1.0000   1.0000   1.0000   1.0000   1.0000
     1.0000   1.0000   1.0000   1.0000   1.0000   1.0000   1.0000   1.0000
     1.0000   1.0000   1.0000   1.0000   1.0000   1.0000   1.0000   1.0000
     1.0000   1.0000   1.0000   1.0000   1.0000   1.0000   1.0000   1.0000
     1.0000   1.0000   1.0000   1.0000   1.0000   1.0000   1.0000   1.0000
     1.0000   1.0000   1.0000   1.0000   1.0000   1.0000   1.0000   1.0000
     1.0000   1.0000   1.0000   1.0000   1.0000   1.0000   1.0000   1.0000
     1.0000   1.0000   1.0000   1.0000   1.0000   1.0000   1.0000   1.0000
     1.0000   1.0000   1.0000   1.0000   1.0000   1.0000   1.0000   1.0000
     1.0000   1.0000   1.0000   1.0000   1.0000   1.0000   1.0000   1.0000
     1.0000   1.0000   1.0000   1.0000   1.0000   1.0000   1.0000   1.0000
     1.0000   1.0000   1.0000   1.0000   1.0000   1.0000   1.0000   1.0000
     1.0000   1.0000   1.0000   1.0000   1.0000   1.0000   1.0000   1.0000
     1.0000   1.0000   1.0000   1.0000   1.0000   1.0000   1.0000   1.0000
     1.0000   1.0000   1.0000   1.0000   1.0000   1.0000   1.0000   1.0000
     1.0000   1.0000   1.0000   1.0000   1.0000   1.0000   0.0000   0.0000
     0.0000   0.0000   0.0000   0.0000   0.0000   0.0000   0.0000   0.0000
     0.0000   0.0000   0.0000   0.0000   0.0000   0.0000   0.0000   0.0000
     0.0000   0.0000   0.0000   0.0000   0.0000   0.0000   0.0000   0.0000
     0.0000   0.0000   0.0000   0.0000   0.0000   0.0000   0.0000   0.0000
     0.0000   0.0000   0.0000   0.0000   0.0000   0.0000   0.0000   0.0000
     0.0000   0.0000   0.0000   0.0000   0.0000   0.0000   0.0000   0.0000
     0.0000   0.0000   0.0000   0.0000   0.0000   0.0000   0.0000   0.0000
     0.0000   0.0000   0.0000   0.0000   0.0000   0.0000   0.0000   0.0000
     0.0000   0.0000   0.0000   0.0000   0.0000   0.0000   0.0000   0.0000
     0.0000   0.0000   0.0000   0.0000   0.0000   0.0000   0.0000   0.0000
     0.0000   0.0000   0.0000   0.0000   0.0000   0.0000

          k =-0.0000 0.2887 0.2312 ( 45636 PWs)   bands (ev):

  -115.0285-115.0260-115.0214-115.0204-115.0195-115.0193-115.0188-115.0170
  -115.0166-115.0161-115.0145-115.0137-115.0130-115.0118-115.0118-115.0116
  -115.0098-115.0092-115.0088-115.0082-115.0059-115.0056-115.0050-115.0045
  -115.0034-115.0033-115.0018-115.0016-114.9997-114.9959 -69.3880 -69.3851
   -69.3848 -69.3832 -69.3801 -69.3799 -69.3795 -69.3794 -69.3790 -69.3784
   -69.3783 -69.3779 -69.3767 -69.3764 -69.3759 -69.3751 -69.3750 -69.3743
   -69.3741 -69.3737 -69.3732 -69.3732 -69.3728 -69.3725 -69.3724 -69.3724
   -69.3723 -69.3718 -69.3717 -69.3717 -69.3715 -69.3711 -69.3708 -69.3704
   -69.3701 -69.3701 -69.3699 -69.3698 -69.3695 -69.3691 -69.3689 -69.3689
   -69.3688 -69.3676 -69.3673 -69.3673 -69.3672 -69.3668 -69.3661 -69.3659
   -69.3658 -69.3656 -69.3655 -69.3652 -69.3651 -69.3650 -69.3648 -69.3645
   -69.3644 -69.3643 -69.3640 -69.3636 -69.3634 -69.3631 -69.3630 -69.3627
   -69.3622 -69.3620 -69.3619 -69.3616 -69.3610 -69.3605 -69.3601 -69.3598
   -69.3592 -69.3589 -69.3588 -69.3588 -69.3582 -69.3581 -69.3580 -69.3571
   -69.3571 -69.3566 -69.3564 -69.3558 -69.3546 -69.3532 -69.3531 -69.3493
   -64.5195 -64.5147 -64.5051 -64.5041 -64.4955 -64.4906 -31.5065 -31.5042
   -31.5032 -31.5019 -31.5005 -31.4986 -31.4969 -31.4946 -31.4923 -31.4906
   -31.4887 -31.4852 -31.4833 -31.4802 -31.4784 -31.4765 -31.4738 -31.4713
    -9.7069  -9.5095  -9.4355  -9.3508  -9.3465  -9.2730  -9.2403  -9.2064
    -9.1847  -9.1724  -9.1499  -9.1329  -9.0837  -9.0746  -9.0431  -9.0316
    -9.0228  -9.0050  -8.9969  -8.9785  -8.9613  -8.9471  -8.9319  -8.9199
    -8.9051  -8.8799  -8.8608  -8.8563  -8.8374  -8.8254  -8.8046  -8.7854
    -8.7566  -8.7213  -8.6557  -8.5323   2.0530   2.0697   2.0794   2.1001
     2.1056   2.1146   2.1290   2.1478   2.1591   2.1882   2.1967   2.2100
     2.2233   2.2381   2.2458   2.2664   2.2811   2.3045   2.3160   2.3541
     2.3710   2.3873   2.4173   2.4232   2.4252   2.4425   2.4594   2.4650
     2.4813   2.4886   2.4968   2.5266   2.5355   2.5456   2.5555   2.5662
     2.5793   2.5842   2.5952   2.6141   2.6233   2.6318   2.6384   2.6508
     2.6594   2.6691   2.6805   2.6901   2.6976   2.7068   2.7193   2.7244
     2.7330   2.7367   2.7446   2.7585   2.7716   2.7764   2.7834   2.7988
     2.8020   2.8111   2.8286   2.8341   2.8453   2.8504   2.8727   2.8815
     2.8840   2.8949   2.9088   2.9115   2.9229   2.9334   2.9452   2.9611
     2.9723   2.9973   2.9999   3.0254   3.0334   3.0434   3.0534   3.0666
     3.0807   3.1013   3.1209   3.1407   3.1608   3.1909   3.2404   3.2554
     3.2754   3.2954   3.3336   3.3434   3.3726   3.3900   3.4239   3.4442
     3.4599   3.4759   3.4972   3.5084   3.5244   3.5323   3.5520   3.5593
     3.5662   3.5779   3.5971   3.6011   3.6052   3.6184   3.6224   3.6310
     3.6394   3.6421   3.6542   3.6583   3.6648   3.6695   3.6762   3.6824
     3.6915   3.6955   3.7077   3.7152   3.7284   3.7303   3.7406   3.7450
     3.7481   3.7526   3.7571   3.7603   3.7635   3.7693   3.7725   3.7831
     3.8048   3.8143   3.8245   3.8307   3.8546   3.8642   3.8798   3.8959
     3.9143   3.9332   4.0326   4.1250   4.1458   4.1680   4.2045   4.2197
     4.2355   4.2476   4.2603   4.3260   4.3576   4.3831   4.4111   4.4631
     4.4834   4.5410   4.5710   4.6006   4.6326   4.6929   4.7112   4.7298
     4.7590   4.7821   4.8195   4.8904   4.9713   4.9758   5.0303   5.1030
     5.1583   5.1896   5.2427   5.2557   5.3456   5.3602   5.4270   5.4985
     5.5284   5.5598   5.6115   5.6831   5.8029   5.8221   5.8490   5.8598
     5.8827   5.9229   5.9467   5.9833   6.0126   6.0575   6.0794   6.1241
     6.1683   6.1918   6.2254   6.2552   6.2717   6.3014   6.3369   6.3487
     6.3745   6.3919   6.4267   6.4765   6.5018   6.5473   6.5493   6.5715
     6.5903   6.6115   6.6871   6.7226   6.7499   6.7617   6.7899   6.8115
     6.8817   6.8987   6.9219   6.9342   6.9537   6.9846   6.9871   7.0161
     7.0294   7.0559   7.0673   7.0839   7.1153   7.1420   7.1767   7.2261
     7.2320   7.2466   7.3060   7.3279   7.3498   7.3678   7.3803   7.4137
     7.4759   7.5551   7.5842   7.6618   7.8073   7.9025   9.7777  11.0755
    11.4953  12.0857  12.0906  12.3012  12.5414  12.6804  12.7824  13.0130
    13.0682  13.2110  13.3113  13.3594  13.4458  13.6075  13.6887  13.8797
    14.0057  14.1196  14.1828  14.2590  14.8206  14.8624  14.9106  14.9575
    15.0084  15.0990  15.1441  15.2160  15.2223  15.2438  15.3108  15.3841
    15.4882  15.4976  15.7994  15.9728  15.9940  16.0856  16.1689  16.2465
    16.2665  16.2945  16.3221  16.3394  16.3941  16.4326  16.5153  16.5565
    16.6164  16.6378  16.6685  16.6919  16.7330  16.8511  16.8725  16.9294
    17.0371  17.0797  17.0911  17.1421  17.1643  17.1851  17.2823  17.4699
    17.4891  17.5790  17.7589  17.9027  17.9779  18.0578  18.1743  18.2402
    18.4254  18.4719  18.6204  18.6617  18.6984  18.7923  18.8658  18.8928
    19.0508  19.1097  19.1655  19.2128  19.3501  19.3820

     occupation numbers 
     1.0000   1.0000   1.0000   1.0000   1.0000   1.0000   1.0000   1.0000
     1.0000   1.0000   1.0000   1.0000   1.0000   1.0000   1.0000   1.0000
     1.0000   1.0000   1.0000   1.0000   1.0000   1.0000   1.0000   1.0000
     1.0000   1.0000   1.0000   1.0000   1.0000   1.0000   1.0000   1.0000
     1.0000   1.0000   1.0000   1.0000   1.0000   1.0000   1.0000   1.0000
     1.0000   1.0000   1.0000   1.0000   1.0000   1.0000   1.0000   1.0000
     1.0000   1.0000   1.0000   1.0000   1.0000   1.0000   1.0000   1.0000
     1.0000   1.0000   1.0000   1.0000   1.0000   1.0000   1.0000   1.0000
     1.0000   1.0000   1.0000   1.0000   1.0000   1.0000   1.0000   1.0000
     1.0000   1.0000   1.0000   1.0000   1.0000   1.0000   1.0000   1.0000
     1.0000   1.0000   1.0000   1.0000   1.0000   1.0000   1.0000   1.0000
     1.0000   1.0000   1.0000   1.0000   1.0000   1.0000   1.0000   1.0000
     1.0000   1.0000   1.0000   1.0000   1.0000   1.0000   1.0000   1.0000
     1.0000   1.0000   1.0000   1.0000   1.0000   1.0000   1.0000   1.0000
     1.0000   1.0000   1.0000   1.0000   1.0000   1.0000   1.0000   1.0000
     1.0000   1.0000   1.0000   1.0000   1.0000   1.0000   1.0000   1.0000
     1.0000   1.0000   1.0000   1.0000   1.0000   1.0000   1.0000   1.0000
     1.0000   1.0000   1.0000   1.0000   1.0000   1.0000   1.0000   1.0000
     1.0000   1.0000   1.0000   1.0000   1.0000   1.0000   1.0000   1.0000
     1.0000   1.0000   1.0000   1.0000   1.0000   1.0000   1.0000   1.0000
     1.0000   1.0000   1.0000   1.0000   1.0000   1.0000   1.0000   1.0000
     1.0000   1.0000   1.0000   1.0000   1.0000   1.0000   1.0000   1.0000
     1.0000   1.0000   1.0000   1.0000   1.0000   1.0000   1.0000   1.0000
     1.0000   1.0000   1.0000   1.0000   1.0000   1.0000   1.0000   1.0000
     1.0000   1.0000   1.0000   1.0000   1.0000   1.0000   1.0000   1.0000
     1.0000   1.0000   1.0000   1.0000   1.0000   1.0000   1.0000   1.0000
     1.0000   1.0000   1.0000   1.0000   1.0000   1.0000   1.0000   1.0000
     1.0000   1.0000   1.0000   1.0000   1.0000   1.0000   1.0000   1.0000
     1.0000   1.0000   1.0000   1.0000   1.0000   1.0000   1.0000   1.0000
     1.0000   1.0000   1.0000   1.0000   1.0000   1.0000   1.0000   1.0000
     1.0000   1.0000   1.0000   1.0000   1.0000   1.0000   1.0000   1.0000
     1.0000   1.0000   1.0000   1.0000   1.0000   1.0000   1.0000   1.0000
     1.0000   1.0000   1.0000   1.0000   1.0000   1.0000   1.0000   1.0000
     1.0000   1.0000   1.0000   1.0000   1.0000   1.0000   1.0000   1.0000
     1.0000   1.0000   1.0000   1.0000   1.0000   1.0000   1.0000   1.0000
     1.0000   1.0000   1.0000   1.0000   1.0000   1.0000   1.0000   1.0000
     1.0000   1.0000   1.0000   1.0000   1.0000   1.0000   1.0000   1.0000
     1.0000   1.0000   1.0000   1.0000   1.0000   1.0000   1.0000   1.0000
     1.0000   1.0000   1.0000   1.0000   1.0000   1.0000   1.0000   1.0000
     1.0000   1.0000   1.0000   1.0000   1.0000   1.0000   1.0000   1.0000
     1.0000   1.0000   1.0000   1.0000   1.0000   1.0000   1.0000   1.0000
     1.0000   1.0000   1.0000   1.0000   1.0000   1.0000   1.0000   1.0000
     1.0000   1.0000   1.0000   1.0000   1.0000   1.0000   1.0000   1.0000
     1.0000   1.0000   1.0000   1.0000   1.0000   1.0000   1.0000   1.0000
     1.0000   1.0000   1.0000   1.0000   1.0000   1.0000   1.0000   1.0000
     1.0000   1.0000   1.0000   1.0000   1.0000   1.0000   1.0000   1.0000
     1.0000   1.0000   1.0000   1.0000   1.0000   1.0000   1.0000   1.0000
     1.0000   1.0000   1.0000   1.0000   1.0000   1.0000   1.0000   1.0000
     1.0000   1.0000   1.0000   1.0000   1.0000   1.0000   1.0000   1.0000
     1.0000   1.0000   1.0000   1.0000   1.0000   1.0000   1.0000   1.0000
     1.0000   1.0000   1.0000   1.0000   1.0000   1.0000   1.0000   1.0000
     1.0000   1.0000   1.0000   1.0000   1.0000   1.0000   1.0000   1.0000
     1.0000   1.0000   1.0000   1.0000   1.0000   1.0000   1.0000   1.0000
     1.0000   1.0000   1.0000   1.0000   1.0000   1.0000   1.0000   1.0000
     1.0000   1.0000   1.0000   1.0000   1.0000   1.0000   0.0000   0.0000
     0.0000   0.0000   0.0000   0.0000   0.0000   0.0000   0.0000   0.0000
     0.0000   0.0000   0.0000   0.0000   0.0000   0.0000   0.0000   0.0000
     0.0000   0.0000   0.0000   0.0000   0.0000   0.0000   0.0000   0.0000
     0.0000   0.0000   0.0000   0.0000   0.0000   0.0000   0.0000   0.0000
     0.0000   0.0000   0.0000   0.0000   0.0000   0.0000   0.0000   0.0000
     0.0000   0.0000   0.0000   0.0000   0.0000   0.0000   0.0000   0.0000
     0.0000   0.0000   0.0000   0.0000   0.0000   0.0000   0.0000   0.0000
     0.0000   0.0000   0.0000   0.0000   0.0000   0.0000   0.0000   0.0000
     0.0000   0.0000   0.0000   0.0000   0.0000   0.0000   0.0000   0.0000
     0.0000   0.0000   0.0000   0.0000   0.0000   0.0000   0.0000   0.0000
     0.0000   0.0000   0.0000   0.0000   0.0000   0.0000

          k = 0.0000 0.2887-0.4624 ( 45573 PWs)   bands (ev):

  -115.0285-115.0260-115.0214-115.0204-115.0195-115.0193-115.0188-115.0170
  -115.0166-115.0161-115.0145-115.0137-115.0130-115.0118-115.0118-115.0116
  -115.0098-115.0092-115.0088-115.0082-115.0059-115.0056-115.0050-115.0045
  -115.0034-115.0033-115.0018-115.0016-114.9997-114.9959 -69.3880 -69.3851
   -69.3848 -69.3832 -69.3801 -69.3799 -69.3795 -69.3794 -69.3790 -69.3784
   -69.3783 -69.3779 -69.3767 -69.3764 -69.3759 -69.3751 -69.3750 -69.3743
   -69.3741 -69.3737 -69.3732 -69.3732 -69.3728 -69.3725 -69.3724 -69.3723
   -69.3723 -69.3718 -69.3717 -69.3717 -69.3715 -69.3711 -69.3708 -69.3705
   -69.3701 -69.3701 -69.3699 -69.3698 -69.3695 -69.3691 -69.3689 -69.3689
   -69.3688 -69.3676 -69.3673 -69.3673 -69.3672 -69.3668 -69.3661 -69.3659
   -69.3658 -69.3656 -69.3655 -69.3652 -69.3651 -69.3650 -69.3648 -69.3645
   -69.3644 -69.3643 -69.3640 -69.3636 -69.3634 -69.3631 -69.3630 -69.3627
   -69.3622 -69.3619 -69.3619 -69.3616 -69.3610 -69.3605 -69.3601 -69.3598
   -69.3592 -69.3589 -69.3588 -69.3588 -69.3582 -69.3581 -69.3580 -69.3571
   -69.3571 -69.3566 -69.3564 -69.3558 -69.3546 -69.3532 -69.3531 -69.3493
   -64.5195 -64.5147 -64.5051 -64.5041 -64.4955 -64.4906 -31.5065 -31.5042
   -31.5032 -31.5019 -31.5005 -31.4986 -31.4969 -31.4946 -31.4923 -31.4906
   -31.4887 -31.4852 -31.4833 -31.4802 -31.4784 -31.4765 -31.4738 -31.4713
    -9.6672  -9.5843  -9.4093  -9.3508  -9.3232  -9.3021  -9.2521  -9.2065
    -9.1778  -9.1681  -9.1430  -9.1257  -9.1075  -9.0739  -9.0449  -9.0274
    -9.0133  -9.0045  -8.9823  -8.9684  -8.9553  -8.9509  -8.9373  -8.9197
[...]
     6.3987   6.4402   6.4562   6.4711   6.4810   6.5306   6.5803   6.6267
     6.6569   6.6758   6.7028   6.7087   6.7406   6.7648   6.7747   6.7932
     6.8221   6.8325   6.8502   6.8573   6.8786   6.8927   6.9064   6.9273
     6.9452   6.9491   6.9610   6.9963   7.0247   7.0363   7.1012   7.1252
     7.1550   7.2201   7.2517   7.2608   7.3150   7.3331   7.3643   7.3814
     7.4283   7.5438   7.6429   7.6867   7.7472   7.7816  10.5401  10.6107
    11.5799  11.6563  12.0190  12.0780  12.6544  12.7514  13.0062  13.0765
    13.5067  13.7357  13.8136  13.8324  13.8605  13.8811  13.9144  13.9696
    13.9939  14.0379  14.0902  14.2000  14.2727  14.3427  14.4830  14.6409
    14.6936  14.7098  14.7499  14.7684  15.1979  15.2686  15.3180  15.3414
    15.3830  15.3959  15.6056  16.0189  16.0448  16.0714  16.1002  16.2332
    16.2454  16.3095  16.3834  16.4340  16.4422  16.4751  16.4977  16.5645
    16.5937  16.6292  16.6646  16.7006  16.7924  16.8528  16.9433  16.9836
    17.1024  17.2549  17.3462  17.4081  17.5014  17.5795  17.7371  17.8329
    17.8653  17.9369  18.0182  18.0727  18.1543  18.2639  18.4033  18.4719
    18.5385  18.5588  18.5970  18.6360  18.6748  18.7448  18.8100  18.8444
    18.9550  19.0994  19.1244  19.1856  19.2495  19.2939

     occupation numbers 
     1.0000   1.0000   1.0000   1.0000   1.0000   1.0000   1.0000   1.0000
     1.0000   1.0000   1.0000   1.0000   1.0000   1.0000   1.0000   1.0000
     1.0000   1.0000   1.0000   1.0000   1.0000   1.0000   1.0000   1.0000
     1.0000   1.0000   1.0000   1.0000   1.0000   1.0000   1.0000   1.0000
     1.0000   1.0000   1.0000   1.0000   1.0000   1.0000   1.0000   1.0000
     1.0000   1.0000   1.0000   1.0000   1.0000   1.0000   1.0000   1.0000
     1.0000   1.0000   1.0000   1.0000   1.0000   1.0000   1.0000   1.0000
     1.0000   1.0000   1.0000   1.0000   1.0000   1.0000   1.0000   1.0000
     1.0000   1.0000   1.0000   1.0000   1.0000   1.0000   1.0000   1.0000
     1.0000   1.0000   1.0000   1.0000   1.0000   1.0000   1.0000   1.0000
     1.0000   1.0000   1.0000   1.0000   1.0000   1.0000   1.0000   1.0000
     1.0000   1.0000   1.0000   1.0000   1.0000   1.0000   1.0000   1.0000
     1.0000   1.0000   1.0000   1.0000   1.0000   1.0000   1.0000   1.0000
     1.0000   1.0000   1.0000   1.0000   1.0000   1.0000   1.0000   1.0000
     1.0000   1.0000   1.0000   1.0000   1.0000   1.0000   1.0000   1.0000
     1.0000   1.0000   1.0000   1.0000   1.0000   1.0000   1.0000   1.0000
     1.0000   1.0000   1.0000   1.0000   1.0000   1.0000   1.0000   1.0000
     1.0000   1.0000   1.0000   1.0000   1.0000   1.0000   1.0000   1.0000
     1.0000   1.0000   1.0000   1.0000   1.0000   1.0000   1.0000   1.0000
     1.0000   1.0000   1.0000   1.0000   1.0000   1.0000   1.0000   1.0000
     1.0000   1.0000   1.0000   1.0000   1.0000   1.0000   1.0000   1.0000
     1.0000   1.0000   1.0000   1.0000   1.0000   1.0000   1.0000   1.0000
     1.0000   1.0000   1.0000   1.0000   1.0000   1.0000   1.0000   1.0000
     1.0000   1.0000   1.0000   1.0000   1.0000   1.0000   1.0000   1.0000
     1.0000   1.0000   1.0000   1.0000   1.0000   1.0000   1.0000   1.0000
     1.0000   1.0000   1.0000   1.0000   1.0000   1.0000   1.0000   1.0000
     1.0000   1.0000   1.0000   1.0000   1.0000   1.0000   1.0000   1.0000
     1.0000   1.0000   1.0000   1.0000   1.0000   1.0000   1.0000   1.0000
     1.0000   1.0000   1.0000   1.0000   1.0000   1.0000   1.0000   1.0000
     1.0000   1.0000   1.0000   1.0000   1.0000   1.0000   1.0000   1.0000
     1.0000   1.0000   1.0000   1.0000   1.0000   1.0000   1.0000   1.0000
     1.0000   1.0000   1.0000   1.0000   1.0000   1.0000   1.0000   1.0000
     1.0000   1.0000   1.0000   1.0000   1.0000   1.0000   1.0000   1.0000
     1.0000   1.0000   1.0000   1.0000   1.0000   1.0000   1.0000   1.0000
     1.0000   1.0000   1.0000   1.0000   1.0000   1.0000   1.0000   1.0000
     1.0000   1.0000   1.0000   1.0000   1.0000   1.0000   1.0000   1.0000
     1.0000   1.0000   1.0000   1.0000   1.0000   1.0000   1.0000   1.0000
     1.0000   1.0000   1.0000   1.0000   1.0000   1.0000   1.0000   1.0000
     1.0000   1.0000   1.0000   1.0000   1.0000   1.0000   1.0000   1.0000
     1.0000   1.0000   1.0000   1.0000   1.0000   1.0000   1.0000   1.0000
     1.0000   1.0000   1.0000   1.0000   1.0000   1.0000   1.0000   1.0000
     1.0000   1.0000   1.0000   1.0000   1.0000   1.0000   1.0000   1.0000
     1.0000   1.0000   1.0000   1.0000   1.0000   1.0000   1.0000   1.0000
     1.0000   1.0000   1.0000   1.0000   1.0000   1.0000   1.0000   1.0000
     1.0000   1.0000   1.0000   1.0000   1.0000   1.0000   1.0000   1.0000
     1.0000   1.0000   1.0000   1.0000   1.0000   1.0000   1.0000   1.0000
     1.0000   1.0000   1.0000   1.0000   1.0000   1.0000   1.0000   1.0000
     1.0000   1.0000   1.0000   1.0000   1.0000   1.0000   1.0000   1.0000
     1.0000   1.0000   1.0000   1.0000   1.0000   1.0000   1.0000   1.0000
     1.0000   1.0000   1.0000   1.0000   1.0000   1.0000   1.0000   1.0000
     1.0000   1.0000   1.0000   1.0000   1.0000   1.0000   1.0000   1.0000
     1.0000   1.0000   1.0000   1.0000   1.0000   1.0000   1.0000   1.0000
     1.0000   1.0000   1.0000   1.0000   1.0000   1.0000   1.0000   1.0000
     1.0000   1.0000   1.0000   1.0000   1.0000   1.0000   1.0000   1.0000
     1.0000   1.0000   1.0000   1.0000   1.0000   1.0000   0.0000   0.0000
     0.0000   0.0000   0.0000   0.0000   0.0000   0.0000   0.0000   0.0000
     0.0000   0.0000   0.0000   0.0000   0.0000   0.0000   0.0000   0.0000
     0.0000   0.0000   0.0000   0.0000   0.0000   0.0000   0.0000   0.0000
     0.0000   0.0000   0.0000   0.0000   0.0000   0.0000   0.0000   0.0000
     0.0000   0.0000   0.0000   0.0000   0.0000   0.0000   0.0000   0.0000
     0.0000   0.0000   0.0000   0.0000   0.0000   0.0000   0.0000   0.0000
     0.0000   0.0000   0.0000   0.0000   0.0000   0.0000   0.0000   0.0000
     0.0000   0.0000   0.0000   0.0000   0.0000   0.0000   0.0000   0.0000
     0.0000   0.0000   0.0000   0.0000   0.0000   0.0000   0.0000   0.0000
     0.0000   0.0000   0.0000   0.0000   0.0000   0.0000   0.0000   0.0000
     0.0000   0.0000   0.0000   0.0000   0.0000   0.0000

          k =-0.5000-0.8661-0.4624 ( 45616 PWs)   bands (ev):

  -115.0285-115.0260-115.0214-115.0204-115.0195-115.0193-115.0188-115.0170
  -115.0166-115.0161-115.0145-115.0137-115.0130-115.0118-115.0118-115.0116
  -115.0098-115.0092-115.0088-115.0082-115.0059-115.0056-115.0050-115.0045
  -115.0034-115.0033-115.0018-115.0016-114.9997-114.9959 -69.3880 -69.3851
   -69.3848 -69.3832 -69.3801 -69.3799 -69.3795 -69.3794 -69.3790 -69.3784
   -69.3782 -69.3779 -69.3767 -69.3764 -69.3759 -69.3751 -69.3750 -69.3743
   -69.3741 -69.3737 -69.3732 -69.3732 -69.3728 -69.3725 -69.3724 -69.3724
   -69.3723 -69.3718 -69.3717 -69.3717 -69.3715 -69.3711 -69.3708 -69.3704
   -69.3701 -69.3700 -69.3699 -69.3698 -69.3695 -69.3691 -69.3689 -69.3689
   -69.3688 -69.3676 -69.3673 -69.3673 -69.3672 -69.3668 -69.3661 -69.3659
   -69.3658 -69.3656 -69.3655 -69.3652 -69.3651 -69.3650 -69.3648 -69.3645
   -69.3644 -69.3643 -69.3640 -69.3636 -69.3634 -69.3631 -69.3630 -69.3626
   -69.3622 -69.3620 -69.3619 -69.3616 -69.3610 -69.3605 -69.3601 -69.3598
   -69.3592 -69.3589 -69.3588 -69.3588 -69.3582 -69.3581 -69.3580 -69.3571
   -69.3571 -69.3566 -69.3564 -69.3558 -69.3546 -69.3532 -69.3531 -69.3493
   -64.5195 -64.5147 -64.5051 -64.5041 -64.4955 -64.4906 -31.5065 -31.5042
   -31.5032 -31.5019 -31.5005 -31.4986 -31.4969 -31.4946 -31.4923 -31.4906
   -31.4887 -31.4852 -31.4833 -31.4802 -31.4784 -31.4765 -31.4738 -31.4713
    -9.5717  -9.5605  -9.5131  -9.4465  -9.3306  -9.3287  -9.2758  -9.2025
    -9.1207  -9.1192  -9.1118  -9.0904  -9.0751  -9.0637  -9.0555  -9.0511
    -9.0251  -9.0124  -8.9814  -8.9731  -8.9555  -8.9507  -8.9416  -8.9211
    -8.9144  -8.8966  -8.8590  -8.8490  -8.8275  -8.8238  -8.8175  -8.7930
    -8.7587  -8.7206  -8.6536  -8.5332   2.1000   2.1572   2.1608   2.1762
     2.1864   2.1938   2.2026   2.2137   2.2186   2.2272   2.2408   2.2461
     2.2540   2.2659   2.2766   2.2783   2.2868   2.3047   2.3091   2.3197
     2.3323   2.3342   2.3561   2.3853   2.3937   2.4062   2.4084   2.4307
     2.4419   2.4659   2.4763   2.5089   2.5177   2.5249   2.5361   2.5452
     2.5511   2.5650   2.5700   2.5918   2.5996   2.6120   2.6188   2.6283
     2.6410   2.6459   2.6530   2.6575   2.6655   2.6812   2.6887   2.6973
     2.7060   2.7129   2.7302   2.7383   2.7461   2.7623   2.7679   2.7810
     2.8013   2.8068   2.8191   2.8229   2.8369   2.8422   2.8554   2.8592
     2.8728   2.8844   2.8969   2.9097   2.9261   2.9355   2.9455   2.9608
     2.9666   2.9724   2.9765   3.0064   3.0132   3.0208   3.0265   3.0433
     3.0562   3.0586   3.0797   3.0829   3.0967   3.1072   3.2216   3.2412
     3.2759   3.2829   3.3304   3.3561   3.3602   3.3997   3.4206   3.4270
     3.4672   3.5040   3.5122   3.5335   3.5480   3.5543   3.5569   3.5736
     3.5766   3.5861   3.5902   3.5997   3.6043   3.6142   3.6213   3.6234
     3.6385   3.6443   3.6554   3.6674   3.6774   3.6852   3.6890   3.6997
     3.7072   3.7080   3.7165   3.7209   3.7319   3.7328   3.7449   3.7494
     3.7575   3.7622   3.7709   3.7742   3.7817   3.7843   3.7906   3.8016
     3.8079   3.8100   3.8174   3.8394   3.8476   3.8702   3.8977   3.9119
     3.9271   3.9395   4.0620   4.1031   4.1623   4.1776   4.2093   4.2261
     4.2404   4.2586   4.2819   4.3546   4.3751   4.4297   4.4474   4.4818
     4.5010   4.5453   4.5641   4.6169   4.6313   4.6584   4.6764   4.7181
     4.7705   4.7909   4.8599   4.9096   4.9394   5.0358   5.2536   5.3027
     5.3826   5.3866   5.4157   5.4457   5.4848   5.5074   5.5321   5.5450
     5.6138   5.6560   5.7015   5.7283   5.7682   5.7965   5.8315   5.8449
     5.8623   5.8861   5.8977   5.9122   5.9304   5.9648   5.9759   5.9837
     6.0449   6.1047   6.1186   6.1605   6.2180   6.3039   6.3638   6.3769
     6.3821   6.4303   6.4686   6.5134   6.5355   6.5473   6.5833   6.5951
     6.6101   6.6445   6.6500   6.6787   6.6885   6.7453   6.7712   6.7867
     6.8107   6.8296   6.8741   6.8895   6.9002   6.9145   6.9281   6.9499
     6.9712   6.9809   7.0023   7.0413   7.0542   7.0745   7.1103   7.1553
     7.1872   7.2242   7.2329   7.2822   7.3278   7.3652   7.4433   7.4847
     7.5132   7.5417   7.5928   7.6489   7.7079   7.7400  10.9201  10.9364
    11.0219  11.1579  12.2045  12.2250  12.2799  12.4500  13.4703  13.5475
    13.6107  13.6279  13.7187  13.7452  13.8125  13.8310  13.8521  13.8757
    13.9898  14.1221  14.1694  14.2250  14.4749  14.5004  14.5702  14.6094
    14.6741  14.7820  14.9657  15.0060  15.0145  15.0712  15.0781  15.0866
    15.1346  15.1552  15.8821  15.9856  16.1977  16.2209  16.2268  16.2578
    16.2674  16.3121  16.3320  16.3855  16.6034  16.6104  16.6280  16.6313
    16.6441  16.6680  16.6760  16.6806  16.7024  16.7138  16.7204  16.7261
    16.9849  17.1176  17.3259  17.4368  17.4733  17.5901  17.7921  17.8375
    17.8855  17.9063  18.0735  18.1133  18.1264  18.1549  18.2071  18.2313
    18.4188  18.5191  18.6575  18.7172  18.9287  18.9710  19.0317  19.1044
    19.1265  19.1452  19.1946  19.2305  19.2630  19.3185

     occupation numbers 
     1.0000   1.0000   1.0000   1.0000   1.0000   1.0000   1.0000   1.0000
     1.0000   1.0000   1.0000   1.0000   1.0000   1.0000   1.0000   1.0000
     1.0000   1.0000   1.0000   1.0000   1.0000   1.0000   1.0000   1.0000
     1.0000   1.0000   1.0000   1.0000   1.0000   1.0000   1.0000   1.0000
     1.0000   1.0000   1.0000   1.0000   1.0000   1.0000   1.0000   1.0000
     1.0000   1.0000   1.0000   1.0000   1.0000   1.0000   1.0000   1.0000
     1.0000   1.0000   1.0000   1.0000   1.0000   1.0000   1.0000   1.0000
     1.0000   1.0000   1.0000   1.0000   1.0000   1.0000   1.0000   1.0000
     1.0000   1.0000   1.0000   1.0000   1.0000   1.0000   1.0000   1.0000
     1.0000   1.0000   1.0000   1.0000   1.0000   1.0000   1.0000   1.0000
     1.0000   1.0000   1.0000   1.0000   1.0000   1.0000   1.0000   1.0000
     1.0000   1.0000   1.0000   1.0000   1.0000   1.0000   1.0000   1.0000
     1.0000   1.0000   1.0000   1.0000   1.0000   1.0000   1.0000   1.0000
     1.0000   1.0000   1.0000   1.0000   1.0000   1.0000   1.0000   1.0000
     1.0000   1.0000   1.0000   1.0000   1.0000   1.0000   1.0000   1.0000
     1.0000   1.0000   1.0000   1.0000   1.0000   1.0000   1.0000   1.0000
     1.0000   1.0000   1.0000   1.0000   1.0000   1.0000   1.0000   1.0000
     1.0000   1.0000   1.0000   1.0000   1.0000   1.0000   1.0000   1.0000
     1.0000   1.0000   1.0000   1.0000   1.0000   1.0000   1.0000   1.0000
     1.0000   1.0000   1.0000   1.0000   1.0000   1.0000   1.0000   1.0000
     1.0000   1.0000   1.0000   1.0000   1.0000   1.0000   1.0000   1.0000
     1.0000   1.0000   1.0000   1.0000   1.0000   1.0000   1.0000   1.0000
     1.0000   1.0000   1.0000   1.0000   1.0000   1.0000   1.0000   1.0000
     1.0000   1.0000   1.0000   1.0000   1.0000   1.0000   1.0000   1.0000
     1.0000   1.0000   1.0000   1.0000   1.0000   1.0000   1.0000   1.0000
     1.0000   1.0000   1.0000   1.0000   1.0000   1.0000   1.0000   1.0000
     1.0000   1.0000   1.0000   1.0000   1.0000   1.0000   1.0000   1.0000
     1.0000   1.0000   1.0000   1.0000   1.0000   1.0000   1.0000   1.0000
     1.0000   1.0000   1.0000   1.0000   1.0000   1.0000   1.0000   1.0000
     1.0000   1.0000   1.0000   1.0000   1.0000   1.0000   1.0000   1.0000
     1.0000   1.0000   1.0000   1.0000   1.0000   1.0000   1.0000   1.0000
     1.0000   1.0000   1.0000   1.0000   1.0000   1.0000   1.0000   1.0000
     1.0000   1.0000   1.0000   1.0000   1.0000   1.0000   1.0000   1.0000
     1.0000   1.0000   1.0000   1.0000   1.0000   1.0000   1.0000   1.0000
     1.0000   1.0000   1.0000   1.0000   1.0000   1.0000   1.0000   1.0000
     1.0000   1.0000   1.0000   1.0000   1.0000   1.0000   1.0000   1.0000
     1.0000   1.0000   1.0000   1.0000   1.0000   1.0000   1.0000   1.0000
     1.0000   1.0000   1.0000   1.0000   1.0000   1.0000   1.0000   1.0000
     1.0000   1.0000   1.0000   1.0000   1.0000   1.0000   1.0000   1.0000
     1.0000   1.0000   1.0000   1.0000   1.0000   1.0000   1.0000   1.0000
     1.0000   1.0000   1.0000   1.0000   1.0000   1.0000   1.0000   1.0000
     1.0000   1.0000   1.0000   1.0000   1.0000   1.0000   1.0000   1.0000
     1.0000   1.0000   1.0000   1.0000   1.0000   1.0000   1.0000   1.0000
     1.0000   1.0000   1.0000   1.0000   1.0000   1.0000   1.0000   1.0000
     1.0000   1.0000   1.0000   1.0000   1.0000   1.0000   1.0000   1.0000
     1.0000   1.0000   1.0000   1.0000   1.0000   1.0000   1.0000   1.0000
     1.0000   1.0000   1.0000   1.0000   1.0000   1.0000   1.0000   1.0000
     1.0000   1.0000   1.0000   1.0000   1.0000   1.0000   1.0000   1.0000
     1.0000   1.0000   1.0000   1.0000   1.0000   1.0000   1.0000   1.0000
     1.0000   1.0000   1.0000   1.0000   1.0000   1.0000   1.0000   1.0000
     1.0000   1.0000   1.0000   1.0000   1.0000   1.0000   1.0000   1.0000
     1.0000   1.0000   1.0000   1.0000   1.0000   1.0000   1.0000   1.0000
     1.0000   1.0000   1.0000   1.0000   1.0000   1.0000   1.0000   1.0000
     1.0000   1.0000   1.0000   1.0000   1.0000   1.0000   1.0000   1.0000
     1.0000   1.0000   1.0000   1.0000   1.0000   1.0000   0.0000   0.0000
     0.0000   0.0000   0.0000   0.0000   0.0000   0.0000   0.0000   0.0000
     0.0000   0.0000   0.0000   0.0000   0.0000   0.0000   0.0000   0.0000
     0.0000   0.0000   0.0000   0.0000   0.0000   0.0000   0.0000   0.0000
     0.0000   0.0000   0.0000   0.0000   0.0000   0.0000   0.0000   0.0000
     0.0000   0.0000   0.0000   0.0000   0.0000   0.0000   0.0000   0.0000
     0.0000   0.0000   0.0000   0.0000   0.0000   0.0000   0.0000   0.0000
     0.0000   0.0000   0.0000   0.0000   0.0000   0.0000   0.0000   0.0000
     0.0000   0.0000   0.0000   0.0000   0.0000   0.0000   0.0000   0.0000
     0.0000   0.0000   0.0000   0.0000   0.0000   0.0000   0.0000   0.0000
     0.0000   0.0000   0.0000   0.0000   0.0000   0.0000   0.0000   0.0000
     0.0000   0.0000   0.0000   0.0000   0.0000   0.0000

     the Fermi energy is     8.1352 ev

!    total energy              =  -15751.71405777 Ry
     Harris-Foulkes estimate   =  -15751.71405778 Ry
     estimated scf accuracy    <          4.2E-09 Ry

     The total energy is the sum of the following terms:

     one-electron contribution =  -13139.41940275 Ry
     hartree contribution      =    6898.61246372 Ry
     xc contribution           =   -1614.90686865 Ry
     ewald contribution        =   -7896.00025009 Ry
     smearing contrib. (-TS)   =       0.00000000 Ry

     convergence has been achieved in  12 iterations

     Writing output data file ZnO.save/
 
     init_run     :     15.83s CPU     16.96s WALL (       1 calls)
     electrons    :    799.94s CPU    816.25s WALL (       1 calls)

     Called by init_run:
     wfcinit      :     13.45s CPU     14.19s WALL (       1 calls)
     wfcinit:atom :      0.10s CPU      0.12s WALL (       5 calls)
     wfcinit:wfcr :     12.92s CPU     13.58s WALL (       5 calls)
     potinit      :      1.02s CPU      1.08s WALL (       1 calls)
     hinit0       :      0.77s CPU      1.01s WALL (       1 calls)

     Called by electrons:
     c_bands      :    743.94s CPU    758.63s WALL (      12 calls)
     sum_band     :     48.76s CPU     49.66s WALL (      12 calls)
     v_of_rho     :      5.38s CPU      5.71s WALL (      13 calls)
     v_h          :      0.14s CPU      0.19s WALL (      13 calls)
     v_xc         :      5.24s CPU      5.51s WALL (      13 calls)
     newd         :      1.82s CPU      1.89s WALL (      13 calls)
     mix_rho      :      0.32s CPU      0.42s WALL (      12 calls)

     Called by c_bands:
     init_us_2    :      4.25s CPU      4.28s WALL (     125 calls)
     cegterg      :    640.54s CPU    654.31s WALL (      60 calls)

     Called by sum_band:
     sum_band:bec :      0.26s CPU      0.27s WALL (      60 calls)
     addusdens    :      1.14s CPU      1.21s WALL (      12 calls)

     Called by *egterg:
     h_psi        :    211.68s CPU    215.27s WALL (     234 calls)
     s_psi        :     52.53s CPU     52.61s WALL (     234 calls)
     g_psi        :      0.78s CPU      0.78s WALL (     169 calls)
     cdiaghg      :    239.12s CPU    245.54s WALL (     229 calls)
     cegterg:over :     62.71s CPU     64.11s WALL (     169 calls)
     cegterg:upda :     41.18s CPU     41.75s WALL (     169 calls)
     cegterg:last :     22.99s CPU     23.09s WALL (      60 calls)
     cdiaghg:chol :     10.76s CPU     10.89s WALL (     229 calls)
     cdiaghg:inve :      3.35s CPU      3.38s WALL (     229 calls)
     cdiaghg:para :     55.53s CPU     60.28s WALL (     458 calls)

     Called by h_psi:
     h_psi:pot    :    209.97s CPU    212.44s WALL (     234 calls)
     h_psi:calbec :     53.88s CPU     55.43s WALL (     234 calls)
     vloc_psi     :    103.51s CPU    104.18s WALL (     234 calls)
     add_vuspsi   :     52.57s CPU     52.84s WALL (     234 calls)

     General routines
     calbec       :     75.50s CPU     77.62s WALL (     294 calls)
     fft          :      1.19s CPU      1.71s WALL (     167 calls)
     ffts         :      0.07s CPU      0.07s WALL (      25 calls)
     fftw         :    116.88s CPU    117.60s WALL (  186304 calls)
     interpolate  :      0.15s CPU      0.19s WALL (      13 calls)
 
     Parallel routines
     fft_scatt_xy :     19.30s CPU     19.41s WALL (  186496 calls)
     fft_scatt_yz :     31.65s CPU     32.35s WALL (  186496 calls)
 
     PWSCF        :  13m37.57s CPU  14m 1.36s WALL

 
   This run was terminated on:   1:38:42  15Jul2022            

=------------------------------------------------------------------------------=
   JOB DONE.
=------------------------------------------------------------------------------=
