
     Program PWSCF v.6.4.1 starts on 16Jun2022 at 19:51:21 

     This program is part of the open-source Quantum ESPRESSO suite
     for quantum simulation of materials; please cite
         "P. Giannozzi et al., J. Phys.:Condens. Matter 21 395502 (2009);
         "P. Giannozzi et al., J. Phys.:Condens. Matter 29 465901 (2017);
          URL http://www.quantum-espresso.org", 
     in publications or presentations arising from this work. More details at
     http://www.quantum-espresso.org/quote

     Parallel version (MPI), running on    64 processors

     MPI processes distributed on     1 nodes
     K-points division:     npool     =       4
     R & G space division:  proc/nbgrp/npool/nimage =      16
     Waiting for input...
     Reading input from standard input

     Current dimensions of program PWSCF are:
     Max number of different atomic species (ntypx) = 10
     Max number of k-points (npk) =  40000
     Max angular momentum in pseudopotentials (lmaxx) =  3

     Subspace diagonalization in iterative solution of the eigenvalue problem:
     one sub-group per band group will be used
     scalapack distributed-memory algorithm (size of sub-group:  2*  2 procs)

 
     Parallelization info
     --------------------
     sticks:   dense  smooth     PW     G-vecs:    dense   smooth      PW
     Min         110      58     18                 4736     1840     321
     Max         111      59     20                 4740     1845     324
     Sum        1765     931    295                75821    29477    5157
 


     bravais-lattice index     =            0
     lattice parameter (alat)  =       6.5205  a.u.
     unit-cell volume          =     305.5083 (a.u.)^3
     number of atoms/cell      =            4
     number of atomic types    =            3
     number of electrons       =        42.00
     number of Kohn-Sham states=           21
     kinetic-energy cutoff     =      80.0000  Ry
     charge density cutoff     =     600.0000  Ry
     convergence threshold     =      1.0E-06
     mixing beta               =       0.5000
     number of iterations used =            8  plain     mixing
     Exchange-correlation      = SLA  PW   PSX  PSC ( 1  4 10  8 0 0)
     Using LIBXC version       =    4   3   4
     nstep                     =          200


     celldm(1)=   6.520457  celldm(2)=   0.000000  celldm(3)=   0.000000
     celldm(4)=   0.000000  celldm(5)=   0.000000  celldm(6)=   0.000000

     crystal axes: (cart. coord. in units of alat)
               a(1) = (   1.000000   0.000000   0.000000 )  
               a(2) = (  -0.500000   0.866025  -0.000000 )  
               a(3) = (   0.000000  -0.000000   1.272502 )  

     reciprocal axes: (cart. coord. in units 2 pi/alat)
               b(1) = (  1.000000  0.577350  0.000000 )  
               b(2) = ( -0.000000  1.154701  0.000000 )  
               b(3) = ( -0.000000  0.000000  0.785854 )  


     PseudoPot. # 1 for Mg read from file:
     ./GBRV_PBEsol/mg_pbesol_v1.4.uspp.F.UPF
     MD5 check sum: 4059f37963cf5867752dbf5ab2400678
     Pseudo is Ultrasoft, Zval = 10.0
     Generated by new atomic code, or converted to UPF format
     Using radial grid of  821 points,  7 beta functions with: 
                l(1) =   0
                l(2) =   0
                l(3) =   0
                l(4) =   1
                l(5) =   1
                l(6) =   2
                l(7) =   2
     Q(r) pseudized with  8 coefficients,  rinner =    1.200   1.200   1.200
                                                       1.200   1.200

     PseudoPot. # 2 for Zn read from file:
     ./GBRV_PBEsol/zn_pbesol_v1.uspp.F.UPF
     MD5 check sum: 7d8615e52efe7c1e2b1899de8658bae2
     Pseudo is Ultrasoft, Zval = 20.0
     Generated by new atomic code, or converted to UPF format
     Using radial grid of  943 points,  6 beta functions with: 
                l(1) =   0
                l(2) =   0
                l(3) =   1
                l(4) =   1
                l(5) =   2
                l(6) =   2
     Q(r) pseudized with  8 coefficients,  rinner =    1.100   1.100   1.100
                                                       1.100   1.100

     PseudoPot. # 3 for O  read from file:
     ./GBRV_PBEsol/o_pbesol_v1.2.uspp.F.UPF
     MD5 check sum: 501638753501ef6325af9037351f7734
     Pseudo is Ultrasoft + core correction, Zval =  6.0
     Generated by new atomic code, or converted to UPF format
     Using radial grid of  737 points,  5 beta functions with: 
                l(1) =   0
                l(2) =   0
                l(3) =   1
                l(4) =   1
                l(5) =   2
     Q(r) pseudized with  8 coefficients,  rinner =    0.900   0.900   0.900
                                                       0.900   0.900

     atomic species   valence    mass     pseudopotential
        Mg            10.00    24.30500     Mg( 1.00)
        Zn            20.00    65.38000     Zn( 1.00)
        O              6.00    15.99900     O ( 1.00)

     No symmetry found


                                    s                        frac. trans.

      isym =  1     identity                                     

 cryst.   s( 1) = (     1          0          0      )
                  (     0          1          0      )
                  (     0          0          1      )

 cart.    s( 1) = (  1.0000000  0.0000000  0.0000000 )
                  (  0.0000000  1.0000000  0.0000000 )
                  (  0.0000000  0.0000000  1.0000000 )


   Cartesian axes

     site n.     atom                  positions (alat units)
         1           O   tau(   1) = (   0.5000001   0.2886754   0.0093476  )
         2           O   tau(   2) = (   0.0000001   0.5773490   0.6455982  )
         3           Zn  tau(   3) = (   0.5000001   0.2886745   0.6795082  )
         4           Mg  tau(   4) = (  -0.0000001   0.5773505   1.3199386  )

   Crystallographic axes

     site n.     atom                  positions (cryst. coord.)
         1           O   tau(   1) = (  0.6666670  0.3333337  0.0073459  )
         2           O   tau(   2) = (  0.3333329  0.6666657  0.5073458  )
         3           Zn  tau(   3) = (  0.6666664  0.3333329  0.5339939  )
         4           Mg  tau(   4) = (  0.3333337  0.6666677  1.0372785  )

     number of k points=   260
                       cart. coord. in units 2pi/alat
        k(    1) = (   0.0000000   0.0000000   0.0000000), wk =   0.0039062
        k(    2) = (  -0.0000000   0.0000000   0.0982317), wk =   0.0078125
        k(    3) = (  -0.0000000   0.0000000   0.1964634), wk =   0.0078125
        k(    4) = (  -0.0000000   0.0000001   0.2946951), wk =   0.0078125
        k(    5) = (   0.0000000  -0.0000001  -0.3929268), wk =   0.0039062
        k(    6) = (  -0.0000000   0.1443376   0.0000000), wk =   0.0078125
        k(    7) = (  -0.0000000   0.1443376   0.0982317), wk =   0.0078125
        k(    8) = (  -0.0000000   0.1443377   0.1964634), wk =   0.0078125
        k(    9) = (  -0.0000000   0.1443377   0.2946951), wk =   0.0078125
        k(   10) = (   0.0000000   0.1443375  -0.3929267), wk =   0.0078125
        k(   11) = (   0.0000000   0.1443375  -0.2946950), wk =   0.0078125
        k(   12) = (   0.0000000   0.1443376  -0.1964633), wk =   0.0078125
        k(   13) = (   0.0000000   0.1443376  -0.0982316), wk =   0.0078125
        k(   14) = (  -0.0000000   0.2886752   0.0000001), wk =   0.0078125
        k(   15) = (  -0.0000000   0.2886753   0.0982318), wk =   0.0078125
        k(   16) = (  -0.0000000   0.2886753   0.1964635), wk =   0.0078125
        k(   17) = (  -0.0000000   0.2886753   0.2946952), wk =   0.0078125
        k(   18) = (   0.0000000   0.2886751  -0.3929267), wk =   0.0078125
        k(   19) = (   0.0000000   0.2886752  -0.2946950), wk =   0.0078125
        k(   20) = (   0.0000000   0.2886752  -0.1964633), wk =   0.0078125
        k(   21) = (   0.0000000   0.2886752  -0.0982316), wk =   0.0078125
        k(   22) = (  -0.0000000   0.4330129   0.0000001), wk =   0.0078125
        k(   23) = (  -0.0000000   0.4330129   0.0982318), wk =   0.0078125
        k(   24) = (  -0.0000000   0.4330129   0.1964635), wk =   0.0078125
        k(   25) = (  -0.0000000   0.4330129   0.2946952), wk =   0.0078125
        k(   26) = (   0.0000000   0.4330128  -0.3929266), wk =   0.0078125
        k(   27) = (   0.0000000   0.4330128  -0.2946949), wk =   0.0078125
        k(   28) = (   0.0000000   0.4330128  -0.1964632), wk =   0.0078125
        k(   29) = (   0.0000000   0.4330128  -0.0982316), wk =   0.0078125
        k(   30) = (   0.0000000  -0.5773505  -0.0000002), wk =   0.0039062
        k(   31) = (  -0.0000000  -0.5773505   0.0982315), wk =   0.0078125
        k(   32) = (  -0.0000000  -0.5773504   0.1964632), wk =   0.0078125
        k(   33) = (  -0.0000000  -0.5773504   0.2946949), wk =   0.0078125
        k(   34) = (   0.0000000  -0.5773506  -0.3929269), wk =   0.0039062
        k(   35) = (   0.1250000   0.0721688   0.0000000), wk =   0.0078125
        k(   36) = (   0.1250000   0.0721688   0.0982317), wk =   0.0078125
        k(   37) = (   0.1250000   0.0721689   0.1964634), wk =   0.0078125
        k(   38) = (   0.1250000   0.0721689   0.2946951), wk =   0.0078125
        k(   39) = (   0.1250000   0.0721687  -0.3929267), wk =   0.0078125
        k(   40) = (   0.1250000   0.0721687  -0.2946951), wk =   0.0078125
        k(   41) = (   0.1250000   0.0721688  -0.1964634), wk =   0.0078125
        k(   42) = (   0.1250000   0.0721688  -0.0982317), wk =   0.0078125
        k(   43) = (   0.1250000   0.2165064   0.0000001), wk =   0.0078125
        k(   44) = (   0.1250000   0.2165065   0.0982317), wk =   0.0078125
        k(   45) = (   0.1250000   0.2165065   0.1964634), wk =   0.0078125
        k(   46) = (   0.1250000   0.2165065   0.2946951), wk =   0.0078125
        k(   47) = (   0.1250000   0.2165063  -0.3929267), wk =   0.0078125
        k(   48) = (   0.1250000   0.2165064  -0.2946950), wk =   0.0078125
        k(   49) = (   0.1250000   0.2165064  -0.1964633), wk =   0.0078125
        k(   50) = (   0.1250000   0.2165064  -0.0982316), wk =   0.0078125
        k(   51) = (   0.1250000   0.3608440   0.0000001), wk =   0.0078125
        k(   52) = (   0.1250000   0.3608441   0.0982318), wk =   0.0078125
        k(   53) = (   0.1250000   0.3608441   0.1964635), wk =   0.0078125
        k(   54) = (   0.1250000   0.3608441   0.2946952), wk =   0.0078125
        k(   55) = (   0.1250000   0.3608440  -0.3929267), wk =   0.0078125
        k(   56) = (   0.1250000   0.3608440  -0.2946950), wk =   0.0078125
        k(   57) = (   0.1250000   0.3608440  -0.1964633), wk =   0.0078125
        k(   58) = (   0.1250000   0.3608440  -0.0982316), wk =   0.0078125
        k(   59) = (   0.1250000   0.5051817   0.0000001), wk =   0.0078125
        k(   60) = (   0.1250000   0.5051817   0.0982318), wk =   0.0078125
        k(   61) = (   0.1250000   0.5051817   0.1964635), wk =   0.0078125
        k(   62) = (   0.1250000   0.5051817   0.2946952), wk =   0.0078125
        k(   63) = (   0.1250000   0.5051816  -0.3929266), wk =   0.0078125
        k(   64) = (   0.1250000   0.5051816  -0.2946949), wk =   0.0078125
        k(   65) = (   0.1250000   0.5051816  -0.1964632), wk =   0.0078125
        k(   66) = (   0.1250000   0.5051816  -0.0982315), wk =   0.0078125
        k(   67) = (   0.1250000  -0.5051817  -0.0000002), wk =   0.0078125
        k(   68) = (   0.1250000  -0.5051816   0.0982315), wk =   0.0078125
        k(   69) = (   0.1250000  -0.5051816   0.1964632), wk =   0.0078125
        k(   70) = (   0.1250000  -0.5051816   0.2946949), wk =   0.0078125
        k(   71) = (   0.1250000  -0.5051818  -0.3929269), wk =   0.0078125
        k(   72) = (   0.1250000  -0.5051817  -0.2946952), wk =   0.0078125
        k(   73) = (   0.1250000  -0.5051817  -0.1964635), wk =   0.0078125
        k(   74) = (   0.1250000  -0.5051817  -0.0982319), wk =   0.0078125
        k(   75) = (   0.1250000  -0.3608440  -0.0000001), wk =   0.0078125
        k(   76) = (   0.1250000  -0.3608440   0.0982316), wk =   0.0078125
        k(   77) = (   0.1250000  -0.3608440   0.1964633), wk =   0.0078125
        k(   78) = (   0.1250000  -0.3608440   0.2946949), wk =   0.0078125
        k(   79) = (   0.1250000  -0.3608441  -0.3929269), wk =   0.0078125
        k(   80) = (   0.1250000  -0.3608441  -0.2946952), wk =   0.0078125
        k(   81) = (   0.1250000  -0.3608441  -0.1964635), wk =   0.0078125
        k(   82) = (   0.1250000  -0.3608441  -0.0982318), wk =   0.0078125
        k(   83) = (   0.1250000  -0.2165064  -0.0000001), wk =   0.0078125
        k(   84) = (   0.1250000  -0.2165064   0.0982316), wk =   0.0078125
        k(   85) = (   0.1250000  -0.2165064   0.1964633), wk =   0.0078125
        k(   86) = (   0.1250000  -0.2165064   0.2946950), wk =   0.0078125
        k(   87) = (   0.1250000  -0.2165065  -0.3929268), wk =   0.0078125
        k(   88) = (   0.1250000  -0.2165065  -0.2946951), wk =   0.0078125
        k(   89) = (   0.1250000  -0.2165065  -0.1964635), wk =   0.0078125
        k(   90) = (   0.1250000  -0.2165065  -0.0982318), wk =   0.0078125
        k(   91) = (   0.1250000  -0.0721688  -0.0000000), wk =   0.0078125
        k(   92) = (   0.1250000  -0.0721688   0.0982317), wk =   0.0078125
        k(   93) = (   0.1250000  -0.0721688   0.1964633), wk =   0.0078125
        k(   94) = (   0.1250000  -0.0721687   0.2946950), wk =   0.0078125
        k(   95) = (   0.1250000  -0.0721689  -0.3929268), wk =   0.0078125
        k(   96) = (   0.1250000  -0.0721689  -0.2946951), wk =   0.0078125
        k(   97) = (   0.1250000  -0.0721689  -0.1964634), wk =   0.0078125
        k(   98) = (   0.1250000  -0.0721688  -0.0982317), wk =   0.0078125
        k(   99) = (   0.2500000   0.1443376   0.0000000), wk =   0.0078125
        k(  100) = (   0.2500000   0.1443376   0.0982317), wk =   0.0078125
        k(  101) = (   0.2500000   0.1443377   0.1964634), wk =   0.0078125
        k(  102) = (   0.2500000   0.1443377   0.2946951), wk =   0.0078125
        k(  103) = (   0.2500000   0.1443375  -0.3929267), wk =   0.0078125
        k(  104) = (   0.2500000   0.1443375  -0.2946950), wk =   0.0078125
        k(  105) = (   0.2500000   0.1443376  -0.1964634), wk =   0.0078125
        k(  106) = (   0.2500000   0.1443376  -0.0982317), wk =   0.0078125
        k(  107) = (   0.2500000   0.2886752   0.0000001), wk =   0.0078125
        k(  108) = (   0.2500000   0.2886753   0.0982318), wk =   0.0078125
        k(  109) = (   0.2500000   0.2886753   0.1964634), wk =   0.0078125
        k(  110) = (   0.2500000   0.2886753   0.2946951), wk =   0.0078125
        k(  111) = (   0.2500000   0.2886751  -0.3929267), wk =   0.0078125
        k(  112) = (   0.2500000   0.2886752  -0.2946950), wk =   0.0078125
        k(  113) = (   0.2500000   0.2886752  -0.1964633), wk =   0.0078125
        k(  114) = (   0.2500000   0.2886752  -0.0982316), wk =   0.0078125
        k(  115) = (   0.2500000   0.4330129   0.0000001), wk =   0.0078125
        k(  116) = (   0.2500000   0.4330129   0.0982318), wk =   0.0078125
        k(  117) = (   0.2500000   0.4330129   0.1964635), wk =   0.0078125
        k(  118) = (   0.2500000   0.4330129   0.2946952), wk =   0.0078125
        k(  119) = (   0.2500000   0.4330128  -0.3929267), wk =   0.0078125
        k(  120) = (   0.2500000   0.4330128  -0.2946950), wk =   0.0078125
        k(  121) = (   0.2500000   0.4330128  -0.1964633), wk =   0.0078125
        k(  122) = (   0.2500000   0.4330128  -0.0982316), wk =   0.0078125
        k(  123) = (   0.2500000   0.5773505   0.0000001), wk =   0.0078125
        k(  124) = (   0.2500000   0.5773505   0.0982318), wk =   0.0078125
        k(  125) = (   0.2500000   0.5773505   0.1964635), wk =   0.0078125
        k(  126) = (   0.2500000   0.5773505   0.2946952), wk =   0.0078125
        k(  127) = (   0.2500000   0.5773504  -0.3929266), wk =   0.0078125
        k(  128) = (   0.2500000   0.5773504  -0.2946949), wk =   0.0078125
        k(  129) = (   0.2500000   0.5773504  -0.1964632), wk =   0.0078125
        k(  130) = (   0.2500000   0.5773505  -0.0982315), wk =   0.0078125
        k(  131) = (   0.2500000  -0.4330129  -0.0000002), wk =   0.0078125
        k(  132) = (   0.2500000  -0.4330128   0.0982315), wk =   0.0078125
        k(  133) = (   0.2500000  -0.4330128   0.1964632), wk =   0.0078125
        k(  134) = (   0.2500000  -0.4330128   0.2946949), wk =   0.0078125
        k(  135) = (   0.2500000  -0.4330130  -0.3929269), wk =   0.0078125
        k(  136) = (   0.2500000  -0.4330129  -0.2946952), wk =   0.0078125
        k(  137) = (   0.2500000  -0.4330129  -0.1964635), wk =   0.0078125
        k(  138) = (   0.2500000  -0.4330129  -0.0982318), wk =   0.0078125
        k(  139) = (   0.2500000  -0.2886752  -0.0000001), wk =   0.0078125
        k(  140) = (   0.2500000  -0.2886752   0.0982316), wk =   0.0078125
        k(  141) = (   0.2500000  -0.2886752   0.1964633), wk =   0.0078125
        k(  142) = (   0.2500000  -0.2886752   0.2946950), wk =   0.0078125
        k(  143) = (   0.2500000  -0.2886753  -0.3929269), wk =   0.0078125
        k(  144) = (   0.2500000  -0.2886753  -0.2946952), wk =   0.0078125
        k(  145) = (   0.2500000  -0.2886753  -0.1964635), wk =   0.0078125
        k(  146) = (   0.2500000  -0.2886753  -0.0982318), wk =   0.0078125
        k(  147) = (   0.2500000  -0.1443376  -0.0000001), wk =   0.0078125
        k(  148) = (   0.2500000  -0.1443376   0.0982316), wk =   0.0078125
        k(  149) = (   0.2500000  -0.1443376   0.1964633), wk =   0.0078125
        k(  150) = (   0.2500000  -0.1443375   0.2946950), wk =   0.0078125
        k(  151) = (   0.2500000  -0.1443377  -0.3929268), wk =   0.0078125
        k(  152) = (   0.2500000  -0.1443377  -0.2946951), wk =   0.0078125
        k(  153) = (   0.2500000  -0.1443377  -0.1964634), wk =   0.0078125
        k(  154) = (   0.2500000  -0.1443376  -0.0982318), wk =   0.0078125
        k(  155) = (   0.2500000  -0.0000000  -0.0000000), wk =   0.0078125
        k(  156) = (   0.2500000   0.0000000   0.0982317), wk =   0.0078125
        k(  157) = (   0.2500000   0.0000000   0.1964634), wk =   0.0078125
        k(  158) = (   0.2500000   0.0000001   0.2946950), wk =   0.0078125
        k(  159) = (   0.2500000  -0.0000001  -0.3929268), wk =   0.0078125
        k(  160) = (   0.2500000  -0.0000001  -0.2946951), wk =   0.0078125
        k(  161) = (   0.2500000  -0.0000000  -0.1964634), wk =   0.0078125
        k(  162) = (   0.2500000  -0.0000000  -0.0982317), wk =   0.0078125
        k(  163) = (   0.3750000   0.2165064   0.0000000), wk =   0.0078125
        k(  164) = (   0.3750000   0.2165065   0.0982317), wk =   0.0078125
        k(  165) = (   0.3750000   0.2165065   0.1964634), wk =   0.0078125
        k(  166) = (   0.3750000   0.2165065   0.2946951), wk =   0.0078125
        k(  167) = (   0.3750000   0.2165063  -0.3929267), wk =   0.0078125
        k(  168) = (   0.3750000   0.2165064  -0.2946950), wk =   0.0078125
        k(  169) = (   0.3750000   0.2165064  -0.1964634), wk =   0.0078125
        k(  170) = (   0.3750000   0.2165064  -0.0982317), wk =   0.0078125
        k(  171) = (   0.3750000   0.3608440   0.0000001), wk =   0.0078125
        k(  172) = (   0.3750000   0.3608441   0.0982318), wk =   0.0078125
        k(  173) = (   0.3750000   0.3608441   0.1964634), wk =   0.0078125
        k(  174) = (   0.3750000   0.3608441   0.2946951), wk =   0.0078125
        k(  175) = (   0.3750000   0.3608440  -0.3929267), wk =   0.0078125
        k(  176) = (   0.3750000   0.3608440  -0.2946950), wk =   0.0078125
        k(  177) = (   0.3750000   0.3608440  -0.1964633), wk =   0.0078125
        k(  178) = (   0.3750000   0.3608440  -0.0982316), wk =   0.0078125
        k(  179) = (   0.3750000   0.5051817   0.0000001), wk =   0.0078125
        k(  180) = (   0.3750000   0.5051817   0.0982318), wk =   0.0078125
        k(  181) = (   0.3750000   0.5051817   0.1964635), wk =   0.0078125
        k(  182) = (   0.3750000   0.5051817   0.2946952), wk =   0.0078125
        k(  183) = (   0.3750000   0.5051816  -0.3929266), wk =   0.0078125
        k(  184) = (   0.3750000   0.5051816  -0.2946950), wk =   0.0078125
        k(  185) = (   0.3750000   0.5051816  -0.1964633), wk =   0.0078125
        k(  186) = (   0.3750000   0.5051816  -0.0982316), wk =   0.0078125
        k(  187) = (   0.3750000   0.6495193   0.0000002), wk =   0.0078125
        k(  188) = (   0.3750000   0.6495193   0.0982318), wk =   0.0078125
        k(  189) = (   0.3750000   0.6495193   0.1964635), wk =   0.0078125
        k(  190) = (   0.3750000   0.6495194   0.2946952), wk =   0.0078125
        k(  191) = (   0.3750000   0.6495192  -0.3929266), wk =   0.0078125
        k(  192) = (   0.3750000   0.6495192  -0.2946949), wk =   0.0078125
        k(  193) = (   0.3750000   0.6495192  -0.1964632), wk =   0.0078125
        k(  194) = (   0.3750000   0.6495193  -0.0982315), wk =   0.0078125
        k(  195) = (   0.3750000  -0.3608440  -0.0000001), wk =   0.0078125
        k(  196) = (   0.3750000  -0.3608440   0.0982315), wk =   0.0078125
        k(  197) = (   0.3750000  -0.3608440   0.1964632), wk =   0.0078125
        k(  198) = (   0.3750000  -0.3608440   0.2946949), wk =   0.0078125
        k(  199) = (   0.3750000  -0.3608441  -0.3929269), wk =   0.0078125
        k(  200) = (   0.3750000  -0.3608441  -0.2946952), wk =   0.0078125
        k(  201) = (   0.3750000  -0.3608441  -0.1964635), wk =   0.0078125
        k(  202) = (   0.3750000  -0.3608441  -0.0982318), wk =   0.0078125
        k(  203) = (   0.3750000  -0.2165064  -0.0000001), wk =   0.0078125
        k(  204) = (   0.3750000  -0.2165064   0.0982316), wk =   0.0078125
        k(  205) = (   0.3750000  -0.2165064   0.1964633), wk =   0.0078125
        k(  206) = (   0.3750000  -0.2165064   0.2946950), wk =   0.0078125
        k(  207) = (   0.3750000  -0.2165065  -0.3929269), wk =   0.0078125
        k(  208) = (   0.3750000  -0.2165065  -0.2946952), wk =   0.0078125
        k(  209) = (   0.3750000  -0.2165065  -0.1964635), wk =   0.0078125
        k(  210) = (   0.3750000  -0.2165065  -0.0982318), wk =   0.0078125
        k(  211) = (   0.3750000  -0.0721688  -0.0000001), wk =   0.0078125
        k(  212) = (   0.3750000  -0.0721688   0.0982316), wk =   0.0078125
        k(  213) = (   0.3750000  -0.0721688   0.1964633), wk =   0.0078125
        k(  214) = (   0.3750000  -0.0721687   0.2946950), wk =   0.0078125
        k(  215) = (   0.3750000  -0.0721689  -0.3929268), wk =   0.0078125
        k(  216) = (   0.3750000  -0.0721689  -0.2946951), wk =   0.0078125
        k(  217) = (   0.3750000  -0.0721689  -0.1964634), wk =   0.0078125
        k(  218) = (   0.3750000  -0.0721688  -0.0982317), wk =   0.0078125
        k(  219) = (   0.3750000   0.0721688  -0.0000000), wk =   0.0078125
        k(  220) = (   0.3750000   0.0721688   0.0982317), wk =   0.0078125
        k(  221) = (   0.3750000   0.0721689   0.1964634), wk =   0.0078125
        k(  222) = (   0.3750000   0.0721689   0.2946950), wk =   0.0078125
        k(  223) = (   0.3750000   0.0721687  -0.3929268), wk =   0.0078125
        k(  224) = (   0.3750000   0.0721687  -0.2946951), wk =   0.0078125
        k(  225) = (   0.3750000   0.0721688  -0.1964634), wk =   0.0078125
        k(  226) = (   0.3750000   0.0721688  -0.0982317), wk =   0.0078125
        k(  227) = (  -0.5000000  -0.2886752  -0.0000000), wk =   0.0039062
        k(  228) = (  -0.5000000  -0.2886752   0.0982317), wk =   0.0078125
        k(  229) = (  -0.5000000  -0.2886752   0.1964633), wk =   0.0078125
        k(  230) = (  -0.5000000  -0.2886752   0.2946950), wk =   0.0078125
        k(  231) = (  -0.5000000  -0.2886753  -0.3929268), wk =   0.0039062
        k(  232) = (  -0.5000000  -0.1443376   0.0000000), wk =   0.0078125
        k(  233) = (  -0.5000000  -0.1443376   0.0982317), wk =   0.0078125
        k(  234) = (  -0.5000000  -0.1443376   0.1964634), wk =   0.0078125
        k(  235) = (  -0.5000000  -0.1443375   0.2946951), wk =   0.0078125
        k(  236) = (  -0.5000000  -0.1443377  -0.3929267), wk =   0.0078125
        k(  237) = (  -0.5000000  -0.1443377  -0.2946951), wk =   0.0078125
        k(  238) = (  -0.5000000  -0.1443377  -0.1964634), wk =   0.0078125
        k(  239) = (  -0.5000000  -0.1443376  -0.0982317), wk =   0.0078125
        k(  240) = (  -0.5000000   0.0000000   0.0000001), wk =   0.0078125
        k(  241) = (  -0.5000000   0.0000000   0.0982317), wk =   0.0078125
        k(  242) = (  -0.5000000   0.0000000   0.1964634), wk =   0.0078125
        k(  243) = (  -0.5000000   0.0000001   0.2946951), wk =   0.0078125
        k(  244) = (  -0.5000000  -0.0000001  -0.3929267), wk =   0.0078125
        k(  245) = (  -0.5000000  -0.0000001  -0.2946950), wk =   0.0078125
        k(  246) = (  -0.5000000  -0.0000000  -0.1964633), wk =   0.0078125
        k(  247) = (  -0.5000000  -0.0000000  -0.0982316), wk =   0.0078125
        k(  248) = (  -0.5000000   0.1443376   0.0000001), wk =   0.0078125
        k(  249) = (  -0.5000000   0.1443376   0.0982318), wk =   0.0078125
        k(  250) = (  -0.5000000   0.1443377   0.1964635), wk =   0.0078125
        k(  251) = (  -0.5000000   0.1443377   0.2946952), wk =   0.0078125
        k(  252) = (  -0.5000000   0.1443375  -0.3929267), wk =   0.0078125
        k(  253) = (  -0.5000000   0.1443375  -0.2946950), wk =   0.0078125
        k(  254) = (  -0.5000000   0.1443376  -0.1964633), wk =   0.0078125
        k(  255) = (  -0.5000000   0.1443376  -0.0982316), wk =   0.0078125
        k(  256) = (  -0.5000000  -0.8660257  -0.0000002), wk =   0.0039062
        k(  257) = (  -0.5000000  -0.8660257   0.0982315), wk =   0.0078125
        k(  258) = (  -0.5000000  -0.8660257   0.1964632), wk =   0.0078125
        k(  259) = (  -0.5000000  -0.8660256   0.2946949), wk =   0.0078125
        k(  260) = (  -0.5000000  -0.8660258  -0.3929270), wk =   0.0039062

                       cryst. coord.
        k(    1) = (   0.0000000   0.0000000   0.0000000), wk =   0.0039062
        k(    2) = (   0.0000000  -0.0000000   0.1250000), wk =   0.0078125
        k(    3) = (   0.0000000  -0.0000000   0.2500000), wk =   0.0078125
        k(    4) = (   0.0000000  -0.0000000   0.3750000), wk =   0.0078125
        k(    5) = (  -0.0000000   0.0000000  -0.5000000), wk =   0.0039062
        k(    6) = (   0.0000000   0.1250000  -0.0000000), wk =   0.0078125
        k(    7) = (   0.0000000   0.1250000   0.1250000), wk =   0.0078125
        k(    8) = (   0.0000000   0.1250000   0.2500000), wk =   0.0078125
        k(    9) = (   0.0000000   0.1250000   0.3750000), wk =   0.0078125
        k(   10) = (  -0.0000000   0.1250000  -0.5000000), wk =   0.0078125
        k(   11) = (  -0.0000000   0.1250000  -0.3750000), wk =   0.0078125
        k(   12) = (  -0.0000000   0.1250000  -0.2500000), wk =   0.0078125
        k(   13) = (  -0.0000000   0.1250000  -0.1250000), wk =   0.0078125
        k(   14) = (   0.0000000   0.2500000  -0.0000000), wk =   0.0078125
        k(   15) = (   0.0000000   0.2500000   0.1250000), wk =   0.0078125
        k(   16) = (   0.0000000   0.2500000   0.2500000), wk =   0.0078125
        k(   17) = (   0.0000000   0.2500000   0.3750000), wk =   0.0078125
        k(   18) = (  -0.0000000   0.2500000  -0.5000000), wk =   0.0078125
        k(   19) = (  -0.0000000   0.2500000  -0.3750000), wk =   0.0078125
        k(   20) = (  -0.0000000   0.2500000  -0.2500000), wk =   0.0078125
        k(   21) = (  -0.0000000   0.2500000  -0.1250000), wk =   0.0078125
        k(   22) = (   0.0000000   0.3750000  -0.0000000), wk =   0.0078125
        k(   23) = (   0.0000000   0.3750000   0.1250000), wk =   0.0078125
        k(   24) = (   0.0000000   0.3750000   0.2500000), wk =   0.0078125
        k(   25) = (   0.0000000   0.3750000   0.3750000), wk =   0.0078125
        k(   26) = (  -0.0000000   0.3750000  -0.5000000), wk =   0.0078125
        k(   27) = (  -0.0000000   0.3750000  -0.3750000), wk =   0.0078125
        k(   28) = (  -0.0000000   0.3750000  -0.2500000), wk =   0.0078125
        k(   29) = (  -0.0000000   0.3750000  -0.1250000), wk =   0.0078125
        k(   30) = (  -0.0000000  -0.5000000   0.0000000), wk =   0.0039062
        k(   31) = (   0.0000000  -0.5000000   0.1250000), wk =   0.0078125
        k(   32) = (   0.0000000  -0.5000000   0.2500000), wk =   0.0078125
        k(   33) = (   0.0000000  -0.5000000   0.3750000), wk =   0.0078125
        k(   34) = (  -0.0000000  -0.5000000  -0.5000000), wk =   0.0039062
        k(   35) = (   0.1250000   0.0000000  -0.0000000), wk =   0.0078125
        k(   36) = (   0.1250000   0.0000000   0.1250000), wk =   0.0078125
        k(   37) = (   0.1250000   0.0000000   0.2500000), wk =   0.0078125
        k(   38) = (   0.1250000   0.0000000   0.3750000), wk =   0.0078125
        k(   39) = (   0.1250000   0.0000000  -0.5000000), wk =   0.0078125
        k(   40) = (   0.1250000   0.0000000  -0.3750000), wk =   0.0078125
        k(   41) = (   0.1250000   0.0000000  -0.2500000), wk =   0.0078125
        k(   42) = (   0.1250000   0.0000000  -0.1250000), wk =   0.0078125
        k(   43) = (   0.1250000   0.1250000  -0.0000000), wk =   0.0078125
        k(   44) = (   0.1250000   0.1250000   0.1250000), wk =   0.0078125
        k(   45) = (   0.1250000   0.1250000   0.2500000), wk =   0.0078125
        k(   46) = (   0.1250000   0.1250000   0.3750000), wk =   0.0078125
        k(   47) = (   0.1250000   0.1250000  -0.5000000), wk =   0.0078125
        k(   48) = (   0.1250000   0.1250000  -0.3750000), wk =   0.0078125
        k(   49) = (   0.1250000   0.1250000  -0.2500000), wk =   0.0078125
        k(   50) = (   0.1250000   0.1250000  -0.1250000), wk =   0.0078125
        k(   51) = (   0.1250000   0.2500000  -0.0000000), wk =   0.0078125
        k(   52) = (   0.1250000   0.2500000   0.1250000), wk =   0.0078125
        k(   53) = (   0.1250000   0.2500000   0.2500000), wk =   0.0078125
        k(   54) = (   0.1250000   0.2500000   0.3750000), wk =   0.0078125
        k(   55) = (   0.1250000   0.2500000  -0.5000000), wk =   0.0078125
        k(   56) = (   0.1250000   0.2500000  -0.3750000), wk =   0.0078125
        k(   57) = (   0.1250000   0.2500000  -0.2500000), wk =   0.0078125
        k(   58) = (   0.1250000   0.2500000  -0.1250000), wk =   0.0078125
        k(   59) = (   0.1250000   0.3750000  -0.0000000), wk =   0.0078125
        k(   60) = (   0.1250000   0.3750000   0.1250000), wk =   0.0078125
        k(   61) = (   0.1250000   0.3750000   0.2500000), wk =   0.0078125
        k(   62) = (   0.1250000   0.3750000   0.3750000), wk =   0.0078125
        k(   63) = (   0.1250000   0.3750000  -0.5000000), wk =   0.0078125
        k(   64) = (   0.1250000   0.3750000  -0.3750000), wk =   0.0078125
        k(   65) = (   0.1250000   0.3750000  -0.2500000), wk =   0.0078125
        k(   66) = (   0.1250000   0.3750000  -0.1250000), wk =   0.0078125
        k(   67) = (   0.1250000  -0.5000000  -0.0000000), wk =   0.0078125
        k(   68) = (   0.1250000  -0.5000000   0.1250000), wk =   0.0078125
        k(   69) = (   0.1250000  -0.5000000   0.2500000), wk =   0.0078125
        k(   70) = (   0.1250000  -0.5000000   0.3750000), wk =   0.0078125
        k(   71) = (   0.1250000  -0.5000000  -0.5000000), wk =   0.0078125
        k(   72) = (   0.1250000  -0.5000000  -0.3750000), wk =   0.0078125
        k(   73) = (   0.1250000  -0.5000000  -0.2500000), wk =   0.0078125
        k(   74) = (   0.1250000  -0.5000000  -0.1250000), wk =   0.0078125
        k(   75) = (   0.1250000  -0.3750000  -0.0000000), wk =   0.0078125
        k(   76) = (   0.1250000  -0.3750000   0.1250000), wk =   0.0078125
        k(   77) = (   0.1250000  -0.3750000   0.2500000), wk =   0.0078125
        k(   78) = (   0.1250000  -0.3750000   0.3750000), wk =   0.0078125
        k(   79) = (   0.1250000  -0.3750000  -0.5000000), wk =   0.0078125
        k(   80) = (   0.1250000  -0.3750000  -0.3750000), wk =   0.0078125
        k(   81) = (   0.1250000  -0.3750000  -0.2500000), wk =   0.0078125
        k(   82) = (   0.1250000  -0.3750000  -0.1250000), wk =   0.0078125
        k(   83) = (   0.1250000  -0.2500000  -0.0000000), wk =   0.0078125
        k(   84) = (   0.1250000  -0.2500000   0.1250000), wk =   0.0078125
        k(   85) = (   0.1250000  -0.2500000   0.2500000), wk =   0.0078125
        k(   86) = (   0.1250000  -0.2500000   0.3750000), wk =   0.0078125
        k(   87) = (   0.1250000  -0.2500000  -0.5000000), wk =   0.0078125
        k(   88) = (   0.1250000  -0.2500000  -0.3750000), wk =   0.0078125
        k(   89) = (   0.1250000  -0.2500000  -0.2500000), wk =   0.0078125
        k(   90) = (   0.1250000  -0.2500000  -0.1250000), wk =   0.0078125
        k(   91) = (   0.1250000  -0.1250000  -0.0000000), wk =   0.0078125
        k(   92) = (   0.1250000  -0.1250000   0.1250000), wk =   0.0078125
        k(   93) = (   0.1250000  -0.1250000   0.2500000), wk =   0.0078125
        k(   94) = (   0.1250000  -0.1250000   0.3750000), wk =   0.0078125
        k(   95) = (   0.1250000  -0.1250000  -0.5000000), wk =   0.0078125
        k(   96) = (   0.1250000  -0.1250000  -0.3750000), wk =   0.0078125
        k(   97) = (   0.1250000  -0.1250000  -0.2500000), wk =   0.0078125
        k(   98) = (   0.1250000  -0.1250000  -0.1250000), wk =   0.0078125
        k(   99) = (   0.2500000   0.0000000  -0.0000000), wk =   0.0078125
        k(  100) = (   0.2500000   0.0000000   0.1250000), wk =   0.0078125
        k(  101) = (   0.2500000   0.0000000   0.2500000), wk =   0.0078125
        k(  102) = (   0.2500000   0.0000000   0.3750000), wk =   0.0078125
        k(  103) = (   0.2500000   0.0000000  -0.5000000), wk =   0.0078125
        k(  104) = (   0.2500000   0.0000000  -0.3750000), wk =   0.0078125
        k(  105) = (   0.2500000   0.0000000  -0.2500000), wk =   0.0078125
        k(  106) = (   0.2500000   0.0000000  -0.1250000), wk =   0.0078125
        k(  107) = (   0.2500000   0.1250000  -0.0000000), wk =   0.0078125
        k(  108) = (   0.2500000   0.1250000   0.1250000), wk =   0.0078125
        k(  109) = (   0.2500000   0.1250000   0.2500000), wk =   0.0078125
        k(  110) = (   0.2500000   0.1250000   0.3750000), wk =   0.0078125
        k(  111) = (   0.2500000   0.1250000  -0.5000000), wk =   0.0078125
        k(  112) = (   0.2500000   0.1250000  -0.3750000), wk =   0.0078125
        k(  113) = (   0.2500000   0.1250000  -0.2500000), wk =   0.0078125
        k(  114) = (   0.2500000   0.1250000  -0.1250000), wk =   0.0078125
        k(  115) = (   0.2500000   0.2500000  -0.0000000), wk =   0.0078125
        k(  116) = (   0.2500000   0.2500000   0.1250000), wk =   0.0078125
        k(  117) = (   0.2500000   0.2500000   0.2500000), wk =   0.0078125
        k(  118) = (   0.2500000   0.2500000   0.3750000), wk =   0.0078125
        k(  119) = (   0.2500000   0.2500000  -0.5000000), wk =   0.0078125
        k(  120) = (   0.2500000   0.2500000  -0.3750000), wk =   0.0078125
        k(  121) = (   0.2500000   0.2500000  -0.2500000), wk =   0.0078125
        k(  122) = (   0.2500000   0.2500000  -0.1250000), wk =   0.0078125
        k(  123) = (   0.2500000   0.3750000  -0.0000000), wk =   0.0078125
        k(  124) = (   0.2500000   0.3750000   0.1250000), wk =   0.0078125
        k(  125) = (   0.2500000   0.3750000   0.2500000), wk =   0.0078125
        k(  126) = (   0.2500000   0.3750000   0.3750000), wk =   0.0078125
        k(  127) = (   0.2500000   0.3750000  -0.5000000), wk =   0.0078125
        k(  128) = (   0.2500000   0.3750000  -0.3750000), wk =   0.0078125
        k(  129) = (   0.2500000   0.3750000  -0.2500000), wk =   0.0078125
        k(  130) = (   0.2500000   0.3750000  -0.1250000), wk =   0.0078125
        k(  131) = (   0.2500000  -0.5000000  -0.0000000), wk =   0.0078125
        k(  132) = (   0.2500000  -0.5000000   0.1250000), wk =   0.0078125
        k(  133) = (   0.2500000  -0.5000000   0.2500000), wk =   0.0078125
        k(  134) = (   0.2500000  -0.5000000   0.3750000), wk =   0.0078125
        k(  135) = (   0.2500000  -0.5000000  -0.5000000), wk =   0.0078125
        k(  136) = (   0.2500000  -0.5000000  -0.3750000), wk =   0.0078125
        k(  137) = (   0.2500000  -0.5000000  -0.2500000), wk =   0.0078125
        k(  138) = (   0.2500000  -0.5000000  -0.1250000), wk =   0.0078125
        k(  139) = (   0.2500000  -0.3750000  -0.0000000), wk =   0.0078125
        k(  140) = (   0.2500000  -0.3750000   0.1250000), wk =   0.0078125
        k(  141) = (   0.2500000  -0.3750000   0.2500000), wk =   0.0078125
        k(  142) = (   0.2500000  -0.3750000   0.3750000), wk =   0.0078125
        k(  143) = (   0.2500000  -0.3750000  -0.5000000), wk =   0.0078125
        k(  144) = (   0.2500000  -0.3750000  -0.3750000), wk =   0.0078125
        k(  145) = (   0.2500000  -0.3750000  -0.2500000), wk =   0.0078125
        k(  146) = (   0.2500000  -0.3750000  -0.1250000), wk =   0.0078125
        k(  147) = (   0.2500000  -0.2500000  -0.0000000), wk =   0.0078125
        k(  148) = (   0.2500000  -0.2500000   0.1250000), wk =   0.0078125
        k(  149) = (   0.2500000  -0.2500000   0.2500000), wk =   0.0078125
        k(  150) = (   0.2500000  -0.2500000   0.3750000), wk =   0.0078125
        k(  151) = (   0.2500000  -0.2500000  -0.5000000), wk =   0.0078125
        k(  152) = (   0.2500000  -0.2500000  -0.3750000), wk =   0.0078125
        k(  153) = (   0.2500000  -0.2500000  -0.2500000), wk =   0.0078125
        k(  154) = (   0.2500000  -0.2500000  -0.1250000), wk =   0.0078125
        k(  155) = (   0.2500000  -0.1250000  -0.0000000), wk =   0.0078125
        k(  156) = (   0.2500000  -0.1250000   0.1250000), wk =   0.0078125
        k(  157) = (   0.2500000  -0.1250000   0.2500000), wk =   0.0078125
        k(  158) = (   0.2500000  -0.1250000   0.3750000), wk =   0.0078125
        k(  159) = (   0.2500000  -0.1250000  -0.5000000), wk =   0.0078125
        k(  160) = (   0.2500000  -0.1250000  -0.3750000), wk =   0.0078125
        k(  161) = (   0.2500000  -0.1250000  -0.2500000), wk =   0.0078125
        k(  162) = (   0.2500000  -0.1250000  -0.1250000), wk =   0.0078125
        k(  163) = (   0.3750000   0.0000000  -0.0000000), wk =   0.0078125
        k(  164) = (   0.3750000   0.0000000   0.1250000), wk =   0.0078125
        k(  165) = (   0.3750000   0.0000000   0.2500000), wk =   0.0078125
        k(  166) = (   0.3750000   0.0000000   0.3750000), wk =   0.0078125
        k(  167) = (   0.3750000   0.0000000  -0.5000000), wk =   0.0078125
        k(  168) = (   0.3750000   0.0000000  -0.3750000), wk =   0.0078125
        k(  169) = (   0.3750000   0.0000000  -0.2500000), wk =   0.0078125
        k(  170) = (   0.3750000   0.0000000  -0.1250000), wk =   0.0078125
        k(  171) = (   0.3750000   0.1250000  -0.0000000), wk =   0.0078125
        k(  172) = (   0.3750000   0.1250000   0.1250000), wk =   0.0078125
        k(  173) = (   0.3750000   0.1250000   0.2500000), wk =   0.0078125
        k(  174) = (   0.3750000   0.1250000   0.3750000), wk =   0.0078125
        k(  175) = (   0.3750000   0.1250000  -0.5000000), wk =   0.0078125
        k(  176) = (   0.3750000   0.1250000  -0.3750000), wk =   0.0078125
        k(  177) = (   0.3750000   0.1250000  -0.2500000), wk =   0.0078125
        k(  178) = (   0.3750000   0.1250000  -0.1250000), wk =   0.0078125
        k(  179) = (   0.3750000   0.2500000  -0.0000000), wk =   0.0078125
        k(  180) = (   0.3750000   0.2500000   0.1250000), wk =   0.0078125
        k(  181) = (   0.3750000   0.2500000   0.2500000), wk =   0.0078125
        k(  182) = (   0.3750000   0.2500000   0.3750000), wk =   0.0078125
        k(  183) = (   0.3750000   0.2500000  -0.5000000), wk =   0.0078125
        k(  184) = (   0.3750000   0.2500000  -0.3750000), wk =   0.0078125
        k(  185) = (   0.3750000   0.2500000  -0.2500000), wk =   0.0078125
        k(  186) = (   0.3750000   0.2500000  -0.1250000), wk =   0.0078125
        k(  187) = (   0.3750000   0.3750000   0.0000000), wk =   0.0078125
        k(  188) = (   0.3750000   0.3750000   0.1250000), wk =   0.0078125
        k(  189) = (   0.3750000   0.3750000   0.2500000), wk =   0.0078125
        k(  190) = (   0.3750000   0.3750000   0.3750000), wk =   0.0078125
        k(  191) = (   0.3750000   0.3750000  -0.5000000), wk =   0.0078125
        k(  192) = (   0.3750000   0.3750000  -0.3750000), wk =   0.0078125
        k(  193) = (   0.3750000   0.3750000  -0.2500000), wk =   0.0078125
        k(  194) = (   0.3750000   0.3750000  -0.1250000), wk =   0.0078125
        k(  195) = (   0.3750000  -0.5000000  -0.0000000), wk =   0.0078125
        k(  196) = (   0.3750000  -0.5000000   0.1250000), wk =   0.0078125
        k(  197) = (   0.3750000  -0.5000000   0.2500000), wk =   0.0078125
        k(  198) = (   0.3750000  -0.5000000   0.3750000), wk =   0.0078125
        k(  199) = (   0.3750000  -0.5000000  -0.5000000), wk =   0.0078125
        k(  200) = (   0.3750000  -0.5000000  -0.3750000), wk =   0.0078125
        k(  201) = (   0.3750000  -0.5000000  -0.2500000), wk =   0.0078125
        k(  202) = (   0.3750000  -0.5000000  -0.1250000), wk =   0.0078125
        k(  203) = (   0.3750000  -0.3750000   0.0000000), wk =   0.0078125
        k(  204) = (   0.3750000  -0.3750000   0.1250000), wk =   0.0078125
        k(  205) = (   0.3750000  -0.3750000   0.2500000), wk =   0.0078125
        k(  206) = (   0.3750000  -0.3750000   0.3750000), wk =   0.0078125
        k(  207) = (   0.3750000  -0.3750000  -0.5000000), wk =   0.0078125
        k(  208) = (   0.3750000  -0.3750000  -0.3750000), wk =   0.0078125
        k(  209) = (   0.3750000  -0.3750000  -0.2500000), wk =   0.0078125
        k(  210) = (   0.3750000  -0.3750000  -0.1250000), wk =   0.0078125
        k(  211) = (   0.3750000  -0.2500000  -0.0000000), wk =   0.0078125
        k(  212) = (   0.3750000  -0.2500000   0.1250000), wk =   0.0078125
        k(  213) = (   0.3750000  -0.2500000   0.2500000), wk =   0.0078125
        k(  214) = (   0.3750000  -0.2500000   0.3750000), wk =   0.0078125
        k(  215) = (   0.3750000  -0.2500000  -0.5000000), wk =   0.0078125
        k(  216) = (   0.3750000  -0.2500000  -0.3750000), wk =   0.0078125
        k(  217) = (   0.3750000  -0.2500000  -0.2500000), wk =   0.0078125
        k(  218) = (   0.3750000  -0.2500000  -0.1250000), wk =   0.0078125
        k(  219) = (   0.3750000  -0.1250000  -0.0000000), wk =   0.0078125
        k(  220) = (   0.3750000  -0.1250000   0.1250000), wk =   0.0078125
        k(  221) = (   0.3750000  -0.1250000   0.2500000), wk =   0.0078125
        k(  222) = (   0.3750000  -0.1250000   0.3750000), wk =   0.0078125
        k(  223) = (   0.3750000  -0.1250000  -0.5000000), wk =   0.0078125
        k(  224) = (   0.3750000  -0.1250000  -0.3750000), wk =   0.0078125
        k(  225) = (   0.3750000  -0.1250000  -0.2500000), wk =   0.0078125
        k(  226) = (   0.3750000  -0.1250000  -0.1250000), wk =   0.0078125
        k(  227) = (  -0.5000000  -0.0000000   0.0000000), wk =   0.0039062
        k(  228) = (  -0.5000000  -0.0000000   0.1250000), wk =   0.0078125
        k(  229) = (  -0.5000000  -0.0000000   0.2500000), wk =   0.0078125
        k(  230) = (  -0.5000000  -0.0000000   0.3750000), wk =   0.0078125
        k(  231) = (  -0.5000000  -0.0000000  -0.5000000), wk =   0.0039062
        k(  232) = (  -0.5000000   0.1250000   0.0000000), wk =   0.0078125
        k(  233) = (  -0.5000000   0.1250000   0.1250000), wk =   0.0078125
        k(  234) = (  -0.5000000   0.1250000   0.2500000), wk =   0.0078125
        k(  235) = (  -0.5000000   0.1250000   0.3750000), wk =   0.0078125
        k(  236) = (  -0.5000000   0.1250000  -0.5000000), wk =   0.0078125
        k(  237) = (  -0.5000000   0.1250000  -0.3750000), wk =   0.0078125
        k(  238) = (  -0.5000000   0.1250000  -0.2500000), wk =   0.0078125
        k(  239) = (  -0.5000000   0.1250000  -0.1250000), wk =   0.0078125
        k(  240) = (  -0.5000000   0.2500000   0.0000000), wk =   0.0078125
        k(  241) = (  -0.5000000   0.2500000   0.1250000), wk =   0.0078125
        k(  242) = (  -0.5000000   0.2500000   0.2500000), wk =   0.0078125
        k(  243) = (  -0.5000000   0.2500000   0.3750000), wk =   0.0078125
        k(  244) = (  -0.5000000   0.2500000  -0.5000000), wk =   0.0078125
        k(  245) = (  -0.5000000   0.2500000  -0.3750000), wk =   0.0078125
        k(  246) = (  -0.5000000   0.2500000  -0.2500000), wk =   0.0078125
        k(  247) = (  -0.5000000   0.2500000  -0.1250000), wk =   0.0078125
        k(  248) = (  -0.5000000   0.3750000   0.0000000), wk =   0.0078125
        k(  249) = (  -0.5000000   0.3750000   0.1250000), wk =   0.0078125
        k(  250) = (  -0.5000000   0.3750000   0.2500000), wk =   0.0078125
        k(  251) = (  -0.5000000   0.3750000   0.3750000), wk =   0.0078125
        k(  252) = (  -0.5000000   0.3750000  -0.5000000), wk =   0.0078125
        k(  253) = (  -0.5000000   0.3750000  -0.3750000), wk =   0.0078125
        k(  254) = (  -0.5000000   0.3750000  -0.2500000), wk =   0.0078125
        k(  255) = (  -0.5000000   0.3750000  -0.1250000), wk =   0.0078125
        k(  256) = (  -0.5000000  -0.5000000   0.0000000), wk =   0.0039062
        k(  257) = (  -0.5000000  -0.5000000   0.1250000), wk =   0.0078125
        k(  258) = (  -0.5000000  -0.5000000   0.2500000), wk =   0.0078125
        k(  259) = (  -0.5000000  -0.5000000   0.3750000), wk =   0.0078125
        k(  260) = (  -0.5000000  -0.5000000  -0.5000000), wk =   0.0039062

     Dense  grid:    75821 G-vectors     FFT dimensions: (  54,  54,  72)

     Smooth grid:    29477 G-vectors     FFT dimensions: (  40,  40,  48)

     Dynamical RAM for                 wfc:       0.07 MB

     Dynamical RAM for     wfc (w. buffer):       4.86 MB

     Dynamical RAM for           str. fact:       0.22 MB

     Dynamical RAM for           local pot:       0.00 MB

     Dynamical RAM for          nlocal pot:       0.22 MB

     Dynamical RAM for                qrad:      16.31 MB

     Dynamical RAM for          rho,v,vnew:       0.55 MB

     Dynamical RAM for               rhoin:       0.18 MB

     Dynamical RAM for            rho*nmix:       1.16 MB

     Dynamical RAM for           G-vectors:       0.29 MB

     Dynamical RAM for          h,s,v(r/c):       0.08 MB

     Dynamical RAM for          <psi|beta>:       0.02 MB

     Dynamical RAM for                 psi:       0.29 MB

     Dynamical RAM for                hpsi:       0.29 MB

     Dynamical RAM for                spsi:       0.29 MB

     Dynamical RAM for      wfcinit/wfcrot:       0.20 MB

     Dynamical RAM for           addusdens:       3.79 MB

     Dynamical RAM for          addusforce:       3.94 MB

     Dynamical RAM for         addusstress:       4.00 MB

     Estimated static dynamical RAM per process >      24.64 MB

     Estimated max dynamical RAM per process >      28.64 MB

     Estimated total dynamical RAM >       1.79 GB

     Check: negative core charge=   -0.000003

     Initial potential from superposition of free atoms

     starting charge   41.69964, renormalised to   42.00000
     Starting wfcs are   26 randomized atomic wfcs

     total cpu time spent up to now is        3.4 secs

     Self-consistent Calculation

     iteration #  1     ecut=    80.00 Ry     beta= 0.50
     Davidson diagonalization with overlap
     ethr =  1.00E-02,  avg # of iterations =  2.0

     total cpu time spent up to now is        4.3 secs

     total energy              =    -650.64721567 Ry
     Harris-Foulkes estimate   =    -651.44292480 Ry
     estimated scf accuracy    <       1.19297478 Ry

     iteration #  2     ecut=    80.00 Ry     beta= 0.50
     Davidson diagonalization with overlap
     ethr =  2.84E-03,  avg # of iterations =  3.0

     total cpu time spent up to now is        5.4 secs

     total energy              =    -651.02261932 Ry
     Harris-Foulkes estimate   =    -651.28987249 Ry
     estimated scf accuracy    <       0.61280921 Ry

     iteration #  3     ecut=    80.00 Ry     beta= 0.50
     Davidson diagonalization with overlap
     ethr =  1.46E-03,  avg # of iterations =  2.0

     total cpu time spent up to now is        6.2 secs

     total energy              =    -651.12623254 Ry
     Harris-Foulkes estimate   =    -651.12962268 Ry
     estimated scf accuracy    <       0.00984836 Ry

     iteration #  4     ecut=    80.00 Ry     beta= 0.50
     Davidson diagonalization with overlap
     ethr =  2.34E-05,  avg # of iterations =  3.0

     total cpu time spent up to now is        7.2 secs

     total energy              =    -651.12688635 Ry
     Harris-Foulkes estimate   =    -651.12815897 Ry
     estimated scf accuracy    <       0.00324138 Ry

     iteration #  5     ecut=    80.00 Ry     beta= 0.50
     Davidson diagonalization with overlap
     ethr =  7.72E-06,  avg # of iterations =  2.7

     total cpu time spent up to now is        8.2 secs

     total energy              =    -651.12750204 Ry
     Harris-Foulkes estimate   =    -651.12753680 Ry
     estimated scf accuracy    <       0.00016265 Ry

     iteration #  6     ecut=    80.00 Ry     beta= 0.50
     Davidson diagonalization with overlap
     ethr =  3.87E-07,  avg # of iterations =  2.5

     total cpu time spent up to now is        9.1 secs

     total energy              =    -651.12752663 Ry
     Harris-Foulkes estimate   =    -651.12752316 Ry
     estimated scf accuracy    <       0.00000988 Ry

     iteration #  7     ecut=    80.00 Ry     beta= 0.50
     Davidson diagonalization with overlap
     ethr =  2.35E-08,  avg # of iterations =  2.0

     total cpu time spent up to now is        9.9 secs

     End of self-consistent calculation

          k = 0.0000 0.0000 0.0000 (  3659 PWs)   bands (ev):

  -115.3685 -69.7294 -69.7294 -69.7246 -64.8100 -31.8030 -31.7782 -31.7782
   -10.0017  -8.6152   2.0066   2.0066   3.0457   3.2480   3.2480   3.5371
     5.7851   5.7851   6.9905   7.3221   7.3221

     occupation numbers 
     1.0000   1.0000   1.0000   1.0000   1.0000   1.0000   1.0000   1.0000
     1.0000   1.0000   1.0000   1.0000   1.0000   1.0000   1.0000   1.0000
     1.0000   1.0000   1.0000   1.0000   1.0000

          k =-0.0000 0.0000 0.0982 (  3677 PWs)   bands (ev):

  -115.3685 -69.7294 -69.7294 -69.7246 -64.8100 -31.8032 -31.7781 -31.7781
    -9.9579  -8.6569   2.0073   2.0073   2.7978   3.2262   3.2262   3.7853
     5.8363   5.8363   6.7015   7.3031   7.3031

     occupation numbers 
     1.0000   1.0000   1.0000   1.0000   1.0000   1.0000   1.0000   1.0000
     1.0000   1.0000   1.0000   1.0000   1.0000   1.0000   1.0000   1.0000
     1.0000   1.0000   1.0000   1.0000   1.0000

          k =-0.0000 0.0000 0.1965 (  3696 PWs)   bands (ev):

  -115.3685 -69.7294 -69.7294 -69.7246 -64.8100 -31.8037 -31.7781 -31.7781
    -9.8371  -8.7727   2.0091   2.0091   2.4734   3.1760   3.1760   4.1107
     5.9633   5.9633   6.2056   7.2513   7.2513

     occupation numbers 
     1.0000   1.0000   1.0000   1.0000   1.0000   1.0000   1.0000   1.0000
     1.0000   1.0000   1.0000   1.0000   1.0000   1.0000   1.0000   1.0000
     1.0000   1.0000   1.0000   1.0000   1.0000

          k =-0.0000 0.0000 0.2947 (  3732 PWs)   bands (ev):

  -115.3685 -69.7295 -69.7295 -69.7247 -64.8100 -31.8041 -31.7781 -31.7781
    -9.6789  -8.9264   2.0109   2.0109   2.2568   3.1286   3.1286   4.3274
     5.8351   6.0990   6.0990   7.1883   7.1883

     occupation numbers 
     1.0000   1.0000   1.0000   1.0000   1.0000   1.0000   1.0000   1.0000
     1.0000   1.0000   1.0000   1.0000   1.0000   1.0000   1.0000   1.0000
     1.0000   1.0000   1.0000   1.0000   1.0000

          k = 0.0000-0.0000-0.3929 (  3744 PWs)   bands (ev):

  -115.3685 -69.7295 -69.7295 -69.7247 -64.8100 -31.8043 -31.7781 -31.7781
    -9.5889  -9.0148   2.0117   2.0117   2.1826   3.1096   3.1096   4.4009
     5.7025   6.1592   6.1592   7.1575   7.1575

     occupation numbers 
     1.0000   1.0000   1.0000   1.0000   1.0000   1.0000   1.0000   1.0000
     1.0000   1.0000   1.0000   1.0000   1.0000   1.0000   1.0000   1.0000
     1.0000   1.0000   1.0000   1.0000   1.0000

          k =-0.0000 0.1443 0.0000 (  3672 PWs)   bands (ev):

  -115.3685 -69.7296 -69.7294 -69.7246 -64.8099 -31.8028 -31.7809 -31.7788
    -9.9211  -8.6114   1.9820   2.0872   2.8849   3.2420   3.5176   3.5465
     5.4775   5.7006   6.6876   6.9093   7.1774

     occupation numbers 
     1.0000   1.0000   1.0000   1.0000   1.0000   1.0000   1.0000   1.0000
     1.0000   1.0000   1.0000   1.0000   1.0000   1.0000   1.0000   1.0000
     1.0000   1.0000   1.0000   1.0000   1.0000

          k =-0.0000 0.1443 0.0982 (  3671 PWs)   bands (ev):

  -115.3685 -69.7295 -69.7294 -69.7246 -64.8099 -31.8030 -31.7809 -31.7788
    -9.8794  -8.6486   1.9807   2.0878   2.7493   3.2200   3.2274   3.9271
     5.5336   5.7585   6.3315   7.1486   7.1521

     occupation numbers 
     1.0000   1.0000   1.0000   1.0000   1.0000   1.0000   1.0000   1.0000
     1.0000   1.0000   1.0000   1.0000   1.0000   1.0000   1.0000   1.0000
     1.0000   1.0000   1.0000   1.0000   1.0000

          k =-0.0000 0.1443 0.1965 (  3681 PWs)   bands (ev):

  -115.3685 -69.7296 -69.7295 -69.7246 -64.8099 -31.8034 -31.7809 -31.7788
    -9.7654  -8.7522   1.9737   2.0901   2.4792   3.0522   3.1686   4.2651
     5.6162   5.9006   5.9946   7.0755   7.2817

     occupation numbers 
     1.0000   1.0000   1.0000   1.0000   1.0000   1.0000   1.0000   1.0000
     1.0000   1.0000   1.0000   1.0000   1.0000   1.0000   1.0000   1.0000
     1.0000   1.0000   1.0000   1.0000   1.0000

          k =-0.0000 0.1443 0.2947 (  3708 PWs)   bands (ev):

  -115.3685 -69.7296 -69.7295 -69.7246 -64.8099 -31.8039 -31.7809 -31.7787
    -9.6180  -8.8897   1.9571   2.0929   2.2841   2.9363   3.1198   4.4836
     5.4643   6.0364   6.0572   6.9854   7.2816

     occupation numbers 
     1.0000   1.0000   1.0000   1.0000   1.0000   1.0000   1.0000   1.0000
     1.0000   1.0000   1.0000   1.0000   1.0000   1.0000   1.0000   1.0000
     1.0000   1.0000   1.0000   1.0000   1.0000

          k = 0.0000 0.1443-0.3929 (  3714 PWs)   bands (ev):

  -115.3685 -69.7296 -69.7295 -69.7247 -64.8099 -31.8041 -31.7809 -31.7787
    -9.5359  -8.9677   1.9456   2.0945   2.2206   2.8927   3.0999   4.5560
     5.3792   6.1054   6.1274   6.9425   7.2574

     occupation numbers 
     1.0000   1.0000   1.0000   1.0000   1.0000   1.0000   1.0000   1.0000
     1.0000   1.0000   1.0000   1.0000   1.0000   1.0000   1.0000   1.0000
     1.0000   1.0000   1.0000   1.0000   1.0000

          k = 0.0000 0.1443-0.2947 (  3708 PWs)   bands (ev):

  -115.3685 -69.7296 -69.7295 -69.7246 -64.8099 -31.8039 -31.7809 -31.7787
    -9.6180  -8.8897   1.9588   2.0938   2.2814   2.9375   3.1189   4.4711
     5.5064   6.0125   6.0500   6.9938   7.2729

     occupation numbers 
     1.0000   1.0000   1.0000   1.0000   1.0000   1.0000   1.0000   1.0000
     1.0000   1.0000   1.0000   1.0000   1.0000   1.0000   1.0000   1.0000
     1.0000   1.0000   1.0000   1.0000   1.0000

          k = 0.0000 0.1443-0.1965 (  3681 PWs)   bands (ev):

  -115.3685 -69.7296 -69.7295 -69.7246 -64.8099 -31.8034 -31.7809 -31.7788
    -9.7654  -8.7522   1.9742   2.0913   2.4779   3.0538   3.1675   4.2531
     5.6791   5.8927   5.9539   7.0850   7.2666

     occupation numbers 
     1.0000   1.0000   1.0000   1.0000   1.0000   1.0000   1.0000   1.0000
     1.0000   1.0000   1.0000   1.0000   1.0000   1.0000   1.0000   1.0000
     1.0000   1.0000   1.0000   1.0000   1.0000

          k = 0.0000 0.1443-0.0982 (  3671 PWs)   bands (ev):

  -115.3685 -69.7295 -69.7294 -69.7246 -64.8099 -31.8030 -31.7809 -31.7788
    -9.8794  -8.6486   1.9805   2.0886   2.7496   3.2193   3.2295   3.9196
     5.5490   5.7537   6.3362   7.1340   7.1545

     occupation numbers 
     1.0000   1.0000   1.0000   1.0000   1.0000   1.0000   1.0000   1.0000
     1.0000   1.0000   1.0000   1.0000   1.0000   1.0000   1.0000   1.0000
     1.0000   1.0000   1.0000   1.0000   1.0000

          k =-0.0000 0.2887 0.0000 (  3694 PWs)   bands (ev):

  -115.3685 -69.7299 -69.7296 -69.7246 -64.8096 -31.8022 -31.7877 -31.7803
    -9.7093  -8.6161   1.9616   2.3067   2.7427   3.2279   3.5356   3.9674
     4.8133   5.4571   5.7756   6.6742   6.8612

     occupation numbers 
     1.0000   1.0000   1.0000   1.0000   1.0000   1.0000   1.0000   1.0000
     1.0000   1.0000   1.0000   1.0000   1.0000   1.0000   1.0000   1.0000
     1.0000   1.0000   1.0000   1.0000   1.0000

          k =-0.0000 0.2887 0.0982 (  3688 PWs)   bands (ev):

  -115.3685 -69.7299 -69.7296 -69.7246 -64.8096 -31.8024 -31.7877 -31.7803
    -9.6745  -8.6408   1.9582   2.3075   2.6500   3.2049   3.2417   4.1916
     4.9264   5.5251   5.6113   6.8172   6.9116

     occupation numbers 
     1.0000   1.0000   1.0000   1.0000   1.0000   1.0000   1.0000   1.0000
     1.0000   1.0000   1.0000   1.0000   1.0000   1.0000   1.0000   1.0000
     1.0000   1.0000   1.0000   1.0000   1.0000

          k =-0.0000 0.2887 0.1965 (  3694 PWs)   bands (ev):

  -115.3685 -69.7299 -69.7296 -69.7246 -64.8096 -31.8028 -31.7876 -31.7803
    -9.5808  -8.7103   1.9388   2.3113   2.4570   2.8691   3.1505   4.3944
     4.9964   5.6273   5.6985   6.7000   7.2304

     occupation numbers 
     1.0000   1.0000   1.0000   1.0000   1.0000   1.0000   1.0000   1.0000
     1.0000   1.0000   1.0000   1.0000   1.0000   1.0000   1.0000   1.0000
     1.0000   1.0000   1.0000   1.0000   1.0000

          k =-0.0000 0.2887 0.2947 (  3699 PWs)   bands (ev):

  -115.3685 -69.7299 -69.7296 -69.7246 -64.8096 -31.8033 -31.7876 -31.7803
    -9.4653  -8.8019   1.8972   2.3152   2.3162   2.6034   3.0987   4.5406
     4.8446   5.9075   5.9178   6.5340   7.3957

     occupation numbers 
     1.0000   1.0000   1.0000   1.0000   1.0000   1.0000   1.0000   1.0000
     1.0000   1.0000   1.0000   1.0000   1.0000   1.0000   1.0000   1.0000
     1.0000   1.0000   1.0000   1.0000   1.0000

          k = 0.0000 0.2887-0.3929 (  3682 PWs)   bands (ev):

  -115.3685 -69.7299 -69.7296 -69.7246 -64.8096 -31.8034 -31.7876 -31.7802
    -9.4054  -8.8520   1.8753   2.2656   2.3192   2.5091   3.0772   4.5746
     4.8034   6.0390   6.0466   6.4269   7.4216

     occupation numbers 
     1.0000   1.0000   1.0000   1.0000   1.0000   1.0000   1.0000   1.0000
     1.0000   1.0000   1.0000   1.0000   1.0000   1.0000   1.0000   1.0000
     1.0000   1.0000   1.0000   1.0000   1.0000

          k = 0.0000 0.2887-0.2947 (  3699 PWs)   bands (ev):

  -115.3685 -69.7299 -69.7296 -69.7246 -64.8096 -31.8033 -31.7876 -31.7803
    -9.4652  -8.8020   1.9061   2.2973   2.3182   2.6123   3.0968   4.4592
     4.9622   5.8873   5.9026   6.5507   7.3713

     occupation numbers 
     1.0000   1.0000   1.0000   1.0000   1.0000   1.0000   1.0000   1.0000
     1.0000   1.0000   1.0000   1.0000   1.0000   1.0000   1.0000   1.0000
     1.0000   1.0000   1.0000   1.0000   1.0000

          k = 0.0000 0.2887-0.1965 (  3694 PWs)   bands (ev):

  -115.3685 -69.7299 -69.7296 -69.7246 -64.8096 -31.8028 -31.7876 -31.7803
    -9.5807  -8.7104   1.9421   2.3140   2.4523   2.8734   3.1481   4.3190
     5.1375   5.5885   5.6854   6.7153   7.1893

     occupation numbers 
     1.0000   1.0000   1.0000   1.0000   1.0000   1.0000   1.0000   1.0000
     1.0000   1.0000   1.0000   1.0000   1.0000   1.0000   1.0000   1.0000
     1.0000   1.0000   1.0000   1.0000   1.0000

          k = 0.0000 0.2887-0.0982 (  3688 PWs)   bands (ev):

  -115.3685 -69.7299 -69.7296 -69.7246 -64.8096 -31.8024 -31.7877 -31.7803
    -9.6744  -8.6408   1.9573   2.3093   2.6530   3.2033   3.2508   4.1357
     4.9817   5.5179   5.6371   6.8258   6.8678

     occupation numbers 
     1.0000   1.0000   1.0000   1.0000   1.0000   1.0000   1.0000   1.0000
     1.0000   1.0000   1.0000   1.0000   1.0000   1.0000   1.0000   1.0000
     1.0000   1.0000   1.0000   1.0000   1.0000

          k =-0.0000 0.4330 0.0000 (  3674 PWs)   bands (ev):

  -115.3685 -69.7302 -69.7296 -69.7246 -64.8093 -31.8016 -31.7944 -31.7818
    -9.4582  -8.6552   2.0187   2.5797   2.6665   3.2153   3.4299   4.2540
     4.4738   5.0758   5.1315   6.3460   6.5956

     occupation numbers 
     1.0000   1.0000   1.0000   1.0000   1.0000   1.0000   1.0000   1.0000
     1.0000   1.0000   1.0000   1.0000   1.0000   1.0000   1.0000   1.0000
     1.0000   1.0000   1.0000   1.0000   1.0000

          k =-0.0000 0.4330 0.0982 (  3693 PWs)   bands (ev):

  -115.3685 -69.7303 -69.7297 -69.7246 -64.8093 -31.8018 -31.7944 -31.7818
    -9.4342  -8.6632   2.0161   2.5667   2.5804   3.1914   3.2520   3.9847
     4.7139   5.1959   5.2021   6.5453   6.6032

     occupation numbers 
     1.0000   1.0000   1.0000   1.0000   1.0000   1.0000   1.0000   1.0000
     1.0000   1.0000   1.0000   1.0000   1.0000   1.0000   1.0000   1.0000
     1.0000   1.0000   1.0000   1.0000   1.0000

          k =-0.0000 0.4330 0.1965 (  3700 PWs)   bands (ev):

  -115.3685 -69.7303 -69.7297 -69.7246 -64.8093 -31.8022 -31.7943 -31.7818
    -9.3724  -8.6863   1.9914   2.3791   2.5845   2.8203   3.1349   3.8672
     4.7375   5.3863   5.6111   6.4072   7.0742

     occupation numbers 
     1.0000   1.0000   1.0000   1.0000   1.0000   1.0000   1.0000   1.0000
     1.0000   1.0000   1.0000   1.0000   1.0000   1.0000   1.0000   1.0000
     1.0000   1.0000   1.0000   1.0000   1.0000

          k =-0.0000 0.4330 0.2947 (  3693 PWs)   bands (ev):

  -115.3685 -69.7302 -69.7297 -69.7246 -64.8093 -31.8027 -31.7943 -31.7818
    -9.3028  -8.7169   1.9399   2.2388   2.4642   2.5904   3.0811   3.8434
     4.7302   5.6327   5.9599   6.2030   7.4274

     occupation numbers 
     1.0000   1.0000   1.0000   1.0000   1.0000   1.0000   1.0000   1.0000
     1.0000   1.0000   1.0000   1.0000   1.0000   1.0000   1.0000   1.0000
     1.0000   1.0000   1.0000   1.0000   1.0000

          k = 0.0000 0.4330-0.3929 (  3704 PWs)   bands (ev):

  -115.3685 -69.7303 -69.7297 -69.7246 -64.8093 -31.8028 -31.7943 -31.7818
    -9.2708  -8.7329   1.9230   2.1499   2.3662   2.5942   3.0585   3.8351
     4.7337   5.8163   6.0362   6.1011   7.5332

     occupation numbers 
     1.0000   1.0000   1.0000   1.0000   1.0000   1.0000   1.0000   1.0000
     1.0000   1.0000   1.0000   1.0000   1.0000   1.0000   1.0000   1.0000
     1.0000   1.0000   1.0000   1.0000   1.0000

          k = 0.0000 0.4330-0.2947 (  3693 PWs)   bands (ev):

  -115.3685 -69.7302 -69.7297 -69.7246 -64.8093 -31.8027 -31.7943 -31.7818
    -9.3028  -8.7170   1.9547   2.2078   2.4815   2.5930   3.0785   3.8298
     4.7498   5.6209   5.9716   6.2158   7.4001

     occupation numbers 
     1.0000   1.0000   1.0000   1.0000   1.0000   1.0000   1.0000   1.0000
     1.0000   1.0000   1.0000   1.0000   1.0000   1.0000   1.0000   1.0000
     1.0000   1.0000   1.0000   1.0000   1.0000

          k = 0.0000 0.4330-0.1965 (  3700 PWs)   bands (ev):

  -115.3685 -69.7303 -69.7297 -69.7246 -64.8093 -31.8022 -31.7943 -31.7818
    -9.3723  -8.6864   1.9895   2.3828   2.5880   2.8266   3.1316   3.8359
     4.7567   5.3771   5.6521   6.4178   7.0269

     occupation numbers 
     1.0000   1.0000   1.0000   1.0000   1.0000   1.0000   1.0000   1.0000
     1.0000   1.0000   1.0000   1.0000   1.0000   1.0000   1.0000   1.0000
     1.0000   1.0000   1.0000   1.0000   1.0000

          k = 0.0000 0.4330-0.0982 (  3693 PWs)   bands (ev):

  -115.3685 -69.7303 -69.7297 -69.7246 -64.8093 -31.8018 -31.7944 -31.7818
    -9.4342  -8.6633   2.0103   2.5765   2.5827   3.1892   3.2725   3.9347
     4.6811   5.1971   5.2994   6.5512   6.5519

     occupation numbers 
     1.0000   1.0000   1.0000   1.0000   1.0000   1.0000   1.0000   1.0000
     1.0000   1.0000   1.0000   1.0000   1.0000   1.0000   1.0000   1.0000
     1.0000   1.0000   1.0000   1.0000   1.0000

          k = 0.0000-0.5774-0.0000 (  3678 PWs)   bands (ev):

  -115.3685 -69.7304 -69.7297 -69.7246 -64.8092 -31.8014 -31.7971 -31.7824
    -9.3312  -8.6930   2.0824   2.6429   2.7187   3.2115   3.3044   4.1263
     4.7146   4.7949   4.9602   6.1495   6.5006

     occupation numbers 
     1.0000   1.0000   1.0000   1.0000   1.0000   1.0000   1.0000   1.0000
     1.0000   1.0000   1.0000   1.0000   1.0000   1.0000   1.0000   1.0000
     1.0000   1.0000   1.0000   1.0000   1.0000

          k =-0.0000-0.5774 0.0982 (  3688 PWs)   bands (ev):

  -115.3685 -69.7304 -69.7297 -69.7246 -64.8092 -31.8016 -31.7971 -31.7824
    -9.3149  -8.6908   2.0708   2.5520   2.7199   3.1864   3.2550   3.7233
     4.5668   5.0281   5.3368   6.3881   6.4523

     occupation numbers 
     1.0000   1.0000   1.0000   1.0000   1.0000   1.0000   1.0000   1.0000
     1.0000   1.0000   1.0000   1.0000   1.0000   1.0000   1.0000   1.0000
     1.0000   1.0000   1.0000   1.0000   1.0000

          k =-0.0000-0.5774 0.1965 (  3686 PWs)   bands (ev):

  -115.3685 -69.7304 -69.7297 -69.7246 -64.8092 -31.8020 -31.7971 -31.7824
    -9.2744  -8.6862   2.0271   2.3835   2.7231   2.8609   3.1296   3.4682
     4.6322   5.2074   5.7513   6.3162   6.9507

     occupation numbers 
     1.0000   1.0000   1.0000   1.0000   1.0000   1.0000   1.0000   1.0000
     1.0000   1.0000   1.0000   1.0000   1.0000   1.0000   1.0000   1.0000
     1.0000   1.0000   1.0000   1.0000   1.0000

          k =-0.0000-0.5774 0.2947 (  3692 PWs)   bands (ev):

  -115.3685 -69.7304 -69.7297 -69.7246 -64.8092 -31.8024 -31.7971 -31.7824
    -9.2319  -8.6832   1.9670   2.2258   2.4734   2.7270   3.0769   3.4437
     4.6781   5.4388   6.0369   6.1231   7.4124

     occupation numbers 
     1.0000   1.0000   1.0000   1.0000   1.0000   1.0000   1.0000   1.0000
     1.0000   1.0000   1.0000   1.0000   1.0000   1.0000   1.0000   1.0000
     1.0000   1.0000   1.0000   1.0000   1.0000

          k = 0.0000-0.5774-0.3929 (  3680 PWs)   bands (ev):

  -115.3685 -69.7304 -69.7297 -69.7246 -64.8092 -31.8026 -31.7970 -31.7824
    -9.2137  -8.6825   1.9569   2.1006   2.3851   2.7289   3.0560   3.4409
     4.6907   5.5869   5.9897   6.1516   7.5712

     occupation numbers 
     1.0000   1.0000   1.0000   1.0000   1.0000   1.0000   1.0000   1.0000
     1.0000   1.0000   1.0000   1.0000   1.0000   1.0000   1.0000   1.0000
     1.0000   1.0000   1.0000   1.0000   1.0000

          k = 0.1250 0.0722 0.0000 (  3672 PWs)   bands (ev):

  -115.3685 -69.7296 -69.7294 -69.7246 -64.8099 -31.8028 -31.7809 -31.7788
    -9.9211  -8.6114   1.9820   2.0872   2.8849   3.2420   3.5176   3.5465
     5.4775   5.7006   6.6876   6.9093   7.1774

     occupation numbers 
     1.0000   1.0000   1.0000   1.0000   1.0000   1.0000   1.0000   1.0000
     1.0000   1.0000   1.0000   1.0000   1.0000   1.0000   1.0000   1.0000
     1.0000   1.0000   1.0000   1.0000   1.0000

          k = 0.1250 0.0722 0.0982 (  3671 PWs)   bands (ev):

  -115.3685 -69.7295 -69.7294 -69.7246 -64.8099 -31.8030 -31.7809 -31.7788
    -9.8794  -8.6486   1.9805   2.0886   2.7496   3.2193   3.2295   3.9196
     5.5490   5.7537   6.3362   7.1340   7.1545

     occupation numbers 
     1.0000   1.0000   1.0000   1.0000   1.0000   1.0000   1.0000   1.0000
     1.0000   1.0000   1.0000   1.0000   1.0000   1.0000   1.0000   1.0000
     1.0000   1.0000   1.0000   1.0000   1.0000

          k = 0.1250 0.0722 0.1965 (  3681 PWs)   bands (ev):

  -115.3685 -69.7296 -69.7295 -69.7246 -64.8099 -31.8034 -31.7809 -31.7788
    -9.7654  -8.7522   1.9742   2.0913   2.4779   3.0538   3.1675   4.2531
     5.6791   5.8927   5.9539   7.0850   7.2666

     occupation numbers 
     1.0000   1.0000   1.0000   1.0000   1.0000   1.0000   1.0000   1.0000
     1.0000   1.0000   1.0000   1.0000   1.0000   1.0000   1.0000   1.0000
     1.0000   1.0000   1.0000   1.0000   1.0000

          k = 0.1250 0.0722 0.2947 (  3708 PWs)   bands (ev):

  -115.3685 -69.7296 -69.7295 -69.7246 -64.8099 -31.8039 -31.7809 -31.7787
    -9.6180  -8.8897   1.9588   2.0938   2.2814   2.9375   3.1189   4.4711
     5.5064   6.0125   6.0500   6.9938   7.2729

     occupation numbers 
     1.0000   1.0000   1.0000   1.0000   1.0000   1.0000   1.0000   1.0000
     1.0000   1.0000   1.0000   1.0000   1.0000   1.0000   1.0000   1.0000
     1.0000   1.0000   1.0000   1.0000   1.0000

          k = 0.1250 0.0722-0.3929 (  3714 PWs)   bands (ev):

  -115.3685 -69.7296 -69.7295 -69.7247 -64.8099 -31.8041 -31.7809 -31.7787
    -9.5359  -8.9677   1.9456   2.0945   2.2206   2.8927   3.0999   4.5560
     5.3792   6.1054   6.1274   6.9425   7.2574

     occupation numbers 
     1.0000   1.0000   1.0000   1.0000   1.0000   1.0000   1.0000   1.0000
     1.0000   1.0000   1.0000   1.0000   1.0000   1.0000   1.0000   1.0000
     1.0000   1.0000   1.0000   1.0000   1.0000

          k = 0.1250 0.0722-0.2947 (  3708 PWs)   bands (ev):

  -115.3685 -69.7296 -69.7295 -69.7246 -64.8099 -31.8039 -31.7809 -31.7787
    -9.6180  -8.8897   1.9571   2.0929   2.2841   2.9363   3.1198   4.4836
     5.4643   6.0364   6.0572   6.9854   7.2816

     occupation numbers 
     1.0000   1.0000   1.0000   1.0000   1.0000   1.0000   1.0000   1.0000
     1.0000   1.0000   1.0000   1.0000   1.0000   1.0000   1.0000   1.0000
     1.0000   1.0000   1.0000   1.0000   1.0000

          k = 0.1250 0.0722-0.1965 (  3681 PWs)   bands (ev):

  -115.3685 -69.7296 -69.7295 -69.7246 -64.8099 -31.8034 -31.7809 -31.7788
    -9.7654  -8.7522   1.9737   2.0901   2.4792   3.0522   3.1686   4.2651
     5.6162   5.9006   5.9946   7.0755   7.2817

     occupation numbers 
     1.0000   1.0000   1.0000   1.0000   1.0000   1.0000   1.0000   1.0000
     1.0000   1.0000   1.0000   1.0000   1.0000   1.0000   1.0000   1.0000
     1.0000   1.0000   1.0000   1.0000   1.0000

          k = 0.1250 0.0722-0.0982 (  3671 PWs)   bands (ev):

  -115.3685 -69.7295 -69.7294 -69.7246 -64.8099 -31.8030 -31.7809 -31.7788
    -9.8794  -8.6486   1.9807   2.0878   2.7493   3.2200   3.2274   3.9271
     5.5336   5.7585   6.3315   7.1486   7.1521

     occupation numbers 
     1.0000   1.0000   1.0000   1.0000   1.0000   1.0000   1.0000   1.0000
     1.0000   1.0000   1.0000   1.0000   1.0000   1.0000   1.0000   1.0000
     1.0000   1.0000   1.0000   1.0000   1.0000

          k = 0.1250 0.2165 0.0000 (  3701 PWs)   bands (ev):

  -115.3685 -69.7298 -69.7295 -69.7246 -64.8097 -31.8024 -31.7854 -31.7801
    -9.7745  -8.6121   1.9671   2.2350   2.7761   3.2268   3.5438   3.8438
     5.0500   5.4248   6.1009   6.7450   6.8891

     occupation numbers 
     1.0000   1.0000   1.0000   1.0000   1.0000   1.0000   1.0000   1.0000
     1.0000   1.0000   1.0000   1.0000   1.0000   1.0000   1.0000   1.0000
     1.0000   1.0000   1.0000   1.0000   1.0000

          k = 0.1250 0.2165 0.0982 (  3685 PWs)   bands (ev):

  -115.3685 -69.7298 -69.7295 -69.7246 -64.8097 -31.8026 -31.7854 -31.7801
    -9.7374  -8.6408   1.9638   2.2364   2.6814   3.2023   3.2428   4.1188
     5.1340   5.5001   5.8946   6.8370   6.9902

     occupation numbers 
     1.0000   1.0000   1.0000   1.0000   1.0000   1.0000   1.0000   1.0000
     1.0000   1.0000   1.0000   1.0000   1.0000   1.0000   1.0000   1.0000
     1.0000   1.0000   1.0000   1.0000   1.0000

          k = 0.1250 0.2165 0.1965 (  3689 PWs)   bands (ev):

  -115.3685 -69.7298 -69.7296 -69.7246 -64.8097 -31.8030 -31.7854 -31.7801
    -9.6369  -8.7212   1.9482   2.2400   2.4713   2.9164   3.1462   4.3881
     5.1990   5.6851   5.7772   6.7328   7.2756

     occupation numbers 
     1.0000   1.0000   1.0000   1.0000   1.0000   1.0000   1.0000   1.0000
     1.0000   1.0000   1.0000   1.0000   1.0000   1.0000   1.0000   1.0000
     1.0000   1.0000   1.0000   1.0000   1.0000

          k = 0.1250 0.2165 0.2947 (  3701 PWs)   bands (ev):

  -115.3685 -69.7298 -69.7296 -69.7246 -64.8097 -31.8034 -31.7854 -31.7801
    -9.5110  -8.8275   1.9126   2.2436   2.3097   2.6985   3.0933   4.5724
     5.0400   5.8565   6.0154   6.5805   7.4119

     occupation numbers 
     1.0000   1.0000   1.0000   1.0000   1.0000   1.0000   1.0000   1.0000
     1.0000   1.0000   1.0000   1.0000   1.0000   1.0000   1.0000   1.0000
     1.0000   1.0000   1.0000   1.0000   1.0000

          k = 0.1250 0.2165-0.3929 (  3702 PWs)   bands (ev):

  -115.3685 -69.7298 -69.7296 -69.7246 -64.8097 -31.8036 -31.7854 -31.7801
    -9.4441  -8.8863   1.8884   2.2422   2.2649   2.6183   3.0722   4.6695
     4.9241   5.9696   6.1387   6.4848   7.4370

     occupation numbers 
     1.0000   1.0000   1.0000   1.0000   1.0000   1.0000   1.0000   1.0000
     1.0000   1.0000   1.0000   1.0000   1.0000   1.0000   1.0000   1.0000
     1.0000   1.0000   1.0000   1.0000   1.0000

          k = 0.1250 0.2165-0.2947 (  3701 PWs)   bands (ev):

  -115.3685 -69.7298 -69.7296 -69.7246 -64.8097 -31.8034 -31.7854 -31.7801
    -9.5110  -8.8275   1.9126   2.2436   2.3097   2.6985   3.0933   4.5724
     5.0400   5.8565   6.0154   6.5805   7.4119

     occupation numbers 
     1.0000   1.0000   1.0000   1.0000   1.0000   1.0000   1.0000   1.0000
     1.0000   1.0000   1.0000   1.0000   1.0000   1.0000   1.0000   1.0000
     1.0000   1.0000   1.0000   1.0000   1.0000

          k = 0.1250 0.2165-0.1965 (  3689 PWs)   bands (ev):

  -115.3685 -69.7298 -69.7296 -69.7246 -64.8097 -31.8030 -31.7854 -31.7801
    -9.6369  -8.7212   1.9482   2.2400   2.4713   2.9164   3.1462   4.3881
     5.1990   5.6851   5.7772   6.7328   7.2756

     occupation numbers 
     1.0000   1.0000   1.0000   1.0000   1.0000   1.0000   1.0000   1.0000
     1.0000   1.0000   1.0000   1.0000   1.0000   1.0000   1.0000   1.0000
     1.0000   1.0000   1.0000   1.0000   1.0000

          k = 0.1250 0.2165-0.0982 (  3685 PWs)   bands (ev):

  -115.3685 -69.7298 -69.7295 -69.7246 -64.8097 -31.8026 -31.7854 -31.7801
    -9.7374  -8.6408   1.9638   2.2364   2.6814   3.2023   3.2428   4.1188
     5.1340   5.5001   5.8946   6.8370   6.9902

     occupation numbers 
     1.0000   1.0000   1.0000   1.0000   1.0000   1.0000   1.0000   1.0000
     1.0000   1.0000   1.0000   1.0000   1.0000   1.0000   1.0000   1.0000
     1.0000   1.0000   1.0000   1.0000   1.0000

          k = 0.1250 0.3608 0.0000 (  3694 PWs)   bands (ev):

  -115.3685 -69.7301 -69.7297 -69.7246 -64.8094 -31.8018 -31.7916 -31.7822
    -9.5393  -8.6371   2.0202   2.4847   2.6963   3.2023   3.4912   4.2854
     4.4949   4.9868   5.4916   6.4459   6.5346

     occupation numbers 
     1.0000   1.0000   1.0000   1.0000   1.0000   1.0000   1.0000   1.0000
     1.0000   1.0000   1.0000   1.0000   1.0000   1.0000   1.0000   1.0000
     1.0000   1.0000   1.0000   1.0000   1.0000

          k = 0.1250 0.3608 0.0982 (  3696 PWs)   bands (ev):

  -115.3685 -69.7301 -69.7297 -69.7246 -64.8094 -31.8020 -31.7915 -31.7822
    -9.5113  -8.6509   2.0188   2.4778   2.6124   3.1735   3.2593   4.1820
     4.6500   5.2295   5.3959   6.4653   6.7239

     occupation numbers 
     1.0000   1.0000   1.0000   1.0000   1.0000   1.0000   1.0000   1.0000
     1.0000   1.0000   1.0000   1.0000   1.0000   1.0000   1.0000   1.0000
     1.0000   1.0000   1.0000   1.0000   1.0000

          k = 0.1250 0.3608 0.1965 (  3692 PWs)   bands (ev):

  -115.3685 -69.7301 -69.7297 -69.7246 -64.8094 -31.8024 -31.7915 -31.7822
    -9.4379  -8.6901   2.0006   2.3907   2.5190   2.8286   3.1110   4.1546
     4.7532   5.3526   5.7065   6.3129   7.1779

     occupation numbers 
     1.0000   1.0000   1.0000   1.0000   1.0000   1.0000   1.0000   1.0000
     1.0000   1.0000   1.0000   1.0000   1.0000   1.0000   1.0000   1.0000
     1.0000   1.0000   1.0000   1.0000   1.0000

          k = 0.1250 0.3608 0.2947 (  3688 PWs)   bands (ev):

  -115.3685 -69.7301 -69.7297 -69.7246 -64.8094 -31.8028 -31.7915 -31.7822
    -9.3523  -8.7415   1.9480   2.2752   2.4817   2.5293   3.0506   4.1604
     4.7727   5.5119   6.0126   6.1526   7.5124

     occupation numbers 
     1.0000   1.0000   1.0000   1.0000   1.0000   1.0000   1.0000   1.0000
     1.0000   1.0000   1.0000   1.0000   1.0000   1.0000   1.0000   1.0000
     1.0000   1.0000   1.0000   1.0000   1.0000

          k = 0.1250 0.3608-0.3929 (  3680 PWs)   bands (ev):

  -115.3685 -69.7301 -69.7297 -69.7246 -64.8094 -31.8030 -31.7915 -31.7822
    -9.3111  -8.7685   1.9157   2.2349   2.3765   2.5216   3.0259   4.1578
     4.7786   5.7146   5.8417   6.2536   7.6192

     occupation numbers 
     1.0000   1.0000   1.0000   1.0000   1.0000   1.0000   1.0000   1.0000
     1.0000   1.0000   1.0000   1.0000   1.0000   1.0000   1.0000   1.0000
     1.0000   1.0000   1.0000   1.0000   1.0000

          k = 0.1250 0.3608-0.2947 (  3688 PWs)   bands (ev):

  -115.3685 -69.7301 -69.7297 -69.7246 -64.8094 -31.8028 -31.7915 -31.7822
    -9.3523  -8.7416   1.9560   2.2585   2.4856   2.5358   3.0492   4.1414
     4.8049   5.5012   6.0064   6.1651   7.4988

     occupation numbers 
     1.0000   1.0000   1.0000   1.0000   1.0000   1.0000   1.0000   1.0000
     1.0000   1.0000   1.0000   1.0000   1.0000   1.0000   1.0000   1.0000
     1.0000   1.0000   1.0000   1.0000   1.0000

          k = 0.1250 0.3608-0.1965 (  3692 PWs)   bands (ev):

  -115.3685 -69.7301 -69.7297 -69.7246 -64.8094 -31.8024 -31.7915 -31.7822
    -9.4378  -8.6902   2.0006   2.3950   2.5167   2.8318   3.1091   4.1203
     4.7943   5.3484   5.7167   6.3129   7.1565

     occupation numbers 
     1.0000   1.0000   1.0000   1.0000   1.0000   1.0000   1.0000   1.0000
     1.0000   1.0000   1.0000   1.0000   1.0000   1.0000   1.0000   1.0000
     1.0000   1.0000   1.0000   1.0000   1.0000

          k = 0.1250 0.3608-0.0982 (  3696 PWs)   bands (ev):

  -115.3685 -69.7301 -69.7297 -69.7246 -64.8094 -31.8020 -31.7915 -31.7822
    -9.5113  -8.6510   2.0161   2.4820   2.6142   3.1731   3.2672   4.1378
     4.6681   5.2370   5.4285   6.4485   6.7125

     occupation numbers 
     1.0000   1.0000   1.0000   1.0000   1.0000   1.0000   1.0000   1.0000
     1.0000   1.0000   1.0000   1.0000   1.0000   1.0000   1.0000   1.0000
     1.0000   1.0000   1.0000   1.0000   1.0000

          k = 0.1250 0.5052 0.0000 (  3696 PWs)   bands (ev):

  -115.3685 -69.7303 -69.7298 -69.7246 -64.8092 -31.8014 -31.7959 -31.7837
    -9.3354  -8.6895   2.1488   2.6522   2.7260   3.1866   3.3303   4.1047
     4.6588   4.8223   4.9763   6.1512   6.3228

     occupation numbers 
     1.0000   1.0000   1.0000   1.0000   1.0000   1.0000   1.0000   1.0000
     1.0000   1.0000   1.0000   1.0000   1.0000   1.0000   1.0000   1.0000
     1.0000   1.0000   1.0000   1.0000   1.0000

          k = 0.1250 0.5052 0.0982 (  3693 PWs)   bands (ev):

  -115.3685 -69.7303 -69.7298 -69.7246 -64.8092 -31.8016 -31.7958 -31.7837
    -9.3188  -8.6877   2.1461   2.5499   2.7350   3.1555   3.2564   3.8006
     4.4733   4.9427   5.4171   6.2473   6.4298

     occupation numbers 
     1.0000   1.0000   1.0000   1.0000   1.0000   1.0000   1.0000   1.0000
     1.0000   1.0000   1.0000   1.0000   1.0000   1.0000   1.0000   1.0000
     1.0000   1.0000   1.0000   1.0000   1.0000

          k = 0.1250 0.5052 0.1965 (  3696 PWs)   bands (ev):

  -115.3685 -69.7303 -69.7298 -69.7246 -64.8092 -31.8020 -31.7958 -31.7837
    -9.2773  -8.6846   2.1153   2.3762   2.7398   2.8564   3.0914   3.5706
     4.5898   4.9842   5.8725   6.1162   7.0166

     occupation numbers 
     1.0000   1.0000   1.0000   1.0000   1.0000   1.0000   1.0000   1.0000
     1.0000   1.0000   1.0000   1.0000   1.0000   1.0000   1.0000   1.0000
     1.0000   1.0000   1.0000   1.0000   1.0000

          k = 0.1250 0.5052 0.2947 (  3693 PWs)   bands (ev):

  -115.3685 -69.7303 -69.7298 -69.7246 -64.8092 -31.8024 -31.7958 -31.7837
    -9.2336  -8.6832   2.0452   2.2438   2.4713   2.7486   3.0313   3.5403
[...]
     4.6294   5.0283   5.9274   6.1550   7.0443

     occupation numbers 
     1.0000   1.0000   1.0000   1.0000   1.0000   1.0000   1.0000   1.0000
     1.0000   1.0000   1.0000   1.0000   1.0000   1.0000   1.0000   1.0000
     1.0000   1.0000   1.0000   1.0000   1.0000

          k =-0.5005-0.1445-0.0984 (  3685 PWs)   bands (ev):

  -115.3205 -69.6828 -69.6822 -69.6765 -64.7585 -31.7511 -31.7458 -31.7335
    -9.2885  -8.6573   2.1719   2.6002   2.7723   3.1994   3.3131   3.8168
     4.4922   4.9918   5.4954   6.2636   6.4666

     occupation numbers 
     1.0000   1.0000   1.0000   1.0000   1.0000   1.0000   1.0000   1.0000
     1.0000   1.0000   1.0000   1.0000   1.0000   1.0000   1.0000   1.0000
     1.0000   1.0000   1.0000   1.0000   1.0000

          k =-0.5005 0.0000-0.0000 (  3669 PWs)   bands (ev):

  -115.3205 -69.6827 -69.6823 -69.6765 -64.7585 -31.7510 -31.7441 -31.7352
    -9.3097  -8.6554   2.2537   2.6960   2.7773   3.2070   3.4151   4.1079
     4.5812   4.8394   5.1719   6.1272   6.2139

     occupation numbers 
     1.0000   1.0000   1.0000   1.0000   1.0000   1.0000   1.0000   1.0000
     1.0000   1.0000   1.0000   1.0000   1.0000   1.0000   1.0000   1.0000
     1.0000   1.0000   1.0000   1.0000   1.0000

          k =-0.5005-0.0000 0.0984 (  3681 PWs)   bands (ev):

  -115.3205 -69.6827 -69.6823 -69.6765 -64.7585 -31.7511 -31.7441 -31.7352
    -9.2924  -8.6542   2.2553   2.5982   2.7851   3.1665   3.3165   4.0101
     4.1907   5.0707   5.5276   6.0787   6.4634

     occupation numbers 
     1.0000   1.0000   1.0000   1.0000   1.0000   1.0000   1.0000   1.0000
     1.0000   1.0000   1.0000   1.0000   1.0000   1.0000   1.0000   1.0000
     1.0000   1.0000   1.0000   1.0000   1.0000

          k =-0.5005-0.0000 0.1967 (  3674 PWs)   bands (ev):

  -115.3205 -69.6827 -69.6823 -69.6765 -64.7585 -31.7516 -31.7441 -31.7352
    -9.2492  -8.6525   2.2521   2.4028   2.7889   2.8862   3.0975   3.7797
     4.3808   5.0202   5.8715   6.0720   7.0894

     occupation numbers 
     1.0000   1.0000   1.0000   1.0000   1.0000   1.0000   1.0000   1.0000
     1.0000   1.0000   1.0000   1.0000   1.0000   1.0000   1.0000   1.0000
     1.0000   1.0000   1.0000   1.0000   1.0000

          k =-0.5005-0.0000 0.2951 (  3684 PWs)   bands (ev):

  -115.3205 -69.6827 -69.6823 -69.6765 -64.7585 -31.7520 -31.7441 -31.7351
    -9.2036  -8.6528   2.1968   2.2520   2.5153   2.7957   3.0295   3.7465
     4.6252   4.9703   5.6578   6.3837   7.6507

     occupation numbers 
     1.0000   1.0000   1.0000   1.0000   1.0000   1.0000   1.0000   1.0000
     1.0000   1.0000   1.0000   1.0000   1.0000   1.0000   1.0000   1.0000
     1.0000   1.0000   1.0000   1.0000   1.0000

          k =-0.5005 0.0000-0.3935 (  3674 PWs)   bands (ev):

  -115.3205 -69.6827 -69.6823 -69.6765 -64.7585 -31.7521 -31.7440 -31.7351
    -9.1839  -8.6536   2.1361   2.1923   2.4220   2.7974   3.0038   3.7419
     4.7721   4.9382   5.5301   6.5017   7.8640

     occupation numbers 
     1.0000   1.0000   1.0000   1.0000   1.0000   1.0000   1.0000   1.0000
     1.0000   1.0000   1.0000   1.0000   1.0000   1.0000   1.0000   1.0000
     1.0000   1.0000   1.0000   1.0000   1.0000

          k =-0.5005 0.0000-0.2951 (  3684 PWs)   bands (ev):

  -115.3205 -69.6827 -69.6823 -69.6765 -64.7585 -31.7520 -31.7441 -31.7351
    -9.2036  -8.6528   2.1968   2.2520   2.5153   2.7957   3.0295   3.7465
     4.6252   4.9703   5.6578   6.3837   7.6507

     occupation numbers 
     1.0000   1.0000   1.0000   1.0000   1.0000   1.0000   1.0000   1.0000
     1.0000   1.0000   1.0000   1.0000   1.0000   1.0000   1.0000   1.0000
     1.0000   1.0000   1.0000   1.0000   1.0000

          k =-0.5005 0.0000-0.1967 (  3674 PWs)   bands (ev):

  -115.3205 -69.6827 -69.6823 -69.6765 -64.7585 -31.7516 -31.7441 -31.7352
    -9.2492  -8.6525   2.2521   2.4028   2.7889   2.8862   3.0975   3.7797
     4.3808   5.0202   5.8715   6.0720   7.0894

     occupation numbers 
     1.0000   1.0000   1.0000   1.0000   1.0000   1.0000   1.0000   1.0000
     1.0000   1.0000   1.0000   1.0000   1.0000   1.0000   1.0000   1.0000
     1.0000   1.0000   1.0000   1.0000   1.0000

          k =-0.5005 0.0000-0.0984 (  3681 PWs)   bands (ev):

  -115.3205 -69.6827 -69.6823 -69.6765 -64.7585 -31.7511 -31.7441 -31.7352
    -9.2924  -8.6542   2.2553   2.5982   2.7851   3.1665   3.3165   4.0101
     4.1907   5.0707   5.5276   6.0787   6.4634

     occupation numbers 
     1.0000   1.0000   1.0000   1.0000   1.0000   1.0000   1.0000   1.0000
     1.0000   1.0000   1.0000   1.0000   1.0000   1.0000   1.0000   1.0000
     1.0000   1.0000   1.0000   1.0000   1.0000

          k =-0.5005 0.1445-0.0000 (  3686 PWs)   bands (ev):

  -115.3205 -69.6828 -69.6822 -69.6765 -64.7585 -31.7510 -31.7458 -31.7335
    -9.3054  -8.6589   2.1816   2.6915   2.7652   3.2319   3.3751   4.1464
     4.6923   4.8600   5.0134   6.1910   6.3632

     occupation numbers 
     1.0000   1.0000   1.0000   1.0000   1.0000   1.0000   1.0000   1.0000
     1.0000   1.0000   1.0000   1.0000   1.0000   1.0000   1.0000   1.0000
     1.0000   1.0000   1.0000   1.0000   1.0000

          k =-0.5005 0.1445 0.0984 (  3685 PWs)   bands (ev):

  -115.3205 -69.6828 -69.6822 -69.6765 -64.7585 -31.7511 -31.7458 -31.7335
    -9.2885  -8.6573   2.1719   2.6002   2.7723   3.1994   3.3131   3.8168
     4.4922   4.9918   5.4954   6.2636   6.4666

     occupation numbers 
     1.0000   1.0000   1.0000   1.0000   1.0000   1.0000   1.0000   1.0000
     1.0000   1.0000   1.0000   1.0000   1.0000   1.0000   1.0000   1.0000
     1.0000   1.0000   1.0000   1.0000   1.0000

          k =-0.5005 0.1445 0.1967 (  3682 PWs)   bands (ev):

  -115.3205 -69.6828 -69.6822 -69.6765 -64.7585 -31.7516 -31.7458 -31.7335
    -9.2463  -8.6542   2.1397   2.4232   2.7784   2.8961   3.1345   3.6012
     4.6294   5.0283   5.9274   6.1550   7.0443

     occupation numbers 
     1.0000   1.0000   1.0000   1.0000   1.0000   1.0000   1.0000   1.0000
     1.0000   1.0000   1.0000   1.0000   1.0000   1.0000   1.0000   1.0000
     1.0000   1.0000   1.0000   1.0000   1.0000

          k =-0.5005 0.1445 0.2951 (  3684 PWs)   bands (ev):

  -115.3205 -69.6828 -69.6822 -69.6765 -64.7585 -31.7520 -31.7457 -31.7335
    -9.2020  -8.6528   2.0831   2.2602   2.5159   2.7892   3.0729   3.5812
     4.7513   5.1447   5.8651   6.2981   7.5647

     occupation numbers 
     1.0000   1.0000   1.0000   1.0000   1.0000   1.0000   1.0000   1.0000
     1.0000   1.0000   1.0000   1.0000   1.0000   1.0000   1.0000   1.0000
     1.0000   1.0000   1.0000   1.0000   1.0000

          k =-0.5005 0.1445-0.3935 (  3682 PWs)   bands (ev):

  -115.3205 -69.6828 -69.6822 -69.6765 -64.7585 -31.7522 -31.7457 -31.7335
    -9.1828  -8.6528   2.0566   2.1601   2.4221   2.7919   3.0489   3.5808
     4.7788   5.2653   5.7267   6.4041   7.7588

     occupation numbers 
     1.0000   1.0000   1.0000   1.0000   1.0000   1.0000   1.0000   1.0000
     1.0000   1.0000   1.0000   1.0000   1.0000   1.0000   1.0000   1.0000
     1.0000   1.0000   1.0000   1.0000   1.0000

          k =-0.5005 0.1445-0.2951 (  3684 PWs)   bands (ev):

  -115.3205 -69.6828 -69.6822 -69.6765 -64.7585 -31.7520 -31.7457 -31.7335
    -9.2020  -8.6527   2.0748   2.2763   2.5065   2.7886   3.0736   3.5857
     4.7455   5.1467   5.8659   6.2914   7.5744

     occupation numbers 
     1.0000   1.0000   1.0000   1.0000   1.0000   1.0000   1.0000   1.0000
     1.0000   1.0000   1.0000   1.0000   1.0000   1.0000   1.0000   1.0000
     1.0000   1.0000   1.0000   1.0000   1.0000

          k =-0.5005 0.1445-0.1967 (  3682 PWs)   bands (ev):

  -115.3205 -69.6828 -69.6822 -69.6765 -64.7585 -31.7516 -31.7458 -31.7335
    -9.2464  -8.6541   2.1465   2.4120   2.7796   2.8923   3.1349   3.6146
     4.6290   5.0229   5.9116   6.1560   7.0616

     occupation numbers 
     1.0000   1.0000   1.0000   1.0000   1.0000   1.0000   1.0000   1.0000
     1.0000   1.0000   1.0000   1.0000   1.0000   1.0000   1.0000   1.0000
     1.0000   1.0000   1.0000   1.0000   1.0000

          k =-0.5005 0.1445-0.0984 (  3685 PWs)   bands (ev):

  -115.3205 -69.6828 -69.6822 -69.6765 -64.7585 -31.7511 -31.7458 -31.7335
    -9.2885  -8.6572   2.1786   2.5877   2.7745   3.2000   3.2997   3.8406
     4.5094   4.9791   5.4575   6.2876   6.4708

     occupation numbers 
     1.0000   1.0000   1.0000   1.0000   1.0000   1.0000   1.0000   1.0000
     1.0000   1.0000   1.0000   1.0000   1.0000   1.0000   1.0000   1.0000
     1.0000   1.0000   1.0000   1.0000   1.0000

          k =-0.5005-0.8668 0.0000 (  3670 PWs)   bands (ev):

  -115.3205 -69.6828 -69.6821 -69.6765 -64.7585 -31.7510 -31.7471 -31.7322
    -9.3010  -8.6625   2.1140   2.6820   2.7589   3.2571   3.3496   4.1693
     4.7460   4.8345   4.9952   6.1896   6.5415

     occupation numbers 
     1.0000   1.0000   1.0000   1.0000   1.0000   1.0000   1.0000   1.0000
     1.0000   1.0000   1.0000   1.0000   1.0000   1.0000   1.0000   1.0000
     1.0000   1.0000   1.0000   1.0000   1.0000

          k =-0.5005-0.8668 0.0984 (  3682 PWs)   bands (ev):

  -115.3205 -69.6828 -69.6821 -69.6765 -64.7585 -31.7511 -31.7471 -31.7322
    -9.2845  -8.6603   2.1020   2.5896   2.7601   3.2315   3.2988   3.7636
     4.6020   5.0637   5.3778   6.4289   6.4931

     occupation numbers 
     1.0000   1.0000   1.0000   1.0000   1.0000   1.0000   1.0000   1.0000
     1.0000   1.0000   1.0000   1.0000   1.0000   1.0000   1.0000   1.0000
     1.0000   1.0000   1.0000   1.0000   1.0000

          k =-0.5005-0.8668 0.1967 (  3678 PWs)   bands (ev):

  -115.3205 -69.6828 -69.6821 -69.6765 -64.7585 -31.7516 -31.7471 -31.7322
    -9.2434  -8.6557   2.0572   2.4188   2.7634   2.8965   3.1737   3.5131
     4.6722   5.2443   5.7907   6.3566   6.9954

     occupation numbers 
     1.0000   1.0000   1.0000   1.0000   1.0000   1.0000   1.0000   1.0000
     1.0000   1.0000   1.0000   1.0000   1.0000   1.0000   1.0000   1.0000
     1.0000   1.0000   1.0000   1.0000   1.0000

          k =-0.5005-0.8668 0.2951 (  3674 PWs)   bands (ev):

  -115.3205 -69.6828 -69.6822 -69.6765 -64.7585 -31.7520 -31.7470 -31.7322
    -9.2003  -8.6527   1.9962   2.2566   2.5089   2.7675   3.1201   3.4898
     4.7210   5.4773   6.0745   6.1627   7.4605

     occupation numbers 
     1.0000   1.0000   1.0000   1.0000   1.0000   1.0000   1.0000   1.0000
     1.0000   1.0000   1.0000   1.0000   1.0000   1.0000   1.0000   1.0000
     1.0000   1.0000   1.0000   1.0000   1.0000

          k =-0.5005-0.8668-0.3935 (  3656 PWs)   bands (ev):

  -115.3205 -69.6828 -69.6821 -69.6765 -64.7585 -31.7521 -31.7470 -31.7322
    -9.1818  -8.6521   1.9863   2.1284   2.4218   2.7695   3.0988   3.4871
     4.7345   5.6265   6.0285   6.1886   7.6206

     occupation numbers 
     1.0000   1.0000   1.0000   1.0000   1.0000   1.0000   1.0000   1.0000
     1.0000   1.0000   1.0000   1.0000   1.0000   1.0000   1.0000   1.0000
     1.0000   1.0000   1.0000   1.0000   1.0000

     highest occupied level (ev):     7.9287

!    total energy              =    -651.12754189 Ry
     Harris-Foulkes estimate   =    -651.12754188 Ry
     estimated scf accuracy    <          6.8E-09 Ry

     The total energy is the sum of the following terms:

     one-electron contribution =    -523.39281864 Ry
     hartree contribution      =     275.84828587 Ry
     xc contribution           =     -73.09868757 Ry
     ewald contribution        =    -330.48432155 Ry

     convergence has been achieved in   9 iterations

     Forces acting on atoms (cartesian axes, Ry/au):

     atom    1 type  3   force =    -0.00000041    0.00000078    0.00775394
     atom    2 type  3   force =    -0.00000045    0.00000096    0.00621965
     atom    3 type  2   force =     0.00000046   -0.00000056   -0.00147337
     atom    4 type  1   force =     0.00000041   -0.00000118   -0.01250021
     The non-local contrib.  to forces
     atom    1 type  3   force =    -0.00000015   -0.00000194   -0.09526220
     atom    2 type  3   force =     0.00000017    0.00000125   -0.03473211
     atom    3 type  2   force =     0.00000124   -0.00000618   -0.22173694
     atom    4 type  1   force =     0.00000113   -0.00000159   -0.10234749
     The ionic contribution  to forces
     atom    1 type  3   force =    -0.00000654    0.00002861    2.24524189
     atom    2 type  3   force =    -0.00000592    0.00002240   -0.27161931
     atom    3 type  2   force =     0.00000383   -0.00003480   -0.92305256
     atom    4 type  1   force =     0.00000863   -0.00001620   -1.05057001
     The local contribution  to forces
     atom    1 type  3   force =     0.00000628   -0.00002589   -2.14280416
     atom    2 type  3   force =     0.00000531   -0.00002269    0.31272994
     atom    3 type  2   force =    -0.00000463    0.00004043    1.14335986
     atom    4 type  1   force =    -0.00000935    0.00001660    1.14040956
     The core correction contribution to forces
     atom    1 type  3   force =     0.00000000    0.00000001    0.00058313
     atom    2 type  3   force =    -0.00000000   -0.00000001   -0.00017092
     atom    3 type  2   force =     0.00000000    0.00000000    0.00000000
     atom    4 type  1   force =     0.00000000    0.00000000    0.00000000
     The Hubbard contrib.    to forces
     atom    1 type  3   force =     0.00000000    0.00000000    0.00000000
     atom    2 type  3   force =     0.00000000    0.00000000    0.00000000
     atom    3 type  2   force =     0.00000000    0.00000000    0.00000000
     atom    4 type  1   force =     0.00000000    0.00000000    0.00000000
     The SCF correction term to forces
     atom    1 type  3   force =     0.00000000    0.00000000    0.00000000
     atom    2 type  3   force =     0.00000000    0.00000000    0.00000000
     atom    3 type  2   force =     0.00000000    0.00000000    0.00000000
     atom    4 type  1   force =     0.00000000    0.00000000    0.00000000

     Total force =     0.000000     Total SCF correction =     0.000000


     Computing stress (Cartesian axis) and pressure

          total   stress  (Ry/bohr**3)                   (kbar)     P=   -2.08
  -0.00001310   0.00000000   0.00000000         -1.93      0.00      0.00
   0.00000000  -0.00001311  -0.00000001          0.00     -1.93     -0.00
   0.00000000  -0.00000001  -0.00001615          0.00     -0.00     -2.38

     kinetic stress (kbar)  27697.12      0.00      0.00
                                0.00  27697.12     -0.00
                                0.00     -0.00  27818.17

     local   stress (kbar)  -8162.96     -0.02     -0.01
                               -0.02  -8162.98     -0.01
                               -0.01     -0.01 -12344.58

     nonloc. stress (kbar)   1847.70      0.00      0.00
                                0.00   1847.70      0.00
                                0.00      0.00   1809.29

     hartree stress (kbar)  43881.46      0.01      0.00
                                0.01  43881.46      0.01
                                0.00      0.01  45488.41

     exc-cor stress (kbar) -10958.99      0.00     -0.00
                                0.00 -10958.99      0.00
                               -0.00      0.00 -10959.04

     corecor stress (kbar)   -261.02      0.00     -0.00
                                0.00   -261.02      0.00
                               -0.00      0.00   -261.24

     ewald   stress (kbar) -54045.22      0.01      0.00
                                0.01 -54045.21      0.00
                                0.00      0.00 -51553.39

     hubbard stress (kbar)      0.00      0.00      0.00
                                0.00      0.00      0.00
                                0.00      0.00      0.00

     london  stress (kbar)      0.00      0.00      0.00
                                0.00      0.00      0.00
                                0.00      0.00      0.00

     DFT-D3  stress (kbar)      0.00      0.00      0.00
                                0.00      0.00      0.00
                                0.00      0.00      0.00

     XDM     stress (kbar)      0.00      0.00      0.00
                                0.00      0.00      0.00
                                0.00      0.00      0.00

     dft-nl  stress (kbar)      0.00      0.00      0.00
                                0.00      0.00      0.00
                                0.00      0.00      0.00

     TS-vdW  stress (kbar)      0.00      0.00      0.00
                                0.00      0.00      0.00
                                0.00      0.00      0.00



     Writing output data file ZnO.save/
 
     init_run     :      1.15s CPU      2.64s WALL (       2 calls)
     electrons    :    109.80s CPU    118.97s WALL (      14 calls)
     update_pot   :      2.05s CPU      2.07s WALL (      12 calls)
     forces       :      2.28s CPU      2.43s WALL (      14 calls)
     stress       :      4.21s CPU      4.39s WALL (      14 calls)

     Called by init_run:
     wfcinit      :      0.66s CPU      1.48s WALL (       2 calls)
     wfcinit:atom :      0.01s CPU      0.01s WALL (     130 calls)
     wfcinit:wfcr :      0.62s CPU      1.42s WALL (     130 calls)
     potinit      :      0.15s CPU      0.30s WALL (       2 calls)
     hinit0       :      0.31s CPU      0.62s WALL (       2 calls)

     Called by electrons:
     c_bands      :     90.55s CPU     98.59s WALL (     138 calls)
     sum_band     :     13.55s CPU     14.02s WALL (     138 calls)
     v_of_rho     :      4.81s CPU      4.93s WALL (     149 calls)
     v_h          :      0.06s CPU      0.06s WALL (     149 calls)
     v_xc         :      5.63s CPU      5.75s WALL (     177 calls)
     newd         :      0.99s CPU      1.05s WALL (     149 calls)
     mix_rho      :      0.16s CPU      0.23s WALL (     138 calls)

     Called by c_bands:
     init_us_2    :      1.60s CPU      1.71s WALL (   19890 calls)
     cegterg      :     83.65s CPU     88.17s WALL (    8970 calls)

     Called by sum_band:
     sum_band:bec :      0.10s CPU      0.11s WALL (    8970 calls)
     addusdens    :      0.95s CPU      0.96s WALL (     138 calls)

     Called by *egterg:
     h_psi        :     48.69s CPU     50.59s WALL (   26559 calls)
     s_psi        :      1.77s CPU      1.83s WALL (   26559 calls)
     g_psi        :      0.12s CPU      0.12s WALL (   17459 calls)
     cdiaghg      :     20.94s CPU     23.16s WALL (   25454 calls)
     cegterg:over :      5.80s CPU      6.74s WALL (   17459 calls)
     cegterg:upda :      2.92s CPU      2.99s WALL (   17459 calls)
     cegterg:last :      1.80s CPU      1.83s WALL (    9035 calls)
     cdiaghg:chol :      1.04s CPU      1.50s WALL (   25454 calls)
     cdiaghg:inve :      0.38s CPU      0.53s WALL (   25454 calls)
     cdiaghg:para :      2.07s CPU      2.28s WALL (   50908 calls)

     Called by h_psi:
     h_psi:pot    :     48.53s CPU     50.43s WALL (   26559 calls)
     h_psi:calbec :      3.05s CPU      3.17s WALL (   26559 calls)
     vloc_psi     :     43.63s CPU     45.33s WALL (   26559 calls)
     add_vuspsi   :      1.78s CPU      1.85s WALL (   26559 calls)

     General routines
     calbec       :      4.78s CPU      4.96s WALL (   40079 calls)
     fft          :      0.82s CPU      0.93s WALL (    2274 calls)
     ffts         :      0.04s CPU      0.06s WALL (     287 calls)
     fftw         :     50.54s CPU     52.44s WALL ( 1113218 calls)
     interpolate  :      0.07s CPU      0.09s WALL (     149 calls)
 
     Parallel routines
     fft_scatt_xy :      7.06s CPU      7.32s WALL ( 1115779 calls)
     fft_scatt_yz :     28.18s CPU     29.25s WALL ( 1115779 calls)
 
     PWSCF        :   2m 0.32s CPU   2m14.16s WALL

 
   This run was terminated on:  19:53:35  16Jun2022            

=------------------------------------------------------------------------------=
   JOB DONE.
=------------------------------------------------------------------------------=
