
     Program PWSCF v.6.4.1 starts on 16Jun2022 at 15:11:40 

     This program is part of the open-source Quantum ESPRESSO suite
     for quantum simulation of materials; please cite
         "P. Giannozzi et al., J. Phys.:Condens. Matter 21 395502 (2009);
         "P. Giannozzi et al., J. Phys.:Condens. Matter 29 465901 (2017);
          URL http://www.quantum-espresso.org", 
     in publications or presentations arising from this work. More details at
     http://www.quantum-espresso.org/quote

     Parallel version (MPI), running on    64 processors

     MPI processes distributed on     1 nodes
     K-points division:     npool     =       4
     R & G space division:  proc/nbgrp/npool/nimage =      16
     Waiting for input...
     Reading input from standard input
Warning: card &IONS ignored
Warning: card   UPSCALE           = 100.D0, ignored
Warning: card / ignored
Warning: card &CELL ignored
Warning: card   CELL_DYNAMICS     = 'BFGS' ignored
Warning: card   PRESS_CONV_THR    = 0.5D0 ignored
Warning: card   CELL_DOFREE = 'ALL' ignored
Warning: card / ignored

     Current dimensions of program PWSCF are:
     Max number of different atomic species (ntypx) = 10
     Max number of k-points (npk) =  40000
     Max angular momentum in pseudopotentials (lmaxx) =  3

     Subspace diagonalization in iterative solution of the eigenvalue problem:
     one sub-group per band group will be used
     scalapack distributed-memory algorithm (size of sub-group:  2*  2 procs)

 
     Parallelization info
     --------------------
     sticks:   dense  smooth     PW     G-vecs:    dense   smooth      PW
     Min         103      54     16                 4861     1891     328
     Max         104      56     17                 4865     1894     333
     Sum        1651     871    271                77813    30273    5291
 


     bravais-lattice index     =            0
     lattice parameter (alat)  =       6.3127  a.u.
     unit-cell volume          =     313.3403 (a.u.)^3
     number of atoms/cell      =            4
     number of atomic types    =            2
     number of electrons       =        52.00
     number of Kohn-Sham states=           26
     kinetic-energy cutoff     =      80.0000  Ry
     charge density cutoff     =     600.0000  Ry
     convergence threshold     =      1.0E-06
     mixing beta               =       0.5000
     number of iterations used =            8  plain     mixing
     Exchange-correlation      = SLA  PW   PSX  PSC ( 1  4 10  8 0 0)
     Using LIBXC version       =    4   3   4

     celldm(1)=   6.312700  celldm(2)=   0.000000  celldm(3)=   0.000000
     celldm(4)=   0.000000  celldm(5)=   0.000000  celldm(6)=   0.000000

     crystal axes: (cart. coord. in units of alat)
               a(1) = (   1.000000   0.000000   0.000000 )  
               a(2) = (  -0.500000   0.866026   0.000000 )  
               a(3) = (  -0.000000   0.000000   1.438269 )  

     reciprocal axes: (cart. coord. in units 2 pi/alat)
               b(1) = (  1.000000  0.577350 -0.000000 )  
               b(2) = ( -0.000000  1.154700 -0.000000 )  
               b(3) = ( -0.000000 -0.000000  0.695280 )  


     PseudoPot. # 1 for Zn read from file:
     ./GBRV_PBEsol/zn_pbesol_v1.uspp.F.UPF
     MD5 check sum: 7d8615e52efe7c1e2b1899de8658bae2
     Pseudo is Ultrasoft, Zval = 20.0
     Generated by new atomic code, or converted to UPF format
     Using radial grid of  943 points,  6 beta functions with: 
                l(1) =   0
                l(2) =   0
                l(3) =   1
                l(4) =   1
                l(5) =   2
                l(6) =   2
     Q(r) pseudized with  8 coefficients,  rinner =    1.100   1.100   1.100
                                                       1.100   1.100

     PseudoPot. # 2 for O  read from file:
     ./GBRV_PBEsol/o_pbesol_v1.2.uspp.F.UPF
     MD5 check sum: 501638753501ef6325af9037351f7734
     Pseudo is Ultrasoft + core correction, Zval =  6.0
     Generated by new atomic code, or converted to UPF format
     Using radial grid of  737 points,  5 beta functions with: 
                l(1) =   0
                l(2) =   0
                l(3) =   1
                l(4) =   1
                l(5) =   2
     Q(r) pseudized with  8 coefficients,  rinner =    0.900   0.900   0.900
                                                       0.900   0.900

     atomic species   valence    mass     pseudopotential
        Zn            20.00    65.38000     Zn( 1.00)
        O              6.00    15.99900     O ( 1.00)

     No symmetry found


                                    s                        frac. trans.

      isym =  1     identity                                     

 cryst.   s( 1) = (     1          0          0      )
                  (     0          1          0      )
                  (     0          0          1      )

 cart.    s( 1) = (  1.0000000  0.0000000 -0.0000000 )
                  (  0.0000000  1.0000000  0.0000000 )
                  (  0.0000000 -0.0000000  1.0000000 )


   Cartesian axes

     site n.     atom                  positions (alat units)
         1           O   tau(   1) = (   0.5000002   0.2886755   0.0105655  )
         2           O   tau(   2) = (   0.0000001   0.5773497   0.7297000  )
         3           Zn  tau(   3) = (   0.5000000   0.2886750   0.6419776  )
         4           Zn  tau(   4) = (  -0.0000002   0.5773517   1.3611123  )

   Crystallographic axes

     site n.     atom                  positions (cryst. coord.)
         1           O   tau(   1) = (  0.6666670  0.3333337  0.0073459  )
         2           O   tau(   2) = (  0.3333329  0.6666657  0.5073458  )
         3           Zn  tau(   3) = (  0.6666664  0.3333329  0.4463542  )
         4           Zn  tau(   4) = (  0.3333337  0.6666677  0.9463542  )

     number of k points=   260
                       cart. coord. in units 2pi/alat
        k(    1) = (   0.0000000   0.0000000   0.0000000), wk =   0.0039062
        k(    2) = (  -0.0000000  -0.0000000   0.0869100), wk =   0.0078125
        k(    3) = (  -0.0000000  -0.0000001   0.1738200), wk =   0.0078125
        k(    4) = (  -0.0000000  -0.0000001   0.2607301), wk =   0.0078125
        k(    5) = (   0.0000000   0.0000002  -0.3476401), wk =   0.0039062
        k(    6) = (  -0.0000000   0.1443375  -0.0000000), wk =   0.0078125
        k(    7) = (  -0.0000000   0.1443375   0.0869100), wk =   0.0078125
        k(    8) = (  -0.0000000   0.1443375   0.1738200), wk =   0.0078125
        k(    9) = (  -0.0000000   0.1443374   0.2607300), wk =   0.0078125
        k(   10) = (   0.0000000   0.1443377  -0.3476401), wk =   0.0078125
        k(   11) = (   0.0000000   0.1443377  -0.2607301), wk =   0.0078125
        k(   12) = (  -0.0000000   0.1443376  -0.1738201), wk =   0.0078125
        k(   13) = (  -0.0000000   0.1443376  -0.0869101), wk =   0.0078125
        k(   14) = (  -0.0000000   0.2886751  -0.0000001), wk =   0.0078125
        k(   15) = (  -0.0000000   0.2886750   0.0869099), wk =   0.0078125
        k(   16) = (  -0.0000000   0.2886750   0.1738200), wk =   0.0078125
        k(   17) = (  -0.0000000   0.2886750   0.2607300), wk =   0.0078125
        k(   18) = (  -0.0000000   0.2886752  -0.3476402), wk =   0.0078125
        k(   19) = (  -0.0000000   0.2886752  -0.2607301), wk =   0.0078125
        k(   20) = (  -0.0000000   0.2886752  -0.1738201), wk =   0.0078125
        k(   21) = (  -0.0000000   0.2886751  -0.0869101), wk =   0.0078125
        k(   22) = (  -0.0000000   0.4330126  -0.0000001), wk =   0.0078125
        k(   23) = (  -0.0000000   0.4330126   0.0869099), wk =   0.0078125
        k(   24) = (  -0.0000000   0.4330125   0.1738199), wk =   0.0078125
        k(   25) = (  -0.0000000   0.4330125   0.2607299), wk =   0.0078125
        k(   26) = (  -0.0000000   0.4330128  -0.3476402), wk =   0.0078125
        k(   27) = (  -0.0000000   0.4330127  -0.2607302), wk =   0.0078125
        k(   28) = (  -0.0000000   0.4330127  -0.1738202), wk =   0.0078125
        k(   29) = (  -0.0000000   0.4330127  -0.0869101), wk =   0.0078125
        k(   30) = (   0.0000000  -0.5773502   0.0000002), wk =   0.0039062
        k(   31) = (   0.0000000  -0.5773502   0.0869102), wk =   0.0078125
        k(   32) = (   0.0000000  -0.5773502   0.1738202), wk =   0.0078125
        k(   33) = (   0.0000000  -0.5773503   0.2607302), wk =   0.0078125
        k(   34) = (   0.0000000  -0.5773500  -0.3476399), wk =   0.0039062
        k(   35) = (   0.1250000   0.0721688  -0.0000000), wk =   0.0078125
        k(   36) = (   0.1250000   0.0721687   0.0869100), wk =   0.0078125
        k(   37) = (   0.1250000   0.0721687   0.1738200), wk =   0.0078125
        k(   38) = (   0.1250000   0.0721686   0.2607300), wk =   0.0078125
        k(   39) = (   0.1250000   0.0721689  -0.3476401), wk =   0.0078125
        k(   40) = (   0.1250000   0.0721689  -0.2607301), wk =   0.0078125
        k(   41) = (   0.1250000   0.0721688  -0.1738201), wk =   0.0078125
        k(   42) = (   0.1250000   0.0721688  -0.0869100), wk =   0.0078125
        k(   43) = (   0.1250000   0.2165063  -0.0000001), wk =   0.0078125
        k(   44) = (   0.1250000   0.2165063   0.0869100), wk =   0.0078125
        k(   45) = (   0.1250000   0.2165062   0.1738200), wk =   0.0078125
        k(   46) = (   0.1250000   0.2165062   0.2607300), wk =   0.0078125
        k(   47) = (   0.1250000   0.2165065  -0.3476401), wk =   0.0078125
        k(   48) = (   0.1250000   0.2165064  -0.2607301), wk =   0.0078125
        k(   49) = (   0.1250000   0.2165064  -0.1738201), wk =   0.0078125
        k(   50) = (   0.1250000   0.2165063  -0.0869101), wk =   0.0078125
        k(   51) = (   0.1250000   0.3608438  -0.0000001), wk =   0.0078125
        k(   52) = (   0.1250000   0.3608438   0.0869099), wk =   0.0078125
        k(   53) = (   0.1250000   0.3608438   0.1738199), wk =   0.0078125
        k(   54) = (   0.1250000   0.3608437   0.2607300), wk =   0.0078125
        k(   55) = (   0.1250000   0.3608440  -0.3476402), wk =   0.0078125
        k(   56) = (   0.1250000   0.3608440  -0.2607302), wk =   0.0078125
        k(   57) = (   0.1250000   0.3608439  -0.1738201), wk =   0.0078125
        k(   58) = (   0.1250000   0.3608439  -0.0869101), wk =   0.0078125
        k(   59) = (   0.1250000   0.5051814  -0.0000001), wk =   0.0078125
        k(   60) = (   0.1250000   0.5051813   0.0869099), wk =   0.0078125
        k(   61) = (   0.1250000   0.5051813   0.1738199), wk =   0.0078125
        k(   62) = (   0.1250000   0.5051813   0.2607299), wk =   0.0078125
        k(   63) = (   0.1250000   0.5051815  -0.3476402), wk =   0.0078125
        k(   64) = (   0.1250000   0.5051815  -0.2607302), wk =   0.0078125
        k(   65) = (   0.1250000   0.5051815  -0.1738202), wk =   0.0078125
        k(   66) = (   0.1250000   0.5051814  -0.0869102), wk =   0.0078125
        k(   67) = (   0.1250000  -0.5051814   0.0000001), wk =   0.0078125
        k(   68) = (   0.1250000  -0.5051814   0.0869102), wk =   0.0078125
        k(   69) = (   0.1250000  -0.5051815   0.1738202), wk =   0.0078125
        k(   70) = (   0.1250000  -0.5051815   0.2607302), wk =   0.0078125
        k(   71) = (   0.1250000  -0.5051812  -0.3476399), wk =   0.0078125
        k(   72) = (   0.1250000  -0.5051813  -0.2607299), wk =   0.0078125
        k(   73) = (   0.1250000  -0.5051813  -0.1738199), wk =   0.0078125
        k(   74) = (   0.1250000  -0.5051813  -0.0869099), wk =   0.0078125
        k(   75) = (   0.1250000  -0.3608438   0.0000001), wk =   0.0078125
        k(   76) = (   0.1250000  -0.3608439   0.0869101), wk =   0.0078125
        k(   77) = (   0.1250000  -0.3608439   0.1738201), wk =   0.0078125
        k(   78) = (   0.1250000  -0.3608440   0.2607302), wk =   0.0078125
        k(   79) = (   0.1250000  -0.3608437  -0.3476400), wk =   0.0078125
        k(   80) = (   0.1250000  -0.3608437  -0.2607300), wk =   0.0078125
        k(   81) = (   0.1250000  -0.3608438  -0.1738199), wk =   0.0078125
        k(   82) = (   0.1250000  -0.3608438  -0.0869099), wk =   0.0078125
        k(   83) = (   0.1250000  -0.2165063   0.0000001), wk =   0.0078125
        k(   84) = (   0.1250000  -0.2165063   0.0869101), wk =   0.0078125
        k(   85) = (   0.1250000  -0.2165064   0.1738201), wk =   0.0078125
        k(   86) = (   0.1250000  -0.2165064   0.2607301), wk =   0.0078125
        k(   87) = (   0.1250000  -0.2165061  -0.3476400), wk =   0.0078125
        k(   88) = (   0.1250000  -0.2165062  -0.2607300), wk =   0.0078125
        k(   89) = (   0.1250000  -0.2165062  -0.1738200), wk =   0.0078125
        k(   90) = (   0.1250000  -0.2165063  -0.0869100), wk =   0.0078125
        k(   91) = (   0.1250000  -0.0721688   0.0000000), wk =   0.0078125
        k(   92) = (   0.1250000  -0.0721688   0.0869100), wk =   0.0078125
        k(   93) = (   0.1250000  -0.0721689   0.1738201), wk =   0.0078125
        k(   94) = (   0.1250000  -0.0721689   0.2607301), wk =   0.0078125
        k(   95) = (   0.1250000  -0.0721686  -0.3476401), wk =   0.0078125
        k(   96) = (   0.1250000  -0.0721687  -0.2607300), wk =   0.0078125
        k(   97) = (   0.1250000  -0.0721687  -0.1738200), wk =   0.0078125
        k(   98) = (   0.1250000  -0.0721687  -0.0869100), wk =   0.0078125
        k(   99) = (   0.2500000   0.1443375  -0.0000000), wk =   0.0078125
        k(  100) = (   0.2500000   0.1443375   0.0869100), wk =   0.0078125
        k(  101) = (   0.2500000   0.1443375   0.1738200), wk =   0.0078125
        k(  102) = (   0.2500000   0.1443374   0.2607300), wk =   0.0078125
        k(  103) = (   0.2500000   0.1443377  -0.3476401), wk =   0.0078125
        k(  104) = (   0.2500000   0.1443377  -0.2607301), wk =   0.0078125
        k(  105) = (   0.2500000   0.1443376  -0.1738201), wk =   0.0078125
        k(  106) = (   0.2500000   0.1443376  -0.0869101), wk =   0.0078125
        k(  107) = (   0.2500000   0.2886751  -0.0000001), wk =   0.0078125
        k(  108) = (   0.2500000   0.2886750   0.0869099), wk =   0.0078125
        k(  109) = (   0.2500000   0.2886750   0.1738200), wk =   0.0078125
        k(  110) = (   0.2500000   0.2886750   0.2607300), wk =   0.0078125
        k(  111) = (   0.2500000   0.2886752  -0.3476402), wk =   0.0078125
        k(  112) = (   0.2500000   0.2886752  -0.2607301), wk =   0.0078125
        k(  113) = (   0.2500000   0.2886752  -0.1738201), wk =   0.0078125
        k(  114) = (   0.2500000   0.2886751  -0.0869101), wk =   0.0078125
        k(  115) = (   0.2500000   0.4330126  -0.0000001), wk =   0.0078125
        k(  116) = (   0.2500000   0.4330126   0.0869099), wk =   0.0078125
        k(  117) = (   0.2500000   0.4330125   0.1738199), wk =   0.0078125
        k(  118) = (   0.2500000   0.4330125   0.2607299), wk =   0.0078125
        k(  119) = (   0.2500000   0.4330128  -0.3476402), wk =   0.0078125
        k(  120) = (   0.2500000   0.4330127  -0.2607302), wk =   0.0078125
        k(  121) = (   0.2500000   0.4330127  -0.1738202), wk =   0.0078125
        k(  122) = (   0.2500000   0.4330126  -0.0869101), wk =   0.0078125
        k(  123) = (   0.2500000   0.5773501  -0.0000002), wk =   0.0078125
        k(  124) = (   0.2500000   0.5773501   0.0869099), wk =   0.0078125
        k(  125) = (   0.2500000   0.5773501   0.1738199), wk =   0.0078125
        k(  126) = (   0.2500000   0.5773500   0.2607299), wk =   0.0078125
        k(  127) = (   0.2500000   0.5773503  -0.3476402), wk =   0.0078125
        k(  128) = (   0.2500000   0.5773503  -0.2607302), wk =   0.0078125
        k(  129) = (   0.2500000   0.5773502  -0.1738202), wk =   0.0078125
        k(  130) = (   0.2500000   0.5773502  -0.0869102), wk =   0.0078125
        k(  131) = (   0.2500000  -0.4330126   0.0000001), wk =   0.0078125
        k(  132) = (   0.2500000  -0.4330127   0.0869102), wk =   0.0078125
        k(  133) = (   0.2500000  -0.4330127   0.1738202), wk =   0.0078125
        k(  134) = (   0.2500000  -0.4330127   0.2607302), wk =   0.0078125
        k(  135) = (   0.2500000  -0.4330125  -0.3476399), wk =   0.0078125
        k(  136) = (   0.2500000  -0.4330125  -0.2607299), wk =   0.0078125
        k(  137) = (   0.2500000  -0.4330125  -0.1738199), wk =   0.0078125
        k(  138) = (   0.2500000  -0.4330126  -0.0869099), wk =   0.0078125
        k(  139) = (   0.2500000  -0.2886751   0.0000001), wk =   0.0078125
        k(  140) = (   0.2500000  -0.2886751   0.0869101), wk =   0.0078125
        k(  141) = (   0.2500000  -0.2886752   0.1738201), wk =   0.0078125
        k(  142) = (   0.2500000  -0.2886752   0.2607302), wk =   0.0078125
        k(  143) = (   0.2500000  -0.2886749  -0.3476400), wk =   0.0078125
        k(  144) = (   0.2500000  -0.2886750  -0.2607300), wk =   0.0078125
        k(  145) = (   0.2500000  -0.2886750  -0.1738199), wk =   0.0078125
        k(  146) = (   0.2500000  -0.2886750  -0.0869099), wk =   0.0078125
        k(  147) = (   0.2500000  -0.1443375   0.0000001), wk =   0.0078125
        k(  148) = (   0.2500000  -0.1443376   0.0869101), wk =   0.0078125
        k(  149) = (   0.2500000  -0.1443376   0.1738201), wk =   0.0078125
        k(  150) = (   0.2500000  -0.1443377   0.2607301), wk =   0.0078125
        k(  151) = (   0.2500000  -0.1443374  -0.3476400), wk =   0.0078125
        k(  152) = (   0.2500000  -0.1443374  -0.2607300), wk =   0.0078125
        k(  153) = (   0.2500000  -0.1443375  -0.1738200), wk =   0.0078125
        k(  154) = (   0.2500000  -0.1443375  -0.0869100), wk =   0.0078125
        k(  155) = (   0.2500000  -0.0000000   0.0000000), wk =   0.0078125
        k(  156) = (   0.2500000  -0.0000000   0.0869100), wk =   0.0078125
        k(  157) = (   0.2500000  -0.0000001   0.1738200), wk =   0.0078125
        k(  158) = (   0.2500000  -0.0000001   0.2607301), wk =   0.0078125
        k(  159) = (   0.2500000   0.0000002  -0.3476401), wk =   0.0078125
        k(  160) = (   0.2500000   0.0000001  -0.2607301), wk =   0.0078125
        k(  161) = (   0.2500000   0.0000001  -0.1738200), wk =   0.0078125
        k(  162) = (   0.2500000   0.0000000  -0.0869100), wk =   0.0078125
        k(  163) = (   0.3750000   0.2165063  -0.0000000), wk =   0.0078125
        k(  164) = (   0.3750000   0.2165063   0.0869100), wk =   0.0078125
        k(  165) = (   0.3750000   0.2165062   0.1738200), wk =   0.0078125
        k(  166) = (   0.3750000   0.2165062   0.2607300), wk =   0.0078125
        k(  167) = (   0.3750000   0.2165065  -0.3476401), wk =   0.0078125
        k(  168) = (   0.3750000   0.2165064  -0.2607301), wk =   0.0078125
        k(  169) = (   0.3750000   0.2165064  -0.1738201), wk =   0.0078125
        k(  170) = (   0.3750000   0.2165063  -0.0869101), wk =   0.0078125
        k(  171) = (   0.3750000   0.3608438  -0.0000001), wk =   0.0078125
        k(  172) = (   0.3750000   0.3608438   0.0869099), wk =   0.0078125
        k(  173) = (   0.3750000   0.3608438   0.1738199), wk =   0.0078125
        k(  174) = (   0.3750000   0.3608437   0.2607300), wk =   0.0078125
        k(  175) = (   0.3750000   0.3608440  -0.3476402), wk =   0.0078125
        k(  176) = (   0.3750000   0.3608440  -0.2607301), wk =   0.0078125
        k(  177) = (   0.3750000   0.3608439  -0.1738201), wk =   0.0078125
        k(  178) = (   0.3750000   0.3608439  -0.0869101), wk =   0.0078125
        k(  179) = (   0.3750000   0.5051814  -0.0000001), wk =   0.0078125
        k(  180) = (   0.3750000   0.5051813   0.0869099), wk =   0.0078125
        k(  181) = (   0.3750000   0.5051813   0.1738199), wk =   0.0078125
        k(  182) = (   0.3750000   0.5051813   0.2607299), wk =   0.0078125
        k(  183) = (   0.3750000   0.5051815  -0.3476402), wk =   0.0078125
        k(  184) = (   0.3750000   0.5051815  -0.2607302), wk =   0.0078125
        k(  185) = (   0.3750000   0.5051815  -0.1738202), wk =   0.0078125
        k(  186) = (   0.3750000   0.5051814  -0.0869102), wk =   0.0078125
        k(  187) = (   0.3750000   0.6495189  -0.0000002), wk =   0.0078125
        k(  188) = (   0.3750000   0.6495189   0.0869098), wk =   0.0078125
        k(  189) = (   0.3750000   0.6495188   0.1738199), wk =   0.0078125
        k(  190) = (   0.3750000   0.6495188   0.2607299), wk =   0.0078125
        k(  191) = (   0.3750000   0.6495191  -0.3476403), wk =   0.0078125
        k(  192) = (   0.3750000   0.6495190  -0.2607302), wk =   0.0078125
        k(  193) = (   0.3750000   0.6495190  -0.1738202), wk =   0.0078125
        k(  194) = (   0.3750000   0.6495190  -0.0869102), wk =   0.0078125
        k(  195) = (   0.3750000  -0.3608438   0.0000001), wk =   0.0078125
        k(  196) = (   0.3750000  -0.3608439   0.0869101), wk =   0.0078125
        k(  197) = (   0.3750000  -0.3608439   0.1738202), wk =   0.0078125
        k(  198) = (   0.3750000  -0.3608440   0.2607302), wk =   0.0078125
        k(  199) = (   0.3750000  -0.3608437  -0.3476400), wk =   0.0078125
        k(  200) = (   0.3750000  -0.3608437  -0.2607299), wk =   0.0078125
        k(  201) = (   0.3750000  -0.3608438  -0.1738199), wk =   0.0078125
        k(  202) = (   0.3750000  -0.3608438  -0.0869099), wk =   0.0078125
        k(  203) = (   0.3750000  -0.2165063   0.0000001), wk =   0.0078125
        k(  204) = (   0.3750000  -0.2165064   0.0869101), wk =   0.0078125
        k(  205) = (   0.3750000  -0.2165064   0.1738201), wk =   0.0078125
        k(  206) = (   0.3750000  -0.2165064   0.2607301), wk =   0.0078125
        k(  207) = (   0.3750000  -0.2165062  -0.3476400), wk =   0.0078125
        k(  208) = (   0.3750000  -0.2165062  -0.2607300), wk =   0.0078125
        k(  209) = (   0.3750000  -0.2165062  -0.1738200), wk =   0.0078125
        k(  210) = (   0.3750000  -0.2165063  -0.0869099), wk =   0.0078125
        k(  211) = (   0.3750000  -0.0721688   0.0000000), wk =   0.0078125
        k(  212) = (   0.3750000  -0.0721688   0.0869101), wk =   0.0078125
        k(  213) = (   0.3750000  -0.0721689   0.1738201), wk =   0.0078125
        k(  214) = (   0.3750000  -0.0721689   0.2607301), wk =   0.0078125
        k(  215) = (   0.3750000  -0.0721686  -0.3476400), wk =   0.0078125
        k(  216) = (   0.3750000  -0.0721687  -0.2607300), wk =   0.0078125
        k(  217) = (   0.3750000  -0.0721687  -0.1738200), wk =   0.0078125
        k(  218) = (   0.3750000  -0.0721687  -0.0869100), wk =   0.0078125
        k(  219) = (   0.3750000   0.0721688  -0.0000000), wk =   0.0078125
        k(  220) = (   0.3750000   0.0721687   0.0869100), wk =   0.0078125
        k(  221) = (   0.3750000   0.0721687   0.1738200), wk =   0.0078125
        k(  222) = (   0.3750000   0.0721686   0.2607301), wk =   0.0078125
        k(  223) = (   0.3750000   0.0721689  -0.3476401), wk =   0.0078125
        k(  224) = (   0.3750000   0.0721689  -0.2607301), wk =   0.0078125
        k(  225) = (   0.3750000   0.0721688  -0.1738200), wk =   0.0078125
        k(  226) = (   0.3750000   0.0721688  -0.0869100), wk =   0.0078125
        k(  227) = (  -0.5000000  -0.2886751   0.0000001), wk =   0.0039062
        k(  228) = (  -0.5000000  -0.2886751   0.0869101), wk =   0.0078125
        k(  229) = (  -0.5000000  -0.2886751   0.1738201), wk =   0.0078125
        k(  230) = (  -0.5000000  -0.2886752   0.2607301), wk =   0.0078125
        k(  231) = (  -0.5000000  -0.2886749  -0.3476400), wk =   0.0039062
        k(  232) = (  -0.5000000  -0.1443375   0.0000000), wk =   0.0078125
        k(  233) = (  -0.5000000  -0.1443376   0.0869100), wk =   0.0078125
        k(  234) = (  -0.5000000  -0.1443376   0.1738201), wk =   0.0078125
        k(  235) = (  -0.5000000  -0.1443376   0.2607301), wk =   0.0078125
        k(  236) = (  -0.5000000  -0.1443374  -0.3476401), wk =   0.0078125
        k(  237) = (  -0.5000000  -0.1443374  -0.2607300), wk =   0.0078125
        k(  238) = (  -0.5000000  -0.1443374  -0.1738200), wk =   0.0078125
        k(  239) = (  -0.5000000  -0.1443375  -0.0869100), wk =   0.0078125
        k(  240) = (  -0.5000000   0.0000000  -0.0000000), wk =   0.0078125
        k(  241) = (  -0.5000000  -0.0000000   0.0869100), wk =   0.0078125
        k(  242) = (  -0.5000000  -0.0000001   0.1738200), wk =   0.0078125
        k(  243) = (  -0.5000000  -0.0000001   0.2607300), wk =   0.0078125
        k(  244) = (  -0.5000000   0.0000002  -0.3476401), wk =   0.0078125
        k(  245) = (  -0.5000000   0.0000001  -0.2607301), wk =   0.0078125
        k(  246) = (  -0.5000000   0.0000001  -0.1738201), wk =   0.0078125
        k(  247) = (  -0.5000000   0.0000000  -0.0869100), wk =   0.0078125
        k(  248) = (  -0.5000000   0.1443375  -0.0000001), wk =   0.0078125
        k(  249) = (  -0.5000000   0.1443375   0.0869100), wk =   0.0078125
        k(  250) = (  -0.5000000   0.1443375   0.1738200), wk =   0.0078125
        k(  251) = (  -0.5000000   0.1443374   0.2607300), wk =   0.0078125
        k(  252) = (  -0.5000000   0.1443377  -0.3476401), wk =   0.0078125
        k(  253) = (  -0.5000000   0.1443377  -0.2607301), wk =   0.0078125
        k(  254) = (  -0.5000000   0.1443376  -0.1738201), wk =   0.0078125
        k(  255) = (  -0.5000000   0.1443376  -0.0869101), wk =   0.0078125
        k(  256) = (  -0.5000000  -0.8660252   0.0000002), wk =   0.0039062
        k(  257) = (  -0.5000000  -0.8660253   0.0869103), wk =   0.0078125
        k(  258) = (  -0.5000000  -0.8660253   0.1738203), wk =   0.0078125
        k(  259) = (  -0.5000000  -0.8660253   0.2607303), wk =   0.0078125
        k(  260) = (  -0.5000000  -0.8660251  -0.3476398), wk =   0.0039062

                       cryst. coord.
        k(    1) = (   0.0000000   0.0000000   0.0000000), wk =   0.0039062
        k(    2) = (   0.0000000   0.0000000   0.1250000), wk =   0.0078125
        k(    3) = (   0.0000000   0.0000000   0.2500000), wk =   0.0078125
        k(    4) = (   0.0000000   0.0000000   0.3750000), wk =   0.0078125
        k(    5) = (  -0.0000000  -0.0000000  -0.5000000), wk =   0.0039062
        k(    6) = (   0.0000000   0.1250000  -0.0000000), wk =   0.0078125
        k(    7) = (   0.0000000   0.1250000   0.1250000), wk =   0.0078125
        k(    8) = (   0.0000000   0.1250000   0.2500000), wk =   0.0078125
        k(    9) = (   0.0000000   0.1250000   0.3750000), wk =   0.0078125
        k(   10) = (   0.0000000   0.1250000  -0.5000000), wk =   0.0078125
        k(   11) = (  -0.0000000   0.1250000  -0.3750000), wk =   0.0078125
        k(   12) = (  -0.0000000   0.1250000  -0.2500000), wk =   0.0078125
        k(   13) = (   0.0000000   0.1250000  -0.1250000), wk =   0.0078125
        k(   14) = (   0.0000000   0.2500000  -0.0000000), wk =   0.0078125
        k(   15) = (   0.0000000   0.2500000   0.1250000), wk =   0.0078125
        k(   16) = (   0.0000000   0.2500000   0.2500000), wk =   0.0078125
        k(   17) = (  -0.0000000   0.2500000   0.3750000), wk =   0.0078125
        k(   18) = (  -0.0000000   0.2500000  -0.5000000), wk =   0.0078125
        k(   19) = (   0.0000000   0.2500000  -0.3750000), wk =   0.0078125
        k(   20) = (   0.0000000   0.2500000  -0.2500000), wk =   0.0078125
        k(   21) = (   0.0000000   0.2500000  -0.1250000), wk =   0.0078125
        k(   22) = (  -0.0000000   0.3750000  -0.0000000), wk =   0.0078125
        k(   23) = (  -0.0000000   0.3750000   0.1250000), wk =   0.0078125
        k(   24) = (  -0.0000000   0.3750000   0.2500000), wk =   0.0078125
        k(   25) = (  -0.0000000   0.3750000   0.3750000), wk =   0.0078125
        k(   26) = (   0.0000000   0.3750000  -0.5000000), wk =   0.0078125
        k(   27) = (   0.0000000   0.3750000  -0.3750000), wk =   0.0078125
        k(   28) = (  -0.0000000   0.3750000  -0.2500000), wk =   0.0078125
        k(   29) = (  -0.0000000   0.3750000  -0.1250000), wk =   0.0078125
        k(   30) = (  -0.0000000  -0.5000000   0.0000000), wk =   0.0039062
        k(   31) = (  -0.0000000  -0.5000000   0.1250000), wk =   0.0078125
        k(   32) = (  -0.0000000  -0.5000000   0.2500000), wk =   0.0078125
        k(   33) = (  -0.0000000  -0.5000000   0.3750000), wk =   0.0078125
        k(   34) = (  -0.0000000  -0.5000000  -0.5000000), wk =   0.0039062
        k(   35) = (   0.1250000   0.0000000   0.0000000), wk =   0.0078125
        k(   36) = (   0.1250000   0.0000000   0.1250000), wk =   0.0078125
        k(   37) = (   0.1250000   0.0000000   0.2500000), wk =   0.0078125
        k(   38) = (   0.1250000   0.0000000   0.3750000), wk =   0.0078125
        k(   39) = (   0.1250000   0.0000000  -0.5000000), wk =   0.0078125
        k(   40) = (   0.1250000   0.0000000  -0.3750000), wk =   0.0078125
        k(   41) = (   0.1250000   0.0000000  -0.2500000), wk =   0.0078125
        k(   42) = (   0.1250000   0.0000000  -0.1250000), wk =   0.0078125
        k(   43) = (   0.1250000   0.1250000   0.0000000), wk =   0.0078125
        k(   44) = (   0.1250000   0.1250000   0.1250000), wk =   0.0078125
        k(   45) = (   0.1250000   0.1250000   0.2500000), wk =   0.0078125
        k(   46) = (   0.1250000   0.1250000   0.3750000), wk =   0.0078125
        k(   47) = (   0.1250000   0.1250000  -0.5000000), wk =   0.0078125
        k(   48) = (   0.1250000   0.1250000  -0.3750000), wk =   0.0078125
        k(   49) = (   0.1250000   0.1250000  -0.2500000), wk =   0.0078125
        k(   50) = (   0.1250000   0.1250000  -0.1250000), wk =   0.0078125
        k(   51) = (   0.1250000   0.2500000   0.0000000), wk =   0.0078125
        k(   52) = (   0.1250000   0.2500000   0.1250000), wk =   0.0078125
        k(   53) = (   0.1250000   0.2500000   0.2500000), wk =   0.0078125
        k(   54) = (   0.1250000   0.2500000   0.3750000), wk =   0.0078125
        k(   55) = (   0.1250000   0.2500000  -0.5000000), wk =   0.0078125
        k(   56) = (   0.1250000   0.2500000  -0.3750000), wk =   0.0078125
        k(   57) = (   0.1250000   0.2500000  -0.2500000), wk =   0.0078125
        k(   58) = (   0.1250000   0.2500000  -0.1250000), wk =   0.0078125
        k(   59) = (   0.1250000   0.3750000   0.0000000), wk =   0.0078125
        k(   60) = (   0.1250000   0.3750000   0.1250000), wk =   0.0078125
        k(   61) = (   0.1250000   0.3750000   0.2500000), wk =   0.0078125
        k(   62) = (   0.1250000   0.3750000   0.3750000), wk =   0.0078125
        k(   63) = (   0.1250000   0.3750000  -0.5000000), wk =   0.0078125
        k(   64) = (   0.1250000   0.3750000  -0.3750000), wk =   0.0078125
        k(   65) = (   0.1250000   0.3750000  -0.2500000), wk =   0.0078125
        k(   66) = (   0.1250000   0.3750000  -0.1250000), wk =   0.0078125
        k(   67) = (   0.1250000  -0.5000000   0.0000000), wk =   0.0078125
        k(   68) = (   0.1250000  -0.5000000   0.1250000), wk =   0.0078125
        k(   69) = (   0.1250000  -0.5000000   0.2500000), wk =   0.0078125
        k(   70) = (   0.1250000  -0.5000000   0.3750000), wk =   0.0078125
        k(   71) = (   0.1250000  -0.5000000  -0.5000000), wk =   0.0078125
        k(   72) = (   0.1250000  -0.5000000  -0.3750000), wk =   0.0078125
        k(   73) = (   0.1250000  -0.5000000  -0.2500000), wk =   0.0078125
        k(   74) = (   0.1250000  -0.5000000  -0.1250000), wk =   0.0078125
        k(   75) = (   0.1250000  -0.3750000   0.0000000), wk =   0.0078125
        k(   76) = (   0.1250000  -0.3750000   0.1250000), wk =   0.0078125
        k(   77) = (   0.1250000  -0.3750000   0.2500000), wk =   0.0078125
        k(   78) = (   0.1250000  -0.3750000   0.3750000), wk =   0.0078125
        k(   79) = (   0.1250000  -0.3750000  -0.5000000), wk =   0.0078125
        k(   80) = (   0.1250000  -0.3750000  -0.3750000), wk =   0.0078125
        k(   81) = (   0.1250000  -0.3750000  -0.2500000), wk =   0.0078125
        k(   82) = (   0.1250000  -0.3750000  -0.1250000), wk =   0.0078125
        k(   83) = (   0.1250000  -0.2500000  -0.0000000), wk =   0.0078125
        k(   84) = (   0.1250000  -0.2500000   0.1250000), wk =   0.0078125
        k(   85) = (   0.1250000  -0.2500000   0.2500000), wk =   0.0078125
        k(   86) = (   0.1250000  -0.2500000   0.3750000), wk =   0.0078125
        k(   87) = (   0.1250000  -0.2500000  -0.5000000), wk =   0.0078125
        k(   88) = (   0.1250000  -0.2500000  -0.3750000), wk =   0.0078125
        k(   89) = (   0.1250000  -0.2500000  -0.2500000), wk =   0.0078125
        k(   90) = (   0.1250000  -0.2500000  -0.1250000), wk =   0.0078125
        k(   91) = (   0.1250000  -0.1250000   0.0000000), wk =   0.0078125
        k(   92) = (   0.1250000  -0.1250000   0.1250000), wk =   0.0078125
        k(   93) = (   0.1250000  -0.1250000   0.2500000), wk =   0.0078125
        k(   94) = (   0.1250000  -0.1250000   0.3750000), wk =   0.0078125
        k(   95) = (   0.1250000  -0.1250000  -0.5000000), wk =   0.0078125
        k(   96) = (   0.1250000  -0.1250000  -0.3750000), wk =   0.0078125
        k(   97) = (   0.1250000  -0.1250000  -0.2500000), wk =   0.0078125
        k(   98) = (   0.1250000  -0.1250000  -0.1250000), wk =   0.0078125
        k(   99) = (   0.2500000   0.0000000   0.0000000), wk =   0.0078125
        k(  100) = (   0.2500000   0.0000000   0.1250000), wk =   0.0078125
        k(  101) = (   0.2500000   0.0000000   0.2500000), wk =   0.0078125
        k(  102) = (   0.2500000   0.0000000   0.3750000), wk =   0.0078125
        k(  103) = (   0.2500000   0.0000000  -0.5000000), wk =   0.0078125
        k(  104) = (   0.2500000   0.0000000  -0.3750000), wk =   0.0078125
        k(  105) = (   0.2500000   0.0000000  -0.2500000), wk =   0.0078125
        k(  106) = (   0.2500000   0.0000000  -0.1250000), wk =   0.0078125
        k(  107) = (   0.2500000   0.1250000   0.0000000), wk =   0.0078125
        k(  108) = (   0.2500000   0.1250000   0.1250000), wk =   0.0078125
        k(  109) = (   0.2500000   0.1250000   0.2500000), wk =   0.0078125
        k(  110) = (   0.2500000   0.1250000   0.3750000), wk =   0.0078125
        k(  111) = (   0.2500000   0.1250000  -0.5000000), wk =   0.0078125
        k(  112) = (   0.2500000   0.1250000  -0.3750000), wk =   0.0078125
        k(  113) = (   0.2500000   0.1250000  -0.2500000), wk =   0.0078125
        k(  114) = (   0.2500000   0.1250000  -0.1250000), wk =   0.0078125
        k(  115) = (   0.2500000   0.2500000   0.0000000), wk =   0.0078125
        k(  116) = (   0.2500000   0.2500000   0.1250000), wk =   0.0078125
        k(  117) = (   0.2500000   0.2500000   0.2500000), wk =   0.0078125
        k(  118) = (   0.2500000   0.2500000   0.3750000), wk =   0.0078125
        k(  119) = (   0.2500000   0.2500000  -0.5000000), wk =   0.0078125
        k(  120) = (   0.2500000   0.2500000  -0.3750000), wk =   0.0078125
        k(  121) = (   0.2500000   0.2500000  -0.2500000), wk =   0.0078125
        k(  122) = (   0.2500000   0.2500000  -0.1250000), wk =   0.0078125
        k(  123) = (   0.2500000   0.3750000  -0.0000000), wk =   0.0078125
        k(  124) = (   0.2500000   0.3750000   0.1250000), wk =   0.0078125
        k(  125) = (   0.2500000   0.3750000   0.2500000), wk =   0.0078125
        k(  126) = (   0.2500000   0.3750000   0.3750000), wk =   0.0078125
        k(  127) = (   0.2500000   0.3750000  -0.5000000), wk =   0.0078125
        k(  128) = (   0.2500000   0.3750000  -0.3750000), wk =   0.0078125
        k(  129) = (   0.2500000   0.3750000  -0.2500000), wk =   0.0078125
        k(  130) = (   0.2500000   0.3750000  -0.1250000), wk =   0.0078125
        k(  131) = (   0.2500000  -0.5000000  -0.0000000), wk =   0.0078125
        k(  132) = (   0.2500000  -0.5000000   0.1250000), wk =   0.0078125
        k(  133) = (   0.2500000  -0.5000000   0.2500000), wk =   0.0078125
        k(  134) = (   0.2500000  -0.5000000   0.3750000), wk =   0.0078125
        k(  135) = (   0.2500000  -0.5000000  -0.5000000), wk =   0.0078125
        k(  136) = (   0.2500000  -0.5000000  -0.3750000), wk =   0.0078125
        k(  137) = (   0.2500000  -0.5000000  -0.2500000), wk =   0.0078125
        k(  138) = (   0.2500000  -0.5000000  -0.1250000), wk =   0.0078125
        k(  139) = (   0.2500000  -0.3750000   0.0000000), wk =   0.0078125
        k(  140) = (   0.2500000  -0.3750000   0.1250000), wk =   0.0078125
        k(  141) = (   0.2500000  -0.3750000   0.2500000), wk =   0.0078125
        k(  142) = (   0.2500000  -0.3750000   0.3750000), wk =   0.0078125
        k(  143) = (   0.2500000  -0.3750000  -0.5000000), wk =   0.0078125
        k(  144) = (   0.2500000  -0.3750000  -0.3750000), wk =   0.0078125
        k(  145) = (   0.2500000  -0.3750000  -0.2500000), wk =   0.0078125
        k(  146) = (   0.2500000  -0.3750000  -0.1250000), wk =   0.0078125
        k(  147) = (   0.2500000  -0.2500000   0.0000000), wk =   0.0078125
        k(  148) = (   0.2500000  -0.2500000   0.1250000), wk =   0.0078125
        k(  149) = (   0.2500000  -0.2500000   0.2500000), wk =   0.0078125
        k(  150) = (   0.2500000  -0.2500000   0.3750000), wk =   0.0078125
        k(  151) = (   0.2500000  -0.2500000  -0.5000000), wk =   0.0078125
        k(  152) = (   0.2500000  -0.2500000  -0.3750000), wk =   0.0078125
        k(  153) = (   0.2500000  -0.2500000  -0.2500000), wk =   0.0078125
        k(  154) = (   0.2500000  -0.2500000  -0.1250000), wk =   0.0078125
        k(  155) = (   0.2500000  -0.1250000   0.0000000), wk =   0.0078125
        k(  156) = (   0.2500000  -0.1250000   0.1250000), wk =   0.0078125
        k(  157) = (   0.2500000  -0.1250000   0.2500000), wk =   0.0078125
        k(  158) = (   0.2500000  -0.1250000   0.3750000), wk =   0.0078125
        k(  159) = (   0.2500000  -0.1250000  -0.5000000), wk =   0.0078125
        k(  160) = (   0.2500000  -0.1250000  -0.3750000), wk =   0.0078125
        k(  161) = (   0.2500000  -0.1250000  -0.2500000), wk =   0.0078125
        k(  162) = (   0.2500000  -0.1250000  -0.1250000), wk =   0.0078125
        k(  163) = (   0.3750000   0.0000000   0.0000000), wk =   0.0078125
        k(  164) = (   0.3750000   0.0000000   0.1250000), wk =   0.0078125
        k(  165) = (   0.3750000   0.0000000   0.2500000), wk =   0.0078125
        k(  166) = (   0.3750000   0.0000000   0.3750000), wk =   0.0078125
        k(  167) = (   0.3750000   0.0000000  -0.5000000), wk =   0.0078125
        k(  168) = (   0.3750000   0.0000000  -0.3750000), wk =   0.0078125
        k(  169) = (   0.3750000   0.0000000  -0.2500000), wk =   0.0078125
        k(  170) = (   0.3750000   0.0000000  -0.1250000), wk =   0.0078125
        k(  171) = (   0.3750000   0.1250000   0.0000000), wk =   0.0078125
        k(  172) = (   0.3750000   0.1250000   0.1250000), wk =   0.0078125
        k(  173) = (   0.3750000   0.1250000   0.2500000), wk =   0.0078125
        k(  174) = (   0.3750000   0.1250000   0.3750000), wk =   0.0078125
        k(  175) = (   0.3750000   0.1250000  -0.5000000), wk =   0.0078125
        k(  176) = (   0.3750000   0.1250000  -0.3750000), wk =   0.0078125
        k(  177) = (   0.3750000   0.1250000  -0.2500000), wk =   0.0078125
        k(  178) = (   0.3750000   0.1250000  -0.1250000), wk =   0.0078125
        k(  179) = (   0.3750000   0.2500000   0.0000000), wk =   0.0078125
        k(  180) = (   0.3750000   0.2500000   0.1250000), wk =   0.0078125
        k(  181) = (   0.3750000   0.2500000   0.2500000), wk =   0.0078125
        k(  182) = (   0.3750000   0.2500000   0.3750000), wk =   0.0078125
        k(  183) = (   0.3750000   0.2500000  -0.5000000), wk =   0.0078125
        k(  184) = (   0.3750000   0.2500000  -0.3750000), wk =   0.0078125
        k(  185) = (   0.3750000   0.2500000  -0.2500000), wk =   0.0078125
        k(  186) = (   0.3750000   0.2500000  -0.1250000), wk =   0.0078125
        k(  187) = (   0.3750000   0.3750000  -0.0000000), wk =   0.0078125
        k(  188) = (   0.3750000   0.3750000   0.1250000), wk =   0.0078125
        k(  189) = (   0.3750000   0.3750000   0.2500000), wk =   0.0078125
        k(  190) = (   0.3750000   0.3750000   0.3750000), wk =   0.0078125
        k(  191) = (   0.3750000   0.3750000  -0.5000000), wk =   0.0078125
        k(  192) = (   0.3750000   0.3750000  -0.3750000), wk =   0.0078125
        k(  193) = (   0.3750000   0.3750000  -0.2500000), wk =   0.0078125
        k(  194) = (   0.3750000   0.3750000  -0.1250000), wk =   0.0078125
        k(  195) = (   0.3750000  -0.5000000   0.0000000), wk =   0.0078125
        k(  196) = (   0.3750000  -0.5000000   0.1250000), wk =   0.0078125
        k(  197) = (   0.3750000  -0.5000000   0.2500000), wk =   0.0078125
        k(  198) = (   0.3750000  -0.5000000   0.3750000), wk =   0.0078125
        k(  199) = (   0.3750000  -0.5000000  -0.5000000), wk =   0.0078125
        k(  200) = (   0.3750000  -0.5000000  -0.3750000), wk =   0.0078125
        k(  201) = (   0.3750000  -0.5000000  -0.2500000), wk =   0.0078125
        k(  202) = (   0.3750000  -0.5000000  -0.1250000), wk =   0.0078125
        k(  203) = (   0.3750000  -0.3750000   0.0000000), wk =   0.0078125
        k(  204) = (   0.3750000  -0.3750000   0.1250000), wk =   0.0078125
        k(  205) = (   0.3750000  -0.3750000   0.2500000), wk =   0.0078125
        k(  206) = (   0.3750000  -0.3750000   0.3750000), wk =   0.0078125
        k(  207) = (   0.3750000  -0.3750000  -0.5000000), wk =   0.0078125
        k(  208) = (   0.3750000  -0.3750000  -0.3750000), wk =   0.0078125
        k(  209) = (   0.3750000  -0.3750000  -0.2500000), wk =   0.0078125
        k(  210) = (   0.3750000  -0.3750000  -0.1250000), wk =   0.0078125
        k(  211) = (   0.3750000  -0.2500000   0.0000000), wk =   0.0078125
        k(  212) = (   0.3750000  -0.2500000   0.1250000), wk =   0.0078125
        k(  213) = (   0.3750000  -0.2500000   0.2500000), wk =   0.0078125
        k(  214) = (   0.3750000  -0.2500000   0.3750000), wk =   0.0078125
        k(  215) = (   0.3750000  -0.2500000  -0.5000000), wk =   0.0078125
        k(  216) = (   0.3750000  -0.2500000  -0.3750000), wk =   0.0078125
        k(  217) = (   0.3750000  -0.2500000  -0.2500000), wk =   0.0078125
        k(  218) = (   0.3750000  -0.2500000  -0.1250000), wk =   0.0078125
        k(  219) = (   0.3750000  -0.1250000   0.0000000), wk =   0.0078125
        k(  220) = (   0.3750000  -0.1250000   0.1250000), wk =   0.0078125
        k(  221) = (   0.3750000  -0.1250000   0.2500000), wk =   0.0078125
        k(  222) = (   0.3750000  -0.1250000   0.3750000), wk =   0.0078125
        k(  223) = (   0.3750000  -0.1250000  -0.5000000), wk =   0.0078125
        k(  224) = (   0.3750000  -0.1250000  -0.3750000), wk =   0.0078125
        k(  225) = (   0.3750000  -0.1250000  -0.2500000), wk =   0.0078125
        k(  226) = (   0.3750000  -0.1250000  -0.1250000), wk =   0.0078125
        k(  227) = (  -0.5000000  -0.0000000  -0.0000000), wk =   0.0039062
        k(  228) = (  -0.5000000  -0.0000000   0.1250000), wk =   0.0078125
        k(  229) = (  -0.5000000  -0.0000000   0.2500000), wk =   0.0078125
        k(  230) = (  -0.5000000  -0.0000000   0.3750000), wk =   0.0078125
        k(  231) = (  -0.5000000  -0.0000000  -0.5000000), wk =   0.0039062
        k(  232) = (  -0.5000000   0.1250000  -0.0000000), wk =   0.0078125
        k(  233) = (  -0.5000000   0.1250000   0.1250000), wk =   0.0078125
        k(  234) = (  -0.5000000   0.1250000   0.2500000), wk =   0.0078125
        k(  235) = (  -0.5000000   0.1250000   0.3750000), wk =   0.0078125
        k(  236) = (  -0.5000000   0.1250000  -0.5000000), wk =   0.0078125
        k(  237) = (  -0.5000000   0.1250000  -0.3750000), wk =   0.0078125
        k(  238) = (  -0.5000000   0.1250000  -0.2500000), wk =   0.0078125
        k(  239) = (  -0.5000000   0.1250000  -0.1250000), wk =   0.0078125
        k(  240) = (  -0.5000000   0.2500000  -0.0000000), wk =   0.0078125
        k(  241) = (  -0.5000000   0.2500000   0.1250000), wk =   0.0078125
        k(  242) = (  -0.5000000   0.2500000   0.2500000), wk =   0.0078125
        k(  243) = (  -0.5000000   0.2500000   0.3750000), wk =   0.0078125
        k(  244) = (  -0.5000000   0.2500000  -0.5000000), wk =   0.0078125
        k(  245) = (  -0.5000000   0.2500000  -0.3750000), wk =   0.0078125
        k(  246) = (  -0.5000000   0.2500000  -0.2500000), wk =   0.0078125
        k(  247) = (  -0.5000000   0.2500000  -0.1250000), wk =   0.0078125
        k(  248) = (  -0.5000000   0.3750000  -0.0000000), wk =   0.0078125
        k(  249) = (  -0.5000000   0.3750000   0.1250000), wk =   0.0078125
        k(  250) = (  -0.5000000   0.3750000   0.2500000), wk =   0.0078125
        k(  251) = (  -0.5000000   0.3750000   0.3750000), wk =   0.0078125
        k(  252) = (  -0.5000000   0.3750000  -0.5000000), wk =   0.0078125
        k(  253) = (  -0.5000000   0.3750000  -0.3750000), wk =   0.0078125
        k(  254) = (  -0.5000000   0.3750000  -0.2500000), wk =   0.0078125
        k(  255) = (  -0.5000000   0.3750000  -0.1250000), wk =   0.0078125
        k(  256) = (  -0.5000000  -0.5000000  -0.0000000), wk =   0.0039062
        k(  257) = (  -0.5000000  -0.5000000   0.1250000), wk =   0.0078125
        k(  258) = (  -0.5000000  -0.5000000   0.2500000), wk =   0.0078125
        k(  259) = (  -0.5000000  -0.5000000   0.3750000), wk =   0.0078125
        k(  260) = (  -0.5000000  -0.5000000  -0.5000000), wk =   0.0039062

     Dense  grid:    77813 G-vectors     FFT dimensions: (  50,  50,  72)

     Smooth grid:    30273 G-vectors     FFT dimensions: (  36,  36,  54)

     Dynamical RAM for                 wfc:       0.09 MB

     Dynamical RAM for     wfc (w. buffer):       6.18 MB

     Dynamical RAM for           str. fact:       0.15 MB

     Dynamical RAM for           local pot:       0.00 MB

     Dynamical RAM for          nlocal pot:       0.22 MB

     Dynamical RAM for                qrad:       3.95 MB

     Dynamical RAM for          rho,v,vnew:       0.51 MB

     Dynamical RAM for               rhoin:       0.17 MB

     Dynamical RAM for            rho*nmix:       1.19 MB

     Dynamical RAM for           G-vectors:       0.29 MB

     Dynamical RAM for          h,s,v(r/c):       0.12 MB

     Dynamical RAM for          <psi|beta>:       0.02 MB

     Dynamical RAM for                 psi:       0.37 MB

     Dynamical RAM for                hpsi:       0.37 MB

     Dynamical RAM for                spsi:       0.37 MB

     Dynamical RAM for      wfcinit/wfcrot:       0.27 MB

     Dynamical RAM for           addusdens:       3.54 MB

     Dynamical RAM for          addusforce:       3.69 MB

     Dynamical RAM for         addusstress:       3.76 MB

     Estimated static dynamical RAM per process >      13.36 MB

     Estimated max dynamical RAM per process >      17.11 MB

     Estimated total dynamical RAM >       1.07 GB

     Check: negative core charge=   -0.000003

     Initial potential from superposition of free atoms

     starting charge   51.99974, renormalised to   52.00000
     Starting wfcs are   34 randomized atomic wfcs

     total cpu time spent up to now is        1.7 secs

     Self-consistent Calculation

     iteration #  1     ecut=    80.00 Ry     beta= 0.50
     Davidson diagonalization with overlap
     ethr =  1.00E-02,  avg # of iterations =  1.0

     total cpu time spent up to now is        2.5 secs

     total energy              =    -986.75716405 Ry
     Harris-Foulkes estimate   =    -987.27902250 Ry
     estimated scf accuracy    <       0.82031258 Ry

     iteration #  2     ecut=    80.00 Ry     beta= 0.50
     Davidson diagonalization with overlap
     ethr =  1.58E-03,  avg # of iterations =  3.0

     total cpu time spent up to now is        3.9 secs

     total energy              =    -986.99899188 Ry
     Harris-Foulkes estimate   =    -987.16584909 Ry
     estimated scf accuracy    <       0.38460228 Ry

     iteration #  3     ecut=    80.00 Ry     beta= 0.50
     Davidson diagonalization with overlap
     ethr =  7.40E-04,  avg # of iterations =  2.1

     total cpu time spent up to now is        5.0 secs

     total energy              =    -987.06820531 Ry
     Harris-Foulkes estimate   =    -987.07049437 Ry
     estimated scf accuracy    <       0.00684626 Ry

     iteration #  4     ecut=    80.00 Ry     beta= 0.50
     Davidson diagonalization with overlap
     ethr =  1.32E-05,  avg # of iterations =  2.0

     total cpu time spent up to now is        6.0 secs

     total energy              =    -987.06879381 Ry
     Harris-Foulkes estimate   =    -987.06924164 Ry
     estimated scf accuracy    <       0.00152589 Ry

     iteration #  5     ecut=    80.00 Ry     beta= 0.50
     Davidson diagonalization with overlap
     ethr =  2.93E-06,  avg # of iterations =  2.0

     total cpu time spent up to now is        7.1 secs

     total energy              =    -987.06895148 Ry
     Harris-Foulkes estimate   =    -987.06896031 Ry
     estimated scf accuracy    <       0.00001750 Ry

     iteration #  6     ecut=    80.00 Ry     beta= 0.50
     Davidson diagonalization with overlap
     ethr =  3.37E-08,  avg # of iterations =  2.1

     total cpu time spent up to now is        8.2 secs

     total energy              =    -987.06895457 Ry
     Harris-Foulkes estimate   =    -987.06895387 Ry
     estimated scf accuracy    <       0.00000350 Ry

     iteration #  7     ecut=    80.00 Ry     beta= 0.50
     Davidson diagonalization with overlap
     ethr =  6.73E-09,  avg # of iterations =  2.0

     total cpu time spent up to now is        9.2 secs

     End of self-consistent calculation

          k = 0.0000 0.0000 0.0000 (  3751 PWs)   bands (ev):

  -114.1104-114.1100 -68.5032 -68.4981 -68.4534 -68.4534 -68.4521 -68.4521
    -9.0405  -8.0635   3.1376   3.1376   3.1390   3.1391   3.7893   3.9998
     4.3912   4.3912   4.6942   4.6942   5.0799   8.3092   8.3092   8.4754
     8.9873   8.9873

     occupation numbers 
     1.0000   1.0000   1.0000   1.0000   1.0000   1.0000   1.0000   1.0000
     1.0000   1.0000   1.0000   1.0000   1.0000   1.0000   1.0000   1.0000
     1.0000   1.0000   1.0000   1.0000   1.0000   1.0000   1.0000   1.0000
     1.0000   1.0000

          k =-0.0000-0.0000 0.0869 (  3752 PWs)   bands (ev):

  -114.1104-114.1100 -68.5030 -68.4983 -68.4533 -68.4533 -68.4521 -68.4521
    -9.0047  -8.1017   3.1315   3.1315   3.1320   3.1320   3.6642   3.9378
     4.4099   4.4099   4.6892   4.6892   5.3041   8.1829   8.3380   8.3380
     8.9652   8.9652

     occupation numbers 
     1.0000   1.0000   1.0000   1.0000   1.0000   1.0000   1.0000   1.0000
     1.0000   1.0000   1.0000   1.0000   1.0000   1.0000   1.0000   1.0000
     1.0000   1.0000   1.0000   1.0000   1.0000   1.0000   1.0000   1.0000
     1.0000   1.0000

          k =-0.0000-0.0000 0.1738 (  3740 PWs)   bands (ev):

  -114.1103-114.1101 -68.5024 -68.4989 -68.4532 -68.4532 -68.4523 -68.4523
    -8.9019  -8.2102   3.1157   3.1157   3.1166   3.1166   3.4734   3.7768
     4.4593   4.4593   4.6719   4.6719   5.7768   7.7009   8.4190   8.4190
     8.9003   8.9003

     occupation numbers 
     1.0000   1.0000   1.0000   1.0000   1.0000   1.0000   1.0000   1.0000
     1.0000   1.0000   1.0000   1.0000   1.0000   1.0000   1.0000   1.0000
     1.0000   1.0000   1.0000   1.0000   1.0000   1.0000   1.0000   1.0000
     1.0000   1.0000

          k =-0.0000-0.0000 0.2607 (  3782 PWs)   bands (ev):

  -114.1103-114.1101 -68.5016 -68.4997 -68.4530 -68.4530 -68.4525 -68.4525
    -8.7463  -8.3716   3.1004   3.1004   3.1015   3.1015   3.3841   3.5814
     4.5239   4.5239   4.6384   4.6384   6.2930   7.2377   8.5371   8.5371
     8.7983   8.7983

     occupation numbers 
     1.0000   1.0000   1.0000   1.0000   1.0000   1.0000   1.0000   1.0000
     1.0000   1.0000   1.0000   1.0000   1.0000   1.0000   1.0000   1.0000
     1.0000   1.0000   1.0000   1.0000   1.0000   1.0000   1.0000   1.0000
     1.0000   1.0000

          k = 0.0000 0.0000-0.3476 (  3758 PWs)   bands (ev):

  -114.1102-114.1102 -68.5006 -68.5006 -68.4528 -68.4528 -68.4527 -68.4527
    -8.5603  -8.5601   3.0948   3.0948   3.0948   3.0949   3.4295   3.4296
     4.5875   4.5875   4.5875   4.5875   6.7802   6.7802   8.6710   8.6710
     8.6712   8.6712

     occupation numbers 
     1.0000   1.0000   1.0000   1.0000   1.0000   1.0000   1.0000   1.0000
     1.0000   1.0000   1.0000   1.0000   1.0000   1.0000   1.0000   1.0000
     1.0000   1.0000   1.0000   1.0000   1.0000   1.0000   1.0000   1.0000
     1.0000   1.0000

          k =-0.0000 0.1443-0.0000 (  3761 PWs)   bands (ev):

  -114.1104-114.1100 -68.5030 -68.4983 -68.4536 -68.4534 -68.4524 -68.4521
    -8.9529  -8.0370   3.0589   3.1463   3.2001   3.2431   3.7497   4.0154
     4.3643   4.3745   4.7058   4.8961   5.0832   7.7505   8.0505   8.1586
     8.4283   8.8180

     occupation numbers 
     1.0000   1.0000   1.0000   1.0000   1.0000   1.0000   1.0000   1.0000
     1.0000   1.0000   1.0000   1.0000   1.0000   1.0000   1.0000   1.0000
     1.0000   1.0000   1.0000   1.0000   1.0000   1.0000   1.0000   1.0000
     1.0000   1.0000

          k =-0.0000 0.1443 0.0869 (  3765 PWs)   bands (ev):

  -114.1104-114.1100 -68.5028 -68.4985 -68.4535 -68.4534 -68.4524 -68.4522
    -8.9187  -8.0721   3.0492   3.1244   3.1952   3.2343   3.6511   3.9435
     4.3941   4.3963   4.6991   4.8018   5.3734   7.7498   7.9064   8.0827
     8.6260   8.7924

     occupation numbers 
     1.0000   1.0000   1.0000   1.0000   1.0000   1.0000   1.0000   1.0000
     1.0000   1.0000   1.0000   1.0000   1.0000   1.0000   1.0000   1.0000
     1.0000   1.0000   1.0000   1.0000   1.0000   1.0000   1.0000   1.0000
     1.0000   1.0000

          k =-0.0000 0.1443 0.1738 (  3774 PWs)   bands (ev):

  -114.1103-114.1101 -68.5023 -68.4990 -68.4534 -68.4533 -68.4526 -68.4523
    -8.8210  -8.1722   3.0220   3.0666   3.1842   3.2130   3.5031   3.7775
     4.4460   4.4655   4.6777   4.7374   5.8516   7.4381   7.9663   8.1736
     8.7176   8.7179

     occupation numbers 
     1.0000   1.0000   1.0000   1.0000   1.0000   1.0000   1.0000   1.0000
     1.0000   1.0000   1.0000   1.0000   1.0000   1.0000   1.0000   1.0000
     1.0000   1.0000   1.0000   1.0000   1.0000   1.0000   1.0000   1.0000
     1.0000   1.0000

          k =-0.0000 0.1443 0.2607 (  3769 PWs)   bands (ev):

  -114.1103-114.1101 -68.5016 -68.4998 -68.4532 -68.4531 -68.4527 -68.4526
    -8.6737  -8.3221   2.9869   3.0106   3.1755   3.1905   3.4408   3.5987
     4.5142   4.5449   4.6387   4.6840   6.3230   7.0846   8.1750   8.3063
     8.6015   8.6253

     occupation numbers 
     1.0000   1.0000   1.0000   1.0000   1.0000   1.0000   1.0000   1.0000
     1.0000   1.0000   1.0000   1.0000   1.0000   1.0000   1.0000   1.0000
     1.0000   1.0000   1.0000   1.0000   1.0000   1.0000   1.0000   1.0000
     1.0000   1.0000

          k = 0.0000 0.1443-0.3476 (  3778 PWs)   bands (ev):

  -114.1102-114.1102 -68.5007 -68.5007 -68.4530 -68.4530 -68.4528 -68.4528
    -8.4986  -8.4984   2.9802   2.9802   3.1766   3.1767   3.4755   3.4755
     4.5823   4.5824   4.6204   4.6204   6.7284   6.7284   8.4189   8.4190
     8.4572   8.4573

     occupation numbers 
     1.0000   1.0000   1.0000   1.0000   1.0000   1.0000   1.0000   1.0000
     1.0000   1.0000   1.0000   1.0000   1.0000   1.0000   1.0000   1.0000
     1.0000   1.0000   1.0000   1.0000   1.0000   1.0000   1.0000   1.0000
     1.0000   1.0000

          k = 0.0000 0.1443-0.2607 (  3769 PWs)   bands (ev):

  -114.1103-114.1101 -68.5016 -68.4998 -68.4532 -68.4531 -68.4527 -68.4526
    -8.6737  -8.3221   2.9868   3.0106   3.1755   3.1905   3.4408   3.5987
     4.5142   4.5449   4.6387   4.6840   6.3230   7.0846   8.1750   8.3063
     8.6015   8.6253

     occupation numbers 
     1.0000   1.0000   1.0000   1.0000   1.0000   1.0000   1.0000   1.0000
     1.0000   1.0000   1.0000   1.0000   1.0000   1.0000   1.0000   1.0000
     1.0000   1.0000   1.0000   1.0000   1.0000   1.0000   1.0000   1.0000
     1.0000   1.0000

          k =-0.0000 0.1443-0.1738 (  3774 PWs)   bands (ev):

  -114.1103-114.1101 -68.5023 -68.4990 -68.4534 -68.4533 -68.4526 -68.4523
    -8.8210  -8.1722   3.0219   3.0667   3.1842   3.2130   3.5031   3.7775
     4.4460   4.4655   4.6777   4.7374   5.8516   7.4381   7.9663   8.1736
     8.7176   8.7179

     occupation numbers 
     1.0000   1.0000   1.0000   1.0000   1.0000   1.0000   1.0000   1.0000
     1.0000   1.0000   1.0000   1.0000   1.0000   1.0000   1.0000   1.0000
     1.0000   1.0000   1.0000   1.0000   1.0000   1.0000   1.0000   1.0000
     1.0000   1.0000

          k =-0.0000 0.1443-0.0869 (  3765 PWs)   bands (ev):

  -114.1104-114.1100 -68.5028 -68.4985 -68.4535 -68.4534 -68.4524 -68.4522
    -8.9187  -8.0721   3.0492   3.1244   3.1952   3.2343   3.6511   3.9435
     4.3941   4.3963   4.6991   4.8018   5.3734   7.7498   7.9064   8.0827
     8.6260   8.7924

     occupation numbers 
     1.0000   1.0000   1.0000   1.0000   1.0000   1.0000   1.0000   1.0000
     1.0000   1.0000   1.0000   1.0000   1.0000   1.0000   1.0000   1.0000
     1.0000   1.0000   1.0000   1.0000   1.0000   1.0000   1.0000   1.0000
     1.0000   1.0000

          k =-0.0000 0.2887-0.0000 (  3780 PWs)   bands (ev):

  -114.1103-114.1100 -68.5025 -68.4987 -68.4541 -68.4537 -68.4530 -68.4522
    -8.7236  -7.9848   2.9337   3.1753   3.4165   3.4676   3.7517   4.0198
     4.3433   4.3545   4.7278   5.0154   5.4027   6.6236   7.1158   7.4344
     8.2703   8.3868

     occupation numbers 
     1.0000   1.0000   1.0000   1.0000   1.0000   1.0000   1.0000   1.0000
     1.0000   1.0000   1.0000   1.0000   1.0000   1.0000   1.0000   1.0000
     1.0000   1.0000   1.0000   1.0000   1.0000   1.0000   1.0000   1.0000
     1.0000   1.0000

          k =-0.0000 0.2887 0.0869 (  3770 PWs)   bands (ev):

  -114.1103-114.1101 -68.5024 -68.4989 -68.4540 -68.4536 -68.4531 -68.4523
    -8.6946  -8.0113   2.9176   3.1260   3.4117   3.4579   3.6788   3.9332
     4.3746   4.3990   4.7176   4.9306   5.6200   6.7007   7.0315   7.4749
     8.3547   8.3831

     occupation numbers 
     1.0000   1.0000   1.0000   1.0000   1.0000   1.0000   1.0000   1.0000
     1.0000   1.0000   1.0000   1.0000   1.0000   1.0000   1.0000   1.0000
     1.0000   1.0000   1.0000   1.0000   1.0000   1.0000   1.0000   1.0000
     1.0000   1.0000

          k =-0.0000 0.2887 0.1738 (  3775 PWs)   bands (ev):

  -114.1103-114.1101 -68.5019 -68.4993 -68.4539 -68.4535 -68.4532 -68.4525
    -8.6121  -8.0879   2.8719   3.0020   3.4009   3.4345   3.5686   3.7676
     4.4280   4.4986   4.6871   4.8435   5.9318   6.6861   7.1770   7.5881
     8.2615   8.5233

     occupation numbers 
     1.0000   1.0000   1.0000   1.0000   1.0000   1.0000   1.0000   1.0000
     1.0000   1.0000   1.0000   1.0000   1.0000   1.0000   1.0000   1.0000
     1.0000   1.0000   1.0000   1.0000   1.0000   1.0000   1.0000   1.0000
     1.0000   1.0000

          k =-0.0000 0.2887 0.2607 (  3779 PWs)   bands (ev):

  -114.1102-114.1101 -68.5014 -68.4999 -68.4537 -68.4533 -68.4532 -68.4527
    -8.4892  -8.2048   2.8195   2.8803   3.3927   3.4101   3.5170   3.6195
     4.4992   4.5995   4.6377   4.7712   6.1568   6.5076   7.6642   7.7525
     8.1169   8.4604

     occupation numbers 
     1.0000   1.0000   1.0000   1.0000   1.0000   1.0000   1.0000   1.0000
     1.0000   1.0000   1.0000   1.0000   1.0000   1.0000   1.0000   1.0000
     1.0000   1.0000   1.0000   1.0000   1.0000   1.0000   1.0000   1.0000
     1.0000   1.0000

          k =-0.0000 0.2887-0.3476 (  3798 PWs)   bands (ev):

  -114.1102-114.1102 -68.5007 -68.5007 -68.4535 -68.4535 -68.4530 -68.4530
    -8.3459  -8.3457   2.8141   2.8141   3.3947   3.3948   3.5333   3.5333
     4.5727   4.5727   4.6916   4.6916   6.3341   6.3341   7.9386   7.9388
     8.1474   8.1474

     occupation numbers 
     1.0000   1.0000   1.0000   1.0000   1.0000   1.0000   1.0000   1.0000
     1.0000   1.0000   1.0000   1.0000   1.0000   1.0000   1.0000   1.0000
     1.0000   1.0000   1.0000   1.0000   1.0000   1.0000   1.0000   1.0000
     1.0000   1.0000

          k =-0.0000 0.2887-0.2607 (  3779 PWs)   bands (ev):

  -114.1102-114.1101 -68.5014 -68.4999 -68.4537 -68.4533 -68.4532 -68.4527
    -8.4892  -8.2048   2.8195   2.8804   3.3927   3.4101   3.5170   3.6195
     4.4992   4.5995   4.6377   4.7712   6.1568   6.5076   7.6643   7.7525
     8.1169   8.4604

     occupation numbers 
     1.0000   1.0000   1.0000   1.0000   1.0000   1.0000   1.0000   1.0000
     1.0000   1.0000   1.0000   1.0000   1.0000   1.0000   1.0000   1.0000
     1.0000   1.0000   1.0000   1.0000   1.0000   1.0000   1.0000   1.0000
     1.0000   1.0000

          k =-0.0000 0.2887-0.1738 (  3775 PWs)   bands (ev):

  -114.1103-114.1101 -68.5019 -68.4993 -68.4539 -68.4535 -68.4532 -68.4525
    -8.6121  -8.0879   2.8719   3.0020   3.4009   3.4345   3.5686   3.7676
     4.4280   4.4986   4.6871   4.8435   5.9318   6.6861   7.1771   7.5881
     8.2615   8.5233

     occupation numbers 
     1.0000   1.0000   1.0000   1.0000   1.0000   1.0000   1.0000   1.0000
     1.0000   1.0000   1.0000   1.0000   1.0000   1.0000   1.0000   1.0000
     1.0000   1.0000   1.0000   1.0000   1.0000   1.0000   1.0000   1.0000
     1.0000   1.0000

          k =-0.0000 0.2887-0.0869 (  3770 PWs)   bands (ev):

  -114.1103-114.1101 -68.5024 -68.4989 -68.4540 -68.4536 -68.4531 -68.4523
    -8.6945  -8.0113   2.9176   3.1260   3.4117   3.4579   3.6788   3.9332
     4.3746   4.3990   4.7176   4.9306   5.6200   6.7006   7.0316   7.4749
     8.3547   8.3831

     occupation numbers 
     1.0000   1.0000   1.0000   1.0000   1.0000   1.0000   1.0000   1.0000
     1.0000   1.0000   1.0000   1.0000   1.0000   1.0000   1.0000   1.0000
     1.0000   1.0000   1.0000   1.0000   1.0000   1.0000   1.0000   1.0000
     1.0000   1.0000

          k =-0.0000 0.4330-0.0000 (  3766 PWs)   bands (ev):

  -114.1102-114.1101 -68.5018 -68.4993 -68.4545 -68.4539 -68.4537 -68.4523
    -8.4501  -7.9679   2.9188   3.2102   3.6746   3.7146   3.8338   4.0759
     4.3898   4.3998   4.7446   4.9229   5.4934   5.9251   6.3036   6.7855
     7.9210   7.9981

     occupation numbers 
     1.0000   1.0000   1.0000   1.0000   1.0000   1.0000   1.0000   1.0000
     1.0000   1.0000   1.0000   1.0000   1.0000   1.0000   1.0000   1.0000
     1.0000   1.0000   1.0000   1.0000   1.0000   1.0000   1.0000   1.0000
     1.0000   1.0000

          k =-0.0000 0.4330 0.0869 (  3779 PWs)   bands (ev):

  -114.1102-114.1101 -68.5017 -68.4994 -68.4545 -68.4538 -68.4537 -68.4524
    -8.4290  -7.9828   2.8917   3.1513   3.6692   3.7069   3.7593   3.9892
     4.4055   4.4583   4.7301   4.9003   5.4862   5.9166   6.5175   6.8366
     7.8835   8.1224

     occupation numbers 
     1.0000   1.0000   1.0000   1.0000   1.0000   1.0000   1.0000   1.0000
     1.0000   1.0000   1.0000   1.0000   1.0000   1.0000   1.0000   1.0000
     1.0000   1.0000   1.0000   1.0000   1.0000   1.0000   1.0000   1.0000
     1.0000   1.0000

          k =-0.0000 0.4330 0.1738 (  3790 PWs)   bands (ev):

  -114.1102-114.1101 -68.5015 -68.4997 -68.4544 -68.4538 -68.4537 -68.4526
    -8.3698  -8.0271   2.8187   3.0000   3.6465   3.6576   3.6878   3.8298
     4.4480   4.5580   4.6908   4.8556   5.5107   5.8260   6.9772   7.0675
     7.7749   8.3458

     occupation numbers 
     1.0000   1.0000   1.0000   1.0000   1.0000   1.0000   1.0000   1.0000
     1.0000   1.0000   1.0000   1.0000   1.0000   1.0000   1.0000   1.0000
     1.0000   1.0000   1.0000   1.0000   1.0000   1.0000   1.0000   1.0000
     1.0000   1.0000

          k =-0.0000 0.4330 0.2607 (  3772 PWs)   bands (ev):

  -114.1102-114.1101 -68.5011 -68.5001 -68.4542 -68.4539 -68.4534 -68.4528
    -8.2841  -8.0979   2.7453   2.8381   3.5964   3.6494   3.6663   3.6953
     4.5068   4.6353   4.6521   4.8008   5.5675   5.7258   7.1765   7.6064
     7.6848   8.4100

     occupation numbers 
     1.0000   1.0000   1.0000   1.0000   1.0000   1.0000   1.0000   1.0000
     1.0000   1.0000   1.0000   1.0000   1.0000   1.0000   1.0000   1.0000
     1.0000   1.0000   1.0000   1.0000   1.0000   1.0000   1.0000   1.0000
     1.0000   1.0000

          k =-0.0000 0.4330-0.3476 (  3786 PWs)   bands (ev):

  -114.1102-114.1101 -68.5006 -68.5006 -68.4541 -68.4541 -68.4531 -68.4531
    -8.1881  -8.1878   2.7425   2.7425   3.6154   3.6154   3.6517   3.6518
     4.5718   4.5718   4.7334   4.7334   5.6404   5.6404   7.3976   7.3977
     8.1774   8.1774

     occupation numbers 
     1.0000   1.0000   1.0000   1.0000   1.0000   1.0000   1.0000   1.0000
     1.0000   1.0000   1.0000   1.0000   1.0000   1.0000   1.0000   1.0000
     1.0000   1.0000   1.0000   1.0000   1.0000   1.0000   1.0000   1.0000
     1.0000   1.0000

          k =-0.0000 0.4330-0.2607 (  3772 PWs)   bands (ev):

  -114.1102-114.1101 -68.5011 -68.5001 -68.4542 -68.4539 -68.4534 -68.4528
    -8.2841  -8.0979   2.7453   2.8381   3.5964   3.6494   3.6662   3.6953
     4.5068   4.6353   4.6521   4.8008   5.5675   5.7258   7.1765   7.6064
     7.6848   8.4100

     occupation numbers 
     1.0000   1.0000   1.0000   1.0000   1.0000   1.0000   1.0000   1.0000
     1.0000   1.0000   1.0000   1.0000   1.0000   1.0000   1.0000   1.0000
     1.0000   1.0000   1.0000   1.0000   1.0000   1.0000   1.0000   1.0000
     1.0000   1.0000

          k =-0.0000 0.4330-0.1738 (  3790 PWs)   bands (ev):

  -114.1102-114.1101 -68.5015 -68.4997 -68.4544 -68.4538 -68.4537 -68.4526
    -8.3698  -8.0271   2.8187   3.0000   3.6465   3.6577   3.6877   3.8298
     4.4480   4.5580   4.6907   4.8556   5.5107   5.8260   6.9772   7.0675
     7.7749   8.3458

     occupation numbers 
     1.0000   1.0000   1.0000   1.0000   1.0000   1.0000   1.0000   1.0000
     1.0000   1.0000   1.0000   1.0000   1.0000   1.0000   1.0000   1.0000
     1.0000   1.0000   1.0000   1.0000   1.0000   1.0000   1.0000   1.0000
     1.0000   1.0000

          k =-0.0000 0.4330-0.0869 (  3779 PWs)   bands (ev):

  -114.1102-114.1101 -68.5017 -68.4994 -68.4545 -68.4538 -68.4537 -68.4524
    -8.4290  -7.9828   2.8917   3.1513   3.6693   3.7069   3.7593   3.9892
     4.4055   4.4583   4.7301   4.9003   5.4862   5.9166   6.5176   6.8366
     7.8835   8.1224

     occupation numbers 
     1.0000   1.0000   1.0000   1.0000   1.0000   1.0000   1.0000   1.0000
     1.0000   1.0000   1.0000   1.0000   1.0000   1.0000   1.0000   1.0000
     1.0000   1.0000   1.0000   1.0000   1.0000   1.0000   1.0000   1.0000
     1.0000   1.0000

          k = 0.0000-0.5774 0.0000 (  3796 PWs)   bands (ev):

  -114.1102-114.1101 -68.5014 -68.4997 -68.4548 -68.4540 -68.4540 -68.4524
    -8.3027  -7.9922   2.9878   3.1895   3.7628   3.8352   3.8549   4.2314
     4.4440   4.5312   4.7500   4.7749   5.1793   5.4999   6.4548   6.4856
     7.7134   7.8074

     occupation numbers 
     1.0000   1.0000   1.0000   1.0000   1.0000   1.0000   1.0000   1.0000
     1.0000   1.0000   1.0000   1.0000   1.0000   1.0000   1.0000   1.0000
     1.0000   1.0000   1.0000   1.0000   1.0000   1.0000   1.0000   1.0000
     1.0000   1.0000

          k = 0.0000-0.5774 0.0869 (  3782 PWs)   bands (ev):

  -114.1102-114.1101 -68.5013 -68.4998 -68.4547 -68.4540 -68.4539 -68.4524
    -8.2873  -7.9999   2.9474   3.1383   3.7609   3.7704   3.8464   4.1393
     4.4546   4.5629   4.7325   4.7710   5.1977   5.4436   6.5437   6.6994
     7.6739   7.9451

     occupation numbers 
     1.0000   1.0000   1.0000   1.0000   1.0000   1.0000   1.0000   1.0000
     1.0000   1.0000   1.0000   1.0000   1.0000   1.0000   1.0000   1.0000
     1.0000   1.0000   1.0000   1.0000   1.0000   1.0000   1.0000   1.0000
     1.0000   1.0000

          k = 0.0000-0.5774 0.1738 (  3778 PWs)   bands (ev):

  -114.1102-114.1101 -68.5012 -68.5000 -68.4546 -68.4541 -68.4537 -68.4526
    -8.2447  -8.0238   2.8434   3.0012   3.6769   3.7580   3.8240   3.9541
     4.4840   4.6192   4.6883   4.7595   5.2357   5.3730   6.7013   7.2321
     7.5592   8.2223

     occupation numbers 
     1.0000   1.0000   1.0000   1.0000   1.0000   1.0000   1.0000   1.0000
     1.0000   1.0000   1.0000   1.0000   1.0000   1.0000   1.0000   1.0000
     1.0000   1.0000   1.0000   1.0000   1.0000   1.0000   1.0000   1.0000
     1.0000   1.0000

          k = 0.0000-0.5774 0.2607 (  3794 PWs)   bands (ev):

  -114.1102-114.1101 -68.5009 -68.5003 -68.4545 -68.4542 -68.4535 -68.4529
    -8.1848  -8.0648   2.7471   2.8397   3.6491   3.7606   3.7932   3.7966
     4.5266   4.6331   4.6690   4.7391   5.2741   5.3333   6.9199   7.3807
     7.8020   8.3742

     occupation numbers 
     1.0000   1.0000   1.0000   1.0000   1.0000   1.0000   1.0000   1.0000
     1.0000   1.0000   1.0000   1.0000   1.0000   1.0000   1.0000   1.0000
     1.0000   1.0000   1.0000   1.0000   1.0000   1.0000   1.0000   1.0000
     1.0000   1.0000

          k = 0.0000-0.5773-0.3476 (  3792 PWs)   bands (ev):

  -114.1102-114.1101 -68.5006 -68.5006 -68.4543 -68.4543 -68.4532 -68.4532
    -8.1210  -8.1208   2.7390   2.7391   3.6907   3.6907   3.7734   3.7735
     4.5776   4.5776   4.7088   4.7088   5.3056   5.3056   7.1581   7.1583
     8.2283   8.2284

     occupation numbers 
     1.0000   1.0000   1.0000   1.0000   1.0000   1.0000   1.0000   1.0000
     1.0000   1.0000   1.0000   1.0000   1.0000   1.0000   1.0000   1.0000
     1.0000   1.0000   1.0000   1.0000   1.0000   1.0000   1.0000   1.0000
     1.0000   1.0000

          k = 0.1250 0.0722-0.0000 (  3761 PWs)   bands (ev):

  -114.1104-114.1100 -68.5030 -68.4983 -68.4536 -68.4534 -68.4524 -68.4521
    -8.9529  -8.0370   3.0589   3.1463   3.2001   3.2431   3.7497   4.0154
     4.3643   4.3745   4.7058   4.8961   5.0832   7.7505   8.0505   8.1586
     8.4283   8.8180

     occupation numbers 
     1.0000   1.0000   1.0000   1.0000   1.0000   1.0000   1.0000   1.0000
     1.0000   1.0000   1.0000   1.0000   1.0000   1.0000   1.0000   1.0000
     1.0000   1.0000   1.0000   1.0000   1.0000   1.0000   1.0000   1.0000
     1.0000   1.0000

          k = 0.1250 0.0722 0.0869 (  3765 PWs)   bands (ev):

  -114.1104-114.1100 -68.5028 -68.4985 -68.4535 -68.4534 -68.4524 -68.4522
    -8.9187  -8.0721   3.0492   3.1244   3.1952   3.2343   3.6511   3.9435
     4.3941   4.3963   4.6991   4.8018   5.3734   7.7498   7.9064   8.0827
     8.6260   8.7924

     occupation numbers 
     1.0000   1.0000   1.0000   1.0000   1.0000   1.0000   1.0000   1.0000
     1.0000   1.0000   1.0000   1.0000   1.0000   1.0000   1.0000   1.0000
     1.0000   1.0000   1.0000   1.0000   1.0000   1.0000   1.0000   1.0000
     1.0000   1.0000

          k = 0.1250 0.0722 0.1738 (  3774 PWs)   bands (ev):

  -114.1103-114.1101 -68.5023 -68.4990 -68.4534 -68.4533 -68.4526 -68.4523
    -8.8210  -8.1722   3.0219   3.0667   3.1842   3.2130   3.5031   3.7775
     4.4460   4.4655   4.6777   4.7374   5.8516   7.4381   7.9663   8.1736
     8.7176   8.7179

     occupation numbers 
     1.0000   1.0000   1.0000   1.0000   1.0000   1.0000   1.0000   1.0000
     1.0000   1.0000   1.0000   1.0000   1.0000   1.0000   1.0000   1.0000
     1.0000   1.0000   1.0000   1.0000   1.0000   1.0000   1.0000   1.0000
     1.0000   1.0000

          k = 0.1250 0.0722 0.2607 (  3769 PWs)   bands (ev):

  -114.1103-114.1101 -68.5016 -68.4998 -68.4532 -68.4531 -68.4527 -68.4526
    -8.6737  -8.3221   2.9868   3.0106   3.1755   3.1905   3.4408   3.5987
     4.5142   4.5449   4.6387   4.6840   6.3230   7.0846   8.1750   8.3063
     8.6015   8.6253

     occupation numbers 
     1.0000   1.0000   1.0000   1.0000   1.0000   1.0000   1.0000   1.0000
     1.0000   1.0000   1.0000   1.0000   1.0000   1.0000   1.0000   1.0000
     1.0000   1.0000   1.0000   1.0000   1.0000   1.0000   1.0000   1.0000
     1.0000   1.0000

          k = 0.1250 0.0722-0.3476 (  3778 PWs)   bands (ev):

  -114.1102-114.1102 -68.5007 -68.5007 -68.4530 -68.4530 -68.4528 -68.4528
    -8.4986  -8.4984   2.9802   2.9802   3.1766   3.1767   3.4755   3.4755
     4.5823   4.5824   4.6204   4.6204   6.7284   6.7284   8.4189   8.4190
     8.4572   8.4573

     occupation numbers 
     1.0000   1.0000   1.0000   1.0000   1.0000   1.0000   1.0000   1.0000
     1.0000   1.0000   1.0000   1.0000   1.0000   1.0000   1.0000   1.0000
     1.0000   1.0000   1.0000   1.0000   1.0000   1.0000   1.0000   1.0000
     1.0000   1.0000

          k = 0.1250 0.0722-0.2607 (  3769 PWs)   bands (ev):

  -114.1103-114.1101 -68.5016 -68.4998 -68.4532 -68.4531 -68.4527 -68.4526
    -8.6737  -8.3221   2.9869   3.0106   3.1755   3.1905   3.4408   3.5987
     4.5142   4.5449   4.6387   4.6840   6.3230   7.0846   8.1750   8.3063
     8.6015   8.6253

     occupation numbers 
     1.0000   1.0000   1.0000   1.0000   1.0000   1.0000   1.0000   1.0000
     1.0000   1.0000   1.0000   1.0000   1.0000   1.0000   1.0000   1.0000
     1.0000   1.0000   1.0000   1.0000   1.0000   1.0000   1.0000   1.0000
     1.0000   1.0000

          k = 0.1250 0.0722-0.1738 (  3774 PWs)   bands (ev):

  -114.1103-114.1101 -68.5023 -68.4990 -68.4534 -68.4533 -68.4526 -68.4523
    -8.8210  -8.1722   3.0220   3.0666   3.1842   3.2130   3.5031   3.7775
     4.4460   4.4655   4.6777   4.7374   5.8516   7.4381   7.9663   8.1736
     8.7176   8.7179

     occupation numbers 
     1.0000   1.0000   1.0000   1.0000   1.0000   1.0000   1.0000   1.0000
     1.0000   1.0000   1.0000   1.0000   1.0000   1.0000   1.0000   1.0000
     1.0000   1.0000   1.0000   1.0000   1.0000   1.0000   1.0000   1.0000
     1.0000   1.0000

          k = 0.1250 0.0722-0.0869 (  3765 PWs)   bands (ev):

  -114.1104-114.1100 -68.5028 -68.4985 -68.4535 -68.4534 -68.4524 -68.4522
    -8.9187  -8.0721   3.0492   3.1244   3.1952   3.2343   3.6511   3.9435
     4.3941   4.3963   4.6991   4.8018   5.3734   7.7498   7.9064   8.0827
     8.6260   8.7924

     occupation numbers 
     1.0000   1.0000   1.0000   1.0000   1.0000   1.0000   1.0000   1.0000
     1.0000   1.0000   1.0000   1.0000   1.0000   1.0000   1.0000   1.0000
     1.0000   1.0000   1.0000   1.0000   1.0000   1.0000   1.0000   1.0000
     1.0000   1.0000

          k = 0.1250 0.2165-0.0000 (  3781 PWs)   bands (ev):

  -114.1103-114.1100 -68.5027 -68.4986 -68.4539 -68.4537 -68.4528 -68.4523
    -8.7941  -7.9978   2.9872   3.1541   3.3601   3.3670   3.7508   4.0217
     4.3438   4.3538   4.7211   5.0240   5.2753   7.0640   7.2359   7.6475
     8.3361   8.4423

     occupation numbers 
     1.0000   1.0000   1.0000   1.0000   1.0000   1.0000   1.0000   1.0000
     1.0000   1.0000   1.0000   1.0000   1.0000   1.0000   1.0000   1.0000
     1.0000   1.0000   1.0000   1.0000   1.0000   1.0000   1.0000   1.0000
     1.0000   1.0000

          k = 0.1250 0.2165 0.0869 (  3782 PWs)   bands (ev):

  -114.1103-114.1101 -68.5025 -68.4987 -68.4539 -68.4537 -68.4528 -68.4523
    -8.7634  -8.0271   2.9747   3.1096   3.3535   3.3593   3.6738   3.9375
     4.3737   4.3947   4.7123   4.9118   5.5469   7.1474   7.1535   7.6173
     8.4102   8.4642

     occupation numbers 
     1.0000   1.0000   1.0000   1.0000   1.0000   1.0000   1.0000   1.0000
     1.0000   1.0000   1.0000   1.0000   1.0000   1.0000   1.0000   1.0000
     1.0000   1.0000   1.0000   1.0000   1.0000   1.0000   1.0000   1.0000
     1.0000   1.0000

          k = 0.1250 0.2165 0.1738 (  3776 PWs)   bands (ev):

  -114.1103-114.1101 -68.5021 -68.4992 -68.4537 -68.4535 -68.4529 -68.4525
    -8.6759  -8.1111   2.9394   2.9969   3.3385   3.3411   3.5572   3.7694
     4.4276   4.4878   4.6852   4.8210   5.9468   6.9449   7.4077   7.6739
     8.3174   8.6014

     occupation numbers 
     1.0000   1.0000   1.0000   1.0000   1.0000   1.0000   1.0000   1.0000
     1.0000   1.0000   1.0000   1.0000   1.0000   1.0000   1.0000   1.0000
     1.0000   1.0000   1.0000   1.0000   1.0000   1.0000   1.0000   1.0000
     1.0000   1.0000

          k = 0.1250 0.2165 0.2607 (  3779 PWs)   bands (ev):

  -114.1102-114.1101 -68.5014 -68.4999 -68.4535 -68.4533 -68.4530 -68.4527
    -8.5450  -8.2387   2.8914   2.8937   3.3234   3.3236   3.5028   3.6136
     4.4994   4.5811   4.6415   4.7508   6.2679   6.7225   7.8115   7.8164
     8.1771   8.5324

     occupation numbers 
     1.0000   1.0000   1.0000   1.0000   1.0000   1.0000   1.0000   1.0000
     1.0000   1.0000   1.0000   1.0000   1.0000   1.0000   1.0000   1.0000
     1.0000   1.0000   1.0000   1.0000   1.0000   1.0000   1.0000   1.0000
     1.0000   1.0000

          k = 0.1250 0.2165-0.3476 (  3774 PWs)   bands (ev):

  -114.1102-114.1102 -68.5006 -68.5006 -68.4533 -68.4533 -68.4530 -68.4529
    -8.3913  -8.3911   2.8616   2.8616   3.3166   3.3167   3.5210   3.5211
     4.5718   4.5718   4.6756   4.6756   6.5086   6.5086   7.9884   7.9885
     8.2471   8.2472

     occupation numbers 
     1.0000   1.0000   1.0000   1.0000   1.0000   1.0000   1.0000   1.0000
     1.0000   1.0000   1.0000   1.0000   1.0000   1.0000   1.0000   1.0000
     1.0000   1.0000   1.0000   1.0000   1.0000   1.0000   1.0000   1.0000
     1.0000   1.0000

          k = 0.1250 0.2165-0.2607 (  3779 PWs)   bands (ev):

  -114.1102-114.1101 -68.5014 -68.4999 -68.4535 -68.4533 -68.4530 -68.4527
    -8.5450  -8.2387   2.8914   2.8937   3.3234   3.3236   3.5028   3.6136
     4.4994   4.5811   4.6415   4.7508   6.2679   6.7225   7.8115   7.8164
     8.1771   8.5324

     occupation numbers 
     1.0000   1.0000   1.0000   1.0000   1.0000   1.0000   1.0000   1.0000
     1.0000   1.0000   1.0000   1.0000   1.0000   1.0000   1.0000   1.0000
     1.0000   1.0000   1.0000   1.0000   1.0000   1.0000   1.0000   1.0000
     1.0000   1.0000

          k = 0.1250 0.2165-0.1738 (  3776 PWs)   bands (ev):

  -114.1103-114.1101 -68.5021 -68.4992 -68.4537 -68.4535 -68.4529 -68.4525
    -8.6759  -8.1111   2.9394   2.9969   3.3385   3.3411   3.5572   3.7694
     4.4276   4.4878   4.6852   4.8210   5.9468   6.9450   7.4077   7.6739
     8.3174   8.6014

     occupation numbers 
     1.0000   1.0000   1.0000   1.0000   1.0000   1.0000   1.0000   1.0000
     1.0000   1.0000   1.0000   1.0000   1.0000   1.0000   1.0000   1.0000
     1.0000   1.0000   1.0000   1.0000   1.0000   1.0000   1.0000   1.0000
     1.0000   1.0000

          k = 0.1250 0.2165-0.0869 (  3782 PWs)   bands (ev):

  -114.1103-114.1101 -68.5025 -68.4987 -68.4539 -68.4537 -68.4528 -68.4523
    -8.7634  -8.0271   2.9747   3.1096   3.3535   3.3593   3.6738   3.9375
     4.3737   4.3947   4.7123   4.9118   5.5469   7.1474   7.1535   7.6173
     8.4102   8.4642

     occupation numbers 
     1.0000   1.0000   1.0000   1.0000   1.0000   1.0000   1.0000   1.0000
     1.0000   1.0000   1.0000   1.0000   1.0000   1.0000   1.0000   1.0000
     1.0000   1.0000   1.0000   1.0000   1.0000   1.0000   1.0000   1.0000
     1.0000   1.0000

          k = 0.1250 0.3608-0.0000 (  3783 PWs)   bands (ev):

  -114.1103-114.1101 -68.5020 -68.4991 -68.4543 -68.4540 -68.4534 -68.4524
    -8.5395  -7.9656   2.9683   3.2381   3.5347   3.6005   3.8585   4.0139
     4.3517   4.3816   4.7396   4.9791   5.6481   6.1768   6.4921   6.7868
     7.8793   8.1049

     occupation numbers 
     1.0000   1.0000   1.0000   1.0000   1.0000   1.0000   1.0000   1.0000
     1.0000   1.0000   1.0000   1.0000   1.0000   1.0000   1.0000   1.0000
     1.0000   1.0000   1.0000   1.0000   1.0000   1.0000   1.0000   1.0000
     1.0000   1.0000

          k = 0.1250 0.3608 0.0869 (  3779 PWs)   bands (ev):

  -114.1103-114.1101 -68.5019 -68.4992 -68.4543 -68.4540 -68.4534 -68.4525
    -8.5155  -7.9845   2.9475   3.1731   3.5325   3.5892   3.7847   3.9316
     4.3770   4.4350   4.7273   4.9407   5.6910   6.2707   6.5648   6.8215
     7.8361   8.2346

     occupation numbers 
     1.0000   1.0000   1.0000   1.0000   1.0000   1.0000   1.0000   1.0000
     1.0000   1.0000   1.0000   1.0000   1.0000   1.0000   1.0000   1.0000
     1.0000   1.0000   1.0000   1.0000   1.0000   1.0000   1.0000   1.0000
     1.0000   1.0000

[...]

  -114.1102-114.1101 -68.5012 -68.5000 -68.4543 -68.4542 -68.4537 -68.4530
    -8.2542  -8.0191   3.0723   3.1468   3.6473   3.6506   3.7555   3.8851
     4.4797   4.5269   4.7310   4.8871   5.4733   5.6922   5.9660   6.9019
     7.4195   8.2582

     occupation numbers 
     1.0000   1.0000   1.0000   1.0000   1.0000   1.0000   1.0000   1.0000
     1.0000   1.0000   1.0000   1.0000   1.0000   1.0000   1.0000   1.0000
     1.0000   1.0000   1.0000   1.0000   1.0000   1.0000   1.0000   1.0000
     1.0000   1.0000

          k =-0.5000-0.0000 0.2607 (  3797 PWs)   bands (ev):

  -114.1102-114.1101 -68.5009 -68.5003 -68.4541 -68.4541 -68.4536 -68.4532
    -8.1914  -8.0636   2.9594   2.9752   3.6000   3.6192   3.7266   3.8081
     4.5057   4.5411   4.7565   4.8469   5.5186   5.6331   6.1791   6.7004
     7.9825   8.4647

     occupation numbers 
     1.0000   1.0000   1.0000   1.0000   1.0000   1.0000   1.0000   1.0000
     1.0000   1.0000   1.0000   1.0000   1.0000   1.0000   1.0000   1.0000
     1.0000   1.0000   1.0000   1.0000   1.0000   1.0000   1.0000   1.0000
     1.0000   1.0000

          k =-0.5000 0.0000-0.3476 (  3794 PWs)   bands (ev):

  -114.1102-114.1101 -68.5006 -68.5006 -68.4541 -68.4541 -68.4535 -68.4535
    -8.1238  -8.1236   2.9080   2.9080   3.5922   3.5922   3.7546   3.7546
     4.5282   4.5282   4.8015   4.8015   5.5731   5.5731   6.4419   6.4420
     8.3781   8.3782

     occupation numbers 
     1.0000   1.0000   1.0000   1.0000   1.0000   1.0000   1.0000   1.0000
     1.0000   1.0000   1.0000   1.0000   1.0000   1.0000   1.0000   1.0000
     1.0000   1.0000   1.0000   1.0000   1.0000   1.0000   1.0000   1.0000
     1.0000   1.0000

          k =-0.5000 0.0000-0.2607 (  3797 PWs)   bands (ev):

  -114.1102-114.1101 -68.5009 -68.5003 -68.4541 -68.4541 -68.4536 -68.4532
    -8.1914  -8.0636   2.9594   2.9752   3.6000   3.6192   3.7266   3.8081
     4.5057   4.5411   4.7565   4.8469   5.5186   5.6331   6.1791   6.7004
     7.9825   8.4647

     occupation numbers 
     1.0000   1.0000   1.0000   1.0000   1.0000   1.0000   1.0000   1.0000
     1.0000   1.0000   1.0000   1.0000   1.0000   1.0000   1.0000   1.0000
     1.0000   1.0000   1.0000   1.0000   1.0000   1.0000   1.0000   1.0000
     1.0000   1.0000

          k =-0.5000 0.0000-0.1738 (  3802 PWs)   bands (ev):

  -114.1102-114.1101 -68.5012 -68.5000 -68.4543 -68.4542 -68.4537 -68.4530
    -8.2542  -8.0191   3.0723   3.1468   3.6473   3.6506   3.7555   3.8851
     4.4797   4.5269   4.7310   4.8871   5.4733   5.6922   5.9660   6.9019
     7.4195   8.2582

     occupation numbers 
     1.0000   1.0000   1.0000   1.0000   1.0000   1.0000   1.0000   1.0000
     1.0000   1.0000   1.0000   1.0000   1.0000   1.0000   1.0000   1.0000
     1.0000   1.0000   1.0000   1.0000   1.0000   1.0000   1.0000   1.0000
     1.0000   1.0000

          k =-0.5000 0.0000-0.0869 (  3803 PWs)   bands (ev):

  -114.1102-114.1101 -68.5013 -68.4998 -68.4545 -68.4542 -68.4537 -68.4528
    -8.2987  -7.9928   3.1632   3.3233   3.6425   3.7194   3.8737   3.9825
     4.4535   4.4746   4.7400   4.9188   5.4502   5.6769   5.9107   6.7739
     7.1384   7.9412

     occupation numbers 
     1.0000   1.0000   1.0000   1.0000   1.0000   1.0000   1.0000   1.0000
     1.0000   1.0000   1.0000   1.0000   1.0000   1.0000   1.0000   1.0000
     1.0000   1.0000   1.0000   1.0000   1.0000   1.0000   1.0000   1.0000
     1.0000   1.0000

          k =-0.5000 0.1443-0.0000 (  3793 PWs)   bands (ev):

  -114.1102-114.1101 -68.5014 -68.4997 -68.4547 -68.4541 -68.4538 -68.4525
    -8.3089  -7.9881   3.0872   3.2714   3.7038   3.7793   3.9149   4.1753
     4.4165   4.4786   4.7513   4.8386   5.2993   5.6335   6.1046   6.5691
     7.4528   7.7976

     occupation numbers 
     1.0000   1.0000   1.0000   1.0000   1.0000   1.0000   1.0000   1.0000
     1.0000   1.0000   1.0000   1.0000   1.0000   1.0000   1.0000   1.0000
     1.0000   1.0000   1.0000   1.0000   1.0000   1.0000   1.0000   1.0000
     1.0000   1.0000

          k =-0.5000 0.1443 0.0869 (  3789 PWs)   bands (ev):

  -114.1102-114.1101 -68.5013 -68.4998 -68.4546 -68.4541 -68.4538 -68.4526
    -8.2931  -7.9963   3.0498   3.2152   3.6941   3.7494   3.8760   4.0745
     4.4453   4.5096   4.7375   4.8338   5.3043   5.5849   6.1694   6.8036
     7.4039   7.9473

     occupation numbers 
     1.0000   1.0000   1.0000   1.0000   1.0000   1.0000   1.0000   1.0000
     1.0000   1.0000   1.0000   1.0000   1.0000   1.0000   1.0000   1.0000
     1.0000   1.0000   1.0000   1.0000   1.0000   1.0000   1.0000   1.0000
     1.0000   1.0000

          k =-0.5000 0.1443 0.1738 (  3786 PWs)   bands (ev):

  -114.1102-114.1101 -68.5012 -68.5000 -68.4545 -68.4540 -68.4538 -68.4528
    -8.2495  -8.0214   2.9467   3.0683   3.6445   3.7277   3.8166   3.9045
     4.4809   4.5610   4.7165   4.8180   5.3279   5.5091   6.3339   7.2371
     7.3676   8.2466

     occupation numbers 
     1.0000   1.0000   1.0000   1.0000   1.0000   1.0000   1.0000   1.0000
     1.0000   1.0000   1.0000   1.0000   1.0000   1.0000   1.0000   1.0000
     1.0000   1.0000   1.0000   1.0000   1.0000   1.0000   1.0000   1.0000
     1.0000   1.0000

          k =-0.5000 0.1443 0.2607 (  3800 PWs)   bands (ev):

  -114.1102-114.1101 -68.5009 -68.5003 -68.4544 -68.4541 -68.4536 -68.4530
    -8.1881  -8.0642   2.8398   2.9071   3.6205   3.7193   3.7475   3.8034
     4.5159   4.5732   4.7243   4.7914   5.3661   5.4521   6.5610   7.0571
     7.9138   8.4298

     occupation numbers 
     1.0000   1.0000   1.0000   1.0000   1.0000   1.0000   1.0000   1.0000
     1.0000   1.0000   1.0000   1.0000   1.0000   1.0000   1.0000   1.0000
     1.0000   1.0000   1.0000   1.0000   1.0000   1.0000   1.0000   1.0000
     1.0000   1.0000

          k =-0.5000 0.1443-0.3476 (  3796 PWs)   bands (ev):

  -114.1102-114.1101 -68.5006 -68.5006 -68.4542 -68.4542 -68.4533 -68.4533
    -8.1224  -8.1222   2.8171   2.8172   3.6504   3.6504   3.7615   3.7616
     4.5497   4.5497   4.7573   4.7574   5.4078   5.4078   6.8141   6.8142
     8.3190   8.3191

     occupation numbers 
     1.0000   1.0000   1.0000   1.0000   1.0000   1.0000   1.0000   1.0000
     1.0000   1.0000   1.0000   1.0000   1.0000   1.0000   1.0000   1.0000
     1.0000   1.0000   1.0000   1.0000   1.0000   1.0000   1.0000   1.0000
     1.0000   1.0000

          k =-0.5000 0.1443-0.2607 (  3800 PWs)   bands (ev):

  -114.1102-114.1101 -68.5009 -68.5003 -68.4544 -68.4541 -68.4536 -68.4530
    -8.1881  -8.0642   2.8398   2.9071   3.6205   3.7193   3.7475   3.8034
     4.5159   4.5732   4.7243   4.7915   5.3660   5.4521   6.5610   7.0571
     7.9137   8.4298

     occupation numbers 
     1.0000   1.0000   1.0000   1.0000   1.0000   1.0000   1.0000   1.0000
     1.0000   1.0000   1.0000   1.0000   1.0000   1.0000   1.0000   1.0000
     1.0000   1.0000   1.0000   1.0000   1.0000   1.0000   1.0000   1.0000
     1.0000   1.0000

          k =-0.5000 0.1443-0.1738 (  3786 PWs)   bands (ev):

  -114.1102-114.1101 -68.5012 -68.5000 -68.4545 -68.4540 -68.4538 -68.4528
    -8.2495  -8.0214   2.9467   3.0683   3.6445   3.7277   3.8166   3.9045
     4.4809   4.5609   4.7165   4.8180   5.3279   5.5092   6.3339   7.2371
     7.3676   8.2466

     occupation numbers 
     1.0000   1.0000   1.0000   1.0000   1.0000   1.0000   1.0000   1.0000
     1.0000   1.0000   1.0000   1.0000   1.0000   1.0000   1.0000   1.0000
     1.0000   1.0000   1.0000   1.0000   1.0000   1.0000   1.0000   1.0000
     1.0000   1.0000

          k =-0.5000 0.1443-0.0869 (  3789 PWs)   bands (ev):

  -114.1102-114.1101 -68.5013 -68.4998 -68.4546 -68.4541 -68.4538 -68.4526
    -8.2931  -7.9963   3.0498   3.2152   3.6941   3.7494   3.8760   4.0745
     4.4453   4.5096   4.7375   4.8338   5.3042   5.5849   6.1694   6.8036
     7.4039   7.9473

     occupation numbers 
     1.0000   1.0000   1.0000   1.0000   1.0000   1.0000   1.0000   1.0000
     1.0000   1.0000   1.0000   1.0000   1.0000   1.0000   1.0000   1.0000
     1.0000   1.0000   1.0000   1.0000   1.0000   1.0000   1.0000   1.0000
     1.0000   1.0000

          k =-0.5000-0.8660 0.0000 (  3796 PWs)   bands (ev):

  -114.1102-114.1101 -68.5014 -68.4997 -68.4548 -68.4540 -68.4540 -68.4524
    -8.3027  -7.9922   2.9878   3.1895   3.7628   3.8352   3.8549   4.2314
     4.4440   4.5312   4.7500   4.7749   5.1793   5.4999   6.4548   6.4856
     7.7134   7.8074

     occupation numbers 
     1.0000   1.0000   1.0000   1.0000   1.0000   1.0000   1.0000   1.0000
     1.0000   1.0000   1.0000   1.0000   1.0000   1.0000   1.0000   1.0000
     1.0000   1.0000   1.0000   1.0000   1.0000   1.0000   1.0000   1.0000
     1.0000   1.0000

          k =-0.5000-0.8660 0.0869 (  3782 PWs)   bands (ev):

  -114.1102-114.1101 -68.5013 -68.4998 -68.4547 -68.4540 -68.4539 -68.4524
    -8.2873  -7.9999   2.9474   3.1383   3.7609   3.7704   3.8464   4.1393
     4.4546   4.5629   4.7325   4.7710   5.1977   5.4436   6.5437   6.6994
     7.6739   7.9451

     occupation numbers 
     1.0000   1.0000   1.0000   1.0000   1.0000   1.0000   1.0000   1.0000
     1.0000   1.0000   1.0000   1.0000   1.0000   1.0000   1.0000   1.0000
     1.0000   1.0000   1.0000   1.0000   1.0000   1.0000   1.0000   1.0000
     1.0000   1.0000

          k =-0.5000-0.8660 0.1738 (  3778 PWs)   bands (ev):

  -114.1102-114.1101 -68.5012 -68.5000 -68.4546 -68.4541 -68.4537 -68.4526
    -8.2447  -8.0238   2.8434   3.0012   3.6769   3.7580   3.8240   3.9541
     4.4840   4.6192   4.6883   4.7595   5.2357   5.3730   6.7013   7.2321
     7.5592   8.2223

     occupation numbers 
     1.0000   1.0000   1.0000   1.0000   1.0000   1.0000   1.0000   1.0000
     1.0000   1.0000   1.0000   1.0000   1.0000   1.0000   1.0000   1.0000
     1.0000   1.0000   1.0000   1.0000   1.0000   1.0000   1.0000   1.0000
     1.0000   1.0000

          k =-0.5000-0.8660 0.2607 (  3794 PWs)   bands (ev):

  -114.1102-114.1101 -68.5009 -68.5003 -68.4545 -68.4542 -68.4535 -68.4529
    -8.1848  -8.0648   2.7471   2.8397   3.6491   3.7606   3.7932   3.7966
     4.5266   4.6331   4.6690   4.7391   5.2741   5.3333   6.9199   7.3807
     7.8020   8.3742

     occupation numbers 
     1.0000   1.0000   1.0000   1.0000   1.0000   1.0000   1.0000   1.0000
     1.0000   1.0000   1.0000   1.0000   1.0000   1.0000   1.0000   1.0000
     1.0000   1.0000   1.0000   1.0000   1.0000   1.0000   1.0000   1.0000
     1.0000   1.0000

          k =-0.5000-0.8660-0.3476 (  3792 PWs)   bands (ev):

  -114.1102-114.1101 -68.5006 -68.5006 -68.4543 -68.4543 -68.4532 -68.4532
    -8.1210  -8.1208   2.7390   2.7391   3.6907   3.6907   3.7734   3.7735
     4.5776   4.5776   4.7088   4.7088   5.3056   5.3056   7.1581   7.1583
     8.2283   8.2284

     occupation numbers 
     1.0000   1.0000   1.0000   1.0000   1.0000   1.0000   1.0000   1.0000
     1.0000   1.0000   1.0000   1.0000   1.0000   1.0000   1.0000   1.0000
     1.0000   1.0000   1.0000   1.0000   1.0000   1.0000   1.0000   1.0000
     1.0000   1.0000

     highest occupied level (ev):     8.9873

!    total energy              =    -987.06895478 Ry
     Harris-Foulkes estimate   =    -987.06895481 Ry
     estimated scf accuracy    <       0.00000008 Ry

     The total energy is the sum of the following terms:

     one-electron contribution =    -797.57575279 Ry
     hartree contribution      =     420.67125673 Ry
     xc contribution           =     -98.08697895 Ry
     ewald contribution        =    -512.07747977 Ry

     convergence has been achieved in   7 iterations

     Forces acting on atoms (cartesian axes, Ry/au):

     atom    1 type  2   force =    -0.00000034    0.00000029    0.01245010
     atom    2 type  2   force =    -0.00000021   -0.00000012    0.01244803
     atom    3 type  1   force =     0.00000329    0.00000264   -0.01246006
     atom    4 type  1   force =    -0.00000274   -0.00000281   -0.01243807
     The non-local contrib.  to forces
     atom    1 type  2   force =     0.00000097   -0.00000281    0.05181889
     atom    2 type  2   force =     0.00000010   -0.00000003    0.05181368
     atom    3 type  1   force =     0.00000005   -0.00000457    0.13143829
     atom    4 type  1   force =     0.00000219    0.00000014    0.13144564
     The ionic contribution  to forces
     atom    1 type  2   force =    -0.00001881    0.00002979   -0.76255706
     atom    2 type  2   force =    -0.00000263    0.00001088   -0.76255615
     atom    3 type  1   force =     0.00000155   -0.00002396    0.76256100
     atom    4 type  1   force =     0.00001988   -0.00001671    0.76255221
     The local contribution  to forces
     atom    1 type  2   force =     0.00001789   -0.00002901    0.72361120
     atom    2 type  2   force =     0.00000319   -0.00001098    0.72361445
     atom    3 type  1   force =    -0.00000337    0.00002895   -0.90660612
     atom    4 type  1   force =    -0.00002038    0.00001936   -0.90663865
     The core correction contribution to forces
     atom    1 type  2   force =    -0.00000000    0.00000000   -0.00028352
     atom    2 type  2   force =     0.00000001   -0.00000002   -0.00028343
     atom    3 type  1   force =     0.00000000    0.00000000    0.00000000
     atom    4 type  1   force =     0.00000000    0.00000000    0.00000000
     The Hubbard contrib.    to forces
     atom    1 type  2   force =     0.00000000    0.00000000    0.00000000
     atom    2 type  2   force =     0.00000000    0.00000000    0.00000000
     atom    3 type  1   force =     0.00000000    0.00000000    0.00000000
     atom    4 type  1   force =     0.00000000    0.00000000    0.00000000
     The SCF correction term to forces
     atom    1 type  2   force =     0.00000000    0.00000000    0.00000000
     atom    2 type  2   force =     0.00000000    0.00000000    0.00000000
     atom    3 type  1   force =     0.00000000    0.00000000    0.00000000
     atom    4 type  1   force =     0.00000000    0.00000000    0.00000000

     Total force =     0.000000     Total SCF correction =     0.000000


     Computing stress (Cartesian axis) and pressure

          total   stress  (Ry/bohr**3)                   (kbar)     P=   -0.19
   0.00000037   0.00000000  -0.00000000          0.06      0.00     -0.00
   0.00000000   0.00000037  -0.00000001          0.00      0.05     -0.00
  -0.00000000  -0.00000001  -0.00000458         -0.00     -0.00     -0.67

     kinetic stress (kbar)  34358.99     -0.00     -0.00
                               -0.00  34358.99     -0.00
                               -0.00     -0.00  34757.55

     local   stress (kbar)  -3018.09     -0.05      0.02
                               -0.05  -3018.23     -0.07
                                0.02     -0.07  -5378.45

     nonloc. stress (kbar)  -1673.85      0.00     -0.00
                                0.00  -1673.85      0.00
                               -0.00      0.00  -1833.58

     hartree stress (kbar)  65066.85      0.02     -0.01
                                0.02  65066.91      0.03
                               -0.01      0.03  67360.33

     exc-cor stress (kbar) -14400.21      0.00     -0.00
                                0.00 -14400.21      0.00
                               -0.00      0.00 -14406.35

     corecor stress (kbar)   -253.23      0.00      0.00
                                0.00   -253.23      0.00
                                0.00      0.00   -254.00

     ewald   stress (kbar) -80080.41      0.03     -0.01
                                0.03 -80080.33      0.04
                               -0.01      0.04 -80246.18

     hubbard stress (kbar)      0.00      0.00      0.00
                                0.00      0.00      0.00
                                0.00      0.00      0.00

     london  stress (kbar)      0.00      0.00      0.00
                                0.00      0.00      0.00
                                0.00      0.00      0.00

     DFT-D3  stress (kbar)      0.00      0.00      0.00
                                0.00      0.00      0.00
                                0.00      0.00      0.00

     XDM     stress (kbar)      0.00      0.00      0.00
                                0.00      0.00      0.00
                                0.00      0.00      0.00

     dft-nl  stress (kbar)      0.00      0.00      0.00
                                0.00      0.00      0.00
                                0.00      0.00      0.00

     TS-vdW  stress (kbar)      0.00      0.00      0.00
                                0.00      0.00      0.00
                                0.00      0.00      0.00



     Writing output data file ZnO.save/
 
     init_run     :      0.57s CPU      1.27s WALL (       1 calls)
     electrons    :      7.10s CPU      7.59s WALL (       1 calls)
     forces       :      0.15s CPU      0.16s WALL (       1 calls)
     stress       :      0.28s CPU      0.30s WALL (       1 calls)

     Called by init_run:
     wfcinit      :      0.43s CPU      0.64s WALL (       1 calls)
     wfcinit:atom :      0.00s CPU      0.00s WALL (      65 calls)
     wfcinit:wfcr :      0.41s CPU      0.61s WALL (      65 calls)
     potinit      :      0.06s CPU      0.08s WALL (       1 calls)
     hinit0       :      0.06s CPU      0.50s WALL (       1 calls)

     Called by electrons:
     c_bands      :      6.00s CPU      6.40s WALL (       7 calls)
     sum_band     :      0.84s CPU      0.88s WALL (       7 calls)
     v_of_rho     :      0.22s CPU      0.24s WALL (       8 calls)
     v_h          :      0.00s CPU      0.00s WALL (       8 calls)
     v_xc         :      0.27s CPU      0.29s WALL (      10 calls)
     newd         :      0.03s CPU      0.05s WALL (       8 calls)
     mix_rho      :      0.01s CPU      0.03s WALL (       7 calls)

     Called by c_bands:
     init_us_2    :      0.07s CPU      0.08s WALL (    1105 calls)
     cegterg      :      5.64s CPU      5.90s WALL (     455 calls)

     Called by sum_band:
     sum_band:bec :      0.01s CPU      0.01s WALL (     455 calls)
     addusdens    :      0.03s CPU      0.04s WALL (       7 calls)

     Called by *egterg:
     h_psi        :      3.47s CPU      3.61s WALL (    1462 calls)
     s_psi        :      0.11s CPU      0.11s WALL (    1462 calls)
     g_psi        :      0.01s CPU      0.01s WALL (     942 calls)
     cdiaghg      :      1.57s CPU      1.81s WALL (    1397 calls)
     cegterg:over :      0.36s CPU      0.42s WALL (     942 calls)
     cegterg:upda :      0.19s CPU      0.20s WALL (     942 calls)
     cegterg:last :      0.15s CPU      0.15s WALL (     455 calls)
     cdiaghg:chol :      0.17s CPU      0.20s WALL (    1397 calls)
     cdiaghg:inve :      0.02s CPU      0.03s WALL (    1397 calls)
     cdiaghg:para :      0.15s CPU      0.16s WALL (    2794 calls)

     Called by h_psi:
     h_psi:pot    :      3.46s CPU      3.60s WALL (    1462 calls)
     h_psi:calbec :      0.20s CPU      0.22s WALL (    1462 calls)
     vloc_psi     :      3.14s CPU      3.26s WALL (    1462 calls)
     add_vuspsi   :      0.11s CPU      0.12s WALL (    1462 calls)

     General routines
     calbec       :      0.32s CPU      0.34s WALL (    2242 calls)
     fft          :      0.04s CPU      0.30s WALL (     127 calls)
     ffts         :      0.00s CPU      0.01s WALL (      15 calls)
     fftw         :      3.61s CPU      3.74s WALL (   74082 calls)
     interpolate  :      0.00s CPU      0.01s WALL (       8 calls)
 
     Parallel routines
     fft_scatt_xy :      0.51s CPU      0.53s WALL (   74224 calls)
     fft_scatt_yz :      1.86s CPU      1.93s WALL (   74224 calls)
 
     PWSCF        :      8.41s CPU     10.69s WALL

 
   This run was terminated on:  15:11:51  16Jun2022            

=------------------------------------------------------------------------------=
   JOB DONE.
=------------------------------------------------------------------------------=
