
     Program PWSCF v.6.4.1 starts on  8Nov2021 at 13:39:46 

     This program is part of the open-source Quantum ESPRESSO suite
     for quantum simulation of materials; please cite
         "P. Giannozzi et al., J. Phys.:Condens. Matter 21 395502 (2009);
         "P. Giannozzi et al., J. Phys.:Condens. Matter 29 465901 (2017);
          URL http://www.quantum-espresso.org", 
     in publications or presentations arising from this work. More details at
     http://www.quantum-espresso.org/quote

     Parallel version (MPI), running on   128 processors

     MPI processes distributed on     2 nodes
     K-points division:     npool     =       8
     R & G space division:  proc/nbgrp/npool/nimage =      16
     Waiting for input...
     Reading input from standard input
Warning: card &IONS ignored
Warning: card   UPSCALE           = 100.D0, ignored
Warning: card / ignored
Warning: card &CELL ignored
Warning: card   CELL_DYNAMICS     = 'BFGS' ignored
Warning: card   PRESS_CONV_THR    = 0.5D0 ignored
Warning: card   CELL_DOFREE = 'ALL' ignored
Warning: card / ignored

     Current dimensions of program PWSCF are:
     Max number of different atomic species (ntypx) = 10
     Max number of k-points (npk) =  40000
     Max angular momentum in pseudopotentials (lmaxx) =  3

     Subspace diagonalization in iterative solution of the eigenvalue problem:
     one sub-group per band group will be used
     scalapack distributed-memory algorithm (size of sub-group:  2*  2 procs)

 
     Parallelization info
     --------------------
     sticks:   dense  smooth     PW     G-vecs:    dense   smooth      PW
     Min         727     349     95                67891    22581    3255
     Max         728     350     97                67894    22586    3258
     Sum       11641    5599   1531              1086275   361327   52101
 


     bravais-lattice index     =            0
     lattice parameter (alat)  =      18.3770  a.u.
     unit-cell volume          =    5753.7501 (a.u.)^3
     number of atoms/cell      =           72
     number of atomic types    =            3
     number of electrons       =       876.00
     number of Kohn-Sham states=          526
     kinetic-energy cutoff     =      60.0000  Ry
     charge density cutoff     =     500.0000  Ry
     convergence threshold     =      1.0E-08
     mixing beta               =       0.5000
     number of iterations used =            8  plain     mixing
     Exchange-correlation      = SLA  PW   PSX  PSC ( 1  4 10  8 0 0)
     Using LIBXC version       =    4   3   4

     celldm(1)=  18.377017  celldm(2)=   0.000000  celldm(3)=   0.000000
     celldm(4)=   0.000000  celldm(5)=   0.000000  celldm(6)=   0.000000

     crystal axes: (cart. coord. in units of alat)
               a(1) = (   1.000000   0.000006   0.000017 )  
               a(2) = (  -0.499993   0.865992  -0.000022 )  
               a(3) = (   0.000019  -0.000017   1.070560 )  

     reciprocal axes: (cart. coord. in units 2 pi/alat)
               b(1) = (  0.999997  0.577363 -0.000009 )  
               b(2) = ( -0.000007  1.154742  0.000018 )  
               b(3) = ( -0.000016  0.000014  0.934091 )  


     PseudoPot. # 1 for Zn read from file:
     ./GBRV_PBEsol/zn_pbesol_v1.uspp.F.UPF
     MD5 check sum: 7d8615e52efe7c1e2b1899de8658bae2
     Pseudo is Ultrasoft, Zval = 20.0
     Generated by new atomic code, or converted to UPF format
     Using radial grid of  943 points,  6 beta functions with: 
                l(1) =   0
                l(2) =   0
                l(3) =   1
                l(4) =   1
                l(5) =   2
                l(6) =   2
     Q(r) pseudized with  8 coefficients,  rinner =    1.100   1.100   1.100
                                                       1.100   1.100

     PseudoPot. # 2 for O  read from file:
     ./GBRV_PBEsol/o_pbesol_v1.2.uspp.F.UPF
     MD5 check sum: 501638753501ef6325af9037351f7734
     Pseudo is Ultrasoft + core correction, Zval =  6.0
     Generated by new atomic code, or converted to UPF format
     Using radial grid of  737 points,  5 beta functions with: 
                l(1) =   0
                l(2) =   0
                l(3) =   1
                l(4) =   1
                l(5) =   2
     Q(r) pseudized with  8 coefficients,  rinner =    0.900   0.900   0.900
                                                       0.900   0.900

     PseudoPot. # 3 for Mg read from file:
     ./GBRV_PBEsol/mg_pbesol_v1.4.uspp.F.UPF
     MD5 check sum: 4059f37963cf5867752dbf5ab2400678
     Pseudo is Ultrasoft, Zval = 10.0
     Generated by new atomic code, or converted to UPF format
     Using radial grid of  821 points,  7 beta functions with: 
                l(1) =   0
                l(2) =   0
                l(3) =   0
                l(4) =   1
                l(5) =   1
                l(6) =   2
                l(7) =   2
     Q(r) pseudized with  8 coefficients,  rinner =    1.200   1.200   1.200
                                                       1.200   1.200

     atomic species   valence    mass     pseudopotential
        Zn            20.00    65.38000     Zn( 1.00)
        O              6.00    15.99900     O ( 1.00)
        Mg            10.00    24.30500     Mg( 1.00)

     No symmetry found


                                    s                        frac. trans.

      isym =  1     identity                                     

 cryst.   s( 1) = (     1          0          0      )
                  (     0          1          0      )
                  (     0          0          1      )

 cart.    s( 1) = (  1.0000000 -0.0000000 -0.0000000 )
                  ( -0.0000000  1.0000000  0.0000000 )
                  ( -0.0000000 -0.0000000  1.0000000 )


   Cartesian axes

     site n.     atom                  positions (alat units)
         1           Mg  tau(   1) = (   0.0000906   0.7698354   0.5404615  )
         2           Mg  tau(   2) = (   0.4998410   0.6730009   0.8043206  )
         3           Mg  tau(   3) = (   0.8325184   0.0950940   0.8067521  )
         4           Mg  tau(   4) = (   0.0011543   0.3854953   0.8084778  )
         5           Mg  tau(   5) = (   0.3318457   0.7685483   0.0041125  )
         6           Mg  tau(   6) = (  -0.3315268   0.7699355   0.0042193  )
         7           O   tau(   7) = (   0.5004311   0.6744600   0.0011154  )
         8           O   tau(   8) = (   0.8331144   0.0958822   0.0016960  )
         9           O   tau(   9) = (   0.0000226   0.3846330   0.0024430  )
        10           O   tau(  10) = (   0.4996972   0.0955623   0.0031460  )
        11           O   tau(  11) = (  -0.1659122   0.6734412   0.0036109  )
        12           O   tau(  12) = (   0.1666074   0.0962372   0.0036958  )
        13           O   tau(  13) = (   0.1658182   0.6732711   0.0038618  )
        14           O   tau(  14) = (   0.6667641   0.3852115   0.0041243  )
        15           O   tau(  15) = (   0.3335675   0.3851730   0.0042368  )
        16           O   tau(  16) = (   0.3332762   0.7698546   0.2683632  )
        17           O   tau(  17) = (  -0.3330793   0.7696409   0.2690293  )
        18           O   tau(  18) = (   0.6664476   0.1922660   0.2710287  )
        19           O   tau(  19) = (  -0.0003617   0.1926958   0.2711216  )
        20           O   tau(  20) = (   0.5000799   0.4812380   0.2711567  )
        21           O   tau(  21) = (   0.1664029   0.4808771   0.2714527  )
        22           O   tau(  22) = (  -0.1663140   0.4809395   0.2714722  )
        23           O   tau(  23) = (   0.3336493   0.1924037   0.2717807  )
        24           O   tau(  24) = (   0.0000121   0.7700356   0.2738244  )
        25           O   tau(  25) = (  -0.1670259   0.6737184   0.5384710  )
        26           O   tau(  26) = (   0.1663162   0.0957376   0.5384949  )
        27           O   tau(  27) = (   0.1673948   0.6738957   0.5384997  )
        28           O   tau(  28) = (   0.4998556   0.6738030   0.5391348  )
        29           O   tau(  29) = (   0.6666123   0.3848838   0.5391975  )
        30           O   tau(  30) = (   0.5000743   0.0962794   0.5392075  )
        31           O   tau(  31) = (   0.3335267   0.3850788   0.5394106  )
        32           O   tau(  32) = (   0.8331294   0.0957030   0.5395979  )
        33           O   tau(  33) = (   0.0001419   0.3850056   0.5404674  )
        34           O   tau(  34) = (   0.0003701   0.7694425   0.8043104  )
        35           O   tau(  35) = (  -0.0010397   0.1926895   0.8050478  )
        36           O   tau(  36) = (  -0.1664183   0.4809978   0.8061554  )
        37           O   tau(  37) = (   0.6667712   0.1922820   0.8065809  )
        38           O   tau(  38) = (   0.5001069   0.4812857   0.8066321  )
        39           O   tau(  39) = (   0.1673604   0.4815198   0.8067345  )
        40           O   tau(  40) = (   0.3322758   0.1922217   0.8070355  )
        41           O   tau(  41) = (  -0.3345114   0.7692914   0.8083814  )
        42           O   tau(  42) = (   0.3351400   0.7701145   0.8084777  )
        43           Zn  tau(  43) = (   0.5002211   0.6726768   0.2683676  )
        44           Zn  tau(  44) = (   0.8332382   0.0974514   0.2690600  )
        45           Zn  tau(  45) = (   0.0000030   0.3848112   0.2710141  )
        46           Zn  tau(  46) = (   0.4998454   0.0953400   0.2711318  )
        47           Zn  tau(  47) = (  -0.1647465   0.6732869   0.2711421  )
        48           Zn  tau(  48) = (   0.1647507   0.6732744   0.2714497  )
        49           Zn  tau(  49) = (   0.1666502   0.0974598   0.2714839  )
        50           Zn  tau(  50) = (   0.6668764   0.3848912   0.2717836  )
        51           Zn  tau(  51) = (   0.3333078   0.3847906   0.2738362  )
        52           Zn  tau(  52) = (   0.3340886   0.7697157   0.5384783  )
        53           Zn  tau(  53) = (  -0.3339199   0.7689471   0.5384758  )
        54           Zn  tau(  54) = (   0.5000961   0.4815949   0.5385084  )
        55           Zn  tau(  55) = (  -0.0007666   0.1929053   0.5391335  )
        56           Zn  tau(  56) = (   0.6666708   0.1924436   0.5392005  )
        57           Zn  tau(  57) = (   0.1666971   0.4810494   0.5391958  )
        58           Zn  tau(  58) = (  -0.1665021   0.4809056   0.5394004  )
        59           Zn  tau(  59) = (   0.3335815   0.1926643   0.5395877  )
        60           Zn  tau(  60) = (  -0.1688619   0.6739432   0.8050375  )
        61           Zn  tau(  61) = (   0.1701787   0.6739893   0.8061583  )
        62           Zn  tau(  62) = (   0.4994357   0.0978235   0.8065794  )
        63           Zn  tau(  63) = (   0.1658378   0.0950771   0.8066323  )
        64           Zn  tau(  64) = (   0.3340193   0.3847505   0.8070325  )
        65           Zn  tau(  65) = (   0.6659860   0.3846951   0.8084047  )
        66           Zn  tau(  66) = (   0.0000722   0.7686293   0.0011052  )
        67           Zn  tau(  67) = (   0.0005286   0.1921906   0.0016800  )
        68           Zn  tau(  68) = (  -0.1668029   0.4815590   0.0024386  )
        69           Zn  tau(  69) = (   0.6660517   0.1933052   0.0031473  )
        70           Zn  tau(  70) = (   0.1669890   0.4814244   0.0036196  )
        71           Zn  tau(  71) = (   0.5001753   0.4811597   0.0036956  )
        72           Zn  tau(  72) = (   0.3328202   0.1930144   0.0038722  )

   Crystallographic axes

     site n.     atom                  positions (cryst. coord.)
         1           Mg  tau(   1) = (  0.4445607  0.8889708  0.5048513  )
         2           Mg  tau(   2) = (  0.8883985  0.7771534  0.7513101  )
         3           Mg  tau(   3) = (  0.8874124  0.1098178  0.7535676  )
         4           Mg  tau(   4) = (  0.2237182  0.4451620  0.7551974  )
         5           Mg  tau(   5) = (  0.7755762  0.8874727  0.0038472  )
         6           Mg  tau(   6) = (  0.1130068  0.8890791  0.0039577  )
         7           O   tau(   7) = (  0.8898378  0.7788238  0.0010435  )
         8           O   tau(   8) = (  0.8884705  0.1107136  0.0015721  )
         9           O   tau(   9) = (  0.2220955  0.4441519  0.0022876  )
        10           O   tau(  10) = (  0.5548697  0.1103465  0.0029319  )
        11           O   tau(  11) = (  0.2229086  0.7776520  0.0033853  )
        12           O   tau(  12) = (  0.2221706  0.1111280  0.0034509  )
        13           O   tau(  13) = (  0.5545397  0.7774533  0.0036143  )
        14           O   tau(  14) = (  0.8891689  0.4448155  0.0038472  )
        15           O   tau(  15) = (  0.5559512  0.4447733  0.0039577  )
        16           O   tau(  16) = (  0.7777586  0.8889859  0.2506814  )
        17           O   tau(  17) = (  0.1112819  0.8887436  0.2513143  )
        18           O   tau(  18) = (  0.7774504  0.2220180  0.2531574  )
        19           O   tau(  19) = (  0.1108915  0.2225188  0.2532550  )
        20           O   tau(  20) = (  0.7779251  0.5557072  0.2532838  )
        21           O   tau(  21) = (  0.4440408  0.5552926  0.2535657  )
        22           O   tau(  22) = (  0.1113611  0.5553670  0.2535894  )
        23           O   tau(  23) = (  0.4447327  0.2221792  0.2538653  )
        24           O   tau(  24) = (  0.4446000  0.8891972  0.2557880  )
        25           O   tau(  25) = (  0.2219504  0.7779816  0.5029933  )
        26           O   tau(  26) = (  0.2215864  0.1105607  0.5030019  )
        27           O   tau(  27) = (  0.5564722  0.7781841  0.5030147  )
        28           O   tau(  28) = (  0.8888785  0.7780748  0.5036025  )
        29           O   tau(  29) = (  0.8888232  0.4444466  0.5036542  )
        30           O   tau(  30) = (  0.5556562  0.1111842  0.5036621  )
        31           O   tau(  31) = (  0.5558514  0.4446740  0.5038587  )
        32           O   tau(  32) = (  0.8883774  0.1105163  0.5040214  )
        33           O   tau(  33) = (  0.2224254  0.4445918  0.5048513  )
        34           O   tau(  34) = (  0.4446111  0.8885218  0.7513101  )
        35           O   tau(  35) = (  0.1102052  0.2225210  0.7519907  )
        36           O   tau(  36) = (  0.1112859  0.5554439  0.7530321  )
        37           O   tau(  37) = (  0.7777786  0.2220460  0.7534118  )
        38           O   tau(  38) = (  0.7779750  0.5557718  0.7534666  )
        39           O   tau(  39) = (  0.4453648  0.5560444  0.7535676  )
        40           O   tau(  40) = (  0.4432494  0.2219786  0.7538419  )
        41           O   tau(  41) = (  0.1096434  0.8883496  0.7551182  )
        42           O   tau(  42) = (  0.7797678  0.8892957  0.7551974  )
        43           Zn  tau(  43) = (  0.8885960  0.7767695  0.2506814  )
        44           Zn  tau(  44) = (  0.8894980  0.1125304  0.2513143  )
        45           Zn  tau(  45) = (  0.2221765  0.4443624  0.2531574  )
        46           Zn  tau(  46) = (  0.5548872  0.1100946  0.2532550  )
        47           Zn  tau(  47) = (  0.2239829  0.7774785  0.2532838  )
        48           Zn  tau(  48) = (  0.5534718  0.7774619  0.2535657  )
        49           Zn  tau(  49) = (  0.2229170  0.1125447  0.2535894  )
        50           Zn  tau(  50) = (  0.8890939  0.4444504  0.2538653  )
        51           Zn  tau(  51) = (  0.5554683  0.4443364  0.2557880  )
        52           Zn  tau(  52) = (  0.7784885  0.8888303  0.5029933  )
        53           Zn  tau(  53) = (  0.1100384  0.8879473  0.5030019  )
        54           Zn  tau(  54) = (  0.7781450  0.5561241  0.5030147  )
        55           Zn  tau(  55) = (  0.1106052  0.2227655  0.5036025  )
        56           Zn  tau(  56) = (  0.7777739  0.2222279  0.5036542  )
        57           Zn  tau(  57) = (  0.4444322  0.5554964  0.5036621  )
        58           Zn  tau(  58) = (  0.1111510  0.5553326  0.5038587  )
        59           Zn  tau(  59) = (  0.4448130  0.2224849  0.5040214  )
        60           Zn  tau(  60) = (  0.2202419  0.7782460  0.7519907  )
        61           Zn  tau(  61) = (  0.5593079  0.7782970  0.7530321  )
        62           Zn  tau(  62) = (  0.5559068  0.1129720  0.7534118  )
        63           Zn  tau(  63) = (  0.2207243  0.1098028  0.7534666  )
        64           Zn  tau(  64) = (  0.5561521  0.4442997  0.7538419  )
        65           Zn  tau(  65) = (  0.8880857  0.4442336  0.7551182  )
        66           Zn  tau(  66) = (  0.4438506  0.8875684  0.0010435  )
        67           Zn  tau(  67) = (  0.1114924  0.2219306  0.0015721  )
        68           Zn  tau(  68) = (  0.1112321  0.5560775  0.0022876  )
        69           Zn  tau(  69) = (  0.7776568  0.2232132  0.0029319  )
        70           Zn  tau(  70) = (  0.4449452  0.5559198  0.0033853  )
        71           Zn  tau(  71) = (  0.7779775  0.5556119  0.0034509  )
        72           Zn  tau(  72) = (  0.4442584  0.2228796  0.0036143  )

     number of k points=    36  Marzari-Vanderbilt smearing, width (Ry)=  0.0010
                       cart. coord. in units 2pi/alat
        k(    1) = (   0.0000000   0.0000000   0.0000000), wk =   0.0312500
        k(    2) = (  -0.0000041   0.0000036   0.2335227), wk =   0.0625000
        k(    3) = (   0.0000081  -0.0000072  -0.4670455), wk =   0.0312500
        k(    4) = (  -0.0000017   0.2886855   0.0000045), wk =   0.0625000
        k(    5) = (  -0.0000057   0.2886891   0.2335272), wk =   0.0625000
        k(    6) = (   0.0000065   0.2886783  -0.4670410), wk =   0.0625000
        k(    7) = (   0.0000024   0.2886819  -0.2335183), wk =   0.0625000
        k(    8) = (   0.0000034  -0.5773709  -0.0000089), wk =   0.0312500
        k(    9) = (  -0.0000007  -0.5773673   0.2335138), wk =   0.0625000
        k(   10) = (   0.0000115  -0.5773781  -0.4670544), wk =   0.0312500
        k(   11) = (   0.2499992   0.1443408  -0.0000022), wk =   0.0625000
        k(   12) = (   0.2499951   0.1443444   0.2335206), wk =   0.0625000
        k(   13) = (   0.2500073   0.1443336  -0.4670476), wk =   0.0625000
        k(   14) = (   0.2500032   0.1443372  -0.2335249), wk =   0.0625000
        k(   15) = (   0.2499975   0.4330263   0.0000023), wk =   0.0625000
        k(   16) = (   0.2499934   0.4330299   0.2335251), wk =   0.0625000
        k(   17) = (   0.2500056   0.4330191  -0.4670432), wk =   0.0625000
        k(   18) = (   0.2500016   0.4330227  -0.2335204), wk =   0.0625000
        k(   19) = (   0.2500025  -0.4330301  -0.0000111), wk =   0.0625000
        k(   20) = (   0.2499984  -0.4330265   0.2335117), wk =   0.0625000
        k(   21) = (   0.2500106  -0.4330373  -0.4670566), wk =   0.0625000
        k(   22) = (   0.2500066  -0.4330337  -0.2335338), wk =   0.0625000
        k(   23) = (   0.2500008  -0.1443446  -0.0000066), wk =   0.0625000
        k(   24) = (   0.2499968  -0.1443410   0.2335161), wk =   0.0625000
        k(   25) = (   0.2500090  -0.1443518  -0.4670521), wk =   0.0625000
        k(   26) = (   0.2500049  -0.1443482  -0.2335294), wk =   0.0625000
        k(   27) = (  -0.4999983  -0.2886817   0.0000043), wk =   0.0312500
        k(   28) = (  -0.5000024  -0.2886781   0.2335270), wk =   0.0625000
        k(   29) = (  -0.4999902  -0.2886889  -0.4670412), wk =   0.0312500
        k(   30) = (  -0.5000000   0.0000038   0.0000088), wk =   0.0625000
        k(   31) = (  -0.5000041   0.0000074   0.2335315), wk =   0.0625000
        k(   32) = (  -0.4999919  -0.0000034  -0.4670367), wk =   0.0625000
        k(   33) = (  -0.4999959   0.0000002  -0.2335140), wk =   0.0625000
        k(   34) = (  -0.4999950  -0.8660526  -0.0000046), wk =   0.0312500
        k(   35) = (  -0.4999990  -0.8660490   0.2335181), wk =   0.0625000
        k(   36) = (  -0.4999868  -0.8660598  -0.4670501), wk =   0.0312500

                       cryst. coord.
        k(    1) = (   0.0000000   0.0000000   0.0000000), wk =   0.0312500
        k(    2) = (  -0.0000000   0.0000000   0.2500000), wk =   0.0625000
        k(    3) = (   0.0000000  -0.0000000  -0.5000000), wk =   0.0312500
        k(    4) = (  -0.0000000   0.2500000  -0.0000000), wk =   0.0625000
        k(    5) = (  -0.0000000   0.2500000   0.2500000), wk =   0.0625000
        k(    6) = (   0.0000000   0.2500000  -0.5000000), wk =   0.0625000
        k(    7) = (  -0.0000000   0.2500000  -0.2500000), wk =   0.0625000
        k(    8) = (   0.0000000  -0.5000000   0.0000000), wk =   0.0312500
        k(    9) = (  -0.0000000  -0.5000000   0.2500000), wk =   0.0625000
        k(   10) = (   0.0000000  -0.5000000  -0.5000000), wk =   0.0312500
        k(   11) = (   0.2500000   0.0000000  -0.0000000), wk =   0.0625000
        k(   12) = (   0.2500000   0.0000000   0.2500000), wk =   0.0625000
        k(   13) = (   0.2500000  -0.0000000  -0.5000000), wk =   0.0625000
        k(   14) = (   0.2500000  -0.0000000  -0.2500000), wk =   0.0625000
        k(   15) = (   0.2500000   0.2500000  -0.0000000), wk =   0.0625000
        k(   16) = (   0.2500000   0.2500000   0.2500000), wk =   0.0625000
        k(   17) = (   0.2500000   0.2500000  -0.5000000), wk =   0.0625000
        k(   18) = (   0.2500000   0.2500000  -0.2500000), wk =   0.0625000
        k(   19) = (   0.2500000  -0.5000000   0.0000000), wk =   0.0625000
        k(   20) = (   0.2500000  -0.5000000   0.2500000), wk =   0.0625000
        k(   21) = (   0.2500000  -0.5000000  -0.5000000), wk =   0.0625000
        k(   22) = (   0.2500000  -0.5000000  -0.2500000), wk =   0.0625000
        k(   23) = (   0.2500000  -0.2500000   0.0000000), wk =   0.0625000
        k(   24) = (   0.2500000  -0.2500000   0.2500000), wk =   0.0625000
        k(   25) = (   0.2500000  -0.2500000  -0.5000000), wk =   0.0625000
        k(   26) = (   0.2500000  -0.2500000  -0.2500000), wk =   0.0625000
        k(   27) = (  -0.5000000  -0.0000000   0.0000000), wk =   0.0312500
        k(   28) = (  -0.5000000  -0.0000000   0.2500000), wk =   0.0625000
        k(   29) = (  -0.5000000  -0.0000000  -0.5000000), wk =   0.0312500
        k(   30) = (  -0.5000000   0.2500000   0.0000000), wk =   0.0625000
        k(   31) = (  -0.5000000   0.2500000   0.2500000), wk =   0.0625000
        k(   32) = (  -0.5000000   0.2500000  -0.5000000), wk =   0.0625000
        k(   33) = (  -0.5000000   0.2500000  -0.2500000), wk =   0.0625000
        k(   34) = (  -0.5000000  -0.5000000   0.0000000), wk =   0.0312500
        k(   35) = (  -0.5000000  -0.5000000   0.2500000), wk =   0.0625000
        k(   36) = (  -0.5000000  -0.5000000  -0.5000000), wk =   0.0312500

     Dense  grid:  1086275 G-vectors     FFT dimensions: ( 135, 135, 144)

     Smooth grid:   361327 G-vectors     FFT dimensions: (  96,  96, 100)

     Dynamical RAM for                 wfc:      22.65 MB

     Dynamical RAM for     wfc (w. buffer):     135.90 MB

     Dynamical RAM for           str. fact:       3.11 MB

     Dynamical RAM for           local pot:       0.00 MB

     Dynamical RAM for          nlocal pot:      48.31 MB

     Dynamical RAM for                qrad:      20.97 MB

     Dynamical RAM for          rho,v,vnew:       6.86 MB

     Dynamical RAM for               rhoin:       2.29 MB

     Dynamical RAM for            rho*nmix:      16.58 MB

     Dynamical RAM for           G-vectors:       4.06 MB

     Dynamical RAM for          h,s,v(r/c):      50.66 MB

     Dynamical RAM for          <psi|beta>:       9.01 MB

     Dynamical RAM for                 psi:      90.60 MB

     Dynamical RAM for                hpsi:      90.60 MB

     Dynamical RAM for                spsi:      90.60 MB

     Dynamical RAM for      wfcinit/wfcrot:      55.86 MB

     Dynamical RAM for           addusdens:      32.11 MB

     Dynamical RAM for          addusforce:      55.09 MB

     Dynamical RAM for         addusstress:      28.94 MB

     Estimated static dynamical RAM per process >     248.47 MB

     Estimated max dynamical RAM per process >     579.94 MB

     Estimated total dynamical RAM >      72.49 GB

     Check: negative core charge=   -0.000002

     Initial potential from superposition of free atoms

     starting charge  874.19467, renormalised to  876.00000
     Starting wfcs are  564 randomized atomic wfcs

     total cpu time spent up to now is       17.8 secs

     Self-consistent Calculation

     iteration #  1     ecut=    60.00 Ry     beta= 0.50
     Davidson diagonalization with overlap
     ethr =  1.00E-02,  avg # of iterations =  4.8

     total cpu time spent up to now is       88.5 secs

     total energy              =  -15743.98792161 Ry
     Harris-Foulkes estimate   =  -15756.05248092 Ry
     estimated scf accuracy    <      18.39903411 Ry

     iteration #  2     ecut=    60.00 Ry     beta= 0.50
     Davidson diagonalization with overlap
     ethr =  2.10E-03,  avg # of iterations =  3.9

     total cpu time spent up to now is      179.3 secs

     total energy              =  -15749.24003788 Ry
     Harris-Foulkes estimate   =  -15753.30910234 Ry
     estimated scf accuracy    <       9.28728166 Ry

     iteration #  3     ecut=    60.00 Ry     beta= 0.50
     Davidson diagonalization with overlap
     ethr =  1.06E-03,  avg # of iterations =  3.3

     total cpu time spent up to now is      250.3 secs

     total energy              =  -15750.96107768 Ry
     Harris-Foulkes estimate   =  -15751.04588301 Ry
     estimated scf accuracy    <       0.21506924 Ry

     iteration #  4     ecut=    60.00 Ry     beta= 0.50
     Davidson diagonalization with overlap
     ethr =  2.46E-05,  avg # of iterations =  4.9

     total cpu time spent up to now is      339.9 secs

     total energy              =  -15750.98557418 Ry
     Harris-Foulkes estimate   =  -15751.01800048 Ry
     estimated scf accuracy    <       0.09509209 Ry

     iteration #  5     ecut=    60.00 Ry     beta= 0.50
     Davidson diagonalization with overlap
     ethr =  1.09E-05,  avg # of iterations =  4.5

     total cpu time spent up to now is      412.0 secs

     total energy              =  -15750.99899999 Ry
     Harris-Foulkes estimate   =  -15751.00010333 Ry
     estimated scf accuracy    <       0.00394546 Ry

     iteration #  6     ecut=    60.00 Ry     beta= 0.50
     Davidson diagonalization with overlap
     ethr =  4.50E-07,  avg # of iterations =  2.0

     total cpu time spent up to now is      467.7 secs

     total energy              =  -15750.99963720 Ry
     Harris-Foulkes estimate   =  -15750.99982458 Ry
     estimated scf accuracy    <       0.00050727 Ry

     iteration #  7     ecut=    60.00 Ry     beta= 0.50
     Davidson diagonalization with overlap
     ethr =  5.79E-08,  avg # of iterations =  2.0

     total cpu time spent up to now is      518.2 secs

     total energy              =  -15750.99975277 Ry
     Harris-Foulkes estimate   =  -15750.99976753 Ry
     estimated scf accuracy    <       0.00009892 Ry

     iteration #  8     ecut=    60.00 Ry     beta= 0.50
     Davidson diagonalization with overlap
     ethr =  1.13E-08,  avg # of iterations =  2.0

     total cpu time spent up to now is      564.9 secs

     total energy              =  -15750.99977200 Ry
     Harris-Foulkes estimate   =  -15750.99977188 Ry
     estimated scf accuracy    <       0.00001772 Ry

     iteration #  9     ecut=    60.00 Ry     beta= 0.50
     Davidson diagonalization with overlap
     ethr =  2.02E-09,  avg # of iterations =  2.0

     total cpu time spent up to now is      615.3 secs

     total energy              =  -15750.99977505 Ry
     Harris-Foulkes estimate   =  -15750.99977570 Ry
     estimated scf accuracy    <       0.00000241 Ry

     iteration # 10     ecut=    60.00 Ry     beta= 0.50
     Davidson diagonalization with overlap
     ethr =  2.75E-10,  avg # of iterations =  2.0

     total cpu time spent up to now is      667.9 secs

     total energy              =  -15750.99977556 Ry
     Harris-Foulkes estimate   =  -15750.99977563 Ry
     estimated scf accuracy    <       0.00000036 Ry

     iteration # 11     ecut=    60.00 Ry     beta= 0.50
     Davidson diagonalization with overlap
     ethr =  4.14E-11,  avg # of iterations =  2.0

     total cpu time spent up to now is      715.8 secs

     total energy              =  -15750.99977564 Ry
     Harris-Foulkes estimate   =  -15750.99977565 Ry
     estimated scf accuracy    <       0.00000005 Ry

     iteration # 12     ecut=    60.00 Ry     beta= 0.50
     Davidson diagonalization with overlap
     ethr =  5.68E-12,  avg # of iterations =  2.0

     total cpu time spent up to now is      764.0 secs

     End of self-consistent calculation

          k = 0.0000 0.0000 0.0000 ( 45253 PWs)   bands (ev):

  -115.1116-115.0940-115.0940-115.0867-115.0833-115.0608-115.0603-115.0511
  -115.0496-115.0427-115.0395-115.0319-115.0318-115.0083-114.9934-114.9901
  -114.9862-114.9841-114.9836-114.9780-114.9712-114.9692-114.9663-114.9520
  -114.9469-114.9427-114.9366-114.9117-114.8868-114.8729 -69.5608 -69.5474
   -69.5374 -69.5356 -69.5270 -69.5140 -69.5095 -69.4950 -69.4943 -69.4861
   -69.4856 -69.4764 -69.4764 -69.4556 -69.4399 -69.4378 -69.4347 -69.4344
   -69.4330 -69.4265 -69.4227 -69.4226 -69.4222 -69.4211 -69.4170 -69.4092
   -69.4059 -69.4057 -69.4054 -69.3990 -69.3986 -69.3984 -69.3961 -69.3953
   -69.3951 -69.3931 -69.3855 -69.3732 -69.3717 -69.3708 -69.3658 -69.3652
   -69.3648 -69.3644 -69.3632 -69.3614 -69.3573 -69.3554 -69.3539 -69.3497
   -69.3460 -69.3453 -69.3447 -69.3444 -69.3386 -69.3264 -69.3217 -69.3179
   -69.3064 -69.3042 -69.3026 -69.3001 -69.2991 -69.2983 -69.2971 -69.2950
   -69.2927 -69.2914 -69.2880 -69.2850 -69.2826 -69.2826 -69.2778 -69.2769
   -69.2765 -69.2702 -69.2607 -69.2593 -69.2582 -69.2563 -69.2537 -69.2510
   -69.2484 -69.2454 -69.2233 -69.2161 -69.1972 -69.1944 -69.1840 -69.1776
   -64.3403 -64.3048 -64.2759 -64.2514 -64.2350 -64.2045 -31.3728 -31.3400
   -31.3135 -31.3127 -31.3114 -31.2880 -31.2797 -31.2763 -31.2722 -31.2495
   -31.2461 -31.2424 -31.2280 -31.2267 -31.2090 -31.2047 -31.1789 -31.1730
    -9.8652  -9.5536  -9.4784  -9.4145  -9.3983  -9.3673  -9.3433  -9.3316
    -9.3109  -9.2253  -9.1929  -9.1719  -9.1467  -9.1291  -9.1103  -9.0989
    -9.0797  -9.0615  -9.0471  -9.0210  -9.0169  -8.9805  -8.9155  -8.9027
    -8.8592  -8.8307  -8.8067  -8.7924  -8.7689  -8.7211  -8.6940  -8.6907
    -8.6508  -8.5617  -8.4434  -8.3665   1.7191   1.7302   1.7368   1.7427
     1.7464   1.7866   1.8403   1.8456   1.8494   1.8547   1.8591   1.8663
     1.8829   1.9248   1.9524   1.9652   2.0093   2.0384   2.0500   2.0705
     2.0950   2.1282   2.1455   2.1774   2.1968   2.2709   2.3070   2.3199
     2.3312   2.3375   2.3712   2.3847   2.3962   2.4936   2.4961   2.5181
     2.5191   2.5202   2.5340   2.5401   2.5517   2.5753   2.5840   2.5920
     2.6057   2.6144   2.6478   2.6573   2.6643   2.6725   2.6892   2.6929
     2.7157   2.7294   2.7326   2.7471   2.7498   2.7631   2.7683   2.7851
     2.8024   2.8187   2.8242   2.8455   2.8561   2.8646   2.9019   2.9271
     2.9366   2.9474   2.9807   2.9956   3.0061   3.0183   3.0243   3.0302
     3.0400   3.0669   3.0815   3.0842   3.1039   3.1325   3.1573   3.1693
     3.1740   3.1826   3.2074   3.2204   3.2443   3.2483   3.2633   3.2826
     3.2931   3.3170   3.3435   3.3673   3.3926   3.4058   3.4163   3.4229
     3.4413   3.4531   3.4649   3.4848   3.5015   3.5107   3.5204   3.5231
     3.5383   3.5438   3.5541   3.5715   3.5756   3.5932   3.6087   3.6160
     3.6393   3.6432   3.6511   3.6556   3.6582   3.6710   3.6717   3.6832
     3.6888   3.6935   3.6991   3.7178   3.7259   3.7331   3.7394   3.7480
     3.7623   3.7798   3.7857   3.8013   3.8092   3.8202   3.8267   3.8274
     3.8468   3.8666   3.8931   3.8968   3.9156   3.9496   3.9685   4.0320
     4.0380   4.0499   4.0870   4.1529   4.1533   4.3494   4.3773   4.3800
     4.4015   4.5196   4.5292   4.5492   4.5792   4.5981   4.6492   4.6552
     4.6809   4.7122   4.7239   4.7373   4.9066   4.9313   4.9387   4.9637
     4.9856   5.0478   5.0892   5.1167   5.1717   5.1872   5.2037   5.2126
     5.2324   5.2530   5.2896   5.3313   5.3492   5.3919   5.4036   5.4113
     5.4226   5.4424   5.4679   5.5096   5.5298   5.5482   5.5661   5.6636
     5.6749   5.7284   5.7719   6.2633   6.3215   6.3440   6.3902   6.4695
     6.5079   6.5474   6.5898   6.6289   6.6787   6.6826   6.6972   6.7225
     6.7327   6.7480   6.7520   6.7658   6.7756   6.7812   6.8115   6.8343
     6.8568   6.8768   6.8844   6.8910   6.9047   6.9152   6.9753   7.0027
     7.0282   7.0672   7.0778   7.0939   7.1075   7.1668   7.1680   7.1845
     7.2064   7.2149   7.2399   7.2600   7.2901   7.3111   7.3306   7.3523
     7.3542   7.3788   7.5210   7.5642   7.5806   7.6116   7.8309   7.8526
     8.0295   8.0377   8.0755   8.0790   8.2519   8.2561   9.4510  11.8276
    11.8372  12.7649  12.7846  12.8049  12.8304  12.8436  12.8837  13.3527
    13.5275  13.5368  13.5566  13.5810  13.5912  13.5997  13.6438  13.6481
    13.7214  13.7386  13.8138  13.9377  15.4858  15.5344  15.5358  15.6165
    15.6495  15.6700  15.7626  15.8158  15.8331  15.8621  15.9041  15.9248
    15.9649  15.9833  16.0346  16.0375  16.1090  16.1794  16.2395  16.2883
    16.3175  16.3256  16.3466  16.5243  16.5366  16.5486  16.5599  16.9306
    16.9471  16.9506  16.9740  16.9968  17.0053  17.0240  17.0302  17.0689
    17.0734  17.0870  17.0946  17.1190  17.1215  17.1394  17.1588  17.1731
    17.2009  17.6382  17.6827  17.7801  17.8466  17.9023  18.0265  18.3070
    18.3197  18.3886  18.4219  18.4495  18.4690  18.4913  18.5056  18.5258
    18.5318  18.5561  18.5710  18.6233  18.6734  18.7337

     occupation numbers 
     1.0000   1.0000   1.0000   1.0000   1.0000   1.0000   1.0000   1.0000
     1.0000   1.0000   1.0000   1.0000   1.0000   1.0000   1.0000   1.0000
     1.0000   1.0000   1.0000   1.0000   1.0000   1.0000   1.0000   1.0000
     1.0000   1.0000   1.0000   1.0000   1.0000   1.0000   1.0000   1.0000
     1.0000   1.0000   1.0000   1.0000   1.0000   1.0000   1.0000   1.0000
     1.0000   1.0000   1.0000   1.0000   1.0000   1.0000   1.0000   1.0000
     1.0000   1.0000   1.0000   1.0000   1.0000   1.0000   1.0000   1.0000
     1.0000   1.0000   1.0000   1.0000   1.0000   1.0000   1.0000   1.0000
     1.0000   1.0000   1.0000   1.0000   1.0000   1.0000   1.0000   1.0000
     1.0000   1.0000   1.0000   1.0000   1.0000   1.0000   1.0000   1.0000
     1.0000   1.0000   1.0000   1.0000   1.0000   1.0000   1.0000   1.0000
     1.0000   1.0000   1.0000   1.0000   1.0000   1.0000   1.0000   1.0000
     1.0000   1.0000   1.0000   1.0000   1.0000   1.0000   1.0000   1.0000
     1.0000   1.0000   1.0000   1.0000   1.0000   1.0000   1.0000   1.0000
     1.0000   1.0000   1.0000   1.0000   1.0000   1.0000   1.0000   1.0000
     1.0000   1.0000   1.0000   1.0000   1.0000   1.0000   1.0000   1.0000
     1.0000   1.0000   1.0000   1.0000   1.0000   1.0000   1.0000   1.0000
     1.0000   1.0000   1.0000   1.0000   1.0000   1.0000   1.0000   1.0000
     1.0000   1.0000   1.0000   1.0000   1.0000   1.0000   1.0000   1.0000
     1.0000   1.0000   1.0000   1.0000   1.0000   1.0000   1.0000   1.0000
     1.0000   1.0000   1.0000   1.0000   1.0000   1.0000   1.0000   1.0000
     1.0000   1.0000   1.0000   1.0000   1.0000   1.0000   1.0000   1.0000
     1.0000   1.0000   1.0000   1.0000   1.0000   1.0000   1.0000   1.0000
     1.0000   1.0000   1.0000   1.0000   1.0000   1.0000   1.0000   1.0000
     1.0000   1.0000   1.0000   1.0000   1.0000   1.0000   1.0000   1.0000
     1.0000   1.0000   1.0000   1.0000   1.0000   1.0000   1.0000   1.0000
     1.0000   1.0000   1.0000   1.0000   1.0000   1.0000   1.0000   1.0000
     1.0000   1.0000   1.0000   1.0000   1.0000   1.0000   1.0000   1.0000
     1.0000   1.0000   1.0000   1.0000   1.0000   1.0000   1.0000   1.0000
     1.0000   1.0000   1.0000   1.0000   1.0000   1.0000   1.0000   1.0000
     1.0000   1.0000   1.0000   1.0000   1.0000   1.0000   1.0000   1.0000
     1.0000   1.0000   1.0000   1.0000   1.0000   1.0000   1.0000   1.0000
     1.0000   1.0000   1.0000   1.0000   1.0000   1.0000   1.0000   1.0000
     1.0000   1.0000   1.0000   1.0000   1.0000   1.0000   1.0000   1.0000
     1.0000   1.0000   1.0000   1.0000   1.0000   1.0000   1.0000   1.0000
     1.0000   1.0000   1.0000   1.0000   1.0000   1.0000   1.0000   1.0000
     1.0000   1.0000   1.0000   1.0000   1.0000   1.0000   1.0000   1.0000
     1.0000   1.0000   1.0000   1.0000   1.0000   1.0000   1.0000   1.0000
     1.0000   1.0000   1.0000   1.0000   1.0000   1.0000   1.0000   1.0000
     1.0000   1.0000   1.0000   1.0000   1.0000   1.0000   1.0000   1.0000
     1.0000   1.0000   1.0000   1.0000   1.0000   1.0000   1.0000   1.0000
     1.0000   1.0000   1.0000   1.0000   1.0000   1.0000   1.0000   1.0000
     1.0000   1.0000   1.0000   1.0000   1.0000   1.0000   1.0000   1.0000
     1.0000   1.0000   1.0000   1.0000   1.0000   1.0000   1.0000   1.0000
     1.0000   1.0000   1.0000   1.0000   1.0000   1.0000   1.0000   1.0000
     1.0000   1.0000   1.0000   1.0000   1.0000   1.0000   1.0000   1.0000
     1.0000   1.0000   1.0000   1.0000   1.0000   1.0000   1.0000   1.0000
     1.0000   1.0000   1.0000   1.0000   1.0000   1.0000   1.0000   1.0000
     1.0000   1.0000   1.0000   1.0000   1.0000   1.0000   1.0000   1.0000
     1.0000   1.0000   1.0000   1.0000   1.0000   1.0000   1.0000   1.0000
     1.0000   1.0000   1.0000   1.0000   1.0000   1.0000   1.0000   1.0000
     1.0000   1.0000   1.0000   1.0000   1.0000   1.0000   1.0000   1.0000
     1.0000   1.0000   1.0000   1.0000   1.0000   1.0000   1.0000   1.0000
     1.0000   1.0000   1.0000   1.0000   1.0000   1.0000   1.0000   1.0000
     1.0000   1.0000   1.0000   1.0000   1.0000   1.0000   0.0000   0.0000
     0.0000   0.0000   0.0000   0.0000   0.0000   0.0000   0.0000   0.0000
     0.0000   0.0000   0.0000   0.0000   0.0000   0.0000   0.0000   0.0000
     0.0000   0.0000   0.0000   0.0000   0.0000   0.0000   0.0000   0.0000
     0.0000   0.0000   0.0000   0.0000   0.0000   0.0000   0.0000   0.0000
     0.0000   0.0000   0.0000   0.0000   0.0000   0.0000   0.0000   0.0000
     0.0000   0.0000   0.0000   0.0000   0.0000   0.0000   0.0000   0.0000
     0.0000   0.0000   0.0000   0.0000   0.0000   0.0000   0.0000   0.0000
     0.0000   0.0000   0.0000   0.0000   0.0000   0.0000   0.0000   0.0000
     0.0000   0.0000   0.0000   0.0000   0.0000   0.0000   0.0000   0.0000
     0.0000   0.0000   0.0000   0.0000   0.0000   0.0000   0.0000   0.0000
     0.0000   0.0000   0.0000   0.0000   0.0000   0.0000

          k =-0.0000 0.0000 0.2335 ( 45151 PWs)   bands (ev):

  -115.1116-115.0940-115.0940-115.0867-115.0833-115.0608-115.0603-115.0511
  -115.0496-115.0427-115.0395-115.0319-115.0318-115.0083-114.9934-114.9901
  -114.9862-114.9841-114.9836-114.9780-114.9712-114.9692-114.9663-114.9520
  -114.9469-114.9427-114.9366-114.9117-114.8868-114.8729 -69.5608 -69.5474
   -69.5374 -69.5356 -69.5270 -69.5140 -69.5095 -69.4950 -69.4943 -69.4861
   -69.4856 -69.4764 -69.4764 -69.4556 -69.4399 -69.4378 -69.4347 -69.4344
   -69.4330 -69.4265 -69.4227 -69.4226 -69.4222 -69.4211 -69.4170 -69.4092
   -69.4059 -69.4057 -69.4054 -69.3990 -69.3986 -69.3984 -69.3961 -69.3953
   -69.3951 -69.3931 -69.3855 -69.3732 -69.3717 -69.3708 -69.3658 -69.3652
   -69.3648 -69.3644 -69.3632 -69.3614 -69.3573 -69.3554 -69.3539 -69.3497
   -69.3460 -69.3453 -69.3447 -69.3444 -69.3386 -69.3264 -69.3217 -69.3179
   -69.3064 -69.3042 -69.3026 -69.3001 -69.2991 -69.2983 -69.2971 -69.2950
   -69.2927 -69.2914 -69.2880 -69.2850 -69.2826 -69.2826 -69.2778 -69.2769
   -69.2765 -69.2702 -69.2607 -69.2593 -69.2582 -69.2563 -69.2537 -69.2510
   -69.2484 -69.2454 -69.2233 -69.2161 -69.1972 -69.1944 -69.1840 -69.1776
   -64.3403 -64.3048 -64.2759 -64.2514 -64.2350 -64.2045 -31.3728 -31.3400
   -31.3135 -31.3127 -31.3114 -31.2880 -31.2797 -31.2763 -31.2722 -31.2495
   -31.2461 -31.2424 -31.2280 -31.2267 -31.2090 -31.2047 -31.1789 -31.1730
    -9.8517  -9.6126  -9.4465  -9.4128  -9.3779  -9.3563  -9.3365  -9.3248
    -9.3067  -9.2411  -9.2036  -9.1946  -9.1666  -9.1428  -9.1053  -9.0933
    -9.0676  -9.0524  -9.0479  -9.0205  -9.0116  -8.9732  -8.9147  -8.8912
    -8.8599  -8.8361  -8.8018  -8.7929  -8.7697  -8.7228  -8.6962  -8.6919
    -8.6532  -8.5619  -8.4440  -8.3668   1.7166   1.7281   1.7341   1.7397
     1.7444   1.7858   1.8415   1.8478   1.8503   1.8547   1.8637   1.8700
     1.8877   1.9358   1.9645   1.9791   2.0125   2.0415   2.0630   2.0761
     2.0954   2.1238   2.1382   2.1680   2.1960   2.2696   2.3011   2.3248
     2.3342   2.3405   2.3653   2.3819   2.3977   2.4933   2.4962   2.5181
     2.5191   2.5195   2.5317   2.5426   2.5525   2.5759   2.5865   2.6058
     2.6090   2.6166   2.6469   2.6625   2.6701   2.6803   2.6947   2.7049
     2.7159   2.7264   2.7379   2.7499   2.7571   2.7772   2.7856   2.7949
     2.8061   2.8106   2.8276   2.8440   2.8571   2.8786   2.8958   2.9138
     2.9329   2.9415   2.9623   2.9753   3.0086   3.0153   3.0214   3.0271
     3.0375   3.0458   3.0636   3.0741   3.0930   3.1053   3.1186   3.1417
     3.1633   3.1765   3.1955   3.2051   3.2121   3.2297   3.2640   3.2839
     3.2888   3.3023   3.3335   3.3523   3.3841   3.4038   3.4211   3.4334
     3.4482   3.4606   3.4689   3.4844   3.4973   3.5067   3.5179   3.5242
     3.5434   3.5500   3.5625   3.5668   3.5788   3.5834   3.6136   3.6180
     3.6289   3.6442   3.6461   3.6559   3.6642   3.6743   3.6789   3.6837
     3.6884   3.6952   3.6996   3.7249   3.7345   3.7399   3.7441   3.7566
     3.7682   3.7773   3.7947   3.8047   3.8076   3.8180   3.8331   3.8422
     3.8678   3.8787   3.8928   3.9032   3.9311   3.9648   3.9688   4.0392
     4.0460   4.0566   4.1518   4.1535   4.1755   4.1963   4.2081   4.4827
     4.5220   4.5301   4.5454   4.5806   4.5922   4.6014   4.6305   4.6487
     4.6737   4.6948   4.7204   4.7312   4.8869   4.9083   4.9129   4.9393
     4.9557   5.0269   5.0483   5.0831   5.0991   5.1235   5.1467   5.1648
     5.1952   5.2168   5.2593   5.2783   5.3221   5.3312   5.3776   5.3921
     5.5148   5.5407   5.6226   5.6608   5.6762   5.6991   5.7190   5.7579
     5.7692   5.7956   6.0369   6.2664   6.3240   6.3489   6.3909   6.4489
     6.4954   6.5104   6.5482   6.5730   6.5873   6.6026   6.6251   6.6368
     6.6640   6.6714   6.6947   6.7172   6.7346   6.7641   6.8013   6.8336
     6.8468   6.8590   6.8667   6.8747   6.8860   6.9050   6.9263   6.9419
     6.9701   6.9900   7.0065   7.0657   7.0764   7.1037   7.1904   7.2106
     7.2603   7.2926   7.3507   7.3519   7.3787   7.3920   7.4051   7.4223
     7.4307   7.4429   7.4606   7.4953   7.4993   7.5228   7.8358   7.8593
     8.0018   8.0114   8.1015   8.1050   8.2484   8.2524   9.7213  11.1067
    12.4291  12.7777  12.7955  12.8221  12.8395  12.8566  12.9125  13.1233
    13.1310  13.1598  13.1985  13.2764  13.3386  13.5960  14.1014  14.1325
    14.1683  14.2079  14.2721  14.3134  15.2717  15.2882  15.3232  15.3704
    15.3911  15.4711  15.6282  15.7106  15.7393  15.7841  15.9869  15.9997
    16.0439  16.0689  16.1499  16.1933  16.2615  16.3175  16.3270  16.3777
    16.3923  16.4283  16.4584  16.4660  16.5239  16.6318  16.6479  16.8080
    16.8543  16.8738  16.9314  16.9358  16.9442  16.9724  17.0161  17.0330
    17.0498  17.0840  17.1101  17.1251  17.1764  17.2001  17.2199  17.2249
    17.2535  17.2736  17.5777  17.6293  17.6848  17.7622  18.0049  18.1609
    18.1744  18.2132  18.2432  18.2729  18.3052  18.3759  18.4182  18.4707
    18.5556  18.5966  18.6829  18.7584  18.8079  18.9170

     occupation numbers 
     1.0000   1.0000   1.0000   1.0000   1.0000   1.0000   1.0000   1.0000
     1.0000   1.0000   1.0000   1.0000   1.0000   1.0000   1.0000   1.0000
     1.0000   1.0000   1.0000   1.0000   1.0000   1.0000   1.0000   1.0000
     1.0000   1.0000   1.0000   1.0000   1.0000   1.0000   1.0000   1.0000
     1.0000   1.0000   1.0000   1.0000   1.0000   1.0000   1.0000   1.0000
     1.0000   1.0000   1.0000   1.0000   1.0000   1.0000   1.0000   1.0000
     1.0000   1.0000   1.0000   1.0000   1.0000   1.0000   1.0000   1.0000
     1.0000   1.0000   1.0000   1.0000   1.0000   1.0000   1.0000   1.0000
     1.0000   1.0000   1.0000   1.0000   1.0000   1.0000   1.0000   1.0000
     1.0000   1.0000   1.0000   1.0000   1.0000   1.0000   1.0000   1.0000
     1.0000   1.0000   1.0000   1.0000   1.0000   1.0000   1.0000   1.0000
     1.0000   1.0000   1.0000   1.0000   1.0000   1.0000   1.0000   1.0000
     1.0000   1.0000   1.0000   1.0000   1.0000   1.0000   1.0000   1.0000
     1.0000   1.0000   1.0000   1.0000   1.0000   1.0000   1.0000   1.0000
     1.0000   1.0000   1.0000   1.0000   1.0000   1.0000   1.0000   1.0000
     1.0000   1.0000   1.0000   1.0000   1.0000   1.0000   1.0000   1.0000
     1.0000   1.0000   1.0000   1.0000   1.0000   1.0000   1.0000   1.0000
     1.0000   1.0000   1.0000   1.0000   1.0000   1.0000   1.0000   1.0000
     1.0000   1.0000   1.0000   1.0000   1.0000   1.0000   1.0000   1.0000
     1.0000   1.0000   1.0000   1.0000   1.0000   1.0000   1.0000   1.0000
     1.0000   1.0000   1.0000   1.0000   1.0000   1.0000   1.0000   1.0000
     1.0000   1.0000   1.0000   1.0000   1.0000   1.0000   1.0000   1.0000
     1.0000   1.0000   1.0000   1.0000   1.0000   1.0000   1.0000   1.0000
     1.0000   1.0000   1.0000   1.0000   1.0000   1.0000   1.0000   1.0000
     1.0000   1.0000   1.0000   1.0000   1.0000   1.0000   1.0000   1.0000
     1.0000   1.0000   1.0000   1.0000   1.0000   1.0000   1.0000   1.0000
     1.0000   1.0000   1.0000   1.0000   1.0000   1.0000   1.0000   1.0000
     1.0000   1.0000   1.0000   1.0000   1.0000   1.0000   1.0000   1.0000
     1.0000   1.0000   1.0000   1.0000   1.0000   1.0000   1.0000   1.0000
     1.0000   1.0000   1.0000   1.0000   1.0000   1.0000   1.0000   1.0000
     1.0000   1.0000   1.0000   1.0000   1.0000   1.0000   1.0000   1.0000
     1.0000   1.0000   1.0000   1.0000   1.0000   1.0000   1.0000   1.0000
     1.0000   1.0000   1.0000   1.0000   1.0000   1.0000   1.0000   1.0000
     1.0000   1.0000   1.0000   1.0000   1.0000   1.0000   1.0000   1.0000
     1.0000   1.0000   1.0000   1.0000   1.0000   1.0000   1.0000   1.0000
     1.0000   1.0000   1.0000   1.0000   1.0000   1.0000   1.0000   1.0000
     1.0000   1.0000   1.0000   1.0000   1.0000   1.0000   1.0000   1.0000
     1.0000   1.0000   1.0000   1.0000   1.0000   1.0000   1.0000   1.0000
     1.0000   1.0000   1.0000   1.0000   1.0000   1.0000   1.0000   1.0000
     1.0000   1.0000   1.0000   1.0000   1.0000   1.0000   1.0000   1.0000
     1.0000   1.0000   1.0000   1.0000   1.0000   1.0000   1.0000   1.0000
     1.0000   1.0000   1.0000   1.0000   1.0000   1.0000   1.0000   1.0000
     1.0000   1.0000   1.0000   1.0000   1.0000   1.0000   1.0000   1.0000
     1.0000   1.0000   1.0000   1.0000   1.0000   1.0000   1.0000   1.0000
     1.0000   1.0000   1.0000   1.0000   1.0000   1.0000   1.0000   1.0000
     1.0000   1.0000   1.0000   1.0000   1.0000   1.0000   1.0000   1.0000
     1.0000   1.0000   1.0000   1.0000   1.0000   1.0000   1.0000   1.0000
     1.0000   1.0000   1.0000   1.0000   1.0000   1.0000   1.0000   1.0000
     1.0000   1.0000   1.0000   1.0000   1.0000   1.0000   1.0000   1.0000
     1.0000   1.0000   1.0000   1.0000   1.0000   1.0000   1.0000   1.0000
     1.0000   1.0000   1.0000   1.0000   1.0000   1.0000   1.0000   1.0000
     1.0000   1.0000   1.0000   1.0000   1.0000   1.0000   1.0000   1.0000
     1.0000   1.0000   1.0000   1.0000   1.0000   1.0000   1.0000   1.0000
     1.0000   1.0000   1.0000   1.0000   1.0000   1.0000   1.0000   1.0000
     1.0000   1.0000   1.0000   1.0000   1.0000   1.0000   0.0000   0.0000
     0.0000   0.0000   0.0000   0.0000   0.0000   0.0000   0.0000   0.0000
     0.0000   0.0000   0.0000   0.0000   0.0000   0.0000   0.0000   0.0000
     0.0000   0.0000   0.0000   0.0000   0.0000   0.0000   0.0000   0.0000
     0.0000   0.0000   0.0000   0.0000   0.0000   0.0000   0.0000   0.0000
     0.0000   0.0000   0.0000   0.0000   0.0000   0.0000   0.0000   0.0000
     0.0000   0.0000   0.0000   0.0000   0.0000   0.0000   0.0000   0.0000
     0.0000   0.0000   0.0000   0.0000   0.0000   0.0000   0.0000   0.0000
     0.0000   0.0000   0.0000   0.0000   0.0000   0.0000   0.0000   0.0000
     0.0000   0.0000   0.0000   0.0000   0.0000   0.0000   0.0000   0.0000
     0.0000   0.0000   0.0000   0.0000   0.0000   0.0000   0.0000   0.0000
     0.0000   0.0000   0.0000   0.0000   0.0000   0.0000

          k = 0.0000-0.0000-0.4670 ( 45156 PWs)   bands (ev):

  -115.1116-115.0940-115.0940-115.0867-115.0833-115.0608-115.0603-115.0511
  -115.0496-115.0427-115.0395-115.0319-115.0318-115.0083-114.9934-114.9901
  -114.9862-114.9841-114.9836-114.9780-114.9712-114.9692-114.9663-114.9520
  -114.9469-114.9427-114.9366-114.9117-114.8868-114.8729 -69.5608 -69.5474
   -69.5374 -69.5356 -69.5270 -69.5140 -69.5095 -69.4950 -69.4943 -69.4861
   -69.4856 -69.4764 -69.4764 -69.4556 -69.4399 -69.4378 -69.4347 -69.4344
   -69.4330 -69.4265 -69.4227 -69.4226 -69.4222 -69.4211 -69.4170 -69.4092
   -69.4059 -69.4057 -69.4054 -69.3990 -69.3986 -69.3984 -69.3961 -69.3953
   -69.3951 -69.3931 -69.3855 -69.3732 -69.3717 -69.3708 -69.3658 -69.3652
   -69.3648 -69.3644 -69.3632 -69.3614 -69.3573 -69.3554 -69.3539 -69.3497
   -69.3460 -69.3453 -69.3447 -69.3444 -69.3386 -69.3264 -69.3217 -69.3179
   -69.3064 -69.3042 -69.3026 -69.3001 -69.2991 -69.2983 -69.2971 -69.2950
   -69.2927 -69.2914 -69.2880 -69.2850 -69.2826 -69.2826 -69.2778 -69.2769
   -69.2765 -69.2702 -69.2607 -69.2593 -69.2582 -69.2563 -69.2537 -69.2510
   -69.2484 -69.2454 -69.2233 -69.2161 -69.1972 -69.1944 -69.1840 -69.1776
   -64.3403 -64.3048 -64.2759 -64.2514 -64.2350 -64.2045 -31.3728 -31.3400
   -31.3135 -31.3127 -31.3114 -31.2880 -31.2797 -31.2763 -31.2722 -31.2495
   -31.2461 -31.2424 -31.2280 -31.2267 -31.2090 -31.2047 -31.1789 -31.1730
    -9.8345  -9.6563  -9.4345  -9.4103  -9.3645  -9.3358  -9.3266  -9.3143
    -9.3017  -9.2674  -9.2125  -9.2115  -9.1806  -9.1543  -9.1118  -9.0864
    -9.0601  -9.0545  -9.0318  -9.0200  -9.0130  -8.9653  -8.9131  -8.8754
    -8.8629  -8.8444  -8.7986  -8.7908  -8.7708  -8.7247  -8.6987  -8.6930
    -8.6557  -8.5621  -8.4445  -8.3670   1.7144   1.7262   1.7316   1.7370
     1.7426   1.7850   1.8420   1.8506   1.8509   1.8551   1.8651   1.8757
     1.8928   1.9450   1.9788   1.9995   2.0130   2.0420   2.0841   2.0859
     2.0932   2.1162   2.1300   2.1475   2.2017   2.2688   2.2905   2.3334
     2.3362   2.3435   2.3584   2.3780   2.3999   2.4931   2.4962   2.5180
     2.5188   2.5191   2.5304   2.5441   2.5532   2.5761   2.5870   2.6085
     2.6185   2.6331   2.6459   2.6619   2.6771   2.6873   2.7086   2.7166
     2.7197   2.7323   2.7454   2.7599   2.7671   2.7707   2.7813   2.7930
     2.7988   2.8281   2.8359   2.8392   2.8607   2.8876   2.9033   2.9127
     2.9212   2.9281   2.9628   2.9686   3.0062   3.0137   3.0159   3.0225
     3.0329   3.0366   3.0447   3.0549   3.0749   3.0761   3.1002   3.1068
     3.1275   3.1607   3.1799   3.1842   3.1863   3.2011   3.2605   3.2741
     3.2855   3.2932   3.3267   3.3517   3.3997   3.4170   3.4221   3.4443
     3.4535   3.4616   3.4718   3.4879   3.4917   3.5096   3.5160   3.5323
     3.5375   3.5457   3.5628   3.5682   3.5768   3.5941   3.6001   3.6148
     3.6238   3.6482   3.6546   3.6591   3.6660   3.6742   3.6790   3.6871
     3.6963   3.7050   3.7167   3.7270   3.7316   3.7350   3.7422   3.7520
     3.7677   3.7742   3.7861   3.8028   3.8095   3.8155   3.8291   3.8602
     3.8892   3.8950   3.9248   3.9531   3.9613   3.9645   3.9753   4.0429
     4.0449   4.0601   4.0706   4.0841   4.1544   4.1550   4.3732   4.4875
     4.5250   4.5437   4.5680   4.5768   4.6020   4.6167   4.6602   4.6617
     4.6687   4.6902   4.7198   4.7489   4.7531   4.8620   4.8758   4.8963
     4.9160   4.9589   5.0147   5.0554   5.0860   5.1015   5.1287   5.1433
     5.1995   5.2093   5.2613   5.2768   5.3016   5.3388   5.3550   5.3960
     5.4900   5.5287   5.6456   5.6571   5.9209   5.9702   6.0090   6.0571
     6.0903   6.1432   6.1861   6.1966   6.2103   6.2367   6.2593   6.2856
     6.3277   6.3956   6.4179   6.4355   6.4667   6.5167   6.5230   6.5608
     6.5809   6.5922   6.6148   6.6443   6.6513   6.6784   6.7709   6.8124
     6.8801   6.8815   6.8965   6.9155   6.9492   6.9816   6.9886   7.0135
     7.0380   7.0589   7.0683   7.0872   7.1186   7.1395   7.1715   7.1749
     7.1822   7.1957   7.2764   7.3318   7.3683   7.4105   7.4183   7.4585
     7.4640   7.4705   7.4789   7.4915   7.5164   7.5211   7.8411   7.8671
     7.9820   7.9941   8.1187   8.1223   8.2444   8.2481  10.2456  10.4649
    12.7133  12.8148  12.8321  12.8372  12.8581  12.8827  12.9295  12.9335
    12.9522  13.0016  13.0393  13.1099  13.2237  13.4724  14.6819  14.7103
    14.7162  14.7278  14.7589  14.7727  14.7864  14.8202  14.8283  14.8924
    14.9157  14.9506  15.8125  15.8365  15.8587  15.8691  15.8935  15.9529
    15.9684  15.9875  16.3302  16.3413  16.3949  16.3976  16.4366  16.4673
    16.4792  16.5054  16.5408  16.5526  16.5998  16.6065  16.6742  16.7094
    16.7176  16.7289  16.8103  16.8498  16.8787  16.8945  16.9355  16.9924
    17.1300  17.1555  17.1677  17.1864  17.1935  17.2015  17.2236  17.2404
    17.2616  17.3004  17.3704  17.3854  17.4870  17.6155  17.8981  18.0115
    18.1196  18.1247  18.1850  18.2458  18.2786  18.3738  18.4298  18.5079
    18.5395  18.6245  18.6874  18.7002  18.7899  18.8536

     occupation numbers 
     1.0000   1.0000   1.0000   1.0000   1.0000   1.0000   1.0000   1.0000
     1.0000   1.0000   1.0000   1.0000   1.0000   1.0000   1.0000   1.0000
     1.0000   1.0000   1.0000   1.0000   1.0000   1.0000   1.0000   1.0000
     1.0000   1.0000   1.0000   1.0000   1.0000   1.0000   1.0000   1.0000
     1.0000   1.0000   1.0000   1.0000   1.0000   1.0000   1.0000   1.0000
     1.0000   1.0000   1.0000   1.0000   1.0000   1.0000   1.0000   1.0000
     1.0000   1.0000   1.0000   1.0000   1.0000   1.0000   1.0000   1.0000
     1.0000   1.0000   1.0000   1.0000   1.0000   1.0000   1.0000   1.0000
     1.0000   1.0000   1.0000   1.0000   1.0000   1.0000   1.0000   1.0000
     1.0000   1.0000   1.0000   1.0000   1.0000   1.0000   1.0000   1.0000
     1.0000   1.0000   1.0000   1.0000   1.0000   1.0000   1.0000   1.0000
     1.0000   1.0000   1.0000   1.0000   1.0000   1.0000   1.0000   1.0000
     1.0000   1.0000   1.0000   1.0000   1.0000   1.0000   1.0000   1.0000
     1.0000   1.0000   1.0000   1.0000   1.0000   1.0000   1.0000   1.0000
     1.0000   1.0000   1.0000   1.0000   1.0000   1.0000   1.0000   1.0000
     1.0000   1.0000   1.0000   1.0000   1.0000   1.0000   1.0000   1.0000
     1.0000   1.0000   1.0000   1.0000   1.0000   1.0000   1.0000   1.0000
     1.0000   1.0000   1.0000   1.0000   1.0000   1.0000   1.0000   1.0000
     1.0000   1.0000   1.0000   1.0000   1.0000   1.0000   1.0000   1.0000
     1.0000   1.0000   1.0000   1.0000   1.0000   1.0000   1.0000   1.0000
     1.0000   1.0000   1.0000   1.0000   1.0000   1.0000   1.0000   1.0000
     1.0000   1.0000   1.0000   1.0000   1.0000   1.0000   1.0000   1.0000
     1.0000   1.0000   1.0000   1.0000   1.0000   1.0000   1.0000   1.0000
     1.0000   1.0000   1.0000   1.0000   1.0000   1.0000   1.0000   1.0000
     1.0000   1.0000   1.0000   1.0000   1.0000   1.0000   1.0000   1.0000
     1.0000   1.0000   1.0000   1.0000   1.0000   1.0000   1.0000   1.0000
     1.0000   1.0000   1.0000   1.0000   1.0000   1.0000   1.0000   1.0000
     1.0000   1.0000   1.0000   1.0000   1.0000   1.0000   1.0000   1.0000
     1.0000   1.0000   1.0000   1.0000   1.0000   1.0000   1.0000   1.0000
     1.0000   1.0000   1.0000   1.0000   1.0000   1.0000   1.0000   1.0000
     1.0000   1.0000   1.0000   1.0000   1.0000   1.0000   1.0000   1.0000
     1.0000   1.0000   1.0000   1.0000   1.0000   1.0000   1.0000   1.0000
     1.0000   1.0000   1.0000   1.0000   1.0000   1.0000   1.0000   1.0000
     1.0000   1.0000   1.0000   1.0000   1.0000   1.0000   1.0000   1.0000
     1.0000   1.0000   1.0000   1.0000   1.0000   1.0000   1.0000   1.0000
     1.0000   1.0000   1.0000   1.0000   1.0000   1.0000   1.0000   1.0000
     1.0000   1.0000   1.0000   1.0000   1.0000   1.0000   1.0000   1.0000
     1.0000   1.0000   1.0000   1.0000   1.0000   1.0000   1.0000   1.0000
     1.0000   1.0000   1.0000   1.0000   1.0000   1.0000   1.0000   1.0000
     1.0000   1.0000   1.0000   1.0000   1.0000   1.0000   1.0000   1.0000
     1.0000   1.0000   1.0000   1.0000   1.0000   1.0000   1.0000   1.0000
     1.0000   1.0000   1.0000   1.0000   1.0000   1.0000   1.0000   1.0000
     1.0000   1.0000   1.0000   1.0000   1.0000   1.0000   1.0000   1.0000
     1.0000   1.0000   1.0000   1.0000   1.0000   1.0000   1.0000   1.0000
     1.0000   1.0000   1.0000   1.0000   1.0000   1.0000   1.0000   1.0000
     1.0000   1.0000   1.0000   1.0000   1.0000   1.0000   1.0000   1.0000
     1.0000   1.0000   1.0000   1.0000   1.0000   1.0000   1.0000   1.0000
     1.0000   1.0000   1.0000   1.0000   1.0000   1.0000   1.0000   1.0000
     1.0000   1.0000   1.0000   1.0000   1.0000   1.0000   1.0000   1.0000
     1.0000   1.0000   1.0000   1.0000   1.0000   1.0000   1.0000   1.0000
     1.0000   1.0000   1.0000   1.0000   1.0000   1.0000   1.0000   1.0000
     1.0000   1.0000   1.0000   1.0000   1.0000   1.0000   1.0000   1.0000
     1.0000   1.0000   1.0000   1.0000   1.0000   1.0000   1.0000   1.0000
     1.0000   1.0000   1.0000   1.0000   1.0000   1.0000   1.0000   1.0000
     1.0000   1.0000   1.0000   1.0000   1.0000   1.0000   0.0000   0.0000
     0.0000   0.0000   0.0000   0.0000   0.0000   0.0000   0.0000   0.0000
     0.0000   0.0000   0.0000   0.0000   0.0000   0.0000   0.0000   0.0000
     0.0000   0.0000   0.0000   0.0000   0.0000   0.0000   0.0000   0.0000
     0.0000   0.0000   0.0000   0.0000   0.0000   0.0000   0.0000   0.0000
     0.0000   0.0000   0.0000   0.0000   0.0000   0.0000   0.0000   0.0000
     0.0000   0.0000   0.0000   0.0000   0.0000   0.0000   0.0000   0.0000
     0.0000   0.0000   0.0000   0.0000   0.0000   0.0000   0.0000   0.0000
     0.0000   0.0000   0.0000   0.0000   0.0000   0.0000   0.0000   0.0000
     0.0000   0.0000   0.0000   0.0000   0.0000   0.0000   0.0000   0.0000
     0.0000   0.0000   0.0000   0.0000   0.0000   0.0000   0.0000   0.0000
     0.0000   0.0000   0.0000   0.0000   0.0000   0.0000

          k =-0.0000 0.2887 0.0000 ( 45166 PWs)   bands (ev):

  -115.1116-115.0940-115.0940-115.0867-115.0833-115.0608-115.0603-115.0511
  -115.0496-115.0427-115.0395-115.0319-115.0318-115.0083-114.9934-114.9901
  -114.9862-114.9841-114.9836-114.9780-114.9712-114.9692-114.9663-114.9520
  -114.9469-114.9427-114.9366-114.9117-114.8868-114.8729 -69.5608 -69.5474
   -69.5374 -69.5356 -69.5270 -69.5140 -69.5095 -69.4950 -69.4943 -69.4861
   -69.4856 -69.4764 -69.4764 -69.4556 -69.4399 -69.4378 -69.4347 -69.4344
   -69.4330 -69.4265 -69.4227 -69.4226 -69.4222 -69.4211 -69.4170 -69.4092
   -69.4059 -69.4057 -69.4054 -69.3990 -69.3986 -69.3984 -69.3961 -69.3953
   -69.3951 -69.3931 -69.3855 -69.3732 -69.3717 -69.3708 -69.3658 -69.3652
   -69.3648 -69.3644 -69.3632 -69.3614 -69.3573 -69.3554 -69.3539 -69.3497
   -69.3460 -69.3453 -69.3447 -69.3444 -69.3386 -69.3264 -69.3217 -69.3179
   -69.3064 -69.3042 -69.3026 -69.3001 -69.2991 -69.2983 -69.2971 -69.2950
   -69.2927 -69.2914 -69.2880 -69.2850 -69.2826 -69.2826 -69.2778 -69.2769
   -69.2765 -69.2701 -69.2607 -69.2593 -69.2582 -69.2563 -69.2537 -69.2510
   -69.2484 -69.2454 -69.2233 -69.2161 -69.1972 -69.1944 -69.1840 -69.1776
   -64.3403 -64.3048 -64.2759 -64.2514 -64.2350 -64.2045 -31.3728 -31.3400
   -31.3135 -31.3127 -31.3114 -31.2880 -31.2797 -31.2763 -31.2722 -31.2495
   -31.2461 -31.2424 -31.2280 -31.2267 -31.2090 -31.2047 -31.1789 -31.1730
    -9.8243  -9.5526  -9.5341  -9.4480  -9.4282  -9.4027  -9.3152  -9.2839
    -9.2517  -9.2307  -9.2084  -9.1853  -9.1622  -9.1264  -9.1145  -9.1005
    -9.0763  -9.0622  -9.0450  -9.0281  -9.0120  -8.9849  -8.9089  -8.8762
    -8.8553  -8.8254  -8.8066  -8.7944  -8.7697  -8.7317  -8.7065  -8.6865
    -8.6378  -8.5608  -8.4484  -8.3622   1.7295   1.7345   1.7643   1.7888
     1.8001   1.8247   1.8331   1.8406   1.8461   1.8675   1.8989   1.9032
     1.9180   1.9519   1.9714   1.9755   1.9920   2.0521   2.0696   2.0990
     2.1078   2.1355   2.1462   2.1759   2.2014   2.2181   2.2248   2.2465
     2.2664   2.2791   2.2903   2.3182   2.3492   2.3981   2.4221   2.4295
     2.4665   2.5266   2.5342   2.5666   2.5715   2.5868   2.6080   2.6306
     2.6475   2.6663   2.6730   2.6821   2.6852   2.7052   2.7093   2.7275
     2.7369   2.7441   2.7492   2.7599   2.7634   2.7708   2.7803   2.7865
     2.7922   2.8299   2.8374   2.8540   2.8653   2.8710   2.9023   2.9227
     2.9267   2.9502   2.9693   2.9754   2.9862   3.0047   3.0126   3.0240
     3.0380   3.0488   3.0627   3.0775   3.0858   3.0979   3.1117   3.1345
     3.1411   3.1534   3.1722   3.1928   3.2139   3.2549   3.2700   3.2808
     3.2969   3.3143   3.3283   3.3428   3.3663   3.3904   3.4034   3.4273
     3.4459   3.4565   3.4752   3.4843   3.4997   3.5061   3.5119   3.5224
     3.5306   3.5401   3.5456   3.5562   3.5638   3.5696   3.5817   3.6074
     3.6226   3.6361   3.6441   3.6516   3.6584   3.6618   3.6682   3.6737
     3.6816   3.6917   3.7162   3.7217   3.7286   3.7327   3.7425   3.7599
     3.7716   3.7790   3.7828   3.7937   3.8050   3.8181   3.8240   3.8264
     3.8551   3.8714   3.8801   3.8979   3.9255   3.9334   3.9453   3.9672
     3.9789   3.9852   4.0721   4.2639   4.2902   4.3964   4.4396   4.4741
     4.4851   4.5154   4.5472   4.5726   4.5877   4.6559   4.6818   4.6856
     4.7203   4.7609   4.7977   4.8072   4.8437   4.8658   4.8930   4.9157
     4.9368   4.9621   4.9799   5.0254   5.0541   5.1038   5.1879   5.2712
     5.2843   5.3291   5.3743   5.3849   5.4136   5.4349   5.5094   5.5367
     5.5526   5.5859   5.6482   5.7008   5.7539   5.7688   5.7914   5.8661
     5.9152   5.9369   6.0030   6.0419   6.0858   6.1259   6.2384   6.2630
     6.3600   6.3725   6.3884   6.3997   6.4450   6.4540   6.4922   6.5385
     6.5883   6.6116   6.6535   6.6978   6.7749   6.7838   6.8215   6.9249
     6.9414   6.9558   6.9793   6.9876   6.9993   7.0085   7.0280   7.0683
     7.1037   7.1200   7.1654   7.2075   7.2136   7.2226   7.2373   7.2546
     7.2608   7.2689   7.2742   7.2860   7.3049   7.3303   7.3559   7.3680
     7.3958   7.4192   7.4986   7.5316   7.5519   7.5748   7.6248   7.7378
     7.7711   7.8721   7.8993   7.9427   7.9776   8.1511   9.9521  11.8240
    12.0408  12.0534  12.4853  12.5202  13.1369  13.1567  13.4130  13.4315
    13.4693  13.5030  13.5360  13.5724  13.6754  13.8015  13.9065  13.9254
    13.9324  13.9647  14.0392  14.1797  15.0584  15.1051  15.1091  15.1557
    15.2541  15.3240  15.4089  15.6716  15.7401  15.8259  15.8770  15.9241
    15.9299  15.9745  16.0073  16.0308  16.0778  16.1033  16.2503  16.2744
    16.3653  16.4955  16.5519  16.5996  16.6097  16.6730  16.7435  16.7847
    16.8928  16.9056  16.9361  16.9637  16.9835  17.0503  17.0844  17.0959
    17.1376  17.2135  17.2551  17.2793  17.3104  17.3291  17.3458  17.4181
    17.6674  17.7066  17.7904  17.8328  17.8933  18.0100  18.1314  18.1617
    18.2024  18.2343  18.3122  18.3320  18.4091  18.4755  18.5207  18.5551
    18.6268  18.6868  18.7276  18.7734  18.8635  18.8776

     occupation numbers 
     1.0000   1.0000   1.0000   1.0000   1.0000   1.0000   1.0000   1.0000
     1.0000   1.0000   1.0000   1.0000   1.0000   1.0000   1.0000   1.0000
     1.0000   1.0000   1.0000   1.0000   1.0000   1.0000   1.0000   1.0000
     1.0000   1.0000   1.0000   1.0000   1.0000   1.0000   1.0000   1.0000
     1.0000   1.0000   1.0000   1.0000   1.0000   1.0000   1.0000   1.0000
     1.0000   1.0000   1.0000   1.0000   1.0000   1.0000   1.0000   1.0000
     1.0000   1.0000   1.0000   1.0000   1.0000   1.0000   1.0000   1.0000
     1.0000   1.0000   1.0000   1.0000   1.0000   1.0000   1.0000   1.0000
     1.0000   1.0000   1.0000   1.0000   1.0000   1.0000   1.0000   1.0000
     1.0000   1.0000   1.0000   1.0000   1.0000   1.0000   1.0000   1.0000
     1.0000   1.0000   1.0000   1.0000   1.0000   1.0000   1.0000   1.0000
     1.0000   1.0000   1.0000   1.0000   1.0000   1.0000   1.0000   1.0000
     1.0000   1.0000   1.0000   1.0000   1.0000   1.0000   1.0000   1.0000
     1.0000   1.0000   1.0000   1.0000   1.0000   1.0000   1.0000   1.0000
     1.0000   1.0000   1.0000   1.0000   1.0000   1.0000   1.0000   1.0000
     1.0000   1.0000   1.0000   1.0000   1.0000   1.0000   1.0000   1.0000
     1.0000   1.0000   1.0000   1.0000   1.0000   1.0000   1.0000   1.0000
     1.0000   1.0000   1.0000   1.0000   1.0000   1.0000   1.0000   1.0000
     1.0000   1.0000   1.0000   1.0000   1.0000   1.0000   1.0000   1.0000
     1.0000   1.0000   1.0000   1.0000   1.0000   1.0000   1.0000   1.0000
     1.0000   1.0000   1.0000   1.0000   1.0000   1.0000   1.0000   1.0000
     1.0000   1.0000   1.0000   1.0000   1.0000   1.0000   1.0000   1.0000
     1.0000   1.0000   1.0000   1.0000   1.0000   1.0000   1.0000   1.0000
     1.0000   1.0000   1.0000   1.0000   1.0000   1.0000   1.0000   1.0000
     1.0000   1.0000   1.0000   1.0000   1.0000   1.0000   1.0000   1.0000
     1.0000   1.0000   1.0000   1.0000   1.0000   1.0000   1.0000   1.0000
     1.0000   1.0000   1.0000   1.0000   1.0000   1.0000   1.0000   1.0000
     1.0000   1.0000   1.0000   1.0000   1.0000   1.0000   1.0000   1.0000
     1.0000   1.0000   1.0000   1.0000   1.0000   1.0000   1.0000   1.0000
     1.0000   1.0000   1.0000   1.0000   1.0000   1.0000   1.0000   1.0000
     1.0000   1.0000   1.0000   1.0000   1.0000   1.0000   1.0000   1.0000
     1.0000   1.0000   1.0000   1.0000   1.0000   1.0000   1.0000   1.0000
     1.0000   1.0000   1.0000   1.0000   1.0000   1.0000   1.0000   1.0000
     1.0000   1.0000   1.0000   1.0000   1.0000   1.0000   1.0000   1.0000
     1.0000   1.0000   1.0000   1.0000   1.0000   1.0000   1.0000   1.0000
     1.0000   1.0000   1.0000   1.0000   1.0000   1.0000   1.0000   1.0000
     1.0000   1.0000   1.0000   1.0000   1.0000   1.0000   1.0000   1.0000
     1.0000   1.0000   1.0000   1.0000   1.0000   1.0000   1.0000   1.0000
     1.0000   1.0000   1.0000   1.0000   1.0000   1.0000   1.0000   1.0000
     1.0000   1.0000   1.0000   1.0000   1.0000   1.0000   1.0000   1.0000
     1.0000   1.0000   1.0000   1.0000   1.0000   1.0000   1.0000   1.0000
     1.0000   1.0000   1.0000   1.0000   1.0000   1.0000   1.0000   1.0000
     1.0000   1.0000   1.0000   1.0000   1.0000   1.0000   1.0000   1.0000
     1.0000   1.0000   1.0000   1.0000   1.0000   1.0000   1.0000   1.0000
     1.0000   1.0000   1.0000   1.0000   1.0000   1.0000   1.0000   1.0000
     1.0000   1.0000   1.0000   1.0000   1.0000   1.0000   1.0000   1.0000
     1.0000   1.0000   1.0000   1.0000   1.0000   1.0000   1.0000   1.0000
     1.0000   1.0000   1.0000   1.0000   1.0000   1.0000   1.0000   1.0000
     1.0000   1.0000   1.0000   1.0000   1.0000   1.0000   1.0000   1.0000
     1.0000   1.0000   1.0000   1.0000   1.0000   1.0000   1.0000   1.0000
     1.0000   1.0000   1.0000   1.0000   1.0000   1.0000   1.0000   1.0000
     1.0000   1.0000   1.0000   1.0000   1.0000   1.0000   1.0000   1.0000
     1.0000   1.0000   1.0000   1.0000   1.0000   1.0000   1.0000   1.0000
     1.0000   1.0000   1.0000   1.0000   1.0000   1.0000   1.0000   1.0000
     1.0000   1.0000   1.0000   1.0000   1.0000   1.0000   0.0000   0.0000
     0.0000   0.0000   0.0000   0.0000   0.0000   0.0000   0.0000   0.0000
     0.0000   0.0000   0.0000   0.0000   0.0000   0.0000   0.0000   0.0000
     0.0000   0.0000   0.0000   0.0000   0.0000   0.0000   0.0000   0.0000
     0.0000   0.0000   0.0000   0.0000   0.0000   0.0000   0.0000   0.0000
     0.0000   0.0000   0.0000   0.0000   0.0000   0.0000   0.0000   0.0000
     0.0000   0.0000   0.0000   0.0000   0.0000   0.0000   0.0000   0.0000
     0.0000   0.0000   0.0000   0.0000   0.0000   0.0000   0.0000   0.0000
     0.0000   0.0000   0.0000   0.0000   0.0000   0.0000   0.0000   0.0000
     0.0000   0.0000   0.0000   0.0000   0.0000   0.0000   0.0000   0.0000
     0.0000   0.0000   0.0000   0.0000   0.0000   0.0000   0.0000   0.0000
     0.0000   0.0000   0.0000   0.0000   0.0000   0.0000

          k =-0.0000 0.2887 0.2335 ( 45165 PWs)   bands (ev):

  -115.1116-115.0940-115.0940-115.0867-115.0833-115.0608-115.0603-115.0511
  -115.0496-115.0427-115.0395-115.0319-115.0318-115.0083-114.9934-114.9901
  -114.9862-114.9841-114.9836-114.9780-114.9712-114.9692-114.9663-114.9520
  -114.9469-114.9427-114.9366-114.9117-114.8868-114.8729 -69.5608 -69.5474
   -69.5374 -69.5356 -69.5270 -69.5140 -69.5095 -69.4950 -69.4943 -69.4861
   -69.4856 -69.4764 -69.4764 -69.4556 -69.4399 -69.4378 -69.4347 -69.4344
   -69.4330 -69.4265 -69.4227 -69.4226 -69.4222 -69.4211 -69.4170 -69.4092
   -69.4059 -69.4057 -69.4054 -69.3990 -69.3986 -69.3984 -69.3961 -69.3953
   -69.3951 -69.3931 -69.3855 -69.3732 -69.3717 -69.3708 -69.3658 -69.3652
   -69.3648 -69.3644 -69.3632 -69.3614 -69.3573 -69.3554 -69.3539 -69.3497
   -69.3460 -69.3453 -69.3447 -69.3444 -69.3386 -69.3264 -69.3217 -69.3179
   -69.3064 -69.3042 -69.3026 -69.3001 -69.2991 -69.2983 -69.2971 -69.2950
   -69.2927 -69.2914 -69.2880 -69.2850 -69.2826 -69.2826 -69.2778 -69.2769
   -69.2765 -69.2701 -69.2607 -69.2593 -69.2582 -69.2563 -69.2537 -69.2510
   -69.2484 -69.2454 -69.2233 -69.2161 -69.1972 -69.1944 -69.1840 -69.1776
   -64.3403 -64.3048 -64.2759 -64.2514 -64.2350 -64.2045 -31.3728 -31.3400
   -31.3135 -31.3127 -31.3114 -31.2880 -31.2797 -31.2763 -31.2722 -31.2495
   -31.2461 -31.2424 -31.2280 -31.2267 -31.2090 -31.2047 -31.1789 -31.1730
    -9.8114  -9.5822  -9.5389  -9.4695  -9.3968  -9.3695  -9.3213  -9.3009
    -9.2515  -9.2371  -9.2138  -9.1972  -9.1621  -9.1302  -9.1108  -9.0775
    -9.0713  -9.0550  -9.0457  -9.0339  -9.0089  -8.9875  -8.9107  -8.8690
    -8.8575  -8.8292  -8.8057  -8.7918  -8.7699  -8.7326  -8.7093  -8.6876
    -8.6389  -8.5610  -8.4492  -8.3623   1.7290   1.7338   1.7626   1.7850
     1.7987   1.8229   1.8335   1.8427   1.8507   1.8730   1.8921   1.9031
     1.9189   1.9651   1.9760   1.9856   1.9953   2.0565   2.0906   2.1004
     2.1130   2.1348   2.1446   2.1797   2.1993   2.2186   2.2265   2.2491
     2.2691   2.2771   2.2896   2.3164   2.3396   2.3970   2.4182   2.4292
     2.4664   2.5293   2.5425   2.5660   2.5746   2.5937   2.6094   2.6415
     2.6507   2.6715   2.6823   2.6863   2.6914   2.7081   2.7149   2.7234
     2.7404   2.7452   2.7532   2.7618   2.7682   2.7782   2.7855   2.7939
     2.8053   2.8112   2.8316   2.8439   2.8587   2.8827   2.9009   2.9112
     2.9213   2.9476   2.9699   2.9773   2.9829   2.9940   2.9993   3.0057
     3.0292   3.0350   3.0502   3.0662   3.0747   3.0808   3.0940   3.1098
     3.1225   3.1392   3.1607   3.1773   3.1964   3.2387   3.2507   3.2709
     3.2917   3.3110   3.3284   3.3386   3.3845   3.3980   3.4113   3.4259
     3.4453   3.4627   3.4741   3.4838   3.4878   3.5000   3.5167   3.5209
     3.5372   3.5438   3.5495   3.5586   3.5719   3.5812   3.5958   3.6042
     3.6203   3.6362   3.6443   3.6574   3.6643   3.6714   3.6772   3.6812
     3.6896   3.6934   3.7050   3.7219   3.7306   3.7349   3.7440   3.7545
     3.7649   3.7705   3.7844   3.7936   3.8017   3.8068   3.8113   3.8380
     3.8497   3.8665   3.8803   3.8969   3.9088   3.9254   3.9414   3.9505
     3.9706   4.0002   4.2210   4.2689   4.3050   4.3878   4.4290   4.4762
     4.4854   4.5197   4.5401   4.5693   4.5781   4.6451   4.6695   4.6846
     4.7160   4.7447   4.7755   4.7929   4.8228   4.8419   4.8982   4.9184
     4.9405   4.9532   4.9852   5.0530   5.0837   5.1272   5.1721   5.2014
     5.2731   5.2762   5.2884   5.3460   5.3847   5.4406   5.4645   5.5451
     5.6136   5.6568   5.7398   5.7850   5.8318   5.8921   5.9045   5.9416
     5.9781   6.0429   6.0641   6.0791   6.1273   6.1304   6.1859   6.2631
     6.2939   6.3728   6.4402   6.4634   6.4786   6.5076   6.5343   6.5476
     6.5753   6.6034   6.6199   6.6392   6.6812   6.7359   6.7724   6.7948
     6.8120   6.8325   6.8617   6.8834   6.9295   6.9791   6.9898   7.0146
     7.0569   7.0798   7.1001   7.1558   7.1766   7.2247   7.2523   7.2663
     7.2755   7.3097   7.3209   7.3572   7.3774   7.3953   7.4138   7.4262
     7.4401   7.4587   7.4796   7.5021   7.5429   7.5578   7.6423   7.7432
     7.7920   7.8628   7.9090   7.9651   8.0125   8.1451  10.1457  11.3479
    11.9029  12.4834  12.5197  12.5687  12.7794  13.0141  13.0701  13.4054
    13.4330  13.5206  13.6092  13.6304  13.6742  13.8443  13.8823  14.1035
    14.2152  14.3811  14.4127  14.4852  14.9606  15.0006  15.0891  15.2253
    15.2513  15.3374  15.3651  15.3868  15.4684  15.4980  15.5319  15.5725
    16.0856  16.0984  16.1379  16.2053  16.2199  16.3123  16.3527  16.4038
    16.4599  16.5267  16.5692  16.6314  16.6424  16.6856  16.7496  16.7773
    16.7981  16.8176  16.8482  16.8652  16.8831  16.9380  16.9858  17.0282
    17.0883  17.0937  17.2002  17.2507  17.3589  17.4474  17.4684  17.5113
    17.5804  17.6490  17.6900  17.7594  17.8532  17.9316  17.9867  18.0417
    18.1127  18.1784  18.2596  18.3262  18.3686  18.5148  18.5346  18.6016
    18.6465  18.7070  18.7570  18.8365  18.8766  18.9660

     occupation numbers 
     1.0000   1.0000   1.0000   1.0000   1.0000   1.0000   1.0000   1.0000
     1.0000   1.0000   1.0000   1.0000   1.0000   1.0000   1.0000   1.0000
     1.0000   1.0000   1.0000   1.0000   1.0000   1.0000   1.0000   1.0000
     1.0000   1.0000   1.0000   1.0000   1.0000   1.0000   1.0000   1.0000
     1.0000   1.0000   1.0000   1.0000   1.0000   1.0000   1.0000   1.0000
     1.0000   1.0000   1.0000   1.0000   1.0000   1.0000   1.0000   1.0000
     1.0000   1.0000   1.0000   1.0000   1.0000   1.0000   1.0000   1.0000
     1.0000   1.0000   1.0000   1.0000   1.0000   1.0000   1.0000   1.0000
     1.0000   1.0000   1.0000   1.0000   1.0000   1.0000   1.0000   1.0000
     1.0000   1.0000   1.0000   1.0000   1.0000   1.0000   1.0000   1.0000
     1.0000   1.0000   1.0000   1.0000   1.0000   1.0000   1.0000   1.0000
     1.0000   1.0000   1.0000   1.0000   1.0000   1.0000   1.0000   1.0000
     1.0000   1.0000   1.0000   1.0000   1.0000   1.0000   1.0000   1.0000
     1.0000   1.0000   1.0000   1.0000   1.0000   1.0000   1.0000   1.0000
     1.0000   1.0000   1.0000   1.0000   1.0000   1.0000   1.0000   1.0000
     1.0000   1.0000   1.0000   1.0000   1.0000   1.0000   1.0000   1.0000
     1.0000   1.0000   1.0000   1.0000   1.0000   1.0000   1.0000   1.0000
     1.0000   1.0000   1.0000   1.0000   1.0000   1.0000   1.0000   1.0000
     1.0000   1.0000   1.0000   1.0000   1.0000   1.0000   1.0000   1.0000
     1.0000   1.0000   1.0000   1.0000   1.0000   1.0000   1.0000   1.0000
     1.0000   1.0000   1.0000   1.0000   1.0000   1.0000   1.0000   1.0000
     1.0000   1.0000   1.0000   1.0000   1.0000   1.0000   1.0000   1.0000
     1.0000   1.0000   1.0000   1.0000   1.0000   1.0000   1.0000   1.0000
     1.0000   1.0000   1.0000   1.0000   1.0000   1.0000   1.0000   1.0000
     1.0000   1.0000   1.0000   1.0000   1.0000   1.0000   1.0000   1.0000
     1.0000   1.0000   1.0000   1.0000   1.0000   1.0000   1.0000   1.0000
     1.0000   1.0000   1.0000   1.0000   1.0000   1.0000   1.0000   1.0000
     1.0000   1.0000   1.0000   1.0000   1.0000   1.0000   1.0000   1.0000
     1.0000   1.0000   1.0000   1.0000   1.0000   1.0000   1.0000   1.0000
     1.0000   1.0000   1.0000   1.0000   1.0000   1.0000   1.0000   1.0000
     1.0000   1.0000   1.0000   1.0000   1.0000   1.0000   1.0000   1.0000
     1.0000   1.0000   1.0000   1.0000   1.0000   1.0000   1.0000   1.0000
     1.0000   1.0000   1.0000   1.0000   1.0000   1.0000   1.0000   1.0000
     1.0000   1.0000   1.0000   1.0000   1.0000   1.0000   1.0000   1.0000
     1.0000   1.0000   1.0000   1.0000   1.0000   1.0000   1.0000   1.0000
     1.0000   1.0000   1.0000   1.0000   1.0000   1.0000   1.0000   1.0000
     1.0000   1.0000   1.0000   1.0000   1.0000   1.0000   1.0000   1.0000
     1.0000   1.0000   1.0000   1.0000   1.0000   1.0000   1.0000   1.0000
     1.0000   1.0000   1.0000   1.0000   1.0000   1.0000   1.0000   1.0000
     1.0000   1.0000   1.0000   1.0000   1.0000   1.0000   1.0000   1.0000
     1.0000   1.0000   1.0000   1.0000   1.0000   1.0000   1.0000   1.0000
     1.0000   1.0000   1.0000   1.0000   1.0000   1.0000   1.0000   1.0000
     1.0000   1.0000   1.0000   1.0000   1.0000   1.0000   1.0000   1.0000
     1.0000   1.0000   1.0000   1.0000   1.0000   1.0000   1.0000   1.0000
     1.0000   1.0000   1.0000   1.0000   1.0000   1.0000   1.0000   1.0000
     1.0000   1.0000   1.0000   1.0000   1.0000   1.0000   1.0000   1.0000
     1.0000   1.0000   1.0000   1.0000   1.0000   1.0000   1.0000   1.0000
     1.0000   1.0000   1.0000   1.0000   1.0000   1.0000   1.0000   1.0000
     1.0000   1.0000   1.0000   1.0000   1.0000   1.0000   1.0000   1.0000
     1.0000   1.0000   1.0000   1.0000   1.0000   1.0000   1.0000   1.0000
     1.0000   1.0000   1.0000   1.0000   1.0000   1.0000   1.0000   1.0000
     1.0000   1.0000   1.0000   1.0000   1.0000   1.0000   1.0000   1.0000
     1.0000   1.0000   1.0000   1.0000   1.0000   1.0000   1.0000   1.0000
     1.0000   1.0000   1.0000   1.0000   1.0000   1.0000   1.0000   1.0000
     1.0000   1.0000   1.0000   1.0000   1.0000   1.0000   0.0000   0.0000
     0.0000   0.0000   0.0000   0.0000   0.0000   0.0000   0.0000   0.0000
     0.0000   0.0000   0.0000   0.0000   0.0000   0.0000   0.0000   0.0000
     0.0000   0.0000   0.0000   0.0000   0.0000   0.0000   0.0000   0.0000
     0.0000   0.0000   0.0000   0.0000   0.0000   0.0000   0.0000   0.0000
     0.0000   0.0000   0.0000   0.0000   0.0000   0.0000   0.0000   0.0000
     0.0000   0.0000   0.0000   0.0000   0.0000   0.0000   0.0000   0.0000
     0.0000   0.0000   0.0000   0.0000   0.0000   0.0000   0.0000   0.0000
     0.0000   0.0000   0.0000   0.0000   0.0000   0.0000   0.0000   0.0000
     0.0000   0.0000   0.0000   0.0000   0.0000   0.0000   0.0000   0.0000
     0.0000   0.0000   0.0000   0.0000   0.0000   0.0000   0.0000   0.0000
     0.0000   0.0000   0.0000   0.0000   0.0000   0.0000

          k = 0.0000 0.2887-0.4670 ( 45186 PWs)   bands (ev):

  -115.1116-115.0940-115.0940-115.0867-115.0833-115.0608-115.0603-115.0511
  -115.0496-115.0427-115.0395-115.0319-115.0318-115.0083-114.9934-114.9901
  -114.9862-114.9841-114.9836-114.9780-114.9712-114.9692-114.9663-114.9520
  -114.9469-114.9427-114.9366-114.9117-114.8868-114.8729 -69.5608 -69.5474
   -69.5374 -69.5356 -69.5270 -69.5140 -69.5095 -69.4950 -69.4943 -69.4861
   -69.4856 -69.4764 -69.4764 -69.4556 -69.4399 -69.4378 -69.4347 -69.4344
   -69.4330 -69.4265 -69.4227 -69.4226 -69.4222 -69.4211 -69.4170 -69.4092
   -69.4059 -69.4057 -69.4054 -69.3990 -69.3986 -69.3984 -69.3961 -69.3953
   -69.3951 -69.3931 -69.3855 -69.3732 -69.3717 -69.3708 -69.3658 -69.3652
   -69.3648 -69.3644 -69.3632 -69.3614 -69.3573 -69.3554 -69.3539 -69.3497
   -69.3460 -69.3453 -69.3447 -69.3444 -69.3386 -69.3264 -69.3217 -69.3179
   -69.3064 -69.3042 -69.3026 -69.3001 -69.2991 -69.2983 -69.2971 -69.2950
   -69.2927 -69.2914 -69.2880 -69.2850 -69.2826 -69.2826 -69.2778 -69.2769
   -69.2765 -69.2701 -69.2607 -69.2593 -69.2582 -69.2563 -69.2537 -69.2510
   -69.2484 -69.2454 -69.2233 -69.2161 -69.1972 -69.1944 -69.1840 -69.1776
   -64.3403 -64.3048 -64.2759 -64.2514 -64.2350 -64.2045 -31.3728 -31.3400
   -31.3135 -31.3127 -31.3114 -31.2880 -31.2797 -31.2763 -31.2722 -31.2495
   -31.2461 -31.2424 -31.2280 -31.2267 -31.2090 -31.2047 -31.1789 -31.1730
    -9.7949  -9.6218  -9.5314  -9.4654  -9.3869  -9.3528  -9.3323  -9.2977
    -9.2665  -9.2469  -9.2127  -9.2034  -9.1604  -9.1198  -9.1005  -9.0825
[...]
     atom   34 type  2   force =     0.00004194   -0.00006400    0.00041049
     atom   35 type  2   force =    -0.00201418    0.00118387   -0.00005529
     atom   36 type  2   force =     0.00209242   -0.00123739   -0.00006672
     atom   37 type  2   force =     0.00214039   -0.00118181   -0.00005429
     atom   38 type  2   force =     0.00000115    0.00244663    0.00004336
     atom   39 type  2   force =    -0.00208821   -0.00121160    0.00000516
     atom   40 type  2   force =    -0.00011594    0.00002194    0.00004641
     atom   41 type  2   force =    -0.00224189   -0.00123575   -0.00022613
     atom   42 type  2   force =     0.00217896    0.00121530   -0.00027843
     atom   43 type  1   force =     0.00000000    0.00000000    0.00000000
     atom   44 type  1   force =     0.00000000    0.00000000    0.00000000
     atom   45 type  1   force =     0.00000000    0.00000000    0.00000000
     atom   46 type  1   force =     0.00000000    0.00000000    0.00000000
     atom   47 type  1   force =     0.00000000    0.00000000    0.00000000
     atom   48 type  1   force =     0.00000000    0.00000000    0.00000000
     atom   49 type  1   force =     0.00000000    0.00000000    0.00000000
     atom   50 type  1   force =     0.00000000    0.00000000    0.00000000
     atom   51 type  1   force =     0.00000000    0.00000000    0.00000000
     atom   52 type  1   force =     0.00000000    0.00000000    0.00000000
     atom   53 type  1   force =     0.00000000    0.00000000    0.00000000
     atom   54 type  1   force =     0.00000000    0.00000000    0.00000000
     atom   55 type  1   force =     0.00000000    0.00000000    0.00000000
     atom   56 type  1   force =     0.00000000    0.00000000    0.00000000
     atom   57 type  1   force =     0.00000000    0.00000000    0.00000000
     atom   58 type  1   force =     0.00000000    0.00000000    0.00000000
     atom   59 type  1   force =     0.00000000    0.00000000    0.00000000
     atom   60 type  1   force =     0.00000000    0.00000000    0.00000000
     atom   61 type  1   force =     0.00000000    0.00000000    0.00000000
     atom   62 type  1   force =     0.00000000    0.00000000    0.00000000
     atom   63 type  1   force =     0.00000000    0.00000000    0.00000000
     atom   64 type  1   force =     0.00000000    0.00000000    0.00000000
     atom   65 type  1   force =     0.00000000    0.00000000    0.00000000
     atom   66 type  1   force =     0.00000000    0.00000000    0.00000000
     atom   67 type  1   force =     0.00000000    0.00000000    0.00000000
     atom   68 type  1   force =     0.00000000    0.00000000    0.00000000
     atom   69 type  1   force =     0.00000000    0.00000000    0.00000000
     atom   70 type  1   force =     0.00000000    0.00000000    0.00000000
     atom   71 type  1   force =     0.00000000    0.00000000    0.00000000
     atom   72 type  1   force =     0.00000000    0.00000000    0.00000000
     The Hubbard contrib.    to forces
     atom    1 type  3   force =     0.00000000    0.00000000    0.00000000
     atom    2 type  3   force =     0.00000000    0.00000000    0.00000000
     atom    3 type  3   force =     0.00000000    0.00000000    0.00000000
     atom    4 type  3   force =     0.00000000    0.00000000    0.00000000
     atom    5 type  3   force =     0.00000000    0.00000000    0.00000000
     atom    6 type  3   force =     0.00000000    0.00000000    0.00000000
     atom    7 type  2   force =     0.00000000    0.00000000    0.00000000
     atom    8 type  2   force =     0.00000000    0.00000000    0.00000000
     atom    9 type  2   force =     0.00000000    0.00000000    0.00000000
     atom   10 type  2   force =     0.00000000    0.00000000    0.00000000
     atom   11 type  2   force =     0.00000000    0.00000000    0.00000000
     atom   12 type  2   force =     0.00000000    0.00000000    0.00000000
     atom   13 type  2   force =     0.00000000    0.00000000    0.00000000
     atom   14 type  2   force =     0.00000000    0.00000000    0.00000000
     atom   15 type  2   force =     0.00000000    0.00000000    0.00000000
     atom   16 type  2   force =     0.00000000    0.00000000    0.00000000
     atom   17 type  2   force =     0.00000000    0.00000000    0.00000000
     atom   18 type  2   force =     0.00000000    0.00000000    0.00000000
     atom   19 type  2   force =     0.00000000    0.00000000    0.00000000
     atom   20 type  2   force =     0.00000000    0.00000000    0.00000000
     atom   21 type  2   force =     0.00000000    0.00000000    0.00000000
     atom   22 type  2   force =     0.00000000    0.00000000    0.00000000
     atom   23 type  2   force =     0.00000000    0.00000000    0.00000000
     atom   24 type  2   force =     0.00000000    0.00000000    0.00000000
     atom   25 type  2   force =     0.00000000    0.00000000    0.00000000
     atom   26 type  2   force =     0.00000000    0.00000000    0.00000000
     atom   27 type  2   force =     0.00000000    0.00000000    0.00000000
     atom   28 type  2   force =     0.00000000    0.00000000    0.00000000
     atom   29 type  2   force =     0.00000000    0.00000000    0.00000000
     atom   30 type  2   force =     0.00000000    0.00000000    0.00000000
     atom   31 type  2   force =     0.00000000    0.00000000    0.00000000
     atom   32 type  2   force =     0.00000000    0.00000000    0.00000000
     atom   33 type  2   force =     0.00000000    0.00000000    0.00000000
     atom   34 type  2   force =     0.00000000    0.00000000    0.00000000
     atom   35 type  2   force =     0.00000000    0.00000000    0.00000000
     atom   36 type  2   force =     0.00000000    0.00000000    0.00000000
     atom   37 type  2   force =     0.00000000    0.00000000    0.00000000
     atom   38 type  2   force =     0.00000000    0.00000000    0.00000000
     atom   39 type  2   force =     0.00000000    0.00000000    0.00000000
     atom   40 type  2   force =     0.00000000    0.00000000    0.00000000
     atom   41 type  2   force =     0.00000000    0.00000000    0.00000000
     atom   42 type  2   force =     0.00000000    0.00000000    0.00000000
     atom   43 type  1   force =     0.00000000    0.00000000    0.00000000
     atom   44 type  1   force =     0.00000000    0.00000000    0.00000000
     atom   45 type  1   force =     0.00000000    0.00000000    0.00000000
     atom   46 type  1   force =     0.00000000    0.00000000    0.00000000
     atom   47 type  1   force =     0.00000000    0.00000000    0.00000000
     atom   48 type  1   force =     0.00000000    0.00000000    0.00000000
     atom   49 type  1   force =     0.00000000    0.00000000    0.00000000
     atom   50 type  1   force =     0.00000000    0.00000000    0.00000000
     atom   51 type  1   force =     0.00000000    0.00000000    0.00000000
     atom   52 type  1   force =     0.00000000    0.00000000    0.00000000
     atom   53 type  1   force =     0.00000000    0.00000000    0.00000000
     atom   54 type  1   force =     0.00000000    0.00000000    0.00000000
     atom   55 type  1   force =     0.00000000    0.00000000    0.00000000
     atom   56 type  1   force =     0.00000000    0.00000000    0.00000000
     atom   57 type  1   force =     0.00000000    0.00000000    0.00000000
     atom   58 type  1   force =     0.00000000    0.00000000    0.00000000
     atom   59 type  1   force =     0.00000000    0.00000000    0.00000000
     atom   60 type  1   force =     0.00000000    0.00000000    0.00000000
     atom   61 type  1   force =     0.00000000    0.00000000    0.00000000
     atom   62 type  1   force =     0.00000000    0.00000000    0.00000000
     atom   63 type  1   force =     0.00000000    0.00000000    0.00000000
     atom   64 type  1   force =     0.00000000    0.00000000    0.00000000
     atom   65 type  1   force =     0.00000000    0.00000000    0.00000000
     atom   66 type  1   force =     0.00000000    0.00000000    0.00000000
     atom   67 type  1   force =     0.00000000    0.00000000    0.00000000
     atom   68 type  1   force =     0.00000000    0.00000000    0.00000000
     atom   69 type  1   force =     0.00000000    0.00000000    0.00000000
     atom   70 type  1   force =     0.00000000    0.00000000    0.00000000
     atom   71 type  1   force =     0.00000000    0.00000000    0.00000000
     atom   72 type  1   force =     0.00000000    0.00000000    0.00000000
     The SCF correction term to forces
     atom    1 type  3   force =    -0.00000320    0.00000849    0.00002877
     atom    2 type  3   force =     0.00001848    0.00002331    0.00003814
     atom    3 type  3   force =     0.00000600    0.00000069    0.00003004
     atom    4 type  3   force =    -0.00002081    0.00000471    0.00002006
     atom    5 type  3   force =     0.00001349    0.00002761   -0.00005155
     atom    6 type  3   force =    -0.00001433    0.00001401   -0.00004564
     atom    7 type  2   force =    -0.00000024    0.00000813   -0.00002260
     atom    8 type  2   force =     0.00000013   -0.00000706   -0.00002017
     atom    9 type  2   force =    -0.00000107   -0.00000051   -0.00001512
     atom   10 type  2   force =     0.00000205   -0.00000612   -0.00001319
     atom   11 type  2   force =     0.00000197    0.00000434   -0.00001434
     atom   12 type  2   force =    -0.00000248   -0.00000762   -0.00001544
     atom   13 type  2   force =    -0.00000093    0.00000668   -0.00001444
     atom   14 type  2   force =     0.00000125   -0.00000004   -0.00000941
     atom   15 type  2   force =     0.00000021    0.00000056   -0.00001053
     atom   16 type  2   force =    -0.00000103    0.00000048   -0.00001046
     atom   17 type  2   force =     0.00000027   -0.00000400   -0.00000883
     atom   18 type  2   force =     0.00000235    0.00000104   -0.00000554
     atom   19 type  2   force =    -0.00000414    0.00000413   -0.00000539
     atom   20 type  2   force =     0.00000163    0.00000053   -0.00000666
     atom   21 type  2   force =    -0.00000193    0.00000006   -0.00000505
     atom   22 type  2   force =     0.00000016   -0.00000151   -0.00000459
     atom   23 type  2   force =     0.00000193    0.00000221   -0.00000272
     atom   24 type  2   force =     0.00000058   -0.00000132   -0.00000060
     atom   25 type  2   force =     0.00000048    0.00000514    0.00000985
     atom   26 type  2   force =     0.00000265   -0.00000455    0.00001175
     atom   27 type  2   force =    -0.00000300    0.00000484    0.00001092
     atom   28 type  2   force =     0.00000222    0.00000425    0.00001548
     atom   29 type  2   force =     0.00000102    0.00000156    0.00000589
     atom   30 type  2   force =    -0.00000167   -0.00000636    0.00000896
     atom   31 type  2   force =    -0.00000064   -0.00000182    0.00000624
     atom   32 type  2   force =    -0.00000052   -0.00000321    0.00001435
     atom   33 type  2   force =    -0.00000030    0.00000037    0.00001138
     atom   34 type  2   force =    -0.00000077    0.00000164    0.00000443
     atom   35 type  2   force =    -0.00000520   -0.00000445    0.00000906
     atom   36 type  2   force =     0.00000380   -0.00000102    0.00000968
     atom   37 type  2   force =     0.00000605   -0.00000505    0.00000999
     atom   38 type  2   force =     0.00000249    0.00000641    0.00001034
     atom   39 type  2   force =    -0.00000426    0.00000098    0.00000923
     atom   40 type  2   force =    -0.00000203   -0.00000442    0.00000740
     atom   41 type  2   force =    -0.00000556   -0.00000060    0.00001300
     atom   42 type  2   force =     0.00000506    0.00000476    0.00001682
     atom   43 type  1   force =     0.00000357   -0.00001191   -0.00006807
     atom   44 type  1   force =    -0.00001395    0.00000028   -0.00005275
     atom   45 type  1   force =    -0.00002082    0.00002197   -0.00003174
     atom   46 type  1   force =     0.00001841   -0.00001273   -0.00000175
     atom   47 type  1   force =     0.00000298   -0.00001869   -0.00002457
     atom   48 type  1   force =    -0.00000662    0.00000314   -0.00002666
     atom   49 type  1   force =    -0.00000514   -0.00001329   -0.00004237
     atom   50 type  1   force =     0.00001545    0.00001482   -0.00003256
     atom   51 type  1   force =     0.00000580    0.00002284   -0.00002704
     atom   52 type  1   force =     0.00000986    0.00005326    0.00009658
     atom   53 type  1   force =    -0.00000285    0.00005455    0.00008698
     atom   54 type  1   force =    -0.00000742    0.00002217    0.00007034
     atom   55 type  1   force =     0.00000221   -0.00002220    0.00009693
     atom   56 type  1   force =     0.00003443   -0.00005403    0.00006696
     atom   57 type  1   force =    -0.00003468   -0.00001541    0.00006859
     atom   58 type  1   force =     0.00003995   -0.00000221    0.00006069
     atom   59 type  1   force =    -0.00004060   -0.00004639    0.00005736
     atom   60 type  1   force =     0.00003086    0.00001260    0.00003859
     atom   61 type  1   force =    -0.00005601    0.00004024    0.00004196
     atom   62 type  1   force =     0.00000820   -0.00007831    0.00001466
     atom   63 type  1   force =    -0.00002075   -0.00004097    0.00005543
     atom   64 type  1   force =    -0.00001755   -0.00000165    0.00003983
     atom   65 type  1   force =     0.00005388    0.00000766    0.00004236
     atom   66 type  1   force =     0.00000252    0.00007572   -0.00007672
     atom   67 type  1   force =    -0.00002294   -0.00003888   -0.00011153
     atom   68 type  1   force =     0.00000041   -0.00001689   -0.00007943
     atom   69 type  1   force =    -0.00001329   -0.00005766   -0.00008788
     atom   70 type  1   force =     0.00000631   -0.00002205   -0.00008285
     atom   71 type  1   force =    -0.00000637    0.00000451   -0.00008461
     atom   72 type  1   force =     0.00003627   -0.00003427   -0.00007110

     Total force =     0.063112     Total SCF correction =     0.000438


     Computing stress (Cartesian axis) and pressure

          total   stress  (Ry/bohr**3)                   (kbar)     P=   68.19
   0.00087932  -0.00000027   0.00000004        129.35     -0.04      0.01
  -0.00000027   0.00087891  -0.00000024         -0.04    129.29     -0.04
   0.00000004  -0.00000024  -0.00036764          0.01     -0.04    -54.08

     kinetic stress (kbar)  31198.91     -0.16     -0.06
                               -0.16  31199.01      0.07
                               -0.06      0.07  31757.83

     local   stress (kbar) -25101.46    -30.18   -459.02
                              -30.18 -24362.64    361.52
                             -459.02    361.52  21396.22

     nonloc. stress (kbar)   -365.40      0.03      0.06
                                0.03   -365.44     -0.10
                                0.06     -0.10   -729.70

     hartree stress (kbar)  65011.81     14.65    224.76
                               14.65  64644.67   -177.66
                              224.76   -177.66  47005.14

     exc-cor stress (kbar) -12889.91      0.00      0.00
                                0.00 -12889.91      0.00
                                0.00      0.00 -12909.00

     corecor stress (kbar)   -248.56      0.00      0.00
                                0.00   -248.56     -0.00
                                0.00     -0.00   -249.36

     ewald   stress (kbar) -57476.03     15.62    234.27
                               15.62 -57847.83   -183.88
                              234.27   -183.88 -86325.20

     hubbard stress (kbar)      0.00      0.00      0.00
                                0.00      0.00      0.00
                                0.00      0.00      0.00

     london  stress (kbar)      0.00      0.00      0.00
                                0.00      0.00      0.00
                                0.00      0.00      0.00

     DFT-D3  stress (kbar)      0.00      0.00      0.00
                                0.00      0.00      0.00
                                0.00      0.00      0.00

     XDM     stress (kbar)      0.00      0.00      0.00
                                0.00      0.00      0.00
                                0.00      0.00      0.00

     dft-nl  stress (kbar)      0.00      0.00      0.00
                                0.00      0.00      0.00
                                0.00      0.00      0.00

     TS-vdW  stress (kbar)      0.00      0.00      0.00
                                0.00      0.00      0.00
                                0.00      0.00      0.00



     Writing output data file ZnO.save/
 
     init_run     :     15.59s CPU     17.04s WALL (       1 calls)
     electrons    :    730.58s CPU    746.40s WALL (       1 calls)
     forces       :      9.98s CPU     10.35s WALL (       1 calls)
     stress       :    144.76s CPU    151.73s WALL (       1 calls)

     Called by init_run:
     wfcinit      :     13.34s CPU     14.24s WALL (       1 calls)
     wfcinit:atom :      0.10s CPU      0.12s WALL (       5 calls)
     wfcinit:wfcr :     12.82s CPU     13.64s WALL (       5 calls)
     potinit      :      1.03s CPU      1.10s WALL (       1 calls)
     hinit0       :      0.78s CPU      1.18s WALL (       1 calls)

     Called by electrons:
     c_bands      :    675.50s CPU    689.82s WALL (      12 calls)
     sum_band     :     48.26s CPU     49.12s WALL (      12 calls)
     v_of_rho     :      5.49s CPU      5.84s WALL (      13 calls)
     v_h          :      0.13s CPU      0.19s WALL (      13 calls)
     v_xc         :      6.16s CPU      6.49s WALL (      15 calls)
     newd         :      1.18s CPU      1.27s WALL (      13 calls)
     mix_rho      :      0.32s CPU      0.41s WALL (      12 calls)

     Called by c_bands:
     init_us_2    :      4.31s CPU      4.35s WALL (     135 calls)
     cegterg      :    624.57s CPU    638.61s WALL (      60 calls)

     Called by sum_band:
     sum_band:bec :      0.25s CPU      0.26s WALL (      60 calls)
     addusdens    :      1.05s CPU      1.08s WALL (      12 calls)

     Called by *egterg:
     h_psi        :    209.94s CPU    213.33s WALL (     236 calls)
     s_psi        :     52.38s CPU     52.51s WALL (     236 calls)
     g_psi        :      0.69s CPU      0.69s WALL (     171 calls)
     cdiaghg      :    227.71s CPU    234.44s WALL (     231 calls)
     cegterg:over :     60.84s CPU     62.57s WALL (     171 calls)
     cegterg:upda :     41.48s CPU     42.04s WALL (     171 calls)
     cegterg:last :     23.06s CPU     23.19s WALL (      60 calls)
     cdiaghg:chol :     10.90s CPU     11.37s WALL (     231 calls)
     cdiaghg:inve :      3.30s CPU      3.31s WALL (     231 calls)
     cdiaghg:para :     53.48s CPU     58.27s WALL (     462 calls)

     Called by h_psi:
     h_psi:pot    :    208.21s CPU    210.52s WALL (     236 calls)
     h_psi:calbec :     53.36s CPU     54.82s WALL (     236 calls)
     vloc_psi     :    101.99s CPU    102.59s WALL (     236 calls)
     add_vuspsi   :     52.85s CPU     53.10s WALL (     236 calls)

     General routines
     calbec       :     83.33s CPU     85.67s WALL (     321 calls)
     fft          :      1.31s CPU      2.08s WALL (     192 calls)
     ffts         :      0.07s CPU      0.07s WALL (      25 calls)
     fftw         :    116.53s CPU    117.24s WALL (  186324 calls)
     interpolate  :      0.15s CPU      0.19s WALL (      13 calls)
 
     Parallel routines
     fft_scatt_xy :     19.22s CPU     19.32s WALL (  186541 calls)
     fft_scatt_yz :     31.69s CPU     32.49s WALL (  186541 calls)
 
     PWSCF        :  15m 4.39s CPU  15m33.40s WALL

 
   This run was terminated on:  13:55:19   8Nov2021            

=------------------------------------------------------------------------------=
   JOB DONE.
=------------------------------------------------------------------------------=
