
     Program PWSCF v.6.4.1 starts on 15Jun2022 at 20:52:36 

     This program is part of the open-source Quantum ESPRESSO suite
     for quantum simulation of materials; please cite
         "P. Giannozzi et al., J. Phys.:Condens. Matter 21 395502 (2009);
         "P. Giannozzi et al., J. Phys.:Condens. Matter 29 465901 (2017);
          URL http://www.quantum-espresso.org", 
     in publications or presentations arising from this work. More details at
     http://www.quantum-espresso.org/quote

     Parallel version (MPI), running on    64 processors

     MPI processes distributed on     1 nodes
     K-points division:     npool     =       4
     R & G space division:  proc/nbgrp/npool/nimage =      16
     Waiting for input...
     Reading input from standard input
Warning: card &IONS ignored
Warning: card   UPSCALE           = 100.D0, ignored
Warning: card / ignored
Warning: card &CELL ignored
Warning: card   CELL_DYNAMICS     = 'BFGS' ignored
Warning: card   PRESS_CONV_THR    = 0.5D0 ignored
Warning: card   CELL_DOFREE = 'ALL' ignored
Warning: card / ignored

     Current dimensions of program PWSCF are:
     Max number of different atomic species (ntypx) = 10
     Max number of k-points (npk) =  40000
     Max angular momentum in pseudopotentials (lmaxx) =  3

     Subspace diagonalization in iterative solution of the eigenvalue problem:
     one sub-group per band group will be used
     scalapack distributed-memory algorithm (size of sub-group:  2*  2 procs)

 
     Parallelization info
     --------------------
     sticks:   dense  smooth     PW     G-vecs:    dense   smooth      PW
     Min         110      58     18                 4706     1832     319
     Max         112      61     20                 4709     1835     322
     Sum        1765     955    295                75305    29333    5121
 


     bravais-lattice index     =            0
     lattice parameter (alat)  =       6.5272  a.u.
     unit-cell volume          =     303.6567 (a.u.)^3
     number of atoms/cell      =            4
     number of atomic types    =            2
     number of electrons       =        32.00
     number of Kohn-Sham states=           16
     kinetic-energy cutoff     =      80.0000  Ry
     charge density cutoff     =     600.0000  Ry
     convergence threshold     =      1.0E-06
     mixing beta               =       0.5000
     number of iterations used =            8  plain     mixing
     Exchange-correlation      = SLA  PW   PSX  PSC ( 1  4 10  8 0 0)
     Using LIBXC version       =    4   3   4

     celldm(1)=   6.527175  celldm(2)=   0.000000  celldm(3)=   0.000000
     celldm(4)=   0.000000  celldm(5)=   0.000000  celldm(6)=   0.000000

     crystal axes: (cart. coord. in units of alat)
               a(1) = (   1.000000   0.000000  -0.000000 )  
               a(2) = (  -0.500000   0.866026   0.000000 )  
               a(3) = (  -0.000000   0.000000   1.260888 )  

     reciprocal axes: (cart. coord. in units 2 pi/alat)
               b(1) = (  1.000000  0.577350  0.000000 )  
               b(2) = ( -0.000000  1.154700 -0.000000 )  
               b(3) = (  0.000000 -0.000000  0.793092 )  


     PseudoPot. # 1 for Mg read from file:
     ./GBRV_PBEsol/mg_pbesol_v1.4.uspp.F.UPF
     MD5 check sum: 4059f37963cf5867752dbf5ab2400678
     Pseudo is Ultrasoft, Zval = 10.0
     Generated by new atomic code, or converted to UPF format
     Using radial grid of  821 points,  7 beta functions with: 
                l(1) =   0
                l(2) =   0
                l(3) =   0
                l(4) =   1
                l(5) =   1
                l(6) =   2
                l(7) =   2
     Q(r) pseudized with  8 coefficients,  rinner =    1.200   1.200   1.200
                                                       1.200   1.200

     PseudoPot. # 2 for O  read from file:
     ./GBRV_PBEsol/o_pbesol_v1.2.uspp.F.UPF
     MD5 check sum: 501638753501ef6325af9037351f7734
     Pseudo is Ultrasoft + core correction, Zval =  6.0
     Generated by new atomic code, or converted to UPF format
     Using radial grid of  737 points,  5 beta functions with: 
                l(1) =   0
                l(2) =   0
                l(3) =   1
                l(4) =   1
                l(5) =   2
     Q(r) pseudized with  8 coefficients,  rinner =    0.900   0.900   0.900
                                                       0.900   0.900

     atomic species   valence    mass     pseudopotential
        Mg            10.00    24.30500     Mg( 1.00)
        O              6.00    15.99900     O ( 1.00)

     No symmetry found


                                    s                        frac. trans.

      isym =  1     identity                                     

 cryst.   s( 1) = (     1          0          0      )
                  (     0          1          0      )
                  (     0          0          1      )

 cart.    s( 1) = (  1.0000000  0.0000000 -0.0000000 )
                  ( -0.0000000  1.0000000  0.0000000 )
                  ( -0.0000000  0.0000000  1.0000000 )


   Cartesian axes

     site n.     atom                  positions (alat units)
         1           O   tau(   1) = (   0.5000002   0.2886756   0.0092623  )
         2           O   tau(   2) = (   0.0000000   0.5773496   0.6397062  )
         3           Mg  tau(   3) = (   0.4999999   0.2886750   0.6888911  )
         4           Mg  tau(   4) = (  -0.0000003   0.5773514   1.3193350  )

   Crystallographic axes

     site n.     atom                  positions (cryst. coord.)
         1           O   tau(   1) = (  0.6666670  0.3333337  0.0073459  )
         2           O   tau(   2) = (  0.3333329  0.6666657  0.5073458  )
         3           Mg  tau(   3) = (  0.6666664  0.3333329  0.5463540  )
         4           Mg  tau(   4) = (  0.3333336  0.6666677  1.0463539  )

     number of k points=   260
                       cart. coord. in units 2pi/alat
        k(    1) = (   0.0000000   0.0000000   0.0000000), wk =   0.0039062
        k(    2) = (   0.0000000  -0.0000000   0.0991365), wk =   0.0078125
        k(    3) = (   0.0000000  -0.0000000   0.1982730), wk =   0.0078125
        k(    4) = (   0.0000000  -0.0000001   0.2974095), wk =   0.0078125
        k(    5) = (  -0.0000000   0.0000001  -0.3965460), wk =   0.0039062
        k(    6) = (  -0.0000000   0.1443375  -0.0000000), wk =   0.0078125
        k(    7) = (  -0.0000000   0.1443375   0.0991365), wk =   0.0078125
        k(    8) = (   0.0000000   0.1443375   0.1982730), wk =   0.0078125
        k(    9) = (   0.0000000   0.1443375   0.2974095), wk =   0.0078125
        k(   10) = (  -0.0000000   0.1443376  -0.3965460), wk =   0.0078125
        k(   11) = (  -0.0000000   0.1443376  -0.2974095), wk =   0.0078125
        k(   12) = (  -0.0000000   0.1443376  -0.1982730), wk =   0.0078125
        k(   13) = (  -0.0000000   0.1443376  -0.0991365), wk =   0.0078125
        k(   14) = (  -0.0000000   0.2886751  -0.0000000), wk =   0.0078125
        k(   15) = (  -0.0000000   0.2886750   0.0991365), wk =   0.0078125
        k(   16) = (  -0.0000000   0.2886750   0.1982730), wk =   0.0078125
        k(   17) = (   0.0000000   0.2886750   0.2974095), wk =   0.0078125
        k(   18) = (  -0.0000000   0.2886751  -0.3965460), wk =   0.0078125
        k(   19) = (  -0.0000000   0.2886751  -0.2974095), wk =   0.0078125
        k(   20) = (  -0.0000000   0.2886751  -0.1982730), wk =   0.0078125
        k(   21) = (  -0.0000000   0.2886751  -0.0991365), wk =   0.0078125
        k(   22) = (  -0.0000000   0.4330126  -0.0000000), wk =   0.0078125
        k(   23) = (  -0.0000000   0.4330126   0.0991365), wk =   0.0078125
        k(   24) = (  -0.0000000   0.4330125   0.1982730), wk =   0.0078125
        k(   25) = (  -0.0000000   0.4330125   0.2974095), wk =   0.0078125
        k(   26) = (  -0.0000001   0.4330127  -0.3965461), wk =   0.0078125
        k(   27) = (  -0.0000000   0.4330127  -0.2974096), wk =   0.0078125
        k(   28) = (  -0.0000000   0.4330126  -0.1982731), wk =   0.0078125
        k(   29) = (  -0.0000000   0.4330126  -0.0991365), wk =   0.0078125
        k(   30) = (   0.0000000  -0.5773501   0.0000001), wk =   0.0039062
        k(   31) = (   0.0000000  -0.5773501   0.0991366), wk =   0.0078125
        k(   32) = (   0.0000000  -0.5773502   0.1982731), wk =   0.0078125
        k(   33) = (   0.0000001  -0.5773502   0.2974096), wk =   0.0078125
        k(   34) = (   0.0000000  -0.5773500  -0.3965460), wk =   0.0039062
        k(   35) = (   0.1250000   0.0721688   0.0000000), wk =   0.0078125
        k(   36) = (   0.1250000   0.0721687   0.0991365), wk =   0.0078125
        k(   37) = (   0.1250000   0.0721687   0.1982730), wk =   0.0078125
        k(   38) = (   0.1250000   0.0721687   0.2974095), wk =   0.0078125
        k(   39) = (   0.1250000   0.0721688  -0.3965460), wk =   0.0078125
        k(   40) = (   0.1250000   0.0721688  -0.2974095), wk =   0.0078125
        k(   41) = (   0.1250000   0.0721688  -0.1982730), wk =   0.0078125
        k(   42) = (   0.1250000   0.0721688  -0.0991365), wk =   0.0078125
        k(   43) = (   0.1250000   0.2165063  -0.0000000), wk =   0.0078125
        k(   44) = (   0.1250000   0.2165063   0.0991365), wk =   0.0078125
        k(   45) = (   0.1250000   0.2165062   0.1982730), wk =   0.0078125
        k(   46) = (   0.1250000   0.2165062   0.2974095), wk =   0.0078125
        k(   47) = (   0.1250000   0.2165064  -0.3965460), wk =   0.0078125
        k(   48) = (   0.1250000   0.2165064  -0.2974095), wk =   0.0078125
        k(   49) = (   0.1250000   0.2165063  -0.1982730), wk =   0.0078125
        k(   50) = (   0.1250000   0.2165063  -0.0991365), wk =   0.0078125
        k(   51) = (   0.1250000   0.3608438  -0.0000000), wk =   0.0078125
        k(   52) = (   0.1250000   0.3608438   0.0991365), wk =   0.0078125
        k(   53) = (   0.1250000   0.3608438   0.1982730), wk =   0.0078125
        k(   54) = (   0.1250000   0.3608438   0.2974095), wk =   0.0078125
        k(   55) = (   0.1250000   0.3608439  -0.3965460), wk =   0.0078125
        k(   56) = (   0.1250000   0.3608439  -0.2974095), wk =   0.0078125
        k(   57) = (   0.1250000   0.3608439  -0.1982730), wk =   0.0078125
        k(   58) = (   0.1250000   0.3608438  -0.0991365), wk =   0.0078125
        k(   59) = (   0.1250000   0.5051813  -0.0000000), wk =   0.0078125
        k(   60) = (   0.1250000   0.5051813   0.0991365), wk =   0.0078125
        k(   61) = (   0.1250000   0.5051813   0.1982730), wk =   0.0078125
        k(   62) = (   0.1250000   0.5051813   0.2974095), wk =   0.0078125
        k(   63) = (   0.1249999   0.5051814  -0.3965461), wk =   0.0078125
        k(   64) = (   0.1250000   0.5051814  -0.2974096), wk =   0.0078125
        k(   65) = (   0.1250000   0.5051814  -0.1982730), wk =   0.0078125
        k(   66) = (   0.1250000   0.5051814  -0.0991365), wk =   0.0078125
        k(   67) = (   0.1250000  -0.5051814   0.0000001), wk =   0.0078125
        k(   68) = (   0.1250000  -0.5051814   0.0991366), wk =   0.0078125
        k(   69) = (   0.1250000  -0.5051814   0.1982731), wk =   0.0078125
        k(   70) = (   0.1250000  -0.5051814   0.2974096), wk =   0.0078125
        k(   71) = (   0.1250000  -0.5051813  -0.3965460), wk =   0.0078125
        k(   72) = (   0.1250000  -0.5051813  -0.2974094), wk =   0.0078125
        k(   73) = (   0.1250000  -0.5051813  -0.1982729), wk =   0.0078125
        k(   74) = (   0.1250000  -0.5051813  -0.0991364), wk =   0.0078125
        k(   75) = (   0.1250000  -0.3608438   0.0000000), wk =   0.0078125
        k(   76) = (   0.1250000  -0.3608439   0.0991366), wk =   0.0078125
        k(   77) = (   0.1250000  -0.3608439   0.1982731), wk =   0.0078125
        k(   78) = (   0.1250000  -0.3608439   0.2974096), wk =   0.0078125
        k(   79) = (   0.1250000  -0.3608437  -0.3965460), wk =   0.0078125
        k(   80) = (   0.1250000  -0.3608438  -0.2974095), wk =   0.0078125
        k(   81) = (   0.1250000  -0.3608438  -0.1982730), wk =   0.0078125
        k(   82) = (   0.1250000  -0.3608438  -0.0991365), wk =   0.0078125
        k(   83) = (   0.1250000  -0.2165063   0.0000000), wk =   0.0078125
        k(   84) = (   0.1250000  -0.2165063   0.0991365), wk =   0.0078125
        k(   85) = (   0.1250000  -0.2165063   0.1982730), wk =   0.0078125
        k(   86) = (   0.1250000  -0.2165064   0.2974095), wk =   0.0078125
        k(   87) = (   0.1250000  -0.2165062  -0.3965460), wk =   0.0078125
        k(   88) = (   0.1250000  -0.2165062  -0.2974095), wk =   0.0078125
        k(   89) = (   0.1250000  -0.2165063  -0.1982730), wk =   0.0078125
        k(   90) = (   0.1250000  -0.2165063  -0.0991365), wk =   0.0078125
        k(   91) = (   0.1250000  -0.0721688   0.0000000), wk =   0.0078125
        k(   92) = (   0.1250000  -0.0721688   0.0991365), wk =   0.0078125
        k(   93) = (   0.1250000  -0.0721688   0.1982730), wk =   0.0078125
        k(   94) = (   0.1250000  -0.0721688   0.2974095), wk =   0.0078125
        k(   95) = (   0.1250000  -0.0721687  -0.3965460), wk =   0.0078125
        k(   96) = (   0.1250000  -0.0721687  -0.2974095), wk =   0.0078125
        k(   97) = (   0.1250000  -0.0721687  -0.1982730), wk =   0.0078125
        k(   98) = (   0.1250000  -0.0721688  -0.0991365), wk =   0.0078125
        k(   99) = (   0.2500000   0.1443375   0.0000000), wk =   0.0078125
        k(  100) = (   0.2500000   0.1443375   0.0991365), wk =   0.0078125
        k(  101) = (   0.2500000   0.1443375   0.1982730), wk =   0.0078125
        k(  102) = (   0.2500000   0.1443375   0.2974095), wk =   0.0078125
        k(  103) = (   0.2500000   0.1443376  -0.3965460), wk =   0.0078125
        k(  104) = (   0.2500000   0.1443376  -0.2974095), wk =   0.0078125
        k(  105) = (   0.2500000   0.1443376  -0.1982730), wk =   0.0078125
        k(  106) = (   0.2500000   0.1443375  -0.0991365), wk =   0.0078125
        k(  107) = (   0.2500000   0.2886750  -0.0000000), wk =   0.0078125
        k(  108) = (   0.2500000   0.2886750   0.0991365), wk =   0.0078125
        k(  109) = (   0.2500000   0.2886750   0.1982730), wk =   0.0078125
        k(  110) = (   0.2500000   0.2886750   0.2974095), wk =   0.0078125
        k(  111) = (   0.2500000   0.2886751  -0.3965460), wk =   0.0078125
        k(  112) = (   0.2500000   0.2886751  -0.2974095), wk =   0.0078125
        k(  113) = (   0.2500000   0.2886751  -0.1982730), wk =   0.0078125
        k(  114) = (   0.2500000   0.2886751  -0.0991365), wk =   0.0078125
        k(  115) = (   0.2500000   0.4330126  -0.0000000), wk =   0.0078125
        k(  116) = (   0.2500000   0.4330126   0.0991365), wk =   0.0078125
        k(  117) = (   0.2500000   0.4330125   0.1982730), wk =   0.0078125
        k(  118) = (   0.2500000   0.4330125   0.2974095), wk =   0.0078125
        k(  119) = (   0.2499999   0.4330127  -0.3965460), wk =   0.0078125
        k(  120) = (   0.2500000   0.4330126  -0.2974095), wk =   0.0078125
        k(  121) = (   0.2500000   0.4330126  -0.1982730), wk =   0.0078125
        k(  122) = (   0.2500000   0.4330126  -0.0991365), wk =   0.0078125
        k(  123) = (   0.2500000   0.5773501  -0.0000000), wk =   0.0078125
        k(  124) = (   0.2500000   0.5773501   0.0991365), wk =   0.0078125
        k(  125) = (   0.2500000   0.5773501   0.1982730), wk =   0.0078125
        k(  126) = (   0.2500000   0.5773500   0.2974095), wk =   0.0078125
        k(  127) = (   0.2499999   0.5773502  -0.3965461), wk =   0.0078125
        k(  128) = (   0.2499999   0.5773502  -0.2974095), wk =   0.0078125
        k(  129) = (   0.2500000   0.5773501  -0.1982730), wk =   0.0078125
        k(  130) = (   0.2500000   0.5773501  -0.0991365), wk =   0.0078125
        k(  131) = (   0.2500000  -0.4330126   0.0000001), wk =   0.0078125
        k(  132) = (   0.2500000  -0.4330126   0.0991366), wk =   0.0078125
        k(  133) = (   0.2500000  -0.4330126   0.1982731), wk =   0.0078125
        k(  134) = (   0.2500000  -0.4330127   0.2974096), wk =   0.0078125
        k(  135) = (   0.2500000  -0.4330125  -0.3965459), wk =   0.0078125
        k(  136) = (   0.2500000  -0.4330125  -0.2974094), wk =   0.0078125
        k(  137) = (   0.2500000  -0.4330126  -0.1982729), wk =   0.0078125
        k(  138) = (   0.2500000  -0.4330126  -0.0991364), wk =   0.0078125
        k(  139) = (   0.2500000  -0.2886751   0.0000001), wk =   0.0078125
        k(  140) = (   0.2500000  -0.2886751   0.0991366), wk =   0.0078125
        k(  141) = (   0.2500000  -0.2886751   0.1982731), wk =   0.0078125
        k(  142) = (   0.2500000  -0.2886751   0.2974096), wk =   0.0078125
        k(  143) = (   0.2500000  -0.2886750  -0.3965460), wk =   0.0078125
        k(  144) = (   0.2500000  -0.2886750  -0.2974095), wk =   0.0078125
        k(  145) = (   0.2500000  -0.2886750  -0.1982730), wk =   0.0078125
        k(  146) = (   0.2500000  -0.2886751  -0.0991365), wk =   0.0078125
        k(  147) = (   0.2500000  -0.1443375   0.0000000), wk =   0.0078125
        k(  148) = (   0.2500000  -0.1443376   0.0991365), wk =   0.0078125
        k(  149) = (   0.2500000  -0.1443376   0.1982730), wk =   0.0078125
        k(  150) = (   0.2500000  -0.1443376   0.2974095), wk =   0.0078125
        k(  151) = (   0.2500000  -0.1443375  -0.3965460), wk =   0.0078125
        k(  152) = (   0.2500000  -0.1443375  -0.2974095), wk =   0.0078125
        k(  153) = (   0.2500000  -0.1443375  -0.1982730), wk =   0.0078125
        k(  154) = (   0.2500000  -0.1443375  -0.0991365), wk =   0.0078125
        k(  155) = (   0.2500000  -0.0000000   0.0000000), wk =   0.0078125
        k(  156) = (   0.2500000  -0.0000000   0.0991365), wk =   0.0078125
        k(  157) = (   0.2500000  -0.0000001   0.1982730), wk =   0.0078125
        k(  158) = (   0.2500000  -0.0000001   0.2974095), wk =   0.0078125
        k(  159) = (   0.2500000   0.0000001  -0.3965460), wk =   0.0078125
        k(  160) = (   0.2500000   0.0000000  -0.2974095), wk =   0.0078125
        k(  161) = (   0.2500000   0.0000000  -0.1982730), wk =   0.0078125
        k(  162) = (   0.2500000   0.0000000  -0.0991365), wk =   0.0078125
        k(  163) = (   0.3750000   0.2165063   0.0000000), wk =   0.0078125
        k(  164) = (   0.3750000   0.2165063   0.0991365), wk =   0.0078125
        k(  165) = (   0.3750000   0.2165062   0.1982730), wk =   0.0078125
        k(  166) = (   0.3750000   0.2165062   0.2974095), wk =   0.0078125
        k(  167) = (   0.3750000   0.2165064  -0.3965460), wk =   0.0078125
        k(  168) = (   0.3750000   0.2165063  -0.2974095), wk =   0.0078125
        k(  169) = (   0.3750000   0.2165063  -0.1982730), wk =   0.0078125
        k(  170) = (   0.3750000   0.2165063  -0.0991365), wk =   0.0078125
        k(  171) = (   0.3750000   0.3608438  -0.0000000), wk =   0.0078125
        k(  172) = (   0.3750000   0.3608438   0.0991365), wk =   0.0078125
        k(  173) = (   0.3750000   0.3608438   0.1982730), wk =   0.0078125
        k(  174) = (   0.3750000   0.3608437   0.2974095), wk =   0.0078125
        k(  175) = (   0.3750000   0.3608439  -0.3965460), wk =   0.0078125
        k(  176) = (   0.3750000   0.3608439  -0.2974095), wk =   0.0078125
        k(  177) = (   0.3750000   0.3608438  -0.1982730), wk =   0.0078125
        k(  178) = (   0.3750000   0.3608438  -0.0991365), wk =   0.0078125
        k(  179) = (   0.3750000   0.5051813  -0.0000000), wk =   0.0078125
        k(  180) = (   0.3750000   0.5051813   0.0991365), wk =   0.0078125
        k(  181) = (   0.3750000   0.5051813   0.1982730), wk =   0.0078125
        k(  182) = (   0.3750000   0.5051813   0.2974095), wk =   0.0078125
        k(  183) = (   0.3749999   0.5051814  -0.3965460), wk =   0.0078125
        k(  184) = (   0.3750000   0.5051814  -0.2974095), wk =   0.0078125
        k(  185) = (   0.3750000   0.5051814  -0.1982730), wk =   0.0078125
        k(  186) = (   0.3750000   0.5051814  -0.0991365), wk =   0.0078125
        k(  187) = (   0.3750000   0.6495189  -0.0000000), wk =   0.0078125
        k(  188) = (   0.3750000   0.6495188   0.0991365), wk =   0.0078125
        k(  189) = (   0.3750000   0.6495188   0.1982730), wk =   0.0078125
        k(  190) = (   0.3750000   0.6495188   0.2974095), wk =   0.0078125
        k(  191) = (   0.3749999   0.6495189  -0.3965460), wk =   0.0078125
        k(  192) = (   0.3749999   0.6495189  -0.2974095), wk =   0.0078125
        k(  193) = (   0.3750000   0.6495189  -0.1982730), wk =   0.0078125
        k(  194) = (   0.3750000   0.6495189  -0.0991365), wk =   0.0078125
        k(  195) = (   0.3750000  -0.3608438   0.0000001), wk =   0.0078125
        k(  196) = (   0.3750000  -0.3608439   0.0991366), wk =   0.0078125
        k(  197) = (   0.3750000  -0.3608439   0.1982731), wk =   0.0078125
        k(  198) = (   0.3750000  -0.3608439   0.2974096), wk =   0.0078125
        k(  199) = (   0.3750000  -0.3608438  -0.3965459), wk =   0.0078125
        k(  200) = (   0.3750000  -0.3608438  -0.2974094), wk =   0.0078125
        k(  201) = (   0.3750000  -0.3608438  -0.1982729), wk =   0.0078125
        k(  202) = (   0.3750000  -0.3608438  -0.0991364), wk =   0.0078125
        k(  203) = (   0.3750000  -0.2165063   0.0000001), wk =   0.0078125
        k(  204) = (   0.3750000  -0.2165063   0.0991366), wk =   0.0078125
        k(  205) = (   0.3750000  -0.2165064   0.1982731), wk =   0.0078125
        k(  206) = (   0.3750000  -0.2165064   0.2974096), wk =   0.0078125
        k(  207) = (   0.3750000  -0.2165062  -0.3965460), wk =   0.0078125
        k(  208) = (   0.3750000  -0.2165063  -0.2974095), wk =   0.0078125
        k(  209) = (   0.3750000  -0.2165063  -0.1982730), wk =   0.0078125
        k(  210) = (   0.3750000  -0.2165063  -0.0991364), wk =   0.0078125
        k(  211) = (   0.3750000  -0.0721688   0.0000000), wk =   0.0078125
        k(  212) = (   0.3750000  -0.0721688   0.0991365), wk =   0.0078125
        k(  213) = (   0.3750000  -0.0721688   0.1982730), wk =   0.0078125
        k(  214) = (   0.3750000  -0.0721688   0.2974095), wk =   0.0078125
        k(  215) = (   0.3750000  -0.0721687  -0.3965460), wk =   0.0078125
        k(  216) = (   0.3750000  -0.0721687  -0.2974095), wk =   0.0078125
        k(  217) = (   0.3750000  -0.0721687  -0.1982730), wk =   0.0078125
        k(  218) = (   0.3750000  -0.0721688  -0.0991365), wk =   0.0078125
        k(  219) = (   0.3750000   0.0721687   0.0000000), wk =   0.0078125
        k(  220) = (   0.3750000   0.0721687   0.0991365), wk =   0.0078125
        k(  221) = (   0.3750000   0.0721687   0.1982730), wk =   0.0078125
        k(  222) = (   0.3750000   0.0721687   0.2974095), wk =   0.0078125
        k(  223) = (   0.3750000   0.0721688  -0.3965460), wk =   0.0078125
        k(  224) = (   0.3750000   0.0721688  -0.2974095), wk =   0.0078125
        k(  225) = (   0.3750000   0.0721688  -0.1982730), wk =   0.0078125
        k(  226) = (   0.3750000   0.0721688  -0.0991365), wk =   0.0078125
        k(  227) = (  -0.5000000  -0.2886750  -0.0000000), wk =   0.0039062
        k(  228) = (  -0.5000000  -0.2886751   0.0991365), wk =   0.0078125
        k(  229) = (  -0.5000000  -0.2886751   0.1982730), wk =   0.0078125
        k(  230) = (  -0.5000000  -0.2886751   0.2974095), wk =   0.0078125
        k(  231) = (  -0.5000000  -0.2886749  -0.3965460), wk =   0.0039062
        k(  232) = (  -0.5000000  -0.1443375  -0.0000000), wk =   0.0078125
        k(  233) = (  -0.5000000  -0.1443375   0.0991365), wk =   0.0078125
        k(  234) = (  -0.5000000  -0.1443375   0.1982730), wk =   0.0078125
        k(  235) = (  -0.5000000  -0.1443376   0.2974095), wk =   0.0078125
        k(  236) = (  -0.5000000  -0.1443374  -0.3965460), wk =   0.0078125
        k(  237) = (  -0.5000000  -0.1443374  -0.2974095), wk =   0.0078125
        k(  238) = (  -0.5000000  -0.1443375  -0.1982730), wk =   0.0078125
        k(  239) = (  -0.5000000  -0.1443375  -0.0991365), wk =   0.0078125
        k(  240) = (  -0.5000000   0.0000000  -0.0000000), wk =   0.0078125
        k(  241) = (  -0.5000000   0.0000000   0.0991365), wk =   0.0078125
        k(  242) = (  -0.5000000  -0.0000000   0.1982730), wk =   0.0078125
        k(  243) = (  -0.5000000  -0.0000000   0.2974095), wk =   0.0078125
        k(  244) = (  -0.5000000   0.0000001  -0.3965461), wk =   0.0078125
        k(  245) = (  -0.5000000   0.0000001  -0.2974096), wk =   0.0078125
        k(  246) = (  -0.5000000   0.0000001  -0.1982730), wk =   0.0078125
        k(  247) = (  -0.5000000   0.0000000  -0.0991365), wk =   0.0078125
        k(  248) = (  -0.5000000   0.1443376  -0.0000001), wk =   0.0078125
        k(  249) = (  -0.5000000   0.1443375   0.0991364), wk =   0.0078125
        k(  250) = (  -0.5000000   0.1443375   0.1982729), wk =   0.0078125
        k(  251) = (  -0.5000000   0.1443375   0.2974095), wk =   0.0078125
        k(  252) = (  -0.5000000   0.1443376  -0.3965461), wk =   0.0078125
        k(  253) = (  -0.5000000   0.1443376  -0.2974096), wk =   0.0078125
        k(  254) = (  -0.5000000   0.1443376  -0.1982731), wk =   0.0078125
        k(  255) = (  -0.5000000   0.1443376  -0.0991366), wk =   0.0078125
        k(  256) = (  -0.5000000  -0.8660252   0.0000000), wk =   0.0039062
        k(  257) = (  -0.4999999  -0.8660252   0.0991365), wk =   0.0078125
        k(  258) = (  -0.4999999  -0.8660252   0.1982731), wk =   0.0078125
        k(  259) = (  -0.4999999  -0.8660252   0.2974096), wk =   0.0078125
        k(  260) = (  -0.5000000  -0.8660251  -0.3965460), wk =   0.0039062

                       cryst. coord.
        k(    1) = (   0.0000000   0.0000000   0.0000000), wk =   0.0039062
        k(    2) = (  -0.0000000   0.0000000   0.1250000), wk =   0.0078125
        k(    3) = (  -0.0000000   0.0000000   0.2500000), wk =   0.0078125
        k(    4) = (   0.0000000   0.0000000   0.3750000), wk =   0.0078125
        k(    5) = (   0.0000000  -0.0000000  -0.5000000), wk =   0.0039062
        k(    6) = (  -0.0000000   0.1250000   0.0000000), wk =   0.0078125
        k(    7) = (  -0.0000000   0.1250000   0.1250000), wk =   0.0078125
        k(    8) = (  -0.0000000   0.1250000   0.2500000), wk =   0.0078125
        k(    9) = (   0.0000000   0.1250000   0.3750000), wk =   0.0078125
        k(   10) = (  -0.0000000   0.1250000  -0.5000000), wk =   0.0078125
        k(   11) = (   0.0000000   0.1250000  -0.3750000), wk =   0.0078125
        k(   12) = (  -0.0000000   0.1250000  -0.2500000), wk =   0.0078125
        k(   13) = (   0.0000000   0.1250000  -0.1250000), wk =   0.0078125
        k(   14) = (  -0.0000000   0.2500000   0.0000000), wk =   0.0078125
        k(   15) = (   0.0000000   0.2500000   0.1250000), wk =   0.0078125
        k(   16) = (  -0.0000000   0.2500000   0.2500000), wk =   0.0078125
        k(   17) = (  -0.0000000   0.2500000   0.3750000), wk =   0.0078125
        k(   18) = (  -0.0000000   0.2500000  -0.5000000), wk =   0.0078125
        k(   19) = (   0.0000000   0.2500000  -0.3750000), wk =   0.0078125
        k(   20) = (   0.0000000   0.2500000  -0.2500000), wk =   0.0078125
        k(   21) = (  -0.0000000   0.2500000  -0.1250000), wk =   0.0078125
        k(   22) = (   0.0000000   0.3750000   0.0000000), wk =   0.0078125
        k(   23) = (   0.0000000   0.3750000   0.1250000), wk =   0.0078125
        k(   24) = (   0.0000000   0.3750000   0.2500000), wk =   0.0078125
        k(   25) = (   0.0000000   0.3750000   0.3750000), wk =   0.0078125
        k(   26) = (   0.0000000   0.3750000  -0.5000000), wk =   0.0078125
        k(   27) = (   0.0000000   0.3750000  -0.3750000), wk =   0.0078125
        k(   28) = (   0.0000000   0.3750000  -0.2500000), wk =   0.0078125
        k(   29) = (  -0.0000000   0.3750000  -0.1250000), wk =   0.0078125
        k(   30) = (   0.0000000  -0.5000000  -0.0000000), wk =   0.0039062
        k(   31) = (  -0.0000000  -0.5000000   0.1250000), wk =   0.0078125
        k(   32) = (   0.0000000  -0.5000000   0.2500000), wk =   0.0078125
        k(   33) = (   0.0000000  -0.5000000   0.3750000), wk =   0.0078125
        k(   34) = (   0.0000000  -0.5000000  -0.5000000), wk =   0.0039062
        k(   35) = (   0.1250000   0.0000000   0.0000000), wk =   0.0078125
        k(   36) = (   0.1250000   0.0000000   0.1250000), wk =   0.0078125
        k(   37) = (   0.1250000   0.0000000   0.2500000), wk =   0.0078125
        k(   38) = (   0.1250000   0.0000000   0.3750000), wk =   0.0078125
        k(   39) = (   0.1250000   0.0000000  -0.5000000), wk =   0.0078125
        k(   40) = (   0.1250000   0.0000000  -0.3750000), wk =   0.0078125
        k(   41) = (   0.1250000  -0.0000000  -0.2500000), wk =   0.0078125
        k(   42) = (   0.1250000  -0.0000000  -0.1250000), wk =   0.0078125
        k(   43) = (   0.1250000   0.1250000   0.0000000), wk =   0.0078125
        k(   44) = (   0.1250000   0.1250000   0.1250000), wk =   0.0078125
        k(   45) = (   0.1250000   0.1250000   0.2500000), wk =   0.0078125
        k(   46) = (   0.1250000   0.1250000   0.3750000), wk =   0.0078125
        k(   47) = (   0.1250000   0.1250000  -0.5000000), wk =   0.0078125
        k(   48) = (   0.1250000   0.1250000  -0.3750000), wk =   0.0078125
        k(   49) = (   0.1250000   0.1250000  -0.2500000), wk =   0.0078125
        k(   50) = (   0.1250000   0.1250000  -0.1250000), wk =   0.0078125
        k(   51) = (   0.1250000   0.2500000  -0.0000000), wk =   0.0078125
        k(   52) = (   0.1250000   0.2500000   0.1250000), wk =   0.0078125
        k(   53) = (   0.1250000   0.2500000   0.2500000), wk =   0.0078125
        k(   54) = (   0.1250000   0.2500000   0.3750000), wk =   0.0078125
        k(   55) = (   0.1250000   0.2500000  -0.5000000), wk =   0.0078125
        k(   56) = (   0.1250000   0.2500000  -0.3750000), wk =   0.0078125
        k(   57) = (   0.1250000   0.2500000  -0.2500000), wk =   0.0078125
        k(   58) = (   0.1250000   0.2500000  -0.1250000), wk =   0.0078125
        k(   59) = (   0.1250000   0.3750000   0.0000000), wk =   0.0078125
        k(   60) = (   0.1250000   0.3750000   0.1250000), wk =   0.0078125
        k(   61) = (   0.1250000   0.3750000   0.2500000), wk =   0.0078125
        k(   62) = (   0.1250000   0.3750000   0.3750000), wk =   0.0078125
        k(   63) = (   0.1250000   0.3750000  -0.5000000), wk =   0.0078125
        k(   64) = (   0.1250000   0.3750000  -0.3750000), wk =   0.0078125
        k(   65) = (   0.1250000   0.3750000  -0.2500000), wk =   0.0078125
        k(   66) = (   0.1250000   0.3750000  -0.1250000), wk =   0.0078125
        k(   67) = (   0.1250000  -0.5000000  -0.0000000), wk =   0.0078125
        k(   68) = (   0.1250000  -0.5000000   0.1250000), wk =   0.0078125
        k(   69) = (   0.1250000  -0.5000000   0.2500000), wk =   0.0078125
        k(   70) = (   0.1250000  -0.5000000   0.3750000), wk =   0.0078125
        k(   71) = (   0.1250000  -0.5000000  -0.5000000), wk =   0.0078125
        k(   72) = (   0.1250000  -0.5000000  -0.3750000), wk =   0.0078125
        k(   73) = (   0.1250000  -0.5000000  -0.2500000), wk =   0.0078125
        k(   74) = (   0.1250000  -0.5000000  -0.1250000), wk =   0.0078125
        k(   75) = (   0.1250000  -0.3750000  -0.0000000), wk =   0.0078125
        k(   76) = (   0.1250000  -0.3750000   0.1250000), wk =   0.0078125
        k(   77) = (   0.1250000  -0.3750000   0.2500000), wk =   0.0078125
        k(   78) = (   0.1250000  -0.3750000   0.3750000), wk =   0.0078125
        k(   79) = (   0.1250000  -0.3750000  -0.5000000), wk =   0.0078125
        k(   80) = (   0.1250000  -0.3750000  -0.3750000), wk =   0.0078125
        k(   81) = (   0.1250000  -0.3750000  -0.2500000), wk =   0.0078125
        k(   82) = (   0.1250000  -0.3750000  -0.1250000), wk =   0.0078125
        k(   83) = (   0.1250000  -0.2500000   0.0000000), wk =   0.0078125
        k(   84) = (   0.1250000  -0.2500000   0.1250000), wk =   0.0078125
        k(   85) = (   0.1250000  -0.2500000   0.2500000), wk =   0.0078125
        k(   86) = (   0.1250000  -0.2500000   0.3750000), wk =   0.0078125
        k(   87) = (   0.1250000  -0.2500000  -0.5000000), wk =   0.0078125
        k(   88) = (   0.1250000  -0.2500000  -0.3750000), wk =   0.0078125
        k(   89) = (   0.1250000  -0.2500000  -0.2500000), wk =   0.0078125
        k(   90) = (   0.1250000  -0.2500000  -0.1250000), wk =   0.0078125
        k(   91) = (   0.1250000  -0.1250000   0.0000000), wk =   0.0078125
        k(   92) = (   0.1250000  -0.1250000   0.1250000), wk =   0.0078125
        k(   93) = (   0.1250000  -0.1250000   0.2500000), wk =   0.0078125
        k(   94) = (   0.1250000  -0.1250000   0.3750000), wk =   0.0078125
        k(   95) = (   0.1250000  -0.1250000  -0.5000000), wk =   0.0078125
        k(   96) = (   0.1250000  -0.1250000  -0.3750000), wk =   0.0078125
        k(   97) = (   0.1250000  -0.1250000  -0.2500000), wk =   0.0078125
        k(   98) = (   0.1250000  -0.1250000  -0.1250000), wk =   0.0078125
        k(   99) = (   0.2500000   0.0000000   0.0000000), wk =   0.0078125
        k(  100) = (   0.2500000   0.0000000   0.1250000), wk =   0.0078125
        k(  101) = (   0.2500000   0.0000000   0.2500000), wk =   0.0078125
        k(  102) = (   0.2500000   0.0000000   0.3750000), wk =   0.0078125
        k(  103) = (   0.2500000  -0.0000000  -0.5000000), wk =   0.0078125
        k(  104) = (   0.2500000   0.0000000  -0.3750000), wk =   0.0078125
        k(  105) = (   0.2500000  -0.0000000  -0.2500000), wk =   0.0078125
        k(  106) = (   0.2500000   0.0000000  -0.1250000), wk =   0.0078125
        k(  107) = (   0.2500000   0.1250000  -0.0000000), wk =   0.0078125
        k(  108) = (   0.2500000   0.1250000   0.1250000), wk =   0.0078125
        k(  109) = (   0.2500000   0.1250000   0.2500000), wk =   0.0078125
        k(  110) = (   0.2500000   0.1250000   0.3750000), wk =   0.0078125
        k(  111) = (   0.2500000   0.1250000  -0.5000000), wk =   0.0078125
        k(  112) = (   0.2500000   0.1250000  -0.3750000), wk =   0.0078125
        k(  113) = (   0.2500000   0.1250000  -0.2500000), wk =   0.0078125
        k(  114) = (   0.2500000   0.1250000  -0.1250000), wk =   0.0078125
        k(  115) = (   0.2500000   0.2500000   0.0000000), wk =   0.0078125
        k(  116) = (   0.2500000   0.2500000   0.1250000), wk =   0.0078125
        k(  117) = (   0.2500000   0.2500000   0.2500000), wk =   0.0078125
        k(  118) = (   0.2500000   0.2500000   0.3750000), wk =   0.0078125
        k(  119) = (   0.2500000   0.2500000  -0.5000000), wk =   0.0078125
        k(  120) = (   0.2500000   0.2500000  -0.3750000), wk =   0.0078125
        k(  121) = (   0.2500000   0.2500000  -0.2500000), wk =   0.0078125
        k(  122) = (   0.2500000   0.2500000  -0.1250000), wk =   0.0078125
        k(  123) = (   0.2500000   0.3750000   0.0000000), wk =   0.0078125
        k(  124) = (   0.2500000   0.3750000   0.1250000), wk =   0.0078125
        k(  125) = (   0.2500000   0.3750000   0.2500000), wk =   0.0078125
        k(  126) = (   0.2500000   0.3750000   0.3750000), wk =   0.0078125
        k(  127) = (   0.2500000   0.3750000  -0.5000000), wk =   0.0078125
        k(  128) = (   0.2500000   0.3750000  -0.3750000), wk =   0.0078125
        k(  129) = (   0.2500000   0.3750000  -0.2500000), wk =   0.0078125
        k(  130) = (   0.2500000   0.3750000  -0.1250000), wk =   0.0078125
        k(  131) = (   0.2500000  -0.5000000   0.0000000), wk =   0.0078125
        k(  132) = (   0.2500000  -0.5000000   0.1250000), wk =   0.0078125
        k(  133) = (   0.2500000  -0.5000000   0.2500000), wk =   0.0078125
        k(  134) = (   0.2500000  -0.5000000   0.3750000), wk =   0.0078125
        k(  135) = (   0.2500000  -0.5000000  -0.5000000), wk =   0.0078125
        k(  136) = (   0.2500000  -0.5000000  -0.3750000), wk =   0.0078125
        k(  137) = (   0.2500000  -0.5000000  -0.2500000), wk =   0.0078125
        k(  138) = (   0.2500000  -0.5000000  -0.1250000), wk =   0.0078125
        k(  139) = (   0.2500000  -0.3750000  -0.0000000), wk =   0.0078125
        k(  140) = (   0.2500000  -0.3750000   0.1250000), wk =   0.0078125
        k(  141) = (   0.2500000  -0.3750000   0.2500000), wk =   0.0078125
        k(  142) = (   0.2500000  -0.3750000   0.3750000), wk =   0.0078125
        k(  143) = (   0.2500000  -0.3750000  -0.5000000), wk =   0.0078125
        k(  144) = (   0.2500000  -0.3750000  -0.3750000), wk =   0.0078125
        k(  145) = (   0.2500000  -0.3750000  -0.2500000), wk =   0.0078125
        k(  146) = (   0.2500000  -0.3750000  -0.1250000), wk =   0.0078125
        k(  147) = (   0.2500000  -0.2500000   0.0000000), wk =   0.0078125
        k(  148) = (   0.2500000  -0.2500000   0.1250000), wk =   0.0078125
        k(  149) = (   0.2500000  -0.2500000   0.2500000), wk =   0.0078125
        k(  150) = (   0.2500000  -0.2500000   0.3750000), wk =   0.0078125
        k(  151) = (   0.2500000  -0.2500000  -0.5000000), wk =   0.0078125
        k(  152) = (   0.2500000  -0.2500000  -0.3750000), wk =   0.0078125
        k(  153) = (   0.2500000  -0.2500000  -0.2500000), wk =   0.0078125
        k(  154) = (   0.2500000  -0.2500000  -0.1250000), wk =   0.0078125
        k(  155) = (   0.2500000  -0.1250000   0.0000000), wk =   0.0078125
        k(  156) = (   0.2500000  -0.1250000   0.1250000), wk =   0.0078125
        k(  157) = (   0.2500000  -0.1250000   0.2500000), wk =   0.0078125
        k(  158) = (   0.2500000  -0.1250000   0.3750000), wk =   0.0078125
        k(  159) = (   0.2500000  -0.1250000  -0.5000000), wk =   0.0078125
        k(  160) = (   0.2500000  -0.1250000  -0.3750000), wk =   0.0078125
        k(  161) = (   0.2500000  -0.1250000  -0.2500000), wk =   0.0078125
        k(  162) = (   0.2500000  -0.1250000  -0.1250000), wk =   0.0078125
        k(  163) = (   0.3750000   0.0000000   0.0000000), wk =   0.0078125
        k(  164) = (   0.3750000   0.0000000   0.1250000), wk =   0.0078125
        k(  165) = (   0.3750000   0.0000000   0.2500000), wk =   0.0078125
        k(  166) = (   0.3750000   0.0000000   0.3750000), wk =   0.0078125
        k(  167) = (   0.3750000   0.0000000  -0.5000000), wk =   0.0078125
        k(  168) = (   0.3750000   0.0000000  -0.3750000), wk =   0.0078125
        k(  169) = (   0.3750000   0.0000000  -0.2500000), wk =   0.0078125
        k(  170) = (   0.3750000   0.0000000  -0.1250000), wk =   0.0078125
        k(  171) = (   0.3750000   0.1250000   0.0000000), wk =   0.0078125
        k(  172) = (   0.3750000   0.1250000   0.1250000), wk =   0.0078125
        k(  173) = (   0.3750000   0.1250000   0.2500000), wk =   0.0078125
        k(  174) = (   0.3750000   0.1250000   0.3750000), wk =   0.0078125
        k(  175) = (   0.3750000   0.1250000  -0.5000000), wk =   0.0078125
        k(  176) = (   0.3750000   0.1250000  -0.3750000), wk =   0.0078125
        k(  177) = (   0.3750000   0.1250000  -0.2500000), wk =   0.0078125
        k(  178) = (   0.3750000   0.1250000  -0.1250000), wk =   0.0078125
        k(  179) = (   0.3750000   0.2500000   0.0000000), wk =   0.0078125
        k(  180) = (   0.3750000   0.2500000   0.1250000), wk =   0.0078125
        k(  181) = (   0.3750000   0.2500000   0.2500000), wk =   0.0078125
        k(  182) = (   0.3750000   0.2500000   0.3750000), wk =   0.0078125
        k(  183) = (   0.3750000   0.2500000  -0.5000000), wk =   0.0078125
        k(  184) = (   0.3750000   0.2500000  -0.3750000), wk =   0.0078125
        k(  185) = (   0.3750000   0.2500000  -0.2500000), wk =   0.0078125
        k(  186) = (   0.3750000   0.2500000  -0.1250000), wk =   0.0078125
        k(  187) = (   0.3750000   0.3750000   0.0000000), wk =   0.0078125
        k(  188) = (   0.3750000   0.3750000   0.1250000), wk =   0.0078125
        k(  189) = (   0.3750000   0.3750000   0.2500000), wk =   0.0078125
        k(  190) = (   0.3750000   0.3750000   0.3750000), wk =   0.0078125
        k(  191) = (   0.3750000   0.3750000  -0.5000000), wk =   0.0078125
        k(  192) = (   0.3750000   0.3750000  -0.3750000), wk =   0.0078125
        k(  193) = (   0.3750000   0.3750000  -0.2500000), wk =   0.0078125
        k(  194) = (   0.3750000   0.3750000  -0.1250000), wk =   0.0078125
        k(  195) = (   0.3750000  -0.5000000   0.0000000), wk =   0.0078125
        k(  196) = (   0.3750000  -0.5000000   0.1250000), wk =   0.0078125
        k(  197) = (   0.3750000  -0.5000000   0.2500000), wk =   0.0078125
        k(  198) = (   0.3750000  -0.5000000   0.3750000), wk =   0.0078125
        k(  199) = (   0.3750000  -0.5000000  -0.5000000), wk =   0.0078125
        k(  200) = (   0.3750000  -0.5000000  -0.3750000), wk =   0.0078125
        k(  201) = (   0.3750000  -0.5000000  -0.2500000), wk =   0.0078125
        k(  202) = (   0.3750000  -0.5000000  -0.1250000), wk =   0.0078125
        k(  203) = (   0.3750000  -0.3750000  -0.0000000), wk =   0.0078125
        k(  204) = (   0.3750000  -0.3750000   0.1250000), wk =   0.0078125
        k(  205) = (   0.3750000  -0.3750000   0.2500000), wk =   0.0078125
        k(  206) = (   0.3750000  -0.3750000   0.3750000), wk =   0.0078125
        k(  207) = (   0.3750000  -0.3750000  -0.5000000), wk =   0.0078125
        k(  208) = (   0.3750000  -0.3750000  -0.3750000), wk =   0.0078125
        k(  209) = (   0.3750000  -0.3750000  -0.2500000), wk =   0.0078125
        k(  210) = (   0.3750000  -0.3750000  -0.1250000), wk =   0.0078125
        k(  211) = (   0.3750000  -0.2500000   0.0000000), wk =   0.0078125
        k(  212) = (   0.3750000  -0.2500000   0.1250000), wk =   0.0078125
        k(  213) = (   0.3750000  -0.2500000   0.2500000), wk =   0.0078125
        k(  214) = (   0.3750000  -0.2500000   0.3750000), wk =   0.0078125
        k(  215) = (   0.3750000  -0.2500000  -0.5000000), wk =   0.0078125
        k(  216) = (   0.3750000  -0.2500000  -0.3750000), wk =   0.0078125
        k(  217) = (   0.3750000  -0.2500000  -0.2500000), wk =   0.0078125
        k(  218) = (   0.3750000  -0.2500000  -0.1250000), wk =   0.0078125
        k(  219) = (   0.3750000  -0.1250000   0.0000000), wk =   0.0078125
        k(  220) = (   0.3750000  -0.1250000   0.1250000), wk =   0.0078125
        k(  221) = (   0.3750000  -0.1250000   0.2500000), wk =   0.0078125
        k(  222) = (   0.3750000  -0.1250000   0.3750000), wk =   0.0078125
        k(  223) = (   0.3750000  -0.1250000  -0.5000000), wk =   0.0078125
        k(  224) = (   0.3750000  -0.1250000  -0.3750000), wk =   0.0078125
        k(  225) = (   0.3750000  -0.1250000  -0.2500000), wk =   0.0078125
        k(  226) = (   0.3750000  -0.1250000  -0.1250000), wk =   0.0078125
        k(  227) = (  -0.5000000  -0.0000000  -0.0000000), wk =   0.0039062
        k(  228) = (  -0.5000000  -0.0000000   0.1250000), wk =   0.0078125
        k(  229) = (  -0.5000000  -0.0000000   0.2500000), wk =   0.0078125
        k(  230) = (  -0.5000000  -0.0000000   0.3750000), wk =   0.0078125
        k(  231) = (  -0.5000000  -0.0000000  -0.5000000), wk =   0.0039062
        k(  232) = (  -0.5000000   0.1250000  -0.0000000), wk =   0.0078125
        k(  233) = (  -0.5000000   0.1250000   0.1250000), wk =   0.0078125
        k(  234) = (  -0.5000000   0.1250000   0.2500000), wk =   0.0078125
        k(  235) = (  -0.5000000   0.1250000   0.3750000), wk =   0.0078125
        k(  236) = (  -0.5000000   0.1250000  -0.5000000), wk =   0.0078125
        k(  237) = (  -0.5000000   0.1250000  -0.3750000), wk =   0.0078125
        k(  238) = (  -0.5000000   0.1250000  -0.2500000), wk =   0.0078125
        k(  239) = (  -0.5000000   0.1250000  -0.1250000), wk =   0.0078125
        k(  240) = (  -0.5000000   0.2500000  -0.0000000), wk =   0.0078125
        k(  241) = (  -0.5000000   0.2500000   0.1250000), wk =   0.0078125
        k(  242) = (  -0.5000000   0.2500000   0.2500000), wk =   0.0078125
        k(  243) = (  -0.5000000   0.2500000   0.3750000), wk =   0.0078125
        k(  244) = (  -0.5000000   0.2500000  -0.5000000), wk =   0.0078125
        k(  245) = (  -0.5000000   0.2500000  -0.3750000), wk =   0.0078125
        k(  246) = (  -0.5000000   0.2500000  -0.2500000), wk =   0.0078125
        k(  247) = (  -0.5000000   0.2500000  -0.1250000), wk =   0.0078125
        k(  248) = (  -0.5000000   0.3750000   0.0000000), wk =   0.0078125
        k(  249) = (  -0.5000000   0.3750000   0.1250000), wk =   0.0078125
        k(  250) = (  -0.5000000   0.3750000   0.2500000), wk =   0.0078125
        k(  251) = (  -0.5000000   0.3750000   0.3750000), wk =   0.0078125
        k(  252) = (  -0.5000000   0.3750000  -0.5000000), wk =   0.0078125
        k(  253) = (  -0.5000000   0.3750000  -0.3750000), wk =   0.0078125
        k(  254) = (  -0.5000000   0.3750000  -0.2500000), wk =   0.0078125
        k(  255) = (  -0.5000000   0.3750000  -0.1250000), wk =   0.0078125
        k(  256) = (  -0.5000000  -0.5000000  -0.0000000), wk =   0.0039062
        k(  257) = (  -0.5000000  -0.5000000   0.1250000), wk =   0.0078125
        k(  258) = (  -0.5000000  -0.5000000   0.2500000), wk =   0.0078125
        k(  259) = (  -0.5000000  -0.5000000   0.3750000), wk =   0.0078125
        k(  260) = (  -0.5000000  -0.5000000  -0.5000000), wk =   0.0039062

     Dense  grid:    75305 G-vectors     FFT dimensions: (  54,  54,  72)

     Smooth grid:    29333 G-vectors     FFT dimensions: (  40,  40,  48)

     Dynamical RAM for                 wfc:       0.06 MB

     Dynamical RAM for     wfc (w. buffer):       3.69 MB

     Dynamical RAM for           str. fact:       0.14 MB

     Dynamical RAM for           local pot:       0.00 MB

     Dynamical RAM for          nlocal pot:       0.22 MB

     Dynamical RAM for                qrad:       5.44 MB

     Dynamical RAM for          rho,v,vnew:       0.55 MB

     Dynamical RAM for               rhoin:       0.18 MB

     Dynamical RAM for            rho*nmix:       1.15 MB

     Dynamical RAM for           G-vectors:       0.28 MB

     Dynamical RAM for          h,s,v(r/c):       0.05 MB

     Dynamical RAM for          <psi|beta>:       0.02 MB

     Dynamical RAM for                 psi:       0.22 MB

     Dynamical RAM for                hpsi:       0.22 MB

     Dynamical RAM for                spsi:       0.22 MB

     Dynamical RAM for      wfcinit/wfcrot:       0.13 MB

     Dynamical RAM for           addusdens:       3.77 MB

     Dynamical RAM for          addusforce:       3.91 MB

     Dynamical RAM for         addusstress:       3.98 MB

     Estimated static dynamical RAM per process >      12.44 MB

     Estimated max dynamical RAM per process >      16.42 MB

     Estimated total dynamical RAM >       1.03 GB

     Check: negative core charge=   -0.000003

     Initial potential from superposition of free atoms

     starting charge   31.39954, renormalised to   32.00000
     Starting wfcs are   18 randomized atomic wfcs

     total cpu time spent up to now is        0.9 secs

     Self-consistent Calculation

     iteration #  1     ecut=    80.00 Ry     beta= 0.50
     Davidson diagonalization with overlap
     ethr =  1.00E-02,  avg # of iterations =  2.0

     total cpu time spent up to now is        1.5 secs

     total energy              =    -314.91993184 Ry
     Harris-Foulkes estimate   =    -315.46139352 Ry
     estimated scf accuracy    <       0.85313861 Ry

     iteration #  2     ecut=    80.00 Ry     beta= 0.50
     Davidson diagonalization with overlap
     ethr =  2.67E-03,  avg # of iterations =  2.7

     total cpu time spent up to now is        2.3 secs

     total energy              =    -315.14742557 Ry
     Harris-Foulkes estimate   =    -315.24683384 Ry
     estimated scf accuracy    <       0.22855373 Ry

     iteration #  3     ecut=    80.00 Ry     beta= 0.50
     Davidson diagonalization with overlap
     ethr =  7.14E-04,  avg # of iterations =  2.0

     total cpu time spent up to now is        3.0 secs

     total energy              =    -315.18587795 Ry
     Harris-Foulkes estimate   =    -315.18884480 Ry
     estimated scf accuracy    <       0.00916408 Ry

     iteration #  4     ecut=    80.00 Ry     beta= 0.50
     Davidson diagonalization with overlap
     ethr =  2.86E-05,  avg # of iterations =  1.9

     total cpu time spent up to now is        3.6 secs

     total energy              =    -315.18640328 Ry
     Harris-Foulkes estimate   =    -315.18645654 Ry
     estimated scf accuracy    <       0.00050413 Ry

     iteration #  5     ecut=    80.00 Ry     beta= 0.50
     Davidson diagonalization with overlap
     ethr =  1.58E-06,  avg # of iterations =  2.0

     total cpu time spent up to now is        4.2 secs

     total energy              =    -315.18646095 Ry
     Harris-Foulkes estimate   =    -315.18647248 Ry
     estimated scf accuracy    <       0.00003919 Ry

     iteration #  6     ecut=    80.00 Ry     beta= 0.50
     Davidson diagonalization with overlap
     ethr =  1.22E-07,  avg # of iterations =  2.5

     total cpu time spent up to now is        5.0 secs

     total energy              =    -315.18647116 Ry
     Harris-Foulkes estimate   =    -315.18647096 Ry
     estimated scf accuracy    <       0.00000228 Ry

     iteration #  7     ecut=    80.00 Ry     beta= 0.50
     Davidson diagonalization with overlap
     ethr =  7.13E-09,  avg # of iterations =  2.0

     total cpu time spent up to now is        5.6 secs

     End of self-consistent calculation

          k = 0.0000 0.0000 0.0000 (  3647 PWs)   bands (ev):

   -66.3196 -66.3094 -33.3386 -33.2993 -33.2993 -33.2776 -33.2776 -33.2689
   -11.1345  -9.8575   1.9346   3.9700   3.9701   4.7456   4.7456   5.5890

     occupation numbers 
     1.0000   1.0000   1.0000   1.0000   1.0000   1.0000   1.0000   1.0000
     1.0000   1.0000   1.0000   1.0000   1.0000   1.0000   1.0000   1.0000

          k = 0.0000-0.0000 0.0991 (  3647 PWs)   bands (ev):

   -66.3193 -66.3098 -33.3361 -33.2985 -33.2985 -33.2785 -33.2785 -33.2718
   -11.0868  -9.9065   2.0123   3.9974   3.9975   4.7140   4.7140   5.2875

     occupation numbers 
     1.0000   1.0000   1.0000   1.0000   1.0000   1.0000   1.0000   1.0000
     1.0000   1.0000   1.0000   1.0000   1.0000   1.0000   1.0000   1.0000

          k = 0.0000-0.0000 0.1983 (  3701 PWs)   bands (ev):

   -66.3181 -66.3109 -33.3291 -33.2961 -33.2961 -33.2808 -33.2808 -33.2798
   -10.9503 -10.0461   2.2485   4.0763   4.0764   4.6220   4.6247   4.6247

     occupation numbers 
     1.0000   1.0000   1.0000   1.0000   1.0000   1.0000   1.0000   1.0000
     1.0000   1.0000   1.0000   1.0000   1.0000   1.0000   1.0000   1.0000

          k = 0.0000-0.0000 0.2974 (  3714 PWs)   bands (ev):

   -66.3165 -66.3125 -33.3183 -33.2926 -33.2926 -33.2916 -33.2843 -33.2843
   -10.7447 -10.2549   2.6471   3.8807   4.1970   4.1970   4.4937   4.4937

     occupation numbers 
     1.0000   1.0000   1.0000   1.0000   1.0000   1.0000   1.0000   1.0000
     1.0000   1.0000   1.0000   1.0000   1.0000   1.0000   1.0000   1.0000

          k =-0.0000 0.0000-0.3965 (  3684 PWs)   bands (ev):

   -66.3145 -66.3145 -33.3052 -33.3051 -33.2885 -33.2885 -33.2884 -33.2884
   -10.5009 -10.5002   3.2007   3.2011   4.3429   4.3429   4.3435   4.3435

     occupation numbers 
     1.0000   1.0000   1.0000   1.0000   1.0000   1.0000   1.0000   1.0000
     1.0000   1.0000   1.0000   1.0000   1.0000   1.0000   1.0000   1.0000

          k =-0.0000 0.1443-0.0000 (  3654 PWs)   bands (ev):

   -66.3192 -66.3096 -33.3361 -33.3016 -33.3006 -33.2809 -33.2776 -33.2710
   -11.0544  -9.8591   2.0619   3.6929   3.8564   4.3611   4.8019   5.4758

     occupation numbers 
     1.0000   1.0000   1.0000   1.0000   1.0000   1.0000   1.0000   1.0000
     1.0000   1.0000   1.0000   1.0000   1.0000   1.0000   1.0000   1.0000

          k =-0.0000 0.1443 0.0991 (  3645 PWs)   bands (ev):

   -66.3188 -66.3100 -33.3344 -33.3002 -33.2997 -33.2836 -33.2784 -33.2717
   -11.0088  -9.9037   2.1070   3.7425   3.8888   4.2525   4.7619   5.3467

     occupation numbers 
     1.0000   1.0000   1.0000   1.0000   1.0000   1.0000   1.0000   1.0000
     1.0000   1.0000   1.0000   1.0000   1.0000   1.0000   1.0000   1.0000

          k = 0.0000 0.1443 0.1983 (  3666 PWs)   bands (ev):

   -66.3178 -66.3110 -33.3293 -33.2972 -33.2965 -33.2907 -33.2809 -33.2743
   -10.8787 -10.0315   2.2542   3.7782   3.9826   4.0420   4.6501   5.0659

     occupation numbers 
     1.0000   1.0000   1.0000   1.0000   1.0000   1.0000   1.0000   1.0000
     1.0000   1.0000   1.0000   1.0000   1.0000   1.0000   1.0000   1.0000

          k = 0.0000 0.1443 0.2974 (  3685 PWs)   bands (ev):

   -66.3162 -66.3125 -33.3214 -33.3007 -33.2935 -33.2909 -33.2847 -33.2789
   -10.6837 -10.2245   2.5240   3.3863   4.1269   4.1973   4.4878   4.7612

     occupation numbers 
     1.0000   1.0000   1.0000   1.0000   1.0000   1.0000   1.0000   1.0000
     1.0000   1.0000   1.0000   1.0000   1.0000   1.0000   1.0000   1.0000

          k =-0.0000 0.1443-0.3965 (  3690 PWs)   bands (ev):

   -66.3144 -66.3144 -33.3114 -33.3114 -33.2891 -33.2890 -33.2847 -33.2847
   -10.4540 -10.4534   2.9160   2.9162   4.3033   4.3040   4.4658   4.4662

     occupation numbers 
     1.0000   1.0000   1.0000   1.0000   1.0000   1.0000   1.0000   1.0000
     1.0000   1.0000   1.0000   1.0000   1.0000   1.0000   1.0000   1.0000

          k =-0.0000 0.1443-0.2974 (  3685 PWs)   bands (ev):

   -66.3162 -66.3125 -33.3214 -33.3007 -33.2935 -33.2909 -33.2847 -33.2789
   -10.6837 -10.2245   2.5240   3.3863   4.1269   4.1973   4.4878   4.7612

     occupation numbers 
     1.0000   1.0000   1.0000   1.0000   1.0000   1.0000   1.0000   1.0000
     1.0000   1.0000   1.0000   1.0000   1.0000   1.0000   1.0000   1.0000

          k =-0.0000 0.1443-0.1983 (  3666 PWs)   bands (ev):

   -66.3178 -66.3110 -33.3293 -33.2972 -33.2965 -33.2907 -33.2809 -33.2743
   -10.8787 -10.0315   2.2542   3.7782   3.9826   4.0420   4.6501   5.0659

     occupation numbers 
     1.0000   1.0000   1.0000   1.0000   1.0000   1.0000   1.0000   1.0000
     1.0000   1.0000   1.0000   1.0000   1.0000   1.0000   1.0000   1.0000

          k =-0.0000 0.1443-0.0991 (  3645 PWs)   bands (ev):

   -66.3188 -66.3100 -33.3344 -33.3002 -33.2997 -33.2836 -33.2784 -33.2717
   -11.0088  -9.9037   2.1070   3.7425   3.8888   4.2525   4.7619   5.3467

     occupation numbers 
     1.0000   1.0000   1.0000   1.0000   1.0000   1.0000   1.0000   1.0000
     1.0000   1.0000   1.0000   1.0000   1.0000   1.0000   1.0000   1.0000

          k =-0.0000 0.2887-0.0000 (  3664 PWs)   bands (ev):

   -66.3179 -66.3103 -33.3292 -33.3069 -33.3036 -33.2889 -33.2776 -33.2767
   -10.8410  -9.8800   2.4186   2.9478   3.6355   3.8736   4.8861   5.1456

     occupation numbers 
     1.0000   1.0000   1.0000   1.0000   1.0000   1.0000   1.0000   1.0000
     1.0000   1.0000   1.0000   1.0000   1.0000   1.0000   1.0000   1.0000

          k =-0.0000 0.2887 0.0991 (  3674 PWs)   bands (ev):

   -66.3176 -66.3105 -33.3301 -33.3037 -33.3026 -33.2937 -33.2786 -33.2746
   -10.8017  -9.9126   2.3050   3.0757   3.6764   3.7896   4.8303   5.1635

     occupation numbers 
     1.0000   1.0000   1.0000   1.0000   1.0000   1.0000   1.0000   1.0000
     1.0000   1.0000   1.0000   1.0000   1.0000   1.0000   1.0000   1.0000

          k =-0.0000 0.2887 0.1983 (  3679 PWs)   bands (ev):

   -66.3168 -66.3114 -33.3305 -33.3040 -33.2998 -33.2954 -33.2814 -33.2731
   -10.6907 -10.0080   2.1851   3.0206   3.7954   3.8730   4.6757   5.1265

     occupation numbers 
     1.0000   1.0000   1.0000   1.0000   1.0000   1.0000   1.0000   1.0000
     1.0000   1.0000   1.0000   1.0000   1.0000   1.0000   1.0000   1.0000

          k = 0.0000 0.2887 0.2974 (  3679 PWs)   bands (ev):

   -66.3155 -66.3126 -33.3281 -33.3138 -33.2956 -33.2871 -33.2856 -33.2748
   -10.5270 -10.1562   2.2024   2.6899   3.9805   4.2358   4.4554   4.9445

     occupation numbers 
     1.0000   1.0000   1.0000   1.0000   1.0000   1.0000   1.0000   1.0000
     1.0000   1.0000   1.0000   1.0000   1.0000   1.0000   1.0000   1.0000

          k =-0.0000 0.2887-0.3965 (  3670 PWs)   bands (ev):

   -66.3141 -66.3141 -33.3224 -33.3224 -33.2906 -33.2905 -33.2797 -33.2797
   -10.3388 -10.3381   2.3811   2.3811   4.2104   4.2111   4.6273   4.6273

     occupation numbers 
     1.0000   1.0000   1.0000   1.0000   1.0000   1.0000   1.0000   1.0000
     1.0000   1.0000   1.0000   1.0000   1.0000   1.0000   1.0000   1.0000

          k =-0.0000 0.2887-0.2974 (  3679 PWs)   bands (ev):

   -66.3155 -66.3126 -33.3281 -33.3138 -33.2956 -33.2871 -33.2856 -33.2748
   -10.5270 -10.1562   2.2024   2.6899   3.9805   4.2358   4.4554   4.9445

     occupation numbers 
     1.0000   1.0000   1.0000   1.0000   1.0000   1.0000   1.0000   1.0000
     1.0000   1.0000   1.0000   1.0000   1.0000   1.0000   1.0000   1.0000

          k =-0.0000 0.2887-0.1983 (  3679 PWs)   bands (ev):

   -66.3168 -66.3114 -33.3305 -33.3040 -33.2998 -33.2954 -33.2814 -33.2731
   -10.6907 -10.0080   2.1851   3.0206   3.7954   3.8730   4.6757   5.1265

     occupation numbers 
     1.0000   1.0000   1.0000   1.0000   1.0000   1.0000   1.0000   1.0000
     1.0000   1.0000   1.0000   1.0000   1.0000   1.0000   1.0000   1.0000

          k =-0.0000 0.2887-0.0991 (  3674 PWs)   bands (ev):

   -66.3176 -66.3105 -33.3301 -33.3037 -33.3026 -33.2937 -33.2786 -33.2746
   -10.8017  -9.9126   2.3050   3.0757   3.6764   3.7896   4.8303   5.1635

     occupation numbers 
     1.0000   1.0000   1.0000   1.0000   1.0000   1.0000   1.0000   1.0000
     1.0000   1.0000   1.0000   1.0000   1.0000   1.0000   1.0000   1.0000

          k =-0.0000 0.4330-0.0000 (  3658 PWs)   bands (ev):

   -66.3163 -66.3113 -33.3207 -33.3116 -33.3065 -33.2968 -33.2848 -33.2777
   -10.5751  -9.9491   2.2604   2.9342   3.4544   3.5625   4.6713   4.9335

     occupation numbers 
     1.0000   1.0000   1.0000   1.0000   1.0000   1.0000   1.0000   1.0000
     1.0000   1.0000   1.0000   1.0000   1.0000   1.0000   1.0000   1.0000

          k =-0.0000 0.4330 0.0991 (  3675 PWs)   bands (ev):

   -66.3161 -66.3115 -33.3265 -33.3059 -33.3054 -33.3019 -33.2800 -33.2788
   -10.5457  -9.9661   2.1055   2.9692   3.5012   3.5213   4.8209   4.8648

     occupation numbers 
     1.0000   1.0000   1.0000   1.0000   1.0000   1.0000   1.0000   1.0000
     1.0000   1.0000   1.0000   1.0000   1.0000   1.0000   1.0000   1.0000

          k =-0.0000 0.4330 0.1983 (  3670 PWs)   bands (ev):

   -66.3156 -66.3120 -33.3323 -33.3149 -33.3022 -33.2928 -33.2819 -33.2750
   -10.4639 -10.0180   1.9014   2.6371   3.6379   3.8448   4.6762   4.9971

     occupation numbers 
     1.0000   1.0000   1.0000   1.0000   1.0000   1.0000   1.0000   1.0000
     1.0000   1.0000   1.0000   1.0000   1.0000   1.0000   1.0000   1.0000

          k =-0.0000 0.4330 0.2974 (  3669 PWs)   bands (ev):

   -66.3147 -66.3128 -33.3341 -33.3247 -33.2976 -33.2866 -33.2833 -33.2737
   -10.3473 -10.1047   1.8305   2.2288   3.8521   4.3029   4.4111   4.9678

     occupation numbers 
     1.0000   1.0000   1.0000   1.0000   1.0000   1.0000   1.0000   1.0000
     1.0000   1.0000   1.0000   1.0000   1.0000   1.0000   1.0000   1.0000

          k =-0.0000 0.4330-0.3965 (  3672 PWs)   bands (ev):

   -66.3138 -66.3138 -33.3315 -33.3315 -33.2921 -33.2920 -33.2766 -33.2766
   -10.2202 -10.2195   1.9411   1.9412   4.1209   4.1215   4.7112   4.7113

     occupation numbers 
     1.0000   1.0000   1.0000   1.0000   1.0000   1.0000   1.0000   1.0000
     1.0000   1.0000   1.0000   1.0000   1.0000   1.0000   1.0000   1.0000

          k =-0.0000 0.4330-0.2974 (  3669 PWs)   bands (ev):

   -66.3147 -66.3128 -33.3341 -33.3247 -33.2976 -33.2866 -33.2833 -33.2737
   -10.3473 -10.1047   1.8305   2.2288   3.8521   4.3029   4.4111   4.9678

     occupation numbers 
     1.0000   1.0000   1.0000   1.0000   1.0000   1.0000   1.0000   1.0000
     1.0000   1.0000   1.0000   1.0000   1.0000   1.0000   1.0000   1.0000

          k =-0.0000 0.4330-0.1983 (  3670 PWs)   bands (ev):

   -66.3156 -66.3120 -33.3323 -33.3149 -33.3022 -33.2928 -33.2819 -33.2750
   -10.4639 -10.0180   1.9014   2.6371   3.6379   3.8448   4.6762   4.9971

     occupation numbers 
     1.0000   1.0000   1.0000   1.0000   1.0000   1.0000   1.0000   1.0000
     1.0000   1.0000   1.0000   1.0000   1.0000   1.0000   1.0000   1.0000

          k =-0.0000 0.4330-0.0991 (  3675 PWs)   bands (ev):

   -66.3161 -66.3115 -33.3265 -33.3059 -33.3054 -33.3019 -33.2800 -33.2788
   -10.5457  -9.9661   2.1055   2.9692   3.5012   3.5213   4.8209   4.8648

     occupation numbers 
     1.0000   1.0000   1.0000   1.0000   1.0000   1.0000   1.0000   1.0000
     1.0000   1.0000   1.0000   1.0000   1.0000   1.0000   1.0000   1.0000

          k = 0.0000-0.5774 0.0000 (  3662 PWs)   bands (ev):

   -66.3154 -66.3120 -33.3178 -33.3111 -33.3076 -33.3003 -33.2897 -33.2778
   -10.4227 -10.0186   2.0070   3.2756   3.3866   3.4422   4.3510   4.9467

     occupation numbers 
     1.0000   1.0000   1.0000   1.0000   1.0000   1.0000   1.0000   1.0000
     1.0000   1.0000   1.0000   1.0000   1.0000   1.0000   1.0000   1.0000

          k = 0.0000-0.5774 0.0991 (  3664 PWs)   bands (ev):

   -66.3152 -66.3121 -33.3255 -33.3082 -33.3064 -33.3020 -33.2834 -33.2789
   -10.4004 -10.0260   1.8989   3.0994   3.4355   3.4635   4.6133   4.8733

     occupation numbers 
     1.0000   1.0000   1.0000   1.0000   1.0000   1.0000   1.0000   1.0000
     1.0000   1.0000   1.0000   1.0000   1.0000   1.0000   1.0000   1.0000

          k = 0.0000-0.5774 0.1983 (  3658 PWs)   bands (ev):

   -66.3149 -66.3125 -33.3330 -33.3195 -33.3032 -33.2908 -33.2822 -33.2768
   -10.3394 -10.0511   1.7276   2.5499   3.5783   3.8761   4.6722   4.9094

     occupation numbers 
     1.0000   1.0000   1.0000   1.0000   1.0000   1.0000   1.0000   1.0000
     1.0000   1.0000   1.0000   1.0000   1.0000   1.0000   1.0000   1.0000

          k = 0.0000-0.5774 0.2974 (  3662 PWs)   bands (ev):

   -66.3143 -66.3130 -33.3364 -33.3290 -33.2984 -33.2870 -33.2815 -33.2739
   -10.2557 -10.0987   1.6625   2.0802   3.8024   4.3374   4.3910   4.9544

     occupation numbers 
     1.0000   1.0000   1.0000   1.0000   1.0000   1.0000   1.0000   1.0000
     1.0000   1.0000   1.0000   1.0000   1.0000   1.0000   1.0000   1.0000

          k = 0.0000-0.5774-0.3965 (  3672 PWs)   bands (ev):

   -66.3137 -66.3136 -33.3350 -33.3350 -33.2927 -33.2926 -33.2756 -33.2756
   -10.1700 -10.1693   1.7747   1.7749   4.0847   4.0853   4.7337   4.7339

     occupation numbers 
     1.0000   1.0000   1.0000   1.0000   1.0000   1.0000   1.0000   1.0000
     1.0000   1.0000   1.0000   1.0000   1.0000   1.0000   1.0000   1.0000

          k = 0.1250 0.0722 0.0000 (  3654 PWs)   bands (ev):

   -66.3192 -66.3096 -33.3361 -33.3016 -33.3006 -33.2809 -33.2776 -33.2710
   -11.0544  -9.8591   2.0619   3.6929   3.8564   4.3611   4.8019   5.4758

     occupation numbers 
     1.0000   1.0000   1.0000   1.0000   1.0000   1.0000   1.0000   1.0000
     1.0000   1.0000   1.0000   1.0000   1.0000   1.0000   1.0000   1.0000

          k = 0.1250 0.0722 0.0991 (  3645 PWs)   bands (ev):

   -66.3188 -66.3100 -33.3344 -33.3002 -33.2997 -33.2836 -33.2784 -33.2717
   -11.0088  -9.9037   2.1070   3.7425   3.8888   4.2525   4.7619   5.3467

     occupation numbers 
     1.0000   1.0000   1.0000   1.0000   1.0000   1.0000   1.0000   1.0000
     1.0000   1.0000   1.0000   1.0000   1.0000   1.0000   1.0000   1.0000

          k = 0.1250 0.0722 0.1983 (  3666 PWs)   bands (ev):

   -66.3178 -66.3110 -33.3293 -33.2972 -33.2965 -33.2907 -33.2809 -33.2743
   -10.8787 -10.0315   2.2542   3.7782   3.9826   4.0420   4.6501   5.0659

     occupation numbers 
     1.0000   1.0000   1.0000   1.0000   1.0000   1.0000   1.0000   1.0000
     1.0000   1.0000   1.0000   1.0000   1.0000   1.0000   1.0000   1.0000

          k = 0.1250 0.0722 0.2974 (  3685 PWs)   bands (ev):

   -66.3162 -66.3125 -33.3214 -33.3007 -33.2935 -33.2909 -33.2847 -33.2789
   -10.6837 -10.2245   2.5240   3.3863   4.1269   4.1973   4.4878   4.7612

     occupation numbers 
     1.0000   1.0000   1.0000   1.0000   1.0000   1.0000   1.0000   1.0000
     1.0000   1.0000   1.0000   1.0000   1.0000   1.0000   1.0000   1.0000

          k = 0.1250 0.0722-0.3965 (  3690 PWs)   bands (ev):

   -66.3144 -66.3144 -33.3114 -33.3114 -33.2891 -33.2890 -33.2847 -33.2847
   -10.4540 -10.4534   2.9160   2.9162   4.3033   4.3040   4.4658   4.4662

     occupation numbers 
     1.0000   1.0000   1.0000   1.0000   1.0000   1.0000   1.0000   1.0000
     1.0000   1.0000   1.0000   1.0000   1.0000   1.0000   1.0000   1.0000

          k = 0.1250 0.0722-0.2974 (  3685 PWs)   bands (ev):

   -66.3162 -66.3125 -33.3214 -33.3007 -33.2935 -33.2909 -33.2847 -33.2789
   -10.6837 -10.2245   2.5240   3.3863   4.1269   4.1973   4.4878   4.7612

     occupation numbers 
     1.0000   1.0000   1.0000   1.0000   1.0000   1.0000   1.0000   1.0000
     1.0000   1.0000   1.0000   1.0000   1.0000   1.0000   1.0000   1.0000

          k = 0.1250 0.0722-0.1983 (  3666 PWs)   bands (ev):

   -66.3178 -66.3110 -33.3293 -33.2972 -33.2965 -33.2907 -33.2809 -33.2743
   -10.8787 -10.0315   2.2542   3.7782   3.9826   4.0420   4.6501   5.0659

     occupation numbers 
     1.0000   1.0000   1.0000   1.0000   1.0000   1.0000   1.0000   1.0000
     1.0000   1.0000   1.0000   1.0000   1.0000   1.0000   1.0000   1.0000

          k = 0.1250 0.0722-0.0991 (  3645 PWs)   bands (ev):

   -66.3188 -66.3100 -33.3344 -33.3002 -33.2997 -33.2836 -33.2784 -33.2717
   -11.0088  -9.9037   2.1070   3.7425   3.8888   4.2525   4.7619   5.3467

     occupation numbers 
     1.0000   1.0000   1.0000   1.0000   1.0000   1.0000   1.0000   1.0000
     1.0000   1.0000   1.0000   1.0000   1.0000   1.0000   1.0000   1.0000

          k = 0.1250 0.2165-0.0000 (  3669 PWs)   bands (ev):

   -66.3183 -66.3100 -33.3313 -33.3046 -33.3036 -33.2862 -33.2779 -33.2749
   -10.9073  -9.8705   2.3053   3.2852   3.4558   4.1524   4.8051   5.2540

     occupation numbers 
     1.0000   1.0000   1.0000   1.0000   1.0000   1.0000   1.0000   1.0000
     1.0000   1.0000   1.0000   1.0000   1.0000   1.0000   1.0000   1.0000

          k = 0.1250 0.2165 0.0991 (  3671 PWs)   bands (ev):

   -66.3180 -66.3104 -33.3313 -33.3027 -33.3020 -33.2906 -33.2788 -33.2734
   -10.8659  -9.9070   2.2701   3.2743   3.5870   4.0468   4.7510   5.2451

     occupation numbers 
     1.0000   1.0000   1.0000   1.0000   1.0000   1.0000   1.0000   1.0000
     1.0000   1.0000   1.0000   1.0000   1.0000   1.0000   1.0000   1.0000

          k = 0.1250 0.2165 0.1983 (  3674 PWs)   bands (ev):

   -66.3171 -66.3112 -33.3300 -33.3016 -33.2980 -33.2957 -33.2816 -33.2729
   -10.7487 -10.0126   2.2435   3.1573   3.8986   3.9122   4.6012   5.1622

     occupation numbers 
     1.0000   1.0000   1.0000   1.0000   1.0000   1.0000   1.0000   1.0000
     1.0000   1.0000   1.0000   1.0000   1.0000   1.0000   1.0000   1.0000

          k = 0.1250 0.2165 0.2974 (  3680 PWs)   bands (ev):

   -66.3158 -66.3126 -33.3261 -33.3103 -33.2953 -33.2879 -33.2857 -33.2753
   -10.5747 -10.1752   2.3244   2.8607   3.9721   4.2756   4.3895   4.9568

     occupation numbers 
     1.0000   1.0000   1.0000   1.0000   1.0000   1.0000   1.0000   1.0000
     1.0000   1.0000   1.0000   1.0000   1.0000   1.0000   1.0000   1.0000

          k = 0.1250 0.2165-0.3965 (  3666 PWs)   bands (ev):

   -66.3142 -66.3142 -33.3193 -33.3193 -33.2905 -33.2905 -33.2807 -33.2807
   -10.3729 -10.3723   2.5425   2.5425   4.1601   4.1607   4.6466   4.6468

     occupation numbers 
     1.0000   1.0000   1.0000   1.0000   1.0000   1.0000   1.0000   1.0000
     1.0000   1.0000   1.0000   1.0000   1.0000   1.0000   1.0000   1.0000

          k = 0.1250 0.2165-0.2974 (  3680 PWs)   bands (ev):

   -66.3158 -66.3126 -33.3261 -33.3103 -33.2953 -33.2879 -33.2857 -33.2753
   -10.5747 -10.1752   2.3244   2.8607   3.9721   4.2756   4.3895   4.9568

     occupation numbers 
     1.0000   1.0000   1.0000   1.0000   1.0000   1.0000   1.0000   1.0000
     1.0000   1.0000   1.0000   1.0000   1.0000   1.0000   1.0000   1.0000

          k = 0.1250 0.2165-0.1983 (  3674 PWs)   bands (ev):

   -66.3171 -66.3112 -33.3300 -33.3016 -33.2980 -33.2957 -33.2816 -33.2729
   -10.7487 -10.0126   2.2435   3.1573   3.8986   3.9122   4.6012   5.1622

     occupation numbers 
     1.0000   1.0000   1.0000   1.0000   1.0000   1.0000   1.0000   1.0000
     1.0000   1.0000   1.0000   1.0000   1.0000   1.0000   1.0000   1.0000

          k = 0.1250 0.2165-0.0991 (  3671 PWs)   bands (ev):

   -66.3180 -66.3104 -33.3313 -33.3027 -33.3020 -33.2906 -33.2788 -33.2734
   -10.8659  -9.9070   2.2701   3.2743   3.5870   4.0468   4.7510   5.2451

     occupation numbers 
     1.0000   1.0000   1.0000   1.0000   1.0000   1.0000   1.0000   1.0000
     1.0000   1.0000   1.0000   1.0000   1.0000   1.0000   1.0000   1.0000

          k = 0.1250 0.3608-0.0000 (  3681 PWs)   bands (ev):

   -66.3168 -66.3109 -33.3233 -33.3096 -33.3067 -33.2937 -33.2820 -33.2784
   -10.6638  -9.9186   2.5465   2.7491   3.2682   3.8690   4.8005   4.8501

     occupation numbers 
     1.0000   1.0000   1.0000   1.0000   1.0000   1.0000   1.0000   1.0000
     1.0000   1.0000   1.0000   1.0000   1.0000   1.0000   1.0000   1.0000

          k = 0.1250 0.3608 0.0991 (  3681 PWs)   bands (ev):

   -66.3166 -66.3111 -33.3269 -33.3077 -33.3025 -33.2994 -33.2796 -33.2779
   -10.6308  -9.9410   2.3650   2.7380   3.5236   3.7237   4.7210   4.9688

     occupation numbers 
     1.0000   1.0000   1.0000   1.0000   1.0000   1.0000   1.0000   1.0000
     1.0000   1.0000   1.0000   1.0000   1.0000   1.0000   1.0000   1.0000

          k = 0.1250 0.3608 0.1983 (  3668 PWs)   bands (ev):

   -66.3160 -66.3118 -33.3311 -33.3119 -33.3025 -33.2928 -33.2827 -33.2738
   -10.5384 -10.0080   2.1380   2.6160   3.5792   3.9835   4.5143   5.1005

     occupation numbers 
     1.0000   1.0000   1.0000   1.0000   1.0000   1.0000   1.0000   1.0000
     1.0000   1.0000   1.0000   1.0000   1.0000   1.0000   1.0000   1.0000

          k = 0.1250 0.3608 0.2974 (  3660 PWs)   bands (ev):

   -66.3150 -66.3127 -33.3318 -33.3212 -33.2982 -33.2873 -33.2836 -33.2733
   -10.4047 -10.1164   2.0499   2.3599   3.6726   4.2199   4.4526   5.0625

     occupation numbers 
     1.0000   1.0000   1.0000   1.0000   1.0000   1.0000   1.0000   1.0000
     1.0000   1.0000   1.0000   1.0000   1.0000   1.0000   1.0000   1.0000

          k = 0.1250 0.3608-0.3965 (  3662 PWs)   bands (ev):

   -66.3139 -66.3139 -33.3284 -33.3284 -33.2928 -33.2928 -33.2768 -33.2768
   -10.2557 -10.2550   2.1340   2.1340   3.9196   3.9202   4.8302   4.8303

     occupation numbers 
     1.0000   1.0000   1.0000   1.0000   1.0000   1.0000   1.0000   1.0000
     1.0000   1.0000   1.0000   1.0000   1.0000   1.0000   1.0000   1.0000

          k = 0.1250 0.3608-0.2974 (  3660 PWs)   bands (ev):

   -66.3150 -66.3127 -33.3318 -33.3212 -33.2982 -33.2873 -33.2836 -33.2733
   -10.4047 -10.1164   2.0499   2.3599   3.6726   4.2199   4.4526   5.0625

     occupation numbers 
     1.0000   1.0000   1.0000   1.0000   1.0000   1.0000   1.0000   1.0000
     1.0000   1.0000   1.0000   1.0000   1.0000   1.0000   1.0000   1.0000

          k = 0.1250 0.3608-0.1983 (  3668 PWs)   bands (ev):

   -66.3160 -66.3118 -33.3311 -33.3119 -33.3025 -33.2928 -33.2827 -33.2738
   -10.5384 -10.0080   2.1380   2.6160   3.5792   3.9835   4.5143   5.1005

     occupation numbers 
     1.0000   1.0000   1.0000   1.0000   1.0000   1.0000   1.0000   1.0000
     1.0000   1.0000   1.0000   1.0000   1.0000   1.0000   1.0000   1.0000

          k = 0.1250 0.3608-0.0991 (  3681 PWs)   bands (ev):

   -66.3166 -66.3111 -33.3269 -33.3077 -33.3025 -33.2994 -33.2796 -33.2779
   -10.6308  -9.9410   2.3650   2.7380   3.5236   3.7237   4.7210   4.9688

     occupation numbers 
     1.0000   1.0000   1.0000   1.0000   1.0000   1.0000   1.0000   1.0000
     1.0000   1.0000   1.0000   1.0000   1.0000   1.0000   1.0000   1.0000

          k = 0.1250 0.5052-0.0000 (  3678 PWs)   bands (ev):

   -66.3154 -66.3120 -33.3168 -33.3120 -33.3071 -33.2999 -33.2897 -33.2789
   -10.4292 -10.0125   2.0937   3.1976   3.3270   3.5414   4.3888   4.8018

     occupation numbers 
     1.0000   1.0000   1.0000   1.0000   1.0000   1.0000   1.0000   1.0000
     1.0000   1.0000   1.0000   1.0000   1.0000   1.0000   1.0000   1.0000

          k = 0.1250 0.5052 0.0991 (  3675 PWs)   bands (ev):

   -66.3152 -66.3121 -33.3243 -33.3102 -33.3070 -33.2999 -33.2834 -33.2799
   -10.4065 -10.0205   2.0230   2.9531   3.3148   3.6808   4.6029   4.7453

     occupation numbers 
     1.0000   1.0000   1.0000   1.0000   1.0000   1.0000   1.0000   1.0000
     1.0000   1.0000   1.0000   1.0000   1.0000   1.0000   1.0000   1.0000

          k = 0.1250 0.5052 0.1983 (  3672 PWs)   bands (ev):

   -66.3149 -66.3125 -33.3317 -33.3193 -33.3054 -33.2891 -33.2835 -33.2764
   -10.3443 -10.0472   1.8795   2.5623   3.2401   4.1483   4.4450   4.9676

     occupation numbers 
     1.0000   1.0000   1.0000   1.0000   1.0000   1.0000   1.0000   1.0000
     1.0000   1.0000   1.0000   1.0000   1.0000   1.0000   1.0000   1.0000

          k = 0.1250 0.5052 0.2974 (  3667 PWs)   bands (ev):

   -66.3143 -66.3130 -33.3352 -33.3285 -33.3004 -33.2885 -33.2802 -33.2733
   -10.2588 -10.0970   1.8049   2.1554   3.4327   4.1058   4.5932   5.0672

     occupation numbers 
     1.0000   1.0000   1.0000   1.0000   1.0000   1.0000   1.0000   1.0000
     1.0000   1.0000   1.0000   1.0000   1.0000   1.0000   1.0000   1.0000

          k = 0.1250 0.5052-0.3965 (  3664 PWs)   bands (ev):

   -66.3137 -66.3136 -33.3341 -33.3341 -33.2944 -33.2944 -33.2747 -33.2747
   -10.1708 -10.1701   1.8896   1.8897   3.7459   3.7464   4.9253   4.9254

     occupation numbers 
     1.0000   1.0000   1.0000   1.0000   1.0000   1.0000   1.0000   1.0000
     1.0000   1.0000   1.0000   1.0000   1.0000   1.0000   1.0000   1.0000

          k = 0.1250 0.5052-0.2974 (  3667 PWs)   bands (ev):

   -66.3143 -66.3130 -33.3352 -33.3285 -33.3004 -33.2885 -33.2802 -33.2733
   -10.2588 -10.0970   1.8049   2.1554   3.4327   4.1058   4.5932   5.0672

     occupation numbers 
     1.0000   1.0000   1.0000   1.0000   1.0000   1.0000   1.0000   1.0000
     1.0000   1.0000   1.0000   1.0000   1.0000   1.0000   1.0000   1.0000

          k = 0.1250 0.5052-0.1983 (  3672 PWs)   bands (ev):

   -66.3149 -66.3125 -33.3317 -33.3193 -33.3054 -33.2891 -33.2835 -33.2764
   -10.3443 -10.0472   1.8795   2.5623   3.2401   4.1483   4.4450   4.9676

     occupation numbers 
     1.0000   1.0000   1.0000   1.0000   1.0000   1.0000   1.0000   1.0000
     1.0000   1.0000   1.0000   1.0000   1.0000   1.0000   1.0000   1.0000

          k = 0.1250 0.5052-0.0991 (  3675 PWs)   bands (ev):

   -66.3152 -66.3121 -33.3243 -33.3102 -33.3070 -33.2999 -33.2834 -33.2799
   -10.4065 -10.0205   2.0230   2.9531   3.3148   3.6808   4.6029   4.7453

     occupation numbers 
     1.0000   1.0000   1.0000   1.0000   1.0000   1.0000   1.0000   1.0000
     1.0000   1.0000   1.0000   1.0000   1.0000   1.0000   1.0000   1.0000

          k = 0.1250-0.5052 0.0000 (  3678 PWs)   bands (ev):

   -66.3154 -66.3120 -33.3168 -33.3120 -33.3071 -33.2999 -33.2897 -33.2789
   -10.4292 -10.0125   2.0937   3.1976   3.3270   3.5414   4.3888   4.8018

     occupation numbers 
     1.0000   1.0000   1.0000   1.0000   1.0000   1.0000   1.0000   1.0000
     1.0000   1.0000   1.0000   1.0000   1.0000   1.0000   1.0000   1.0000

          k = 0.1250-0.5052 0.0991 (  3675 PWs)   bands (ev):

   -66.3152 -66.3121 -33.3243 -33.3102 -33.3070 -33.2999 -33.2834 -33.2799
   -10.4065 -10.0205   2.0230   2.9531   3.3148   3.6808   4.6029   4.7453

     occupation numbers 
     1.0000   1.0000   1.0000   1.0000   1.0000   1.0000   1.0000   1.0000
     1.0000   1.0000   1.0000   1.0000   1.0000   1.0000   1.0000   1.0000

          k = 0.1250-0.5052 0.1983 (  3672 PWs)   bands (ev):

   -66.3149 -66.3125 -33.3317 -33.3193 -33.3054 -33.2891 -33.2835 -33.2764
   -10.3443 -10.0472   1.8795   2.5623   3.2401   4.1483   4.4450   4.9676

     occupation numbers 
     1.0000   1.0000   1.0000   1.0000   1.0000   1.0000   1.0000   1.0000
     1.0000   1.0000   1.0000   1.0000   1.0000   1.0000   1.0000   1.0000

          k = 0.1250-0.5052 0.2974 (  3667 PWs)   bands (ev):

   -66.3143 -66.3130 -33.3352 -33.3285 -33.3004 -33.2885 -33.2802 -33.2733
   -10.2588 -10.0970   1.8049   2.1554   3.4327   4.1058   4.5932   5.0672

     occupation numbers 
     1.0000   1.0000   1.0000   1.0000   1.0000   1.0000   1.0000   1.0000
     1.0000   1.0000   1.0000   1.0000   1.0000   1.0000   1.0000   1.0000

          k = 0.1250-0.5052-0.3965 (  3664 PWs)   bands (ev):

   -66.3137 -66.3136 -33.3341 -33.3341 -33.2944 -33.2944 -33.2747 -33.2747
   -10.1708 -10.1701   1.8896   1.8897   3.7459   3.7464   4.9253   4.9254

     occupation numbers 
     1.0000   1.0000   1.0000   1.0000   1.0000   1.0000   1.0000   1.0000
     1.0000   1.0000   1.0000   1.0000   1.0000   1.0000   1.0000   1.0000

          k = 0.1250-0.5052-0.2974 (  3667 PWs)   bands (ev):

   -66.3143 -66.3130 -33.3352 -33.3285 -33.3004 -33.2885 -33.2802 -33.2733
   -10.2588 -10.0970   1.8049   2.1554   3.4327   4.1058   4.5932   5.0672

     occupation numbers 
     1.0000   1.0000   1.0000   1.0000   1.0000   1.0000   1.0000   1.0000
     1.0000   1.0000   1.0000   1.0000   1.0000   1.0000   1.0000   1.0000

          k = 0.1250-0.5052-0.1983 (  3672 PWs)   bands (ev):

   -66.3149 -66.3125 -33.3317 -33.3193 -33.3054 -33.2891 -33.2835 -33.2764
   -10.3443 -10.0472   1.8795   2.5623   3.2401   4.1483   4.4450   4.9676

     occupation numbers 
     1.0000   1.0000   1.0000   1.0000   1.0000   1.0000   1.0000   1.0000
     1.0000   1.0000   1.0000   1.0000   1.0000   1.0000   1.0000   1.0000

          k = 0.1250-0.5052-0.0991 (  3675 PWs)   bands (ev):

   -66.3152 -66.3121 -33.3243 -33.3102 -33.3070 -33.2999 -33.2834 -33.2799
   -10.4065 -10.0205   2.0230   2.9531   3.3148   3.6808   4.6029   4.7453

     occupation numbers 
     1.0000   1.0000   1.0000   1.0000   1.0000   1.0000   1.0000   1.0000
     1.0000   1.0000   1.0000   1.0000   1.0000   1.0000   1.0000   1.0000

          k = 0.1250-0.3608 0.0000 (  3681 PWs)   bands (ev):

   -66.3168 -66.3109 -33.3233 -33.3096 -33.3067 -33.2937 -33.2820 -33.2784
   -10.6638  -9.9186   2.5465   2.7491   3.2682   3.8690   4.8005   4.8501

     occupation numbers 
     1.0000   1.0000   1.0000   1.0000   1.0000   1.0000   1.0000   1.0000
     1.0000   1.0000   1.0000   1.0000   1.0000   1.0000   1.0000   1.0000

          k = 0.1250-0.3608 0.0991 (  3681 PWs)   bands (ev):

   -66.3166 -66.3111 -33.3269 -33.3077 -33.3025 -33.2994 -33.2796 -33.2779
   -10.6308  -9.9410   2.3650   2.7380   3.5236   3.7237   4.7210   4.9688

     occupation numbers 
     1.0000   1.0000   1.0000   1.0000   1.0000   1.0000   1.0000   1.0000
     1.0000   1.0000   1.0000   1.0000   1.0000   1.0000   1.0000   1.0000

          k = 0.1250-0.3608 0.1983 (  3668 PWs)   bands (ev):

   -66.3160 -66.3118 -33.3311 -33.3119 -33.3025 -33.2928 -33.2827 -33.2738
   -10.5384 -10.0080   2.1380   2.6160   3.5792   3.9835   4.5143   5.1005

     occupation numbers 
     1.0000   1.0000   1.0000   1.0000   1.0000   1.0000   1.0000   1.0000
     1.0000   1.0000   1.0000   1.0000   1.0000   1.0000   1.0000   1.0000

          k = 0.1250-0.3608 0.2974 (  3660 PWs)   bands (ev):

   -66.3150 -66.3127 -33.3318 -33.3212 -33.2982 -33.2873 -33.2836 -33.2733
   -10.4047 -10.1164   2.0499   2.3599   3.6726   4.2199   4.4526   5.0625

     occupation numbers 
[...]
     1.0000   1.0000   1.0000   1.0000   1.0000   1.0000   1.0000   1.0000

          k =-0.5000-0.1443 0.0991 (  3675 PWs)   bands (ev):

   -66.3152 -66.3121 -33.3243 -33.3102 -33.3070 -33.2999 -33.2834 -33.2799
   -10.4065 -10.0205   2.0230   2.9531   3.3148   3.6808   4.6029   4.7453

     occupation numbers 
     1.0000   1.0000   1.0000   1.0000   1.0000   1.0000   1.0000   1.0000
     1.0000   1.0000   1.0000   1.0000   1.0000   1.0000   1.0000   1.0000

          k =-0.5000-0.1443 0.1983 (  3672 PWs)   bands (ev):

   -66.3149 -66.3125 -33.3317 -33.3193 -33.3054 -33.2891 -33.2835 -33.2764
   -10.3443 -10.0472   1.8795   2.5623   3.2401   4.1483   4.4450   4.9676

     occupation numbers 
     1.0000   1.0000   1.0000   1.0000   1.0000   1.0000   1.0000   1.0000
     1.0000   1.0000   1.0000   1.0000   1.0000   1.0000   1.0000   1.0000

          k =-0.5000-0.1443 0.2974 (  3667 PWs)   bands (ev):

   -66.3143 -66.3130 -33.3352 -33.3285 -33.3004 -33.2885 -33.2802 -33.2733
   -10.2588 -10.0970   1.8049   2.1554   3.4327   4.1058   4.5932   5.0672

     occupation numbers 
     1.0000   1.0000   1.0000   1.0000   1.0000   1.0000   1.0000   1.0000
     1.0000   1.0000   1.0000   1.0000   1.0000   1.0000   1.0000   1.0000

          k =-0.5000-0.1443-0.3965 (  3664 PWs)   bands (ev):

   -66.3137 -66.3136 -33.3341 -33.3341 -33.2944 -33.2944 -33.2747 -33.2747
   -10.1708 -10.1701   1.8896   1.8897   3.7459   3.7464   4.9253   4.9254

     occupation numbers 
     1.0000   1.0000   1.0000   1.0000   1.0000   1.0000   1.0000   1.0000
     1.0000   1.0000   1.0000   1.0000   1.0000   1.0000   1.0000   1.0000

          k =-0.5000-0.1443-0.2974 (  3667 PWs)   bands (ev):

   -66.3143 -66.3130 -33.3352 -33.3285 -33.3004 -33.2885 -33.2802 -33.2733
   -10.2588 -10.0970   1.8049   2.1554   3.4327   4.1058   4.5932   5.0672

     occupation numbers 
     1.0000   1.0000   1.0000   1.0000   1.0000   1.0000   1.0000   1.0000
     1.0000   1.0000   1.0000   1.0000   1.0000   1.0000   1.0000   1.0000

          k =-0.5000-0.1443-0.1983 (  3672 PWs)   bands (ev):

   -66.3149 -66.3125 -33.3317 -33.3193 -33.3054 -33.2891 -33.2835 -33.2764
   -10.3443 -10.0472   1.8795   2.5623   3.2401   4.1483   4.4450   4.9676

     occupation numbers 
     1.0000   1.0000   1.0000   1.0000   1.0000   1.0000   1.0000   1.0000
     1.0000   1.0000   1.0000   1.0000   1.0000   1.0000   1.0000   1.0000

          k =-0.5000-0.1443-0.0991 (  3675 PWs)   bands (ev):

   -66.3152 -66.3121 -33.3243 -33.3102 -33.3070 -33.2999 -33.2834 -33.2799
   -10.4065 -10.0205   2.0230   2.9531   3.3148   3.6808   4.6029   4.7453

     occupation numbers 
     1.0000   1.0000   1.0000   1.0000   1.0000   1.0000   1.0000   1.0000
     1.0000   1.0000   1.0000   1.0000   1.0000   1.0000   1.0000   1.0000

          k =-0.5000 0.0000-0.0000 (  3669 PWs)   bands (ev):

   -66.3154 -66.3119 -33.3153 -33.3133 -33.3068 -33.2992 -33.2896 -33.2800
   -10.4355 -10.0066   2.2031   3.0723   3.2821   3.6832   4.4273   4.6249

     occupation numbers 
     1.0000   1.0000   1.0000   1.0000   1.0000   1.0000   1.0000   1.0000
     1.0000   1.0000   1.0000   1.0000   1.0000   1.0000   1.0000   1.0000

          k =-0.5000 0.0000 0.0991 (  3674 PWs)   bands (ev):

   -66.3152 -66.3121 -33.3225 -33.3130 -33.3062 -33.2986 -33.2832 -33.2812
   -10.4124 -10.0152   2.2323   2.6604   3.4276   3.7472   4.5195   4.6705

     occupation numbers 
     1.0000   1.0000   1.0000   1.0000   1.0000   1.0000   1.0000   1.0000
     1.0000   1.0000   1.0000   1.0000   1.0000   1.0000   1.0000   1.0000

          k =-0.5000-0.0000 0.1983 (  3659 PWs)   bands (ev):

   -66.3149 -66.3124 -33.3301 -33.3194 -33.3071 -33.2879 -33.2846 -33.2762
   -10.3491 -10.0433   2.2581   2.2781   3.1315   4.2016   4.3186   4.9859

     occupation numbers 
     1.0000   1.0000   1.0000   1.0000   1.0000   1.0000   1.0000   1.0000
     1.0000   1.0000   1.0000   1.0000   1.0000   1.0000   1.0000   1.0000

          k =-0.5000-0.0000 0.2974 (  3664 PWs)   bands (ev):

   -66.3143 -66.3130 -33.3340 -33.3280 -33.3022 -33.2900 -33.2791 -33.2729
   -10.2618 -10.0953   2.0621   2.1521   3.1606   3.8428   4.7463   5.1280

     occupation numbers 
     1.0000   1.0000   1.0000   1.0000   1.0000   1.0000   1.0000   1.0000
     1.0000   1.0000   1.0000   1.0000   1.0000   1.0000   1.0000   1.0000

          k =-0.5000 0.0000-0.3965 (  3666 PWs)   bands (ev):

   -66.3137 -66.3136 -33.3333 -33.3332 -33.2961 -33.2961 -33.2739 -33.2739
   -10.1716 -10.1709   2.0335   2.0336   3.4530   3.4535   5.0424   5.0424

     occupation numbers 
     1.0000   1.0000   1.0000   1.0000   1.0000   1.0000   1.0000   1.0000
     1.0000   1.0000   1.0000   1.0000   1.0000   1.0000   1.0000   1.0000

          k =-0.5000 0.0000-0.2974 (  3664 PWs)   bands (ev):

   -66.3143 -66.3130 -33.3340 -33.3280 -33.3022 -33.2900 -33.2791 -33.2729
   -10.2618 -10.0953   2.0621   2.1521   3.1606   3.8428   4.7463   5.1280

     occupation numbers 
     1.0000   1.0000   1.0000   1.0000   1.0000   1.0000   1.0000   1.0000
     1.0000   1.0000   1.0000   1.0000   1.0000   1.0000   1.0000   1.0000

          k =-0.5000 0.0000-0.1983 (  3658 PWs)   bands (ev):

   -66.3149 -66.3124 -33.3301 -33.3194 -33.3071 -33.2879 -33.2846 -33.2762
   -10.3491 -10.0433   2.2581   2.2781   3.1315   4.2016   4.3186   4.9859

     occupation numbers 
     1.0000   1.0000   1.0000   1.0000   1.0000   1.0000   1.0000   1.0000
     1.0000   1.0000   1.0000   1.0000   1.0000   1.0000   1.0000   1.0000

          k =-0.5000 0.0000-0.0991 (  3674 PWs)   bands (ev):

   -66.3152 -66.3121 -33.3225 -33.3130 -33.3062 -33.2986 -33.2832 -33.2812
   -10.4124 -10.0152   2.2323   2.6604   3.4276   3.7472   4.5195   4.6705

     occupation numbers 
     1.0000   1.0000   1.0000   1.0000   1.0000   1.0000   1.0000   1.0000
     1.0000   1.0000   1.0000   1.0000   1.0000   1.0000   1.0000   1.0000

          k =-0.5000 0.1443-0.0000 (  3678 PWs)   bands (ev):

   -66.3154 -66.3120 -33.3168 -33.3120 -33.3071 -33.2999 -33.2897 -33.2789
   -10.4292 -10.0125   2.0937   3.1976   3.3270   3.5414   4.3888   4.8018

     occupation numbers 
     1.0000   1.0000   1.0000   1.0000   1.0000   1.0000   1.0000   1.0000
     1.0000   1.0000   1.0000   1.0000   1.0000   1.0000   1.0000   1.0000

          k =-0.5000 0.1443 0.0991 (  3675 PWs)   bands (ev):

   -66.3152 -66.3121 -33.3243 -33.3102 -33.3070 -33.2999 -33.2834 -33.2799
   -10.4065 -10.0205   2.0230   2.9531   3.3148   3.6808   4.6029   4.7453

     occupation numbers 
     1.0000   1.0000   1.0000   1.0000   1.0000   1.0000   1.0000   1.0000
     1.0000   1.0000   1.0000   1.0000   1.0000   1.0000   1.0000   1.0000

          k =-0.5000 0.1443 0.1983 (  3672 PWs)   bands (ev):

   -66.3149 -66.3125 -33.3317 -33.3193 -33.3054 -33.2891 -33.2835 -33.2764
   -10.3443 -10.0472   1.8795   2.5623   3.2401   4.1483   4.4450   4.9676

     occupation numbers 
     1.0000   1.0000   1.0000   1.0000   1.0000   1.0000   1.0000   1.0000
     1.0000   1.0000   1.0000   1.0000   1.0000   1.0000   1.0000   1.0000

          k =-0.5000 0.1443 0.2974 (  3667 PWs)   bands (ev):

   -66.3143 -66.3130 -33.3352 -33.3285 -33.3004 -33.2885 -33.2802 -33.2733
   -10.2588 -10.0970   1.8049   2.1554   3.4327   4.1058   4.5932   5.0672

     occupation numbers 
     1.0000   1.0000   1.0000   1.0000   1.0000   1.0000   1.0000   1.0000
     1.0000   1.0000   1.0000   1.0000   1.0000   1.0000   1.0000   1.0000

          k =-0.5000 0.1443-0.3965 (  3664 PWs)   bands (ev):

   -66.3137 -66.3136 -33.3341 -33.3341 -33.2944 -33.2944 -33.2747 -33.2747
   -10.1708 -10.1701   1.8896   1.8897   3.7459   3.7464   4.9253   4.9254

     occupation numbers 
     1.0000   1.0000   1.0000   1.0000   1.0000   1.0000   1.0000   1.0000
     1.0000   1.0000   1.0000   1.0000   1.0000   1.0000   1.0000   1.0000

          k =-0.5000 0.1443-0.2974 (  3667 PWs)   bands (ev):

   -66.3143 -66.3130 -33.3352 -33.3285 -33.3004 -33.2885 -33.2802 -33.2733
   -10.2588 -10.0970   1.8049   2.1554   3.4327   4.1058   4.5932   5.0672

     occupation numbers 
     1.0000   1.0000   1.0000   1.0000   1.0000   1.0000   1.0000   1.0000
     1.0000   1.0000   1.0000   1.0000   1.0000   1.0000   1.0000   1.0000

          k =-0.5000 0.1443-0.1983 (  3672 PWs)   bands (ev):

   -66.3149 -66.3125 -33.3317 -33.3193 -33.3054 -33.2891 -33.2835 -33.2764
   -10.3443 -10.0472   1.8795   2.5623   3.2401   4.1483   4.4450   4.9676

     occupation numbers 
     1.0000   1.0000   1.0000   1.0000   1.0000   1.0000   1.0000   1.0000
     1.0000   1.0000   1.0000   1.0000   1.0000   1.0000   1.0000   1.0000

          k =-0.5000 0.1443-0.0991 (  3675 PWs)   bands (ev):

   -66.3152 -66.3121 -33.3243 -33.3102 -33.3070 -33.2999 -33.2834 -33.2799
   -10.4065 -10.0205   2.0230   2.9531   3.3148   3.6808   4.6029   4.7453

     occupation numbers 
     1.0000   1.0000   1.0000   1.0000   1.0000   1.0000   1.0000   1.0000
     1.0000   1.0000   1.0000   1.0000   1.0000   1.0000   1.0000   1.0000

          k =-0.5000-0.8660 0.0000 (  3662 PWs)   bands (ev):

   -66.3154 -66.3120 -33.3178 -33.3111 -33.3076 -33.3003 -33.2897 -33.2778
   -10.4227 -10.0186   2.0070   3.2756   3.3866   3.4422   4.3510   4.9467

     occupation numbers 
     1.0000   1.0000   1.0000   1.0000   1.0000   1.0000   1.0000   1.0000
     1.0000   1.0000   1.0000   1.0000   1.0000   1.0000   1.0000   1.0000

          k =-0.5000-0.8660 0.0991 (  3664 PWs)   bands (ev):

   -66.3152 -66.3121 -33.3255 -33.3082 -33.3064 -33.3020 -33.2834 -33.2789
   -10.4004 -10.0261   1.8989   3.0994   3.4355   3.4635   4.6133   4.8733

     occupation numbers 
     1.0000   1.0000   1.0000   1.0000   1.0000   1.0000   1.0000   1.0000
     1.0000   1.0000   1.0000   1.0000   1.0000   1.0000   1.0000   1.0000

          k =-0.5000-0.8660 0.1983 (  3658 PWs)   bands (ev):

   -66.3149 -66.3125 -33.3330 -33.3195 -33.3032 -33.2908 -33.2822 -33.2768
   -10.3394 -10.0511   1.7276   2.5499   3.5783   3.8761   4.6722   4.9094

     occupation numbers 
     1.0000   1.0000   1.0000   1.0000   1.0000   1.0000   1.0000   1.0000
     1.0000   1.0000   1.0000   1.0000   1.0000   1.0000   1.0000   1.0000

          k =-0.5000-0.8660 0.2974 (  3662 PWs)   bands (ev):

   -66.3143 -66.3130 -33.3364 -33.3290 -33.2984 -33.2870 -33.2815 -33.2739
   -10.2557 -10.0987   1.6625   2.0801   3.8024   4.3374   4.3910   4.9544

     occupation numbers 
     1.0000   1.0000   1.0000   1.0000   1.0000   1.0000   1.0000   1.0000
     1.0000   1.0000   1.0000   1.0000   1.0000   1.0000   1.0000   1.0000

          k =-0.5000-0.8660-0.3965 (  3672 PWs)   bands (ev):

   -66.3137 -66.3136 -33.3350 -33.3350 -33.2927 -33.2926 -33.2756 -33.2756
   -10.1700 -10.1693   1.7747   1.7749   4.0847   4.0853   4.7337   4.7339

     occupation numbers 
     1.0000   1.0000   1.0000   1.0000   1.0000   1.0000   1.0000   1.0000
     1.0000   1.0000   1.0000   1.0000   1.0000   1.0000   1.0000   1.0000

     highest occupied level (ev):     5.5890

!    total energy              =    -315.18647162 Ry
     Harris-Foulkes estimate   =    -315.18647149 Ry
     estimated scf accuracy    <       0.00000013 Ry

     The total energy is the sum of the following terms:

     one-electron contribution =    -207.94789166 Ry
     hartree contribution      =     110.81560049 Ry
     xc contribution           =     -48.09050082 Ry
     ewald contribution        =    -169.96367962 Ry

     convergence has been achieved in   7 iterations

     Forces acting on atoms (cartesian axes, Ry/au):

     atom    1 type  2   force =    -0.00000088   -0.00000002    0.01792993
     atom    2 type  2   force =     0.00000018    0.00000085    0.01793028
     atom    3 type  1   force =     0.00000066    0.00000052   -0.01792201
     atom    4 type  1   force =     0.00000003   -0.00000135   -0.01793820
     The non-local contrib.  to forces
     atom    1 type  2   force =    -0.00000036   -0.00000203   -0.04378496
     atom    2 type  2   force =    -0.00000002    0.00000292   -0.04379280
     atom    3 type  1   force =     0.00000021   -0.00000347   -0.15223118
     atom    4 type  1   force =     0.00000140   -0.00000030   -0.15223058
     The ionic contribution  to forces
     atom    1 type  2   force =    -0.00000786    0.00001858    1.00558459
     atom    2 type  2   force =    -0.00000213    0.00000580    1.00558331
     atom    3 type  1   force =     0.00000251   -0.00002110   -1.00558314
     atom    4 type  1   force =     0.00000747   -0.00000328   -1.00558476
     The local contribution  to forces
     atom    1 type  2   force =     0.00000791   -0.00001713   -0.94382742
     atom    2 type  2   force =     0.00000216   -0.00000671   -0.94381076
     atom    3 type  1   force =    -0.00000286    0.00002392    1.13996840
     atom    4 type  1   force =    -0.00000799    0.00000322    1.14001081
     The core correction contribution to forces
     atom    1 type  2   force =     0.00000000    0.00000000   -0.00018267
     atom    2 type  2   force =     0.00000001   -0.00000003   -0.00018256
     atom    3 type  1   force =     0.00000000    0.00000000    0.00000000
     atom    4 type  1   force =     0.00000000    0.00000000    0.00000000
     The Hubbard contrib.    to forces
     atom    1 type  2   force =     0.00000000    0.00000000    0.00000000
     atom    2 type  2   force =     0.00000000    0.00000000    0.00000000
     atom    3 type  1   force =     0.00000000    0.00000000    0.00000000
     atom    4 type  1   force =     0.00000000    0.00000000    0.00000000
     The SCF correction term to forces
     atom    1 type  2   force =     0.00000000    0.00000000    0.00000000
     atom    2 type  2   force =     0.00000000    0.00000000    0.00000000
     atom    3 type  1   force =     0.00000000    0.00000000    0.00000000
     atom    4 type  1   force =     0.00000000    0.00000000    0.00000000

     Total force =     0.000000     Total SCF correction =     0.000000


     Computing stress (Cartesian axis) and pressure

          total   stress  (Ry/bohr**3)                   (kbar)     P=   -1.88
  -0.00001169  -0.00000000   0.00000001         -1.72     -0.00      0.00
  -0.00000000  -0.00001170  -0.00000001         -0.00     -1.72     -0.00
   0.00000001  -0.00000001  -0.00001501          0.00     -0.00     -2.21

     kinetic stress (kbar)  20024.81      0.00      0.00
                                0.00  20024.80     -0.00
                                0.00     -0.00  20066.34

     local   stress (kbar)  -4357.17     -0.02     -0.00
                               -0.02  -4357.20      0.01
                               -0.00      0.01 -17041.11

     nonloc. stress (kbar)   5481.05      0.00     -0.00
                                0.00   5481.05      0.00
                               -0.00      0.00   5461.97

     hartree stress (kbar)  16034.53      0.01      0.00
                                0.01  16034.54     -0.00
                                0.00     -0.00  21615.03

     exc-cor stress (kbar)  -7116.95      0.00     -0.00
                                0.00  -7116.95      0.00
                               -0.00      0.00  -7115.87

     corecor stress (kbar)   -262.10     -0.00     -0.00
                               -0.00   -262.10      0.00
                               -0.00      0.00   -262.23

     ewald   stress (kbar) -29805.90      0.01      0.00
                                0.01 -29805.87     -0.01
                                0.00     -0.01 -22726.33

     hubbard stress (kbar)      0.00      0.00      0.00
                                0.00      0.00      0.00
                                0.00      0.00      0.00

     london  stress (kbar)      0.00      0.00      0.00
                                0.00      0.00      0.00
                                0.00      0.00      0.00

     DFT-D3  stress (kbar)      0.00      0.00      0.00
                                0.00      0.00      0.00
                                0.00      0.00      0.00

     XDM     stress (kbar)      0.00      0.00      0.00
                                0.00      0.00      0.00
                                0.00      0.00      0.00

     dft-nl  stress (kbar)      0.00      0.00      0.00
                                0.00      0.00      0.00
                                0.00      0.00      0.00

     TS-vdW  stress (kbar)      0.00      0.00      0.00
                                0.00      0.00      0.00
                                0.00      0.00      0.00



     Writing output data file ZnO.save/
 
     init_run     :      0.35s CPU      0.52s WALL (       1 calls)
     electrons    :      4.39s CPU      4.77s WALL (       1 calls)
     forces       :      0.13s CPU      0.14s WALL (       1 calls)
     stress       :      0.23s CPU      0.25s WALL (       1 calls)

     Called by init_run:
     wfcinit      :      0.20s CPU      0.27s WALL (       1 calls)
     wfcinit:atom :      0.00s CPU      0.00s WALL (      65 calls)
     wfcinit:wfcr :      0.19s CPU      0.25s WALL (      65 calls)
     potinit      :      0.06s CPU      0.07s WALL (       1 calls)
     hinit0       :      0.07s CPU      0.14s WALL (       1 calls)

     Called by electrons:
     c_bands      :      3.60s CPU      3.91s WALL (       7 calls)
     sum_band     :      0.51s CPU      0.54s WALL (       7 calls)
     v_of_rho     :      0.25s CPU      0.26s WALL (       8 calls)
     v_h          :      0.00s CPU      0.00s WALL (       8 calls)
     v_xc         :      0.30s CPU      0.31s WALL (      10 calls)
     newd         :      0.04s CPU      0.05s WALL (       8 calls)
     mix_rho      :      0.01s CPU      0.02s WALL (       7 calls)

     Called by c_bands:
     init_us_2    :      0.07s CPU      0.08s WALL (    1105 calls)
     cegterg      :      3.17s CPU      3.36s WALL (     455 calls)

     Called by sum_band:
     sum_band:bec :      0.00s CPU      0.01s WALL (     455 calls)
     addusdens    :      0.03s CPU      0.04s WALL (       7 calls)

     Called by *egterg:
     h_psi        :      1.94s CPU      2.02s WALL (    1488 calls)
     s_psi        :      0.07s CPU      0.08s WALL (    1488 calls)
     g_psi        :      0.00s CPU      0.00s WALL (     968 calls)
     cdiaghg      :      0.80s CPU      0.92s WALL (    1423 calls)
     cegterg:over :      0.26s CPU      0.30s WALL (     968 calls)
     cegterg:upda :      0.11s CPU      0.12s WALL (     968 calls)
     cegterg:last :      0.06s CPU      0.06s WALL (     455 calls)
     cdiaghg:chol :      0.05s CPU      0.07s WALL (    1423 calls)
     cdiaghg:inve :      0.02s CPU      0.02s WALL (    1423 calls)
     cdiaghg:para :      0.08s CPU      0.09s WALL (    2846 calls)

     Called by h_psi:
     h_psi:pot    :      1.93s CPU      2.02s WALL (    1488 calls)
     h_psi:calbec :      0.13s CPU      0.14s WALL (    1488 calls)
     vloc_psi     :      1.72s CPU      1.79s WALL (    1488 calls)
     add_vuspsi   :      0.07s CPU      0.08s WALL (    1488 calls)

     General routines
     calbec       :      0.21s CPU      0.23s WALL (    2268 calls)
     fft          :      0.04s CPU      0.07s WALL (     127 calls)
     ffts         :      0.00s CPU      0.00s WALL (      15 calls)
     fftw         :      1.97s CPU      2.05s WALL (   44806 calls)
     interpolate  :      0.00s CPU      0.01s WALL (       8 calls)
 
     Parallel routines
     fft_scatt_xy :      0.27s CPU      0.28s WALL (   44948 calls)
     fft_scatt_yz :      1.12s CPU      1.16s WALL (   44948 calls)
 
     PWSCF        :      5.67s CPU      6.85s WALL

 
   This run was terminated on:  20:52:42  15Jun2022            

=------------------------------------------------------------------------------=
   JOB DONE.
=------------------------------------------------------------------------------=
