
     Program PWSCF v.6.4.1 starts on 15Jul2022 at  1:26:30 

     This program is part of the open-source Quantum ESPRESSO suite
     for quantum simulation of materials; please cite
         "P. Giannozzi et al., J. Phys.:Condens. Matter 21 395502 (2009);
         "P. Giannozzi et al., J. Phys.:Condens. Matter 29 465901 (2017);
          URL http://www.quantum-espresso.org", 
     in publications or presentations arising from this work. More details at
     http://www.quantum-espresso.org/quote

     Parallel version (MPI), running on   128 processors

     MPI processes distributed on     2 nodes
     K-points division:     npool     =       8
     R & G space division:  proc/nbgrp/npool/nimage =      16
     Waiting for input...
     Reading input from standard input
Warning: card &IONS ignored
Warning: card   UPSCALE           = 100.D0, ignored
Warning: card / ignored
Warning: card &CELL ignored
Warning: card   CELL_DYNAMICS     = 'BFGS' ignored
Warning: card   PRESS_CONV_THR    = 0.5D0 ignored
Warning: card   CELL_DOFREE = 'ALL' ignored
Warning: card / ignored

     Current dimensions of program PWSCF are:
     Max number of different atomic species (ntypx) = 10
     Max number of k-points (npk) =  40000
     Max angular momentum in pseudopotentials (lmaxx) =  3

     Subspace diagonalization in iterative solution of the eigenvalue problem:
     one sub-group per band group will be used
     scalapack distributed-memory algorithm (size of sub-group:  2*  2 procs)

 
     Parallelization info
     --------------------
     sticks:   dense  smooth     PW     G-vecs:    dense   smooth      PW
     Min         732     352     96                67633    22484    3238
     Max         733     353     97                67638    22487    3242
     Sum       11725    5643   1539              1082167   359765   51847
 


     bravais-lattice index     =            0
     lattice parameter (alat)  =      18.4447  a.u.
     unit-cell volume          =    5731.4644 (a.u.)^3
     number of atoms/cell      =           72
     number of atomic types    =            3
     number of electrons       =       776.00
     number of Kohn-Sham states=          466
     kinetic-energy cutoff     =      60.0000  Ry
     charge density cutoff     =     500.0000  Ry
     convergence threshold     =      1.0E-08
     mixing beta               =       0.5000
     number of iterations used =            8  plain     mixing
     Exchange-correlation      = SLA  PW   PSX  PSC ( 1  4 10  8 0 0)
     Using LIBXC version       =    4   3   4

     celldm(1)=  18.444651  celldm(2)=   0.000000  celldm(3)=   0.000000
     celldm(4)=   0.000000  celldm(5)=   0.000000  celldm(6)=   0.000000

     crystal axes: (cart. coord. in units of alat)
               a(1) = (   1.000000  -0.000668   0.000654 )  
               a(2) = (  -0.500577   0.867025  -0.000259 )  
               a(3) = (   0.000697   0.000083   1.053879 )  

     reciprocal axes: (cart. coord. in units 2 pi/alat)
               b(1) = (  1.000387  0.577573 -0.000707 )  
               b(2) = (  0.000771  1.153815 -0.000091 )  
               b(3) = ( -0.000620 -0.000075  0.948876 )  


     PseudoPot. # 1 for Zn read from file:
     ./GBRV_PBEsol/zn_pbesol_v1.uspp.F.UPF
     MD5 check sum: 7d8615e52efe7c1e2b1899de8658bae2
     Pseudo is Ultrasoft, Zval = 20.0
     Generated by new atomic code, or converted to UPF format
     Using radial grid of  943 points,  6 beta functions with: 
                l(1) =   0
                l(2) =   0
                l(3) =   1
                l(4) =   1
                l(5) =   2
                l(6) =   2
     Q(r) pseudized with  8 coefficients,  rinner =    1.100   1.100   1.100
                                                       1.100   1.100

     PseudoPot. # 2 for O  read from file:
     ./GBRV_PBEsol/o_pbesol_v1.2.uspp.F.UPF
     MD5 check sum: 501638753501ef6325af9037351f7734
     Pseudo is Ultrasoft + core correction, Zval =  6.0
     Generated by new atomic code, or converted to UPF format
     Using radial grid of  737 points,  5 beta functions with: 
                l(1) =   0
                l(2) =   0
                l(3) =   1
                l(4) =   1
                l(5) =   2
     Q(r) pseudized with  8 coefficients,  rinner =    0.900   0.900   0.900
                                                       0.900   0.900

     PseudoPot. # 3 for Mg read from file:
     ./GBRV_PBEsol/mg_pbesol_v1.4.uspp.F.UPF
     MD5 check sum: 4059f37963cf5867752dbf5ab2400678
     Pseudo is Ultrasoft, Zval = 10.0
     Generated by new atomic code, or converted to UPF format
     Using radial grid of  821 points,  7 beta functions with: 
                l(1) =   0
                l(2) =   0
                l(3) =   0
                l(4) =   1
                l(5) =   1
                l(6) =   2
                l(7) =   2
     Q(r) pseudized with  8 coefficients,  rinner =    1.200   1.200   1.200
                                                       1.200   1.200

     atomic species   valence    mass     pseudopotential
        Zn            20.00    65.38000     Zn( 1.00)
        O              6.00    15.99900     O ( 1.00)
        Mg            10.00    24.30500     Mg( 1.00)

     No symmetry found


                                    s                        frac. trans.

      isym =  1     identity                                     

 cryst.   s( 1) = (     1          0          0      )
                  (     0          1          0      )
                  (     0          0          1      )

 cart.    s( 1) = (  1.0000000  0.0000000 -0.0000000 )
                  (  0.0000000  1.0000000 -0.0000000 )
                  (  0.0000000  0.0000000  1.0000000 )


   Cartesian axes

     site n.     atom                  positions (alat units)
         1           Zn  tau(   1) = (   0.1646614   0.0954262   0.2071038  )
         2           Zn  tau(   2) = (   0.3320518   0.3843906   0.2043266  )
         3           Zn  tau(   3) = (   0.6691702   0.3848469   0.2044931  )
         4           Zn  tau(   4) = (   0.1678726   0.0960985   0.7340249  )
         5           Zn  tau(   5) = (   0.5011934   0.0961634   0.7311122  )
         6           Zn  tau(   6) = (   0.8318748   0.0963217   0.7295974  )
         7           Zn  tau(   7) = (  -0.0001866   0.3867957   0.7307143  )
         8           Zn  tau(   8) = (   0.6661818   0.3851806   0.7320792  )
         9           Zn  tau(   9) = (   0.1653529   0.6739835   0.7315785  )
        10           Zn  tau(  10) = (   0.5001898   0.6716942   0.7293596  )
        11           Zn  tau(  11) = (   0.3319979   0.1938768   0.4696658  )
        12           Zn  tau(  12) = (   0.6671723   0.1931983   0.4672574  )
        13           Zn  tau(  13) = (   0.1670983   0.4804000   0.4681746  )
        14           Zn  tau(  14) = (   0.4994225   0.4798135   0.4666342  )
        15           Zn  tau(  15) = (  -0.0023845   0.7688990   0.4668756  )
        16           Zn  tau(  16) = (  -0.0007024   0.1924318   0.9951785  )
        17           Zn  tau(  17) = (   0.3339533   0.1902178   0.9967857  )
        18           Zn  tau(  18) = (   0.1654577   0.4819015   0.9963968  )
        19           Zn  tau(  19) = (  -0.3346611   0.7695923   0.9948994  )
        20           Zn  tau(  20) = (   0.0007608   0.7716497   0.9969886  )
        21           Mg  tau(  21) = (   0.4982065   0.0971134   0.2086268  )
        22           Mg  tau(  22) = (   0.8355445   0.0954276   0.2071731  )
        23           Mg  tau(  23) = (   0.0020210   0.3827191   0.2061733  )
        24           Mg  tau(  24) = (  -0.1676134   0.6757312   0.2038853  )
        25           Mg  tau(  25) = (   0.1668992   0.6743223   0.2068467  )
        26           Mg  tau(  26) = (   0.4998578   0.6754729   0.2073437  )
        27           Mg  tau(  27) = (   0.3337417   0.3851715   0.7339829  )
        28           Mg  tau(  28) = (  -0.1651365   0.6751550   0.7325141  )
        29           Mg  tau(  29) = (   0.0022741   0.1932535   0.4719013  )
        30           Mg  tau(  30) = (  -0.1668264   0.4822744   0.4679523  )
        31           Mg  tau(  31) = (  -0.3315848   0.7718304   0.4702924  )
        32           Mg  tau(  32) = (   0.3313252   0.7692822   0.4701229  )
        33           Mg  tau(  33) = (   0.6674914   0.1920437   0.9970915  )
        34           Mg  tau(  34) = (  -0.1649020   0.4804735   0.9945204  )
        35           Mg  tau(  35) = (   0.5022657   0.4821045   0.9982849  )
        36           Mg  tau(  36) = (   0.3349466   0.7708407   0.9933177  )
        37           O   tau(  37) = (   0.1654182   0.0952786   0.0029813  )
        38           O   tau(  38) = (   0.5004415   0.0965172   0.0060892  )
        39           O   tau(  39) = (   0.8325689   0.0947303   0.0043322  )
        40           O   tau(  40) = (  -0.0005484   0.3843948   0.0041109  )
        41           O   tau(  41) = (   0.3332940   0.3847991   0.0002274  )
        42           O   tau(  42) = (   0.6677683   0.3845910   0.0010214  )
        43           O   tau(  43) = (  -0.1673292   0.6731700   0.0009550  )
        44           O   tau(  44) = (   0.1676715   0.6748639   0.0038457  )
        45           O   tau(  45) = (   0.4983375   0.6738067   0.0049454  )
        46           O   tau(  46) = (   0.1671291   0.0960507   0.5310727  )
        47           O   tau(  47) = (   0.5001034   0.0959210   0.5273289  )
        48           O   tau(  48) = (   0.8340389   0.0956676   0.5268487  )
        49           O   tau(  49) = (  -0.0007846   0.3856694   0.5273793  )
        50           O   tau(  50) = (   0.3335188   0.3856294   0.5319413  )
        51           O   tau(  51) = (   0.6665755   0.3850883   0.5289604  )
        52           O   tau(  52) = (  -0.1677371   0.6733069   0.5304136  )
        53           O   tau(  53) = (   0.1649106   0.6734191   0.5281488  )
        54           O   tau(  54) = (   0.5000457   0.6738765   0.5258776  )
        55           O   tau(  55) = (  -0.0001870   0.1925247   0.2697368  )
        56           O   tau(  56) = (   0.3315780   0.1929106   0.2667534  )
        57           O   tau(  57) = (   0.6673487   0.1917437   0.2636308  )
        58           O   tau(  58) = (  -0.1641810   0.4828287   0.2650062  )
        59           O   tau(  59) = (   0.1667345   0.4818362   0.2652611  )
        60           O   tau(  60) = (   0.5004195   0.4809589   0.2629689  )
        61           O   tau(  61) = (  -0.3331219   0.7699955   0.2681624  )
        62           O   tau(  62) = (  -0.0006467   0.7706530   0.2639728  )
        63           O   tau(  63) = (   0.3329108   0.7703814   0.2673480  )
        64           O   tau(  64) = (  -0.0004328   0.1931460   0.7911397  )
        65           O   tau(  65) = (   0.3346044   0.1924203   0.7934518  )
        66           O   tau(  66) = (   0.6669265   0.1925607   0.7944622  )
        67           O   tau(  67) = (  -0.1665661   0.4826869   0.7921402  )
        68           O   tau(  68) = (   0.1667127   0.4816572   0.7929489  )
        69           O   tau(  69) = (   0.4998405   0.4811564   0.7956067  )
        70           O   tau(  70) = (  -0.3335330   0.7696673   0.7909983  )
        71           O   tau(  71) = (   0.0005090   0.7715224   0.7935071  )
        72           O   tau(  72) = (   0.3336434   0.7701229   0.7905103  )

   Crystallographic axes

     site n.     atom                  positions (cryst. coord.)
         1           Zn  tau(   1) = (  0.2196943  0.1102123  0.1964066  )
         2           Zn  tau(   2) = (  0.5540496  0.4437530  0.1936459  )
         3           Zn  tau(   3) = (  0.8915619  0.4445394  0.1935947  )
         4           Zn  tau(   4) = (  0.2229226  0.1109426  0.6963873  )
         5           Zn  tau(   5) = (  0.5564120  0.1112748  0.6934168  )
         6           Zn  tau(   6) = (  0.8873137  0.1117125  0.6917743  )
         7           Zn  tau(   7) = (  0.2226998  0.4462239  0.6933285  )
         8           Zn  tau(   8) = (  0.8883921  0.4448742  0.6942104  )
         9           Zn  tau(   9) = (  0.5541747  0.7777130  0.6940243  )
        10           Zn  tau(  10) = (  0.8878204  0.7753300  0.6917113  )
        11           Zn  tau(  11) = (  0.4437724  0.2239113  0.4454342  )
        12           Zn  tau(  12) = (  0.7786863  0.2233871  0.4429411  )
        13           Zn  tau(  13) = (  0.4442983  0.5543789  0.4441001  )
        14           Zn  tau(  14) = (  0.7764134  0.5539586  0.4424323  )
        15           Zn  tau(  15) = (  0.4413801  0.8871226  0.4429510  )
        16           Zn  tau(  16) = (  0.1097374  0.2219397  0.9442870  )
        17           Zn  tau(  17) = (  0.4432426  0.2196430  0.9456047  )
        18           Zn  tau(  18) = (  0.4431509  0.5560620  0.9453184  )
        19           Zn  tau(  19) = (  0.1090022  0.8876183  0.9441862  )
        20           Zn  tau(  20) = (  0.4457407  0.8902507  0.9459604  )
        21           Mg  tau(  21) = (  0.5543419  0.1124161  0.1976447  )
        22           Mg  tau(  22) = (  0.8908377  0.1107313  0.1960561  )
        23           Mg  tau(  23) = (  0.2229244  0.4415697  0.1956030  )
        24           Mg  tau(  24) = (  0.2224620  0.7795207  0.1935153  )
        25           Mg  tau(  25) = (  0.5562882  0.7781528  0.1961179  )
        26           Mg  tau(  26) = (  0.8900399  0.7797372  0.1963829  )
        27           Mg  tau(  27) = (  0.5558168  0.4446072  0.6962230  )
        28           Mg  tau(  28) = (  0.2242334  0.7788098  0.6951170  )
        29           Mg  tau(  29) = (  0.1135595  0.2229376  0.4477600  )
        30           Mg  tau(  30) = (  0.1113272  0.5562841  0.4440962  )
        31           Mg  tau(  31) = (  0.1137432  0.8902508  0.4463971  )
        32           Mg  tau(  32) = (  0.7754380  0.8878218  0.4458253  )
        33           Mg  tau(  33) = (  0.7779642  0.2220069  0.9456878  )
        34           Mg  tau(  34) = (  0.1118399  0.5541598  0.9437429  )
        35           Mg  tau(  35) = (  0.7802051  0.5565559  0.9469010  )
        36           Mg  tau(  36) = (  0.7795911  0.8895752  0.9422700  )
        37           O   tau(  37) = (  0.2205104  0.1100611  0.0027192  )
        38           O   tau(  38) = (  0.5563766  0.1117484  0.0054602  )
        39           O   tau(  39) = (  0.8876017  0.1099428  0.0035872  )
        40           O   tau(  40) = (  0.2214647  0.4435196  0.0038723  )
        41           O   tau(  41) = (  0.5556725  0.4442438 -0.0000198  )
        42           O   tau(  42) = (  0.8901555  0.4442616  0.0005262  )
        43           O   tau(  43) = (  0.2214105  0.7765842  0.0009596  )
        44           O   tau(  44) = (  0.5575171  0.7787968  0.0034946  )
        45           O   tau(  45) = (  0.8876996  0.7778318  0.0043331  )
        46           O   tau(  46) = (  0.2222947  0.1109053  0.5038113  )
        47           O   tau(  47) = (  0.5553256  0.1110128  0.5000524  )
        48           O   tau(  48) = (  0.8892442  0.1109780  0.4993896  )
        49           O   tau(  49) = (  0.2215947  0.4449424  0.5003892  )
        50           O   tau(  50) = (  0.5560012  0.4451537  0.5045106  )
        51           O   tau(  51) = (  0.8888762  0.4447865  0.5014756  )
        52           O   tau(  52) = (  0.2207072  0.7766938  0.5033504  )
        53           O   tau(  53) = (  0.5535500  0.7770799  0.5009950  )
        54           O   tau(  54) = (  0.8890806  0.7778664  0.4986320  )
        55           O   tau(  55) = (  0.1108194  0.2221132  0.2559325  )
        56           O   tau(  56) = (  0.4429378  0.2228145  0.2528958  )
        57           O   tau(  57) = (  0.7781666  0.2217274  0.2497247  )
        58           O   tau(  58) = (  0.1144372  0.5569441  0.2515237  )
        59           O   tau(  59) = (  0.4449072  0.5560541  0.2515604  )
        60           O   tau(  60) = (  0.7782163  0.5552994  0.2491785  )
        61           O   tau(  61) = (  0.1112886  0.8881508  0.2546019  )
        62           O   tau(  62) = (  0.4442751  0.8891663  0.2504202  )
        63           O   tau(  63) = (  0.7778024  0.8891097  0.2534160  )
        64           O   tau(  64) = (  0.1105638  0.2227824  0.7506793  )
        65           O   tau(  65) = (  0.4453098  0.2222033  0.7526655  )
        66           O   tau(  66) = (  0.7778409  0.2226215  0.7534181  )
        67           O   tau(  67) = (  0.1115966  0.5567308  0.7517101  )
        68           O   tau(  68) = (  0.4444091  0.5557997  0.7522708  )
        69           O   tau(  69) = (  0.7773747  0.5554785  0.7545861  )
        70           O   tau(  70) = (  0.1103182  0.8877242  0.7507086  )
        71           O   tau(  71) = (  0.4455592  0.8901221  0.7528819  )
        72           O   tau(  72) = (  0.7780162  0.8887645  0.7498317  )

     number of k points=    36  Marzari-Vanderbilt smearing, width (Ry)=  0.0010
                       cart. coord. in units 2pi/alat
        k(    1) = (   0.0000000   0.0000000   0.0000000), wk =   0.0312500
        k(    2) = (  -0.0001551  -0.0000187   0.2372190), wk =   0.0625000
        k(    3) = (   0.0003101   0.0000374  -0.4744380), wk =   0.0312500
        k(    4) = (   0.0001928   0.2884536  -0.0000227), wk =   0.0625000
        k(    5) = (   0.0000377   0.2884349   0.2371963), wk =   0.0625000
        k(    6) = (   0.0005029   0.2884911  -0.4744607), wk =   0.0625000
        k(    7) = (   0.0003479   0.2884724  -0.2372417), wk =   0.0625000
        k(    8) = (  -0.0003856  -0.5769073   0.0000454), wk =   0.0312500
        k(    9) = (  -0.0005407  -0.5769260   0.2372644), wk =   0.0625000
        k(   10) = (  -0.0000754  -0.5768699  -0.4743926), wk =   0.0312500
        k(   11) = (   0.2500967   0.1443934  -0.0001767), wk =   0.0625000
        k(   12) = (   0.2499416   0.1443746   0.2370423), wk =   0.0625000
        k(   13) = (   0.2504069   0.1444308  -0.4746147), wk =   0.0625000
        k(   14) = (   0.2502518   0.1444121  -0.2373957), wk =   0.0625000
        k(   15) = (   0.2502895   0.4328470  -0.0001994), wk =   0.0625000
        k(   16) = (   0.2501344   0.4328283   0.2370196), wk =   0.0625000
        k(   17) = (   0.2505997   0.4328844  -0.4746375), wk =   0.0625000
        k(   18) = (   0.2504446   0.4328657  -0.2374184), wk =   0.0625000
        k(   19) = (   0.2497111  -0.4325139  -0.0001313), wk =   0.0625000
        k(   20) = (   0.2495561  -0.4325327   0.2370877), wk =   0.0625000
        k(   21) = (   0.2500213  -0.4324765  -0.4745693), wk =   0.0625000
        k(   22) = (   0.2498662  -0.4324952  -0.2373503), wk =   0.0625000
        k(   23) = (   0.2499039  -0.1440603  -0.0001540), wk =   0.0625000
        k(   24) = (   0.2497489  -0.1440790   0.2370650), wk =   0.0625000
        k(   25) = (   0.2502141  -0.1440229  -0.4745920), wk =   0.0625000
        k(   26) = (   0.2500590  -0.1440416  -0.2373730), wk =   0.0625000
        k(   27) = (  -0.5001934  -0.2887867   0.0003534), wk =   0.0312500
        k(   28) = (  -0.5003485  -0.2888054   0.2375724), wk =   0.0625000
        k(   29) = (  -0.4998833  -0.2887493  -0.4740846), wk =   0.0312500
        k(   30) = (  -0.5000007  -0.0003331   0.0003307), wk =   0.0625000
        k(   31) = (  -0.5001557  -0.0003518   0.2375497), wk =   0.0625000
        k(   32) = (  -0.4996905  -0.0002956  -0.4741073), wk =   0.0625000
        k(   33) = (  -0.4998456  -0.0003143  -0.2368883), wk =   0.0625000
        k(   34) = (  -0.5005790  -0.8656940   0.0003989), wk =   0.0312500
        k(   35) = (  -0.5007341  -0.8657127   0.2376179), wk =   0.0625000
        k(   36) = (  -0.5002689  -0.8656566  -0.4740392), wk =   0.0312500

                       cryst. coord.
        k(    1) = (   0.0000000   0.0000000   0.0000000), wk =   0.0312500
        k(    2) = (  -0.0000000   0.0000000   0.2500000), wk =   0.0625000
        k(    3) = (   0.0000000  -0.0000000  -0.5000000), wk =   0.0312500
        k(    4) = (   0.0000000   0.2500000  -0.0000000), wk =   0.0625000
        k(    5) = (   0.0000000   0.2500000   0.2500000), wk =   0.0625000
        k(    6) = (  -0.0000000   0.2500000  -0.5000000), wk =   0.0625000
        k(    7) = (   0.0000000   0.2500000  -0.2500000), wk =   0.0625000
        k(    8) = (  -0.0000000  -0.5000000   0.0000000), wk =   0.0312500
        k(    9) = (  -0.0000000  -0.5000000   0.2500000), wk =   0.0625000
        k(   10) = (  -0.0000000  -0.5000000  -0.5000000), wk =   0.0312500
        k(   11) = (   0.2500000  -0.0000000  -0.0000000), wk =   0.0625000
        k(   12) = (   0.2500000  -0.0000000   0.2500000), wk =   0.0625000
        k(   13) = (   0.2500000  -0.0000000  -0.5000000), wk =   0.0625000
        k(   14) = (   0.2500000   0.0000000  -0.2500000), wk =   0.0625000
        k(   15) = (   0.2500000   0.2500000  -0.0000000), wk =   0.0625000
        k(   16) = (   0.2500000   0.2500000   0.2500000), wk =   0.0625000
        k(   17) = (   0.2500000   0.2500000  -0.5000000), wk =   0.0625000
        k(   18) = (   0.2500000   0.2500000  -0.2500000), wk =   0.0625000
        k(   19) = (   0.2500000  -0.5000000   0.0000000), wk =   0.0625000
        k(   20) = (   0.2500000  -0.5000000   0.2500000), wk =   0.0625000
        k(   21) = (   0.2500000  -0.5000000  -0.5000000), wk =   0.0625000
        k(   22) = (   0.2500000  -0.5000000  -0.2500000), wk =   0.0625000
        k(   23) = (   0.2500000  -0.2500000  -0.0000000), wk =   0.0625000
        k(   24) = (   0.2500000  -0.2500000   0.2500000), wk =   0.0625000
        k(   25) = (   0.2500000  -0.2500000  -0.5000000), wk =   0.0625000
        k(   26) = (   0.2500000  -0.2500000  -0.2500000), wk =   0.0625000
        k(   27) = (  -0.5000000   0.0000000   0.0000000), wk =   0.0312500
        k(   28) = (  -0.5000000   0.0000000   0.2500000), wk =   0.0625000
        k(   29) = (  -0.5000000   0.0000000  -0.5000000), wk =   0.0312500
        k(   30) = (  -0.5000000   0.2500000   0.0000000), wk =   0.0625000
        k(   31) = (  -0.5000000   0.2500000   0.2500000), wk =   0.0625000
        k(   32) = (  -0.5000000   0.2500000  -0.5000000), wk =   0.0625000
        k(   33) = (  -0.5000000   0.2500000  -0.2500000), wk =   0.0625000
        k(   34) = (  -0.5000000  -0.5000000   0.0000000), wk =   0.0312500
        k(   35) = (  -0.5000000  -0.5000000   0.2500000), wk =   0.0625000
        k(   36) = (  -0.5000000  -0.5000000  -0.5000000), wk =   0.0312500

     Dense  grid:  1082167 G-vectors     FFT dimensions: ( 135, 135, 144)

     Smooth grid:   359765 G-vectors     FFT dimensions: (  96,  96,  96)

     Dynamical RAM for                 wfc:      19.99 MB

     Dynamical RAM for     wfc (w. buffer):     119.93 MB

     Dynamical RAM for           str. fact:       3.10 MB

     Dynamical RAM for           local pot:       0.00 MB

     Dynamical RAM for          nlocal pot:      48.55 MB

     Dynamical RAM for                qrad:      21.05 MB

     Dynamical RAM for          rho,v,vnew:       6.85 MB

     Dynamical RAM for               rhoin:       2.28 MB

     Dynamical RAM for            rho*nmix:      16.51 MB

     Dynamical RAM for           G-vectors:       4.04 MB

     Dynamical RAM for          h,s,v(r/c):      39.76 MB

     Dynamical RAM for          <psi|beta>:       8.05 MB

     Dynamical RAM for                 psi:      79.95 MB

     Dynamical RAM for                hpsi:      79.95 MB

     Dynamical RAM for                spsi:      79.95 MB

     Dynamical RAM for      wfcinit/wfcrot:      46.89 MB

     Dynamical RAM for           addusdens:      31.99 MB

     Estimated static dynamical RAM per process >     232.70 MB

     Estimated max dynamical RAM per process >     520.36 MB

     Estimated total dynamical RAM >      65.05 GB

     Check: negative core charge=   -0.000002

     Initial potential from superposition of free atoms

     starting charge  771.19370, renormalised to  776.00000
     Starting wfcs are  484 randomized atomic wfcs

     total cpu time spent up to now is       14.7 secs

     Self-consistent Calculation

     iteration #  1     ecut=    60.00 Ry     beta= 0.50
     Davidson diagonalization with overlap
     ethr =  1.00E-02,  avg # of iterations =  4.8

     total cpu time spent up to now is       73.2 secs

     total energy              =  -12379.54889149 Ry
     Harris-Foulkes estimate   =  -12398.53304937 Ry
     estimated scf accuracy    <      27.67954934 Ry

     iteration #  2     ecut=    60.00 Ry     beta= 0.50
     Davidson diagonalization with overlap
     ethr =  3.57E-03,  avg # of iterations =  3.1

     total cpu time spent up to now is      135.3 secs

     total energy              =  -12386.57836084 Ry
     Harris-Foulkes estimate   =  -12398.10465888 Ry
     estimated scf accuracy    <      28.46163164 Ry

     iteration #  3     ecut=    60.00 Ry     beta= 0.50
     Davidson diagonalization with overlap
     ethr =  3.57E-03,  avg # of iterations =  3.2

     total cpu time spent up to now is      192.5 secs

     total energy              =  -12392.02066824 Ry
     Harris-Foulkes estimate   =  -12392.69710341 Ry
     estimated scf accuracy    <       1.95933003 Ry

     iteration #  4     ecut=    60.00 Ry     beta= 0.50
     Davidson diagonalization with overlap
     ethr =  2.52E-04,  avg # of iterations =  4.4

     total cpu time spent up to now is      249.4 secs

     total energy              =  -12392.20394350 Ry
     Harris-Foulkes estimate   =  -12392.26976340 Ry
     estimated scf accuracy    <       0.18599631 Ry

     iteration #  5     ecut=    60.00 Ry     beta= 0.50
     Davidson diagonalization with overlap
     ethr =  2.40E-05,  avg # of iterations =  5.1

     total cpu time spent up to now is      329.2 secs

     total energy              =  -12392.21967116 Ry
     Harris-Foulkes estimate   =  -12392.24195825 Ry
     estimated scf accuracy    <       0.05274412 Ry

     iteration #  6     ecut=    60.00 Ry     beta= 0.50
     Davidson diagonalization with overlap
     ethr =  6.80E-06,  avg # of iterations =  3.8

     total cpu time spent up to now is      394.5 secs

     total energy              =  -12392.22966787 Ry
     Harris-Foulkes estimate   =  -12392.23221769 Ry
     estimated scf accuracy    <       0.00948878 Ry

     iteration #  7     ecut=    60.00 Ry     beta= 0.50
     Davidson diagonalization with overlap
     ethr =  1.22E-06,  avg # of iterations =  2.8

     total cpu time spent up to now is      441.7 secs

     total energy              =  -12392.23102751 Ry
     Harris-Foulkes estimate   =  -12392.23128852 Ry
     estimated scf accuracy    <       0.00093946 Ry

     iteration #  8     ecut=    60.00 Ry     beta= 0.50
     Davidson diagonalization with overlap
     ethr =  1.21E-07,  avg # of iterations =  2.0

     total cpu time spent up to now is      486.0 secs

     total energy              =  -12392.23118818 Ry
     Harris-Foulkes estimate   =  -12392.23121917 Ry
     estimated scf accuracy    <       0.00009890 Ry

     iteration #  9     ecut=    60.00 Ry     beta= 0.50
     Davidson diagonalization with overlap
     ethr =  1.27E-08,  avg # of iterations =  2.0

     total cpu time spent up to now is      530.4 secs

     total energy              =  -12392.23121207 Ry
     Harris-Foulkes estimate   =  -12392.23121375 Ry
     estimated scf accuracy    <       0.00002147 Ry

     iteration # 10     ecut=    60.00 Ry     beta= 0.50
     Davidson diagonalization with overlap
     ethr =  2.77E-09,  avg # of iterations =  2.0

     total cpu time spent up to now is      570.0 secs

     total energy              =  -12392.23121576 Ry
     Harris-Foulkes estimate   =  -12392.23121576 Ry
     estimated scf accuracy    <       0.00000262 Ry

     iteration # 11     ecut=    60.00 Ry     beta= 0.50
     Davidson diagonalization with overlap
     ethr =  3.38E-10,  avg # of iterations =  2.0

     total cpu time spent up to now is      614.6 secs

     total energy              =  -12392.23121627 Ry
     Harris-Foulkes estimate   =  -12392.23121627 Ry
     estimated scf accuracy    <       0.00000029 Ry

     iteration # 12     ecut=    60.00 Ry     beta= 0.50
     Davidson diagonalization with overlap
     ethr =  3.74E-11,  avg # of iterations =  2.0

     total cpu time spent up to now is      657.5 secs

     total energy              =  -12392.23121633 Ry
     Harris-Foulkes estimate   =  -12392.23121633 Ry
     estimated scf accuracy    <       0.00000006 Ry

     iteration # 13     ecut=    60.00 Ry     beta= 0.50
     Davidson diagonalization with overlap
     ethr =  7.20E-12,  avg # of iterations =  2.0

     total cpu time spent up to now is      702.0 secs

     total energy              =  -12392.23121634 Ry
     Harris-Foulkes estimate   =  -12392.23121634 Ry
     estimated scf accuracy    <       0.00000001 Ry

     iteration # 14     ecut=    60.00 Ry     beta= 0.50
     Davidson diagonalization with overlap
     ethr =  1.32E-12,  avg # of iterations =  2.0

     total cpu time spent up to now is      744.8 secs

     End of self-consistent calculation

          k = 0.0000 0.0000 0.0000 ( 44865 PWs)   bands (ev):

  -115.6823-115.6766-115.6741-115.6721-115.6715-115.6688-115.6681-115.6676
  -115.6636-115.6636-115.6623-115.6612-115.6600-115.6594-115.6554-115.6534
  -115.6479-115.6454-115.6450-115.6285 -70.0443 -70.0396 -70.0384 -70.0351
   -70.0341 -70.0329 -70.0326 -70.0318 -70.0307 -70.0304 -70.0300 -70.0295
   -70.0282 -70.0275 -70.0274 -70.0266 -70.0258 -70.0253 -70.0251 -70.0250
   -70.0245 -70.0244 -70.0238 -70.0233 -70.0227 -70.0220 -70.0216 -70.0213
   -70.0203 -70.0199 -70.0196 -70.0189 -70.0189 -70.0176 -70.0174 -70.0171
   -70.0166 -70.0146 -70.0145 -70.0131 -70.0110 -70.0108 -70.0106 -70.0105
   -70.0098 -70.0094 -70.0092 -70.0091 -70.0084 -70.0070 -70.0041 -70.0030
   -70.0023 -70.0016 -70.0007 -69.9962 -69.9927 -69.9920 -69.9848 -69.9785
   -65.1246 -65.1169 -65.1006 -65.0992 -65.0852 -65.0767 -65.0729 -65.0674
   -65.0636 -65.0597 -65.0563 -65.0527 -65.0484 -65.0481 -65.0344 -65.0264
   -32.1174 -32.1114 -32.1091 -32.1085 -32.1045 -32.1015 -32.0926 -32.0922
   -32.0878 -32.0873 -32.0847 -32.0825 -32.0799 -32.0738 -32.0732 -32.0703
   -32.0669 -32.0660 -32.0650 -32.0630 -32.0602 -32.0591 -32.0568 -32.0527
   -32.0523 -32.0513 -32.0501 -32.0494 -32.0478 -32.0457 -32.0448 -32.0437
   -32.0427 -32.0424 -32.0401 -32.0379 -32.0370 -32.0362 -32.0337 -32.0328
   -32.0296 -32.0287 -32.0275 -32.0202 -32.0172 -32.0146 -32.0102 -32.0064
   -10.2945  -9.9770  -9.9313  -9.8666  -9.8445  -9.8123  -9.7788  -9.7725
    -9.7177  -9.6816  -9.6390  -9.6146  -9.5985  -9.5790  -9.5657  -9.5243
    -9.5208  -9.4887  -9.4745  -9.4609  -9.4525  -9.4198  -9.3990  -9.3876
    -9.3726  -9.3406  -9.3217  -9.2935  -9.2630  -9.2130  -9.1913  -9.1803
    -9.1489  -9.1158  -9.1041  -8.9628   1.5003   1.5389   1.5624   1.5689
     1.5929   1.6106   1.6361   1.6476   1.6715   1.6938   1.7222   1.7297
     1.7949   1.8103   1.8314   1.8454   1.8508   1.8672   1.8818   1.8962
     1.9130   1.9336   1.9483   1.9777   1.9934   2.0147   2.0212   2.0306
     2.0385   2.0541   2.0571   2.0728   2.0810   2.1120   2.1154   2.1227
     2.1355   2.1499   2.1677   2.1731   2.1767   2.2005   2.2140   2.2209
     2.2317   2.2388   2.2618   2.2858   2.3033   2.3282   2.3549   2.3893
     2.4028   2.4239   2.4462   2.4611   2.4730   2.4848   2.4955   2.5219
     2.5362   2.5578   2.5781   2.5933   2.6057   2.6117   2.6260   2.6406
     2.6555   2.6812   2.6873   2.7038   2.7137   2.7365   2.7495   2.7613
     2.7909   2.8130   2.8297   2.8346   2.8450   2.8638   2.8829   2.9004
     2.9105   2.9230   2.9376   2.9478   2.9647   2.9773   2.9940   3.0150
     3.0214   3.0286   3.0414   3.0547   3.0678   3.0750   3.0994   3.1156
     3.1207   3.2249   3.3170   3.3633   3.4109   3.4255   3.4463   3.5042
     3.5317   3.5433   3.5781   3.5997   3.6513   3.6704   3.7170   3.7438
     3.7832   3.8191   3.8491   3.8947   3.9261   3.9697   4.0602   4.0926
     4.1147   4.1243   4.1575   4.2030   4.2168   4.2726   4.2918   4.3387
     4.3658   4.3876   4.4195   4.5022   4.5450   4.5539   4.5767   4.6654
     4.7412   4.7892   4.8605   4.8887   4.9290   5.0534   5.1041   5.2203
     5.2496   5.2687   5.2756   5.3087   5.3440   5.3525   5.3832   5.4345
     5.4494   5.4651   5.4888   5.5303   5.5459   5.6253   5.6708   5.6934
     5.7112   5.7527   5.7672   5.7869   5.7922   5.8079   5.8380   5.8702
     5.9001   5.9195   5.9351   5.9521   5.9756   6.0227   6.0442   6.0462
     6.0622   6.1193   6.1309   6.1660   6.2014   6.2224   6.2411   6.2618
     6.2841   6.3249   6.3601   6.3899   6.4064   6.4266   6.4596   6.4716
     6.4866   6.4940   6.5128   6.5734   6.6262   6.7113   6.7269   6.7468
     6.8001   7.0234   7.0401   7.0597   8.8241  11.2835  11.3222  11.9048
    11.9563  12.0251  12.1054  12.2033  12.3650  12.7893  12.8540  12.8809
    12.9075  12.9576  12.9835  13.0369  13.0556  13.1226  13.2026  13.2932
    13.3415  13.6536  14.7573  14.7645  14.8937  14.9646  15.0035  15.0202
    15.0393  15.0581  15.0850  15.1330  15.1483  15.1892  15.2148  15.2280
    15.2468  15.2939  15.3391  15.3517  15.4025  15.4656  15.5454  15.6420
    15.6864  15.7665  15.8054  15.8510  15.8812  15.9544  16.0295  16.1185
    16.1322  16.1764  16.2208  16.2571  16.2638  16.4068  16.4688  16.6987
    16.7311  16.9561  17.1598  17.1945  17.2540  17.4099  17.4527  17.5027
    17.5432  17.5657  17.7795  17.8262  17.9531  18.2059  18.2331  18.2809
    18.3212  18.4758

     occupation numbers 
     1.0000   1.0000   1.0000   1.0000   1.0000   1.0000   1.0000   1.0000
     1.0000   1.0000   1.0000   1.0000   1.0000   1.0000   1.0000   1.0000
     1.0000   1.0000   1.0000   1.0000   1.0000   1.0000   1.0000   1.0000
     1.0000   1.0000   1.0000   1.0000   1.0000   1.0000   1.0000   1.0000
     1.0000   1.0000   1.0000   1.0000   1.0000   1.0000   1.0000   1.0000
     1.0000   1.0000   1.0000   1.0000   1.0000   1.0000   1.0000   1.0000
     1.0000   1.0000   1.0000   1.0000   1.0000   1.0000   1.0000   1.0000
     1.0000   1.0000   1.0000   1.0000   1.0000   1.0000   1.0000   1.0000
     1.0000   1.0000   1.0000   1.0000   1.0000   1.0000   1.0000   1.0000
     1.0000   1.0000   1.0000   1.0000   1.0000   1.0000   1.0000   1.0000
     1.0000   1.0000   1.0000   1.0000   1.0000   1.0000   1.0000   1.0000
     1.0000   1.0000   1.0000   1.0000   1.0000   1.0000   1.0000   1.0000
     1.0000   1.0000   1.0000   1.0000   1.0000   1.0000   1.0000   1.0000
     1.0000   1.0000   1.0000   1.0000   1.0000   1.0000   1.0000   1.0000
     1.0000   1.0000   1.0000   1.0000   1.0000   1.0000   1.0000   1.0000
     1.0000   1.0000   1.0000   1.0000   1.0000   1.0000   1.0000   1.0000
     1.0000   1.0000   1.0000   1.0000   1.0000   1.0000   1.0000   1.0000
     1.0000   1.0000   1.0000   1.0000   1.0000   1.0000   1.0000   1.0000
     1.0000   1.0000   1.0000   1.0000   1.0000   1.0000   1.0000   1.0000
     1.0000   1.0000   1.0000   1.0000   1.0000   1.0000   1.0000   1.0000
     1.0000   1.0000   1.0000   1.0000   1.0000   1.0000   1.0000   1.0000
     1.0000   1.0000   1.0000   1.0000   1.0000   1.0000   1.0000   1.0000
     1.0000   1.0000   1.0000   1.0000   1.0000   1.0000   1.0000   1.0000
     1.0000   1.0000   1.0000   1.0000   1.0000   1.0000   1.0000   1.0000
     1.0000   1.0000   1.0000   1.0000   1.0000   1.0000   1.0000   1.0000
     1.0000   1.0000   1.0000   1.0000   1.0000   1.0000   1.0000   1.0000
     1.0000   1.0000   1.0000   1.0000   1.0000   1.0000   1.0000   1.0000
     1.0000   1.0000   1.0000   1.0000   1.0000   1.0000   1.0000   1.0000
     1.0000   1.0000   1.0000   1.0000   1.0000   1.0000   1.0000   1.0000
     1.0000   1.0000   1.0000   1.0000   1.0000   1.0000   1.0000   1.0000
     1.0000   1.0000   1.0000   1.0000   1.0000   1.0000   1.0000   1.0000
     1.0000   1.0000   1.0000   1.0000   1.0000   1.0000   1.0000   1.0000
     1.0000   1.0000   1.0000   1.0000   1.0000   1.0000   1.0000   1.0000
     1.0000   1.0000   1.0000   1.0000   1.0000   1.0000   1.0000   1.0000
     1.0000   1.0000   1.0000   1.0000   1.0000   1.0000   1.0000   1.0000
     1.0000   1.0000   1.0000   1.0000   1.0000   1.0000   1.0000   1.0000
     1.0000   1.0000   1.0000   1.0000   1.0000   1.0000   1.0000   1.0000
     1.0000   1.0000   1.0000   1.0000   1.0000   1.0000   1.0000   1.0000
     1.0000   1.0000   1.0000   1.0000   1.0000   1.0000   1.0000   1.0000
     1.0000   1.0000   1.0000   1.0000   1.0000   1.0000   1.0000   1.0000
     1.0000   1.0000   1.0000   1.0000   1.0000   1.0000   1.0000   1.0000
     1.0000   1.0000   1.0000   1.0000   1.0000   1.0000   1.0000   1.0000
     1.0000   1.0000   1.0000   1.0000   1.0000   1.0000   1.0000   1.0000
     1.0000   1.0000   1.0000   1.0000   1.0000   1.0000   1.0000   1.0000
     1.0000   1.0000   1.0000   1.0000   1.0000   1.0000   1.0000   1.0000
     1.0000   1.0000   1.0000   1.0000   1.0000   1.0000   1.0000   1.0000
     1.0000   1.0000   1.0000   1.0000   1.0000   1.0000   1.0000   1.0000
     1.0000   1.0000   1.0000   1.0000   1.0000   1.0000   1.0000   1.0000
     1.0000   1.0000   1.0000   1.0000   0.0000   0.0000   0.0000   0.0000
     0.0000   0.0000   0.0000   0.0000   0.0000   0.0000   0.0000   0.0000
     0.0000   0.0000   0.0000   0.0000   0.0000   0.0000   0.0000   0.0000
     0.0000   0.0000   0.0000   0.0000   0.0000   0.0000   0.0000   0.0000
     0.0000   0.0000   0.0000   0.0000   0.0000   0.0000   0.0000   0.0000
     0.0000   0.0000   0.0000   0.0000   0.0000   0.0000   0.0000   0.0000
     0.0000   0.0000   0.0000   0.0000   0.0000   0.0000   0.0000   0.0000
     0.0000   0.0000   0.0000   0.0000   0.0000   0.0000   0.0000   0.0000
     0.0000   0.0000   0.0000   0.0000   0.0000   0.0000   0.0000   0.0000
     0.0000   0.0000   0.0000   0.0000   0.0000   0.0000   0.0000   0.0000
     0.0000   0.0000

          k =-0.0002-0.0000 0.2372 ( 45027 PWs)   bands (ev):

  -115.6823-115.6766-115.6741-115.6721-115.6715-115.6688-115.6681-115.6676
  -115.6636-115.6636-115.6623-115.6612-115.6600-115.6594-115.6554-115.6534
  -115.6479-115.6454-115.6450-115.6285 -70.0443 -70.0396 -70.0384 -70.0351
   -70.0341 -70.0329 -70.0326 -70.0318 -70.0307 -70.0304 -70.0300 -70.0295
   -70.0282 -70.0275 -70.0274 -70.0266 -70.0258 -70.0253 -70.0251 -70.0250
   -70.0245 -70.0244 -70.0238 -70.0233 -70.0227 -70.0220 -70.0216 -70.0213
   -70.0203 -70.0199 -70.0196 -70.0189 -70.0189 -70.0176 -70.0174 -70.0171
   -70.0166 -70.0146 -70.0145 -70.0131 -70.0110 -70.0108 -70.0106 -70.0105
   -70.0098 -70.0094 -70.0092 -70.0091 -70.0084 -70.0070 -70.0041 -70.0030
   -70.0023 -70.0016 -70.0007 -69.9962 -69.9927 -69.9920 -69.9848 -69.9785
   -65.1246 -65.1169 -65.1006 -65.0992 -65.0852 -65.0767 -65.0729 -65.0674
   -65.0636 -65.0597 -65.0563 -65.0527 -65.0484 -65.0481 -65.0344 -65.0264
   -32.1174 -32.1114 -32.1091 -32.1085 -32.1045 -32.1015 -32.0926 -32.0921
   -32.0878 -32.0873 -32.0847 -32.0825 -32.0799 -32.0738 -32.0733 -32.0703
   -32.0668 -32.0660 -32.0650 -32.0631 -32.0602 -32.0591 -32.0568 -32.0527
   -32.0523 -32.0513 -32.0501 -32.0494 -32.0478 -32.0457 -32.0448 -32.0437
   -32.0427 -32.0424 -32.0401 -32.0379 -32.0369 -32.0362 -32.0337 -32.0328
   -32.0296 -32.0287 -32.0275 -32.0202 -32.0172 -32.0146 -32.0102 -32.0064
   -10.2727 -10.0591  -9.8916  -9.8599  -9.8320  -9.8025  -9.7806  -9.7412
    -9.7155  -9.6935  -9.6621  -9.6454  -9.6193  -9.5743  -9.5534  -9.5213
    -9.5126  -9.4956  -9.4841  -9.4560  -9.4479  -9.4017  -9.3934  -9.3766
    -9.3603  -9.3422  -9.3222  -9.2933  -9.2640  -9.2172  -9.1920  -9.1820
    -9.1524  -9.1192  -9.1077  -8.9641   1.5067   1.5571   1.5691   1.5802
     1.6005   1.6248   1.6488   1.6622   1.6837   1.7055   1.7267   1.7477
     1.8010   1.8131   1.8332   1.8505   1.8614   1.8707   1.8832   1.9028
     1.9167   1.9433   1.9479   1.9761   1.9905   1.9993   2.0122   2.0227
     2.0445   2.0531   2.0640   2.0695   2.0792   2.1009   2.1120   2.1197
     2.1397   2.1518   2.1566   2.1752   2.1851   2.2024   2.2082   2.2145
     2.2302   2.2406   2.2528   2.2772   2.2963   2.3299   2.3451   2.3733
     2.3960   2.4022   2.4323   2.4399   2.4552   2.4653   2.4788   2.4999
     2.5191   2.5312   2.5465   2.5752   2.5832   2.5927   2.6167   2.6227
     2.6433   2.6500   2.6697   2.6877   2.7091   2.7182   2.7373   2.7615
     2.7783   2.7966   2.8168   2.8305   2.8513   2.8689   2.8750   2.8960
     2.9170   2.9225   2.9416   2.9463   2.9694   2.9784   2.9985   3.0134
     3.0267   3.0307   3.0430   3.0553   3.0636   3.0824   3.1028   3.1188
     3.1671   3.2372   3.3220   3.4059   3.4242   3.4548   3.4775   3.5049
     3.5384   3.5631   3.5937   3.6303   3.6589   3.6941   3.7322   3.7648
     3.7953   3.8150   3.8649   3.9072   3.9705   3.9924   4.0564   4.0835
     4.1235   4.1623   4.1831   4.2155   4.2397   4.2683   4.2857   4.3358
     4.3503   4.3889   4.4173   4.4529   4.4853   4.5252   4.6850   4.7465
     4.8191   4.8601   4.8766   4.9211   5.0018   5.0431   5.1470   5.2024
     5.2352   5.2786   5.2904   5.3206   5.3346   5.3613   5.3719   5.3897
     5.4064   5.4230   5.4492   5.4725   5.4972   5.5214   5.5528   5.5937
     5.6175   5.6473   5.6966   5.7177   5.7532   5.7785   5.8124   5.8330
     5.8944   5.9136   5.9332   5.9703   6.0322   6.0492   6.0809   6.0930
     6.1166   6.1461   6.1666   6.1867   6.2191   6.2511   6.2840   6.2904
     6.3126   6.3552   6.3887   6.4095   6.4278   6.4441   6.4747   6.4959
     6.5116   6.5351   6.5486   6.5804   6.6028   6.6510   6.7001   6.7910
     6.8338   6.8413   7.0304   7.0502   9.1279  10.5682  11.8338  11.9257
    11.9777  12.0591  12.1289  12.2414  12.3696  12.4199  12.5268  12.5750
    12.6661  12.7321  12.9143  13.2474  13.4498  13.5355  13.5722  13.6081
    13.7113  13.7956  14.5540  14.6214  14.6990  14.7116  14.7822  14.8197
    14.8419  14.8634  15.0111  15.0224  15.0926  15.1033  15.2046  15.2151
    15.2421  15.3965  15.4414  15.5259  15.5833  15.6223  15.6413  15.7166
    15.7513  15.8104  15.8324  15.8728  15.9807  16.0381  16.0902  16.1061
    16.1644  16.1961  16.2242  16.3351  16.3509  16.4733  16.5694  16.6148
    16.7888  16.9198  17.0080  17.1091  17.2267  17.3056  17.3511  17.4087
    17.4590  17.5251  17.6038  17.8153  17.9451  18.0025  18.0931  18.2006
    18.3376  18.4065

     occupation numbers 
     1.0000   1.0000   1.0000   1.0000   1.0000   1.0000   1.0000   1.0000
     1.0000   1.0000   1.0000   1.0000   1.0000   1.0000   1.0000   1.0000
     1.0000   1.0000   1.0000   1.0000   1.0000   1.0000   1.0000   1.0000
     1.0000   1.0000   1.0000   1.0000   1.0000   1.0000   1.0000   1.0000
     1.0000   1.0000   1.0000   1.0000   1.0000   1.0000   1.0000   1.0000
     1.0000   1.0000   1.0000   1.0000   1.0000   1.0000   1.0000   1.0000
     1.0000   1.0000   1.0000   1.0000   1.0000   1.0000   1.0000   1.0000
     1.0000   1.0000   1.0000   1.0000   1.0000   1.0000   1.0000   1.0000
     1.0000   1.0000   1.0000   1.0000   1.0000   1.0000   1.0000   1.0000
     1.0000   1.0000   1.0000   1.0000   1.0000   1.0000   1.0000   1.0000
     1.0000   1.0000   1.0000   1.0000   1.0000   1.0000   1.0000   1.0000
     1.0000   1.0000   1.0000   1.0000   1.0000   1.0000   1.0000   1.0000
     1.0000   1.0000   1.0000   1.0000   1.0000   1.0000   1.0000   1.0000
     1.0000   1.0000   1.0000   1.0000   1.0000   1.0000   1.0000   1.0000
     1.0000   1.0000   1.0000   1.0000   1.0000   1.0000   1.0000   1.0000
     1.0000   1.0000   1.0000   1.0000   1.0000   1.0000   1.0000   1.0000
     1.0000   1.0000   1.0000   1.0000   1.0000   1.0000   1.0000   1.0000
     1.0000   1.0000   1.0000   1.0000   1.0000   1.0000   1.0000   1.0000
     1.0000   1.0000   1.0000   1.0000   1.0000   1.0000   1.0000   1.0000
     1.0000   1.0000   1.0000   1.0000   1.0000   1.0000   1.0000   1.0000
     1.0000   1.0000   1.0000   1.0000   1.0000   1.0000   1.0000   1.0000
     1.0000   1.0000   1.0000   1.0000   1.0000   1.0000   1.0000   1.0000
     1.0000   1.0000   1.0000   1.0000   1.0000   1.0000   1.0000   1.0000
     1.0000   1.0000   1.0000   1.0000   1.0000   1.0000   1.0000   1.0000
     1.0000   1.0000   1.0000   1.0000   1.0000   1.0000   1.0000   1.0000
     1.0000   1.0000   1.0000   1.0000   1.0000   1.0000   1.0000   1.0000
     1.0000   1.0000   1.0000   1.0000   1.0000   1.0000   1.0000   1.0000
     1.0000   1.0000   1.0000   1.0000   1.0000   1.0000   1.0000   1.0000
     1.0000   1.0000   1.0000   1.0000   1.0000   1.0000   1.0000   1.0000
     1.0000   1.0000   1.0000   1.0000   1.0000   1.0000   1.0000   1.0000
     1.0000   1.0000   1.0000   1.0000   1.0000   1.0000   1.0000   1.0000
     1.0000   1.0000   1.0000   1.0000   1.0000   1.0000   1.0000   1.0000
     1.0000   1.0000   1.0000   1.0000   1.0000   1.0000   1.0000   1.0000
     1.0000   1.0000   1.0000   1.0000   1.0000   1.0000   1.0000   1.0000
     1.0000   1.0000   1.0000   1.0000   1.0000   1.0000   1.0000   1.0000
     1.0000   1.0000   1.0000   1.0000   1.0000   1.0000   1.0000   1.0000
     1.0000   1.0000   1.0000   1.0000   1.0000   1.0000   1.0000   1.0000
     1.0000   1.0000   1.0000   1.0000   1.0000   1.0000   1.0000   1.0000
     1.0000   1.0000   1.0000   1.0000   1.0000   1.0000   1.0000   1.0000
     1.0000   1.0000   1.0000   1.0000   1.0000   1.0000   1.0000   1.0000
     1.0000   1.0000   1.0000   1.0000   1.0000   1.0000   1.0000   1.0000
     1.0000   1.0000   1.0000   1.0000   1.0000   1.0000   1.0000   1.0000
     1.0000   1.0000   1.0000   1.0000   1.0000   1.0000   1.0000   1.0000
     1.0000   1.0000   1.0000   1.0000   1.0000   1.0000   1.0000   1.0000
     1.0000   1.0000   1.0000   1.0000   1.0000   1.0000   1.0000   1.0000
     1.0000   1.0000   1.0000   1.0000   1.0000   1.0000   1.0000   1.0000
     1.0000   1.0000   1.0000   1.0000   1.0000   1.0000   1.0000   1.0000
     1.0000   1.0000   1.0000   1.0000   1.0000   1.0000   1.0000   1.0000
     1.0000   1.0000   1.0000   1.0000   0.0000   0.0000   0.0000   0.0000
     0.0000   0.0000   0.0000   0.0000   0.0000   0.0000   0.0000   0.0000
     0.0000   0.0000   0.0000   0.0000   0.0000   0.0000   0.0000   0.0000
     0.0000   0.0000   0.0000   0.0000   0.0000   0.0000   0.0000   0.0000
     0.0000   0.0000   0.0000   0.0000   0.0000   0.0000   0.0000   0.0000
     0.0000   0.0000   0.0000   0.0000   0.0000   0.0000   0.0000   0.0000
     0.0000   0.0000   0.0000   0.0000   0.0000   0.0000   0.0000   0.0000
     0.0000   0.0000   0.0000   0.0000   0.0000   0.0000   0.0000   0.0000
     0.0000   0.0000   0.0000   0.0000   0.0000   0.0000   0.0000   0.0000
     0.0000   0.0000   0.0000   0.0000   0.0000   0.0000   0.0000   0.0000
     0.0000   0.0000

          k = 0.0003 0.0000-0.4744 ( 45002 PWs)   bands (ev):

  -115.6823-115.6766-115.6741-115.6721-115.6715-115.6688-115.6681-115.6676
  -115.6636-115.6636-115.6623-115.6612-115.6600-115.6594-115.6554-115.6534
  -115.6479-115.6454-115.6450-115.6285 -70.0443 -70.0396 -70.0384 -70.0351
   -70.0341 -70.0329 -70.0326 -70.0318 -70.0307 -70.0304 -70.0300 -70.0295
   -70.0282 -70.0275 -70.0274 -70.0266 -70.0258 -70.0253 -70.0251 -70.0250
   -70.0245 -70.0244 -70.0238 -70.0233 -70.0227 -70.0220 -70.0216 -70.0213
   -70.0203 -70.0199 -70.0196 -70.0189 -70.0189 -70.0176 -70.0174 -70.0171
   -70.0166 -70.0146 -70.0145 -70.0131 -70.0110 -70.0108 -70.0106 -70.0105
   -70.0098 -70.0094 -70.0092 -70.0091 -70.0084 -70.0070 -70.0041 -70.0030
   -70.0023 -70.0016 -70.0007 -69.9962 -69.9927 -69.9920 -69.9848 -69.9785
   -65.1246 -65.1169 -65.1006 -65.0992 -65.0852 -65.0767 -65.0729 -65.0674
   -65.0636 -65.0597 -65.0563 -65.0527 -65.0484 -65.0481 -65.0344 -65.0264
   -32.1174 -32.1114 -32.1091 -32.1085 -32.1045 -32.1015 -32.0926 -32.0921
   -32.0878 -32.0873 -32.0847 -32.0825 -32.0799 -32.0737 -32.0733 -32.0703
   -32.0668 -32.0660 -32.0650 -32.0631 -32.0602 -32.0591 -32.0568 -32.0528
   -32.0523 -32.0513 -32.0501 -32.0493 -32.0479 -32.0457 -32.0448 -32.0437
   -32.0427 -32.0425 -32.0401 -32.0379 -32.0369 -32.0362 -32.0337 -32.0328
   -32.0296 -32.0287 -32.0275 -32.0202 -32.0172 -32.0146 -32.0102 -32.0064
   -10.2378 -10.1259  -9.8755  -9.8454  -9.8191  -9.7923  -9.7773  -9.7538
    -9.7079  -9.6965  -9.6845  -9.6601  -9.6011  -9.5839  -9.5708  -9.5210
    -9.5148  -9.4931  -9.4872  -9.4546  -9.4388  -9.3916  -9.3694  -9.3649
    -9.3637  -9.3464  -9.3211  -9.2899  -9.2668  -9.2216  -9.1926  -9.1836
    -9.1559  -9.1229  -9.1116  -8.9655   1.5125   1.5694   1.5761   1.5914
     1.6111   1.6489   1.6618   1.6797   1.6880   1.7097   1.7490   1.7686
     1.8050   1.8313   1.8384   1.8564   1.8632   1.8680   1.8912   1.9143
     1.9266   1.9372   1.9487   1.9628   1.9833   1.9924   2.0031   2.0169
     2.0323   2.0500   2.0602   2.0696   2.0727   2.0983   2.1126   2.1161
     2.1448   2.1488   2.1650   2.1785   2.1898   2.2005   2.2061   2.2157
     2.2374   2.2482   2.2595   2.2681   2.2839   2.3045   2.3245   2.3433
     2.3594   2.3911   2.4008   2.4239   2.4334   2.4507   2.4632   2.4722
     2.4903   2.5109   2.5379   2.5563   2.5669   2.5830   2.5919   2.6183
     2.6353   2.6381   2.6499   2.6841   2.7011   2.7055   2.7254   2.7437
     2.7765   2.7946   2.8103   2.8301   2.8494   2.8630   2.8765   2.9005
     2.9184   2.9248   2.9395   2.9465   2.9775   2.9899   3.0029   3.0094
     3.0278   3.0356   3.0452   3.0499   3.0705   3.0883   3.1095   3.1165
     3.2108   3.2628   3.3457   3.4151   3.4452   3.4703   3.4783   3.5153
     3.5646   3.6097   3.6359   3.6617   3.6814   3.7071   3.7346   3.7610
     3.7781   3.8272   3.8498   3.8743   3.9266   3.9696   4.0090   4.0685
     4.1339   4.1642   4.1888   4.2072   4.2486   4.3094   4.3463   4.3793
     4.3871   4.4689   4.4769   4.5379   4.5616   4.6231   4.7088   4.8335
     4.8555   4.8967   4.9300   4.9724   4.9885   5.0312   5.0314   5.0603
     5.0888   5.1520   5.1706   5.2367   5.2593   5.2998   5.3376   5.3889
     5.4203   5.4449   5.4745   5.4945   5.5388   5.5690   5.5901   5.6166
     5.6423   5.6563   5.6716   5.6960   5.7100   5.7391   5.7543   5.7634
     5.7854   5.8343   5.9142   5.9910   6.0463   6.0648   6.0945   6.1186
     6.1413   6.1781   6.1997   6.2182   6.2259   6.2695   6.2874   6.3410
     6.3522   6.3592   6.3940   6.4334   6.4513   6.4737   6.4821   6.5173
     6.5318   6.5528   6.5765   6.5798   6.6006   6.6256   6.6430   6.6798
     6.8440   6.8699   7.0184   7.0387   9.6779   9.9186  11.9186  11.9824
    12.0517  12.0873  12.1558  12.2089  12.2865  12.3117  12.3870  12.4240
    12.5664  12.7501  12.8106  13.0934  13.9914  14.0258  14.0550  14.0688
    14.0963  14.1404  14.1692  14.1944  14.2388  14.2907  14.3372  14.4067
    14.8648  14.8691  14.9721  14.9788  15.0817  15.0896  15.2005  15.2160
    15.2409  15.4410  15.5341  15.5828  15.6013  15.6367  15.7175  15.7845
    15.8089  15.8521  15.9520  16.0158  16.0441  16.0721  16.1030  16.1200
    16.1537  16.2167  16.2940  16.4428  16.5045  16.5421  16.5836  16.6285
    16.7134  16.8180  16.9602  16.9944  17.1190  17.1911  17.2692  17.3294
    17.3535  17.4424  17.5935  17.7974  17.9476  18.0158  18.0447  18.1124
    18.2271  18.3375

     occupation numbers 
     1.0000   1.0000   1.0000   1.0000   1.0000   1.0000   1.0000   1.0000
     1.0000   1.0000   1.0000   1.0000   1.0000   1.0000   1.0000   1.0000
     1.0000   1.0000   1.0000   1.0000   1.0000   1.0000   1.0000   1.0000
     1.0000   1.0000   1.0000   1.0000   1.0000   1.0000   1.0000   1.0000
     1.0000   1.0000   1.0000   1.0000   1.0000   1.0000   1.0000   1.0000
     1.0000   1.0000   1.0000   1.0000   1.0000   1.0000   1.0000   1.0000
     1.0000   1.0000   1.0000   1.0000   1.0000   1.0000   1.0000   1.0000
     1.0000   1.0000   1.0000   1.0000   1.0000   1.0000   1.0000   1.0000
     1.0000   1.0000   1.0000   1.0000   1.0000   1.0000   1.0000   1.0000
     1.0000   1.0000   1.0000   1.0000   1.0000   1.0000   1.0000   1.0000
     1.0000   1.0000   1.0000   1.0000   1.0000   1.0000   1.0000   1.0000
     1.0000   1.0000   1.0000   1.0000   1.0000   1.0000   1.0000   1.0000
     1.0000   1.0000   1.0000   1.0000   1.0000   1.0000   1.0000   1.0000
     1.0000   1.0000   1.0000   1.0000   1.0000   1.0000   1.0000   1.0000
     1.0000   1.0000   1.0000   1.0000   1.0000   1.0000   1.0000   1.0000
     1.0000   1.0000   1.0000   1.0000   1.0000   1.0000   1.0000   1.0000
     1.0000   1.0000   1.0000   1.0000   1.0000   1.0000   1.0000   1.0000
     1.0000   1.0000   1.0000   1.0000   1.0000   1.0000   1.0000   1.0000
     1.0000   1.0000   1.0000   1.0000   1.0000   1.0000   1.0000   1.0000
     1.0000   1.0000   1.0000   1.0000   1.0000   1.0000   1.0000   1.0000
     1.0000   1.0000   1.0000   1.0000   1.0000   1.0000   1.0000   1.0000
     1.0000   1.0000   1.0000   1.0000   1.0000   1.0000   1.0000   1.0000
     1.0000   1.0000   1.0000   1.0000   1.0000   1.0000   1.0000   1.0000
     1.0000   1.0000   1.0000   1.0000   1.0000   1.0000   1.0000   1.0000
     1.0000   1.0000   1.0000   1.0000   1.0000   1.0000   1.0000   1.0000
     1.0000   1.0000   1.0000   1.0000   1.0000   1.0000   1.0000   1.0000
     1.0000   1.0000   1.0000   1.0000   1.0000   1.0000   1.0000   1.0000
     1.0000   1.0000   1.0000   1.0000   1.0000   1.0000   1.0000   1.0000
     1.0000   1.0000   1.0000   1.0000   1.0000   1.0000   1.0000   1.0000
     1.0000   1.0000   1.0000   1.0000   1.0000   1.0000   1.0000   1.0000
     1.0000   1.0000   1.0000   1.0000   1.0000   1.0000   1.0000   1.0000
     1.0000   1.0000   1.0000   1.0000   1.0000   1.0000   1.0000   1.0000
     1.0000   1.0000   1.0000   1.0000   1.0000   1.0000   1.0000   1.0000
     1.0000   1.0000   1.0000   1.0000   1.0000   1.0000   1.0000   1.0000
     1.0000   1.0000   1.0000   1.0000   1.0000   1.0000   1.0000   1.0000
     1.0000   1.0000   1.0000   1.0000   1.0000   1.0000   1.0000   1.0000
     1.0000   1.0000   1.0000   1.0000   1.0000   1.0000   1.0000   1.0000
     1.0000   1.0000   1.0000   1.0000   1.0000   1.0000   1.0000   1.0000
     1.0000   1.0000   1.0000   1.0000   1.0000   1.0000   1.0000   1.0000
     1.0000   1.0000   1.0000   1.0000   1.0000   1.0000   1.0000   1.0000
     1.0000   1.0000   1.0000   1.0000   1.0000   1.0000   1.0000   1.0000
     1.0000   1.0000   1.0000   1.0000   1.0000   1.0000   1.0000   1.0000
     1.0000   1.0000   1.0000   1.0000   1.0000   1.0000   1.0000   1.0000
     1.0000   1.0000   1.0000   1.0000   1.0000   1.0000   1.0000   1.0000
     1.0000   1.0000   1.0000   1.0000   1.0000   1.0000   1.0000   1.0000
     1.0000   1.0000   1.0000   1.0000   1.0000   1.0000   1.0000   1.0000
     1.0000   1.0000   1.0000   1.0000   1.0000   1.0000   1.0000   1.0000
     1.0000   1.0000   1.0000   1.0000   1.0000   1.0000   1.0000   1.0000
     1.0000   1.0000   1.0000   1.0000   0.0000   0.0000   0.0000   0.0000
     0.0000   0.0000   0.0000   0.0000   0.0000   0.0000   0.0000   0.0000
     0.0000   0.0000   0.0000   0.0000   0.0000   0.0000   0.0000   0.0000
     0.0000   0.0000   0.0000   0.0000   0.0000   0.0000   0.0000   0.0000
     0.0000   0.0000   0.0000   0.0000   0.0000   0.0000   0.0000   0.0000
     0.0000   0.0000   0.0000   0.0000   0.0000   0.0000   0.0000   0.0000
     0.0000   0.0000   0.0000   0.0000   0.0000   0.0000   0.0000   0.0000
     0.0000   0.0000   0.0000   0.0000   0.0000   0.0000   0.0000   0.0000
     0.0000   0.0000   0.0000   0.0000   0.0000   0.0000   0.0000   0.0000
     0.0000   0.0000   0.0000   0.0000   0.0000   0.0000   0.0000   0.0000
     0.0000   0.0000

          k = 0.0002 0.2885-0.0000 ( 44967 PWs)   bands (ev):

  -115.6823-115.6766-115.6741-115.6721-115.6715-115.6688-115.6681-115.6676
  -115.6636-115.6636-115.6623-115.6612-115.6600-115.6594-115.6554-115.6534
  -115.6479-115.6454-115.6450-115.6285 -70.0443 -70.0396 -70.0384 -70.0351
   -70.0341 -70.0329 -70.0326 -70.0318 -70.0307 -70.0304 -70.0300 -70.0295
   -70.0282 -70.0275 -70.0274 -70.0266 -70.0258 -70.0253 -70.0251 -70.0250
   -70.0245 -70.0244 -70.0238 -70.0233 -70.0227 -70.0220 -70.0216 -70.0213
   -70.0203 -70.0199 -70.0196 -70.0189 -70.0189 -70.0176 -70.0174 -70.0171
   -70.0166 -70.0146 -70.0145 -70.0131 -70.0110 -70.0108 -70.0106 -70.0105
   -70.0098 -70.0094 -70.0092 -70.0091 -70.0084 -70.0070 -70.0041 -70.0030
   -70.0023 -70.0016 -70.0007 -69.9962 -69.9927 -69.9920 -69.9848 -69.9785
   -65.1246 -65.1169 -65.1006 -65.0992 -65.0852 -65.0767 -65.0729 -65.0674
   -65.0636 -65.0597 -65.0563 -65.0527 -65.0484 -65.0481 -65.0344 -65.0264
   -32.1174 -32.1114 -32.1091 -32.1085 -32.1045 -32.1015 -32.0926 -32.0922
   -32.0880 -32.0874 -32.0847 -32.0825 -32.0799 -32.0737 -32.0732 -32.0703
   -32.0668 -32.0660 -32.0649 -32.0632 -32.0602 -32.0590 -32.0567 -32.0528
   -32.0519 -32.0513 -32.0503 -32.0495 -32.0477 -32.0459 -32.0448 -32.0437
   -32.0425 -32.0420 -32.0401 -32.0379 -32.0370 -32.0365 -32.0338 -32.0327
   -32.0297 -32.0288 -32.0275 -32.0197 -32.0173 -32.0146 -32.0102 -32.0068
   -10.2593  -9.9990  -9.9729  -9.9122  -9.8391  -9.8224  -9.7367  -9.7313
    -9.7056  -9.6767  -9.6607  -9.6308  -9.5971  -9.5852  -9.5599  -9.5363
    -9.5098  -9.4991  -9.4750  -9.4624  -9.4433  -9.4129  -9.3918  -9.3836
    -9.3648  -9.3358  -9.3228  -9.3052  -9.2535  -9.2103  -9.1957  -9.1804
    -9.1509  -9.1370  -9.0852  -8.9630   1.5188   1.5491   1.5796   1.5927
     1.6157   1.6244   1.6430   1.6611   1.6871   1.7104   1.7360   1.7552
     1.7895   1.8066   1.8238   1.8274   1.8598   1.8682   1.8786   1.9026
     1.9085   1.9347   1.9564   1.9627   1.9761   1.9942   2.0101   2.0169
     2.0367   2.0476   2.0558   2.0656   2.0774   2.1025   2.1131   2.1199
     2.1368   2.1493   2.1583   2.1710   2.1852   2.1947   2.2169   2.2224
     2.2388   2.2510   2.2564   2.2749   2.2813   2.3139   2.3244   2.3576
     2.3801   2.4067   2.4195   2.4394   2.4549   2.4587   2.4836   2.5103
     2.5318   2.5434   2.5544   2.5783   2.5900   2.6097   2.6247   2.6493
     2.6546   2.6704   2.6905   2.7063   2.7165   2.7230   2.7455   2.7547
     2.7758   2.7855   2.8060   2.8251   2.8506   2.8608   2.8947   2.9005
     2.9140   2.9316   2.9403   2.9519   2.9605   2.9792   2.9985   3.0054
     3.0225   3.0379   3.0429   3.0557   3.0643   3.0777   3.0972   3.1127
     3.1346   3.2056   3.2569   3.3225   3.3673   3.4039   3.4359   3.4586
     3.4768   3.5288   3.5513   3.5841   3.6087   3.6530   3.7240   3.7427
     3.7976   3.8136   3.8939   3.9325   3.9583   4.0052   4.0702   4.1044
     4.1703   4.2157   4.2403   4.2858   4.3004   4.3802   4.4033   4.4628
     4.4886   4.5245   4.5659   4.6081   4.6348   4.6706   4.7072   4.7252
     4.7501   4.8006   4.8540   4.8646   4.9542   4.9763   5.0322   5.0708
     5.1312   5.1634   5.2233   5.3013   5.3576   5.4044   5.4299   5.4640
     5.5077   5.5335   5.5485   5.5618   5.5951   5.6241   5.6488   5.6620
     5.6925   5.6996   5.7414   5.7472   5.7611   5.8189   5.8307   5.8503
     5.8748   5.8836   5.9281   5.9406   5.9563   6.0030   6.0299   6.0513
     6.0993   6.1107   6.1245   6.1538   6.1710   6.1859   6.2149   6.2379
     6.2555   6.2721   6.2903   6.3162   6.3274   6.3696   6.3854   6.4169
     6.4812   6.5163   6.5732   6.5891   6.5961   6.6522   6.6720   6.7009
     6.7588   6.7799   6.9950   7.0120   9.2512  11.0768  11.4369  11.5044
    11.7510  11.8875  12.4889  12.5306  12.5914  12.7484  12.8636  12.8890
    12.9412  13.0190  13.1047  13.2057  13.2457  13.3124  13.3668  13.4794
    13.5120  13.8493  14.3804  14.4648  14.5217  14.5725  14.6068  14.6638
    14.7585  14.8034  14.8713  14.9246  14.9759  15.0177  15.0767  15.1902
    15.2494  15.3029  15.3505  15.3939  15.4863  15.5021  15.5636  15.6456
    15.7595  15.8331  15.9427  15.9986  16.0650  16.1615  16.2434  16.2805
    16.3595  16.3876  16.4640  16.5191  16.6376  16.6535  16.6848  16.7788
    16.8645  17.0357  17.0959  17.2370  17.4069  17.4307  17.4751  17.5754
    17.6123  17.7211  17.7788  17.8619  17.9659  18.1500  18.1803  18.2399
    18.3089  18.3845

     occupation numbers 
     1.0000   1.0000   1.0000   1.0000   1.0000   1.0000   1.0000   1.0000
     1.0000   1.0000   1.0000   1.0000   1.0000   1.0000   1.0000   1.0000
     1.0000   1.0000   1.0000   1.0000   1.0000   1.0000   1.0000   1.0000
     1.0000   1.0000   1.0000   1.0000   1.0000   1.0000   1.0000   1.0000
     1.0000   1.0000   1.0000   1.0000   1.0000   1.0000   1.0000   1.0000
     1.0000   1.0000   1.0000   1.0000   1.0000   1.0000   1.0000   1.0000
     1.0000   1.0000   1.0000   1.0000   1.0000   1.0000   1.0000   1.0000
     1.0000   1.0000   1.0000   1.0000   1.0000   1.0000   1.0000   1.0000
     1.0000   1.0000   1.0000   1.0000   1.0000   1.0000   1.0000   1.0000
     1.0000   1.0000   1.0000   1.0000   1.0000   1.0000   1.0000   1.0000
     1.0000   1.0000   1.0000   1.0000   1.0000   1.0000   1.0000   1.0000
     1.0000   1.0000   1.0000   1.0000   1.0000   1.0000   1.0000   1.0000
     1.0000   1.0000   1.0000   1.0000   1.0000   1.0000   1.0000   1.0000
     1.0000   1.0000   1.0000   1.0000   1.0000   1.0000   1.0000   1.0000
     1.0000   1.0000   1.0000   1.0000   1.0000   1.0000   1.0000   1.0000
     1.0000   1.0000   1.0000   1.0000   1.0000   1.0000   1.0000   1.0000
     1.0000   1.0000   1.0000   1.0000   1.0000   1.0000   1.0000   1.0000
     1.0000   1.0000   1.0000   1.0000   1.0000   1.0000   1.0000   1.0000
     1.0000   1.0000   1.0000   1.0000   1.0000   1.0000   1.0000   1.0000
     1.0000   1.0000   1.0000   1.0000   1.0000   1.0000   1.0000   1.0000
     1.0000   1.0000   1.0000   1.0000   1.0000   1.0000   1.0000   1.0000
     1.0000   1.0000   1.0000   1.0000   1.0000   1.0000   1.0000   1.0000
     1.0000   1.0000   1.0000   1.0000   1.0000   1.0000   1.0000   1.0000
     1.0000   1.0000   1.0000   1.0000   1.0000   1.0000   1.0000   1.0000
     1.0000   1.0000   1.0000   1.0000   1.0000   1.0000   1.0000   1.0000
     1.0000   1.0000   1.0000   1.0000   1.0000   1.0000   1.0000   1.0000
     1.0000   1.0000   1.0000   1.0000   1.0000   1.0000   1.0000   1.0000
     1.0000   1.0000   1.0000   1.0000   1.0000   1.0000   1.0000   1.0000
     1.0000   1.0000   1.0000   1.0000   1.0000   1.0000   1.0000   1.0000
     1.0000   1.0000   1.0000   1.0000   1.0000   1.0000   1.0000   1.0000
     1.0000   1.0000   1.0000   1.0000   1.0000   1.0000   1.0000   1.0000
     1.0000   1.0000   1.0000   1.0000   1.0000   1.0000   1.0000   1.0000
     1.0000   1.0000   1.0000   1.0000   1.0000   1.0000   1.0000   1.0000
     1.0000   1.0000   1.0000   1.0000   1.0000   1.0000   1.0000   1.0000
     1.0000   1.0000   1.0000   1.0000   1.0000   1.0000   1.0000   1.0000
     1.0000   1.0000   1.0000   1.0000   1.0000   1.0000   1.0000   1.0000
     1.0000   1.0000   1.0000   1.0000   1.0000   1.0000   1.0000   1.0000
     1.0000   1.0000   1.0000   1.0000   1.0000   1.0000   1.0000   1.0000
     1.0000   1.0000   1.0000   1.0000   1.0000   1.0000   1.0000   1.0000
     1.0000   1.0000   1.0000   1.0000   1.0000   1.0000   1.0000   1.0000
     1.0000   1.0000   1.0000   1.0000   1.0000   1.0000   1.0000   1.0000
     1.0000   1.0000   1.0000   1.0000   1.0000   1.0000   1.0000   1.0000
     1.0000   1.0000   1.0000   1.0000   1.0000   1.0000   1.0000   1.0000
     1.0000   1.0000   1.0000   1.0000   1.0000   1.0000   1.0000   1.0000
     1.0000   1.0000   1.0000   1.0000   1.0000   1.0000   1.0000   1.0000
     1.0000   1.0000   1.0000   1.0000   1.0000   1.0000   1.0000   1.0000
     1.0000   1.0000   1.0000   1.0000   1.0000   1.0000   1.0000   1.0000
     1.0000   1.0000   1.0000   1.0000   1.0000   1.0000   1.0000   1.0000
     1.0000   1.0000   1.0000   1.0000   0.0000   0.0000   0.0000   0.0000
     0.0000   0.0000   0.0000   0.0000   0.0000   0.0000   0.0000   0.0000
     0.0000   0.0000   0.0000   0.0000   0.0000   0.0000   0.0000   0.0000
     0.0000   0.0000   0.0000   0.0000   0.0000   0.0000   0.0000   0.0000
     0.0000   0.0000   0.0000   0.0000   0.0000   0.0000   0.0000   0.0000
     0.0000   0.0000   0.0000   0.0000   0.0000   0.0000   0.0000   0.0000
     0.0000   0.0000   0.0000   0.0000   0.0000   0.0000   0.0000   0.0000
     0.0000   0.0000   0.0000   0.0000   0.0000   0.0000   0.0000   0.0000
     0.0000   0.0000   0.0000   0.0000   0.0000   0.0000   0.0000   0.0000
     0.0000   0.0000   0.0000   0.0000   0.0000   0.0000   0.0000   0.0000
     0.0000   0.0000

          k = 0.0000 0.2884 0.2372 ( 44969 PWs)   bands (ev):

  -115.6823-115.6766-115.6741-115.6721-115.6715-115.6688-115.6681-115.6676
  -115.6636-115.6636-115.6623-115.6612-115.6600-115.6594-115.6554-115.6534
  -115.6479-115.6454-115.6450-115.6285 -70.0443 -70.0396 -70.0384 -70.0351
   -70.0341 -70.0329 -70.0326 -70.0318 -70.0307 -70.0304 -70.0300 -70.0295
   -70.0282 -70.0275 -70.0274 -70.0266 -70.0258 -70.0253 -70.0251 -70.0250
   -70.0245 -70.0244 -70.0238 -70.0233 -70.0227 -70.0220 -70.0216 -70.0213
   -70.0203 -70.0199 -70.0196 -70.0189 -70.0189 -70.0176 -70.0174 -70.0171
   -70.0166 -70.0146 -70.0145 -70.0131 -70.0110 -70.0108 -70.0106 -70.0105
   -70.0098 -70.0094 -70.0092 -70.0091 -70.0084 -70.0070 -70.0041 -70.0030
   -70.0023 -70.0016 -70.0007 -69.9962 -69.9927 -69.9920 -69.9848 -69.9785
   -65.1246 -65.1169 -65.1006 -65.0992 -65.0852 -65.0767 -65.0729 -65.0674
   -65.0636 -65.0597 -65.0563 -65.0527 -65.0484 -65.0481 -65.0344 -65.0264
   -32.1174 -32.1114 -32.1091 -32.1085 -32.1045 -32.1015 -32.0926 -32.0922
   -32.0880 -32.0874 -32.0847 -32.0825 -32.0799 -32.0737 -32.0733 -32.0703
   -32.0668 -32.0660 -32.0650 -32.0632 -32.0602 -32.0590 -32.0567 -32.0528
   -32.0519 -32.0513 -32.0503 -32.0495 -32.0477 -32.0459 -32.0448 -32.0437
   -32.0425 -32.0420 -32.0401 -32.0379 -32.0370 -32.0365 -32.0338 -32.0327
   -32.0297 -32.0288 -32.0275 -32.0197 -32.0173 -32.0146 -32.0102 -32.0068
   -10.2382 -10.0418  -9.9700  -9.9076  -9.8542  -9.7895  -9.7651  -9.7172
    -9.7139  -9.6767  -9.6558  -9.6326  -9.6065  -9.5755  -9.5669  -9.5251
    -9.5102  -9.4991  -9.4713  -9.4522  -9.4418  -9.4084  -9.3890  -9.3853
    -9.3595  -9.3338  -9.3279  -9.3000  -9.2534  -9.2137  -9.1944  -9.1843
    -9.1559  -9.1404  -9.0866  -8.9642   1.5295   1.5725   1.5879   1.6053
     1.6225   1.6408   1.6542   1.6699   1.7021   1.7153   1.7467   1.7665
     1.7964   1.8131   1.8313   1.8344   1.8641   1.8715   1.8814   1.8955
     1.9107   1.9425   1.9566   1.9649   1.9787   1.9874   2.0020   2.0177
     2.0266   2.0448   2.0557   2.0703   2.0805   2.0870   2.1081   2.1245
     2.1389   2.1511   2.1623   2.1781   2.1855   2.1916   2.2047   2.2173
     2.2310   2.2406   2.2571   2.2630   2.2698   2.3117   2.3227   2.3506
     2.3563   2.3743   2.4026   2.4271   2.4323   2.4459   2.4608   2.4928
     2.5017   2.5220   2.5405   2.5570   2.5628   2.5962   2.6049   2.6242
     2.6438   2.6563   2.6620   2.6810   2.7030   2.7155   2.7321   2.7596
     2.7740   2.7883   2.8085   2.8194   2.8426   2.8615   2.8843   2.8928
     2.9155   2.9330   2.9384   2.9670   2.9762   2.9893   2.9969   3.0085
     3.0275   3.0303   3.0452   3.0531   3.0642   3.0873   3.1058   3.1236
     3.1761   3.2501   3.2748   3.3498   3.3903   3.4061   3.4433   3.4746
     3.5122   3.5342   3.5728   3.5965   3.6317   3.6773   3.7206   3.7441
     3.8230   3.8420   3.9085   3.9554   3.9792   4.0169   4.0418   4.1190
     4.1642   4.2115   4.2564   4.2936   4.3068   4.3611   4.3823   4.4142
     4.4600   4.4992   4.5513   4.5841   4.6156   4.6543   4.7112   4.7649
     4.8411   4.8893   4.9662   5.0035   5.0310   5.0627   5.0914   5.1191
     5.1826   5.1965   5.2491   5.2579   5.2965   5.3192   5.3607   5.4030
     5.4233   5.4511   5.4780   5.4955   5.5214   5.5545   5.5729   5.6097
     5.6429   5.6545   5.6867   5.7234   5.7506   5.7825   5.7941   5.8492
     5.8692   5.8890   5.9298   5.9374   5.9677   6.0003   6.0502   6.0655
     6.0764   6.1209   6.1407   6.1697   6.1834   6.2105   6.2275   6.2504
     6.2662   6.3055   6.3252   6.3645   6.3792   6.3924   6.4257   6.4630
     6.4918   6.5253   6.5422   6.5671   6.6075   6.6258   6.6543   6.7086
     6.7828   6.8027   6.9637   6.9998   9.4846  10.7720  11.1874  11.6559
    11.8692  11.9974  12.1999  12.4049  12.4517  12.6465  12.7761  12.8710
    12.9639  13.0433  13.1797  13.3144  13.4074  13.5828  13.6493  13.7295
    13.7705  13.8883  14.2929  14.3789  14.4778  14.5089  14.5769  14.6324
    14.6722  14.7071  14.7353  14.7648  14.8078  14.8779  14.8945  14.9489
    15.2556  15.3541  15.4427  15.5036  15.5930  15.6705  15.7444  15.7898
    15.8204  15.8773  15.9086  15.9987  16.0276  16.1228  16.2056  16.3168
    16.4000  16.4426  16.5060  16.5360  16.6195  16.6661  16.7658  16.8166
    16.8703  16.9842  17.1089  17.1978  17.3277  17.3357  17.4188  17.4795
    17.5104  17.6165  17.6871  17.8292  17.8925  18.0047  18.1538  18.2084
    18.2968  18.3843

     occupation numbers 
     1.0000   1.0000   1.0000   1.0000   1.0000   1.0000   1.0000   1.0000
     1.0000   1.0000   1.0000   1.0000   1.0000   1.0000   1.0000   1.0000
     1.0000   1.0000   1.0000   1.0000   1.0000   1.0000   1.0000   1.0000
     1.0000   1.0000   1.0000   1.0000   1.0000   1.0000   1.0000   1.0000
     1.0000   1.0000   1.0000   1.0000   1.0000   1.0000   1.0000   1.0000
     1.0000   1.0000   1.0000   1.0000   1.0000   1.0000   1.0000   1.0000
     1.0000   1.0000   1.0000   1.0000   1.0000   1.0000   1.0000   1.0000
     1.0000   1.0000   1.0000   1.0000   1.0000   1.0000   1.0000   1.0000
     1.0000   1.0000   1.0000   1.0000   1.0000   1.0000   1.0000   1.0000
     1.0000   1.0000   1.0000   1.0000   1.0000   1.0000   1.0000   1.0000
     1.0000   1.0000   1.0000   1.0000   1.0000   1.0000   1.0000   1.0000
     1.0000   1.0000   1.0000   1.0000   1.0000   1.0000   1.0000   1.0000
     1.0000   1.0000   1.0000   1.0000   1.0000   1.0000   1.0000   1.0000
     1.0000   1.0000   1.0000   1.0000   1.0000   1.0000   1.0000   1.0000
     1.0000   1.0000   1.0000   1.0000   1.0000   1.0000   1.0000   1.0000
     1.0000   1.0000   1.0000   1.0000   1.0000   1.0000   1.0000   1.0000
     1.0000   1.0000   1.0000   1.0000   1.0000   1.0000   1.0000   1.0000
     1.0000   1.0000   1.0000   1.0000   1.0000   1.0000   1.0000   1.0000
     1.0000   1.0000   1.0000   1.0000   1.0000   1.0000   1.0000   1.0000
     1.0000   1.0000   1.0000   1.0000   1.0000   1.0000   1.0000   1.0000
     1.0000   1.0000   1.0000   1.0000   1.0000   1.0000   1.0000   1.0000
     1.0000   1.0000   1.0000   1.0000   1.0000   1.0000   1.0000   1.0000
     1.0000   1.0000   1.0000   1.0000   1.0000   1.0000   1.0000   1.0000
     1.0000   1.0000   1.0000   1.0000   1.0000   1.0000   1.0000   1.0000
     1.0000   1.0000   1.0000   1.0000   1.0000   1.0000   1.0000   1.0000
     1.0000   1.0000   1.0000   1.0000   1.0000   1.0000   1.0000   1.0000
     1.0000   1.0000   1.0000   1.0000   1.0000   1.0000   1.0000   1.0000
     1.0000   1.0000   1.0000   1.0000   1.0000   1.0000   1.0000   1.0000
     1.0000   1.0000   1.0000   1.0000   1.0000   1.0000   1.0000   1.0000
     1.0000   1.0000   1.0000   1.0000   1.0000   1.0000   1.0000   1.0000
     1.0000   1.0000   1.0000   1.0000   1.0000   1.0000   1.0000   1.0000
     1.0000   1.0000   1.0000   1.0000   1.0000   1.0000   1.0000   1.0000
     1.0000   1.0000   1.0000   1.0000   1.0000   1.0000   1.0000   1.0000
     1.0000   1.0000   1.0000   1.0000   1.0000   1.0000   1.0000   1.0000
     1.0000   1.0000   1.0000   1.0000   1.0000   1.0000   1.0000   1.0000
     1.0000   1.0000   1.0000   1.0000   1.0000   1.0000   1.0000   1.0000
     1.0000   1.0000   1.0000   1.0000   1.0000   1.0000   1.0000   1.0000
     1.0000   1.0000   1.0000   1.0000   1.0000   1.0000   1.0000   1.0000
     1.0000   1.0000   1.0000   1.0000   1.0000   1.0000   1.0000   1.0000
     1.0000   1.0000   1.0000   1.0000   1.0000   1.0000   1.0000   1.0000
     1.0000   1.0000   1.0000   1.0000   1.0000   1.0000   1.0000   1.0000
     1.0000   1.0000   1.0000   1.0000   1.0000   1.0000   1.0000   1.0000
     1.0000   1.0000   1.0000   1.0000   1.0000   1.0000   1.0000   1.0000
     1.0000   1.0000   1.0000   1.0000   1.0000   1.0000   1.0000   1.0000
     1.0000   1.0000   1.0000   1.0000   1.0000   1.0000   1.0000   1.0000
     1.0000   1.0000   1.0000   1.0000   1.0000   1.0000   1.0000   1.0000
     1.0000   1.0000   1.0000   1.0000   1.0000   1.0000   1.0000   1.0000
     1.0000   1.0000   1.0000   1.0000   1.0000   1.0000   1.0000   1.0000
     1.0000   1.0000   1.0000   1.0000   0.0000   0.0000   0.0000   0.0000
     0.0000   0.0000   0.0000   0.0000   0.0000   0.0000   0.0000   0.0000
     0.0000   0.0000   0.0000   0.0000   0.0000   0.0000   0.0000   0.0000
     0.0000   0.0000   0.0000   0.0000   0.0000   0.0000   0.0000   0.0000
     0.0000   0.0000   0.0000   0.0000   0.0000   0.0000   0.0000   0.0000
     0.0000   0.0000   0.0000   0.0000   0.0000   0.0000   0.0000   0.0000
     0.0000   0.0000   0.0000   0.0000   0.0000   0.0000   0.0000   0.0000
     0.0000   0.0000   0.0000   0.0000   0.0000   0.0000   0.0000   0.0000
     0.0000   0.0000   0.0000   0.0000   0.0000   0.0000   0.0000   0.0000
     0.0000   0.0000   0.0000   0.0000   0.0000   0.0000   0.0000   0.0000
     0.0000   0.0000

          k = 0.0005 0.2885-0.4745 ( 45016 PWs)   bands (ev):

  -115.6823-115.6766-115.6741-115.6721-115.6715-115.6688-115.6681-115.6676
  -115.6636-115.6636-115.6623-115.6612-115.6600-115.6594-115.6554-115.6534
  -115.6479-115.6454-115.6450-115.6285 -70.0443 -70.0396 -70.0384 -70.0351
   -70.0341 -70.0329 -70.0326 -70.0318 -70.0307 -70.0304 -70.0300 -70.0295
   -70.0282 -70.0275 -70.0274 -70.0266 -70.0258 -70.0253 -70.0251 -70.0250
   -70.0245 -70.0244 -70.0238 -70.0233 -70.0227 -70.0220 -70.0216 -70.0213
   -70.0203 -70.0199 -70.0196 -70.0189 -70.0189 -70.0176 -70.0174 -70.0171
   -70.0166 -70.0146 -70.0145 -70.0131 -70.0110 -70.0108 -70.0106 -70.0105
   -70.0098 -70.0094 -70.0092 -70.0091 -70.0084 -70.0070 -70.0041 -70.0030
   -70.0023 -70.0016 -70.0007 -69.9962 -69.9927 -69.9920 -69.9848 -69.9785
   -65.1246 -65.1169 -65.1006 -65.0992 -65.0852 -65.0767 -65.0729 -65.0674
   -65.0636 -65.0597 -65.0563 -65.0527 -65.0484 -65.0481 -65.0344 -65.0264
   -32.1174 -32.1114 -32.1091 -32.1085 -32.1045 -32.1015 -32.0926 -32.0922
   -32.0880 -32.0874 -32.0847 -32.0826 -32.0799 -32.0737 -32.0733 -32.0703
   -32.0667 -32.0660 -32.0650 -32.0632 -32.0602 -32.0590 -32.0567 -32.0528
   -32.0519 -32.0513 -32.0503 -32.0494 -32.0477 -32.0459 -32.0447 -32.0437
   -32.0425 -32.0420 -32.0401 -32.0379 -32.0370 -32.0365 -32.0338 -32.0327
   -32.0297 -32.0288 -32.0275 -32.0197 -32.0173 -32.0146 -32.0102 -32.0068
   -10.2046 -10.0994  -9.9554  -9.8915  -9.8565  -9.8199  -9.7729  -9.7134
    -9.7029  -9.6752  -9.6616  -9.6253  -9.6035  -9.5767  -9.5523  -9.5237
    -9.5191  -9.5023  -9.4783  -9.4460  -9.4354  -9.4028  -9.3894  -9.3682
    -9.3552  -9.3458  -9.3243  -9.2922  -9.2554  -9.2191  -9.1971  -9.1860
    -9.1606  -9.1423  -9.0882  -8.9655   1.5408   1.5852   1.6039   1.6172
     1.6340   1.6598   1.6666   1.6901   1.7143   1.7217   1.7582   1.7692
     1.8066   1.8250   1.8318   1.8475   1.8570   1.8727   1.8947   1.9052
     1.9210   1.9339   1.9562   1.9635   1.9735   1.9803   1.9945   2.0061
     2.0187   2.0464   2.0532   2.0685   2.0771   2.0924   2.1116   2.1186
     2.1438   2.1494   2.1545   2.1752   2.1829   2.1904   2.2023   2.2210
     2.2312   2.2393   2.2567   2.2615   2.2702   2.2923   2.3088   2.3212
     2.3394   2.3495   2.3725   2.3913   2.4161   2.4215   2.4525   2.4702
     2.4776   2.4975   2.5067   2.5282   2.5516   2.5708   2.5849   2.6198
     2.6321   2.6558   2.6643   2.6748   2.6911   2.7008   2.7227   2.7454
     2.7641   2.7836   2.8107   2.8339   2.8518   2.8681   2.8950   2.9007
     2.9132   2.9332   2.9480   2.9644   2.9757   2.9882   3.0012   3.0224
     3.0264   3.0342   3.0421   3.0531   3.0707   3.0767   3.1196   3.1329
     3.2111   3.2514   3.2998   3.3613   3.3892   3.4379   3.4650   3.4950
     3.5301   3.5606   3.5921   3.6320   3.6690   3.6991   3.7185   3.7445
     3.8075   3.8793   3.9047   3.9352   3.9708   4.0232   4.0708   4.1099
     4.1491   4.1916   4.2040   4.2645   4.3057   4.3452   4.3780   4.4020
     4.4576   4.5094   4.5736   4.6758   4.7150   4.7540   4.7866   4.8611
     4.9233   4.9429   4.9956   5.0243   5.0491   5.0724   5.0932   5.1349
     5.1571   5.1841   5.2063   5.2504   5.2756   5.3062   5.3159   5.3397
     5.3681   5.3860   5.4221   5.4469   5.4685   5.4823   5.5123   5.5430
     5.5767   5.6266   5.6519   5.6737   5.6937   5.7417   5.8034   5.8356
     5.8758   5.8882   5.9461   5.9542   5.9903   6.0223   6.0436   6.0684
     6.1164   6.1248   6.1491   6.1726   6.1963   6.2292   6.2521   6.2670
     6.2954   6.3006   6.3516   6.3584   6.3879   6.4058   6.4371   6.4676
     6.4987   6.5169   6.5401   6.5642   6.6146   6.6391   6.6612   6.6954
     6.8236   6.8366   6.9305   6.9869   9.9478  10.1770  11.3669  11.5468
    11.8471  11.9793  12.0538  12.2272  12.5513  12.6433  12.7439  12.8306
    12.9256  13.0554  13.1169  13.3223  13.8319  13.9481  14.0096  14.0660
    14.1079  14.1408  14.1688  14.1964  14.2377  14.2997  14.3386  14.3932
    14.4267  14.5517  14.6047  14.6312  14.7585  14.7922  14.8294  14.8638
    15.4100  15.4519  15.5083  15.6119  15.6444  15.7019  15.7698  15.8381
    15.8659  15.9196  15.9710  16.0260  16.0644  16.0941  16.2260  16.2577
    16.3160  16.4534  16.5015  16.6111  16.6861  16.7613  16.7957  16.8760
    16.9212  16.9801  17.0393  17.0970  17.1840  17.2745  17.3476  17.4145
    17.4620  17.5468  17.6019  17.8195  17.8875  18.0166  18.0980  18.1790
    18.2594  18.2720

     occupation numbers 
     1.0000   1.0000   1.0000   1.0000   1.0000   1.0000   1.0000   1.0000
     1.0000   1.0000   1.0000   1.0000   1.0000   1.0000   1.0000   1.0000
     1.0000   1.0000   1.0000   1.0000   1.0000   1.0000   1.0000   1.0000
     1.0000   1.0000   1.0000   1.0000   1.0000   1.0000   1.0000   1.0000
     1.0000   1.0000   1.0000   1.0000   1.0000   1.0000   1.0000   1.0000
     1.0000   1.0000   1.0000   1.0000   1.0000   1.0000   1.0000   1.0000
     1.0000   1.0000   1.0000   1.0000   1.0000   1.0000   1.0000   1.0000
     1.0000   1.0000   1.0000   1.0000   1.0000   1.0000   1.0000   1.0000
     1.0000   1.0000   1.0000   1.0000   1.0000   1.0000   1.0000   1.0000
     1.0000   1.0000   1.0000   1.0000   1.0000   1.0000   1.0000   1.0000
     1.0000   1.0000   1.0000   1.0000   1.0000   1.0000   1.0000   1.0000
     1.0000   1.0000   1.0000   1.0000   1.0000   1.0000   1.0000   1.0000
     1.0000   1.0000   1.0000   1.0000   1.0000   1.0000   1.0000   1.0000
     1.0000   1.0000   1.0000   1.0000   1.0000   1.0000   1.0000   1.0000
     1.0000   1.0000   1.0000   1.0000   1.0000   1.0000   1.0000   1.0000
     1.0000   1.0000   1.0000   1.0000   1.0000   1.0000   1.0000   1.0000
     1.0000   1.0000   1.0000   1.0000   1.0000   1.0000   1.0000   1.0000
     1.0000   1.0000   1.0000   1.0000   1.0000   1.0000   1.0000   1.0000
     1.0000   1.0000   1.0000   1.0000   1.0000   1.0000   1.0000   1.0000
     1.0000   1.0000   1.0000   1.0000   1.0000   1.0000   1.0000   1.0000
     1.0000   1.0000   1.0000   1.0000   1.0000   1.0000   1.0000   1.0000
     1.0000   1.0000   1.0000   1.0000   1.0000   1.0000   1.0000   1.0000
     1.0000   1.0000   1.0000   1.0000   1.0000   1.0000   1.0000   1.0000
     1.0000   1.0000   1.0000   1.0000   1.0000   1.0000   1.0000   1.0000
     1.0000   1.0000   1.0000   1.0000   1.0000   1.0000   1.0000   1.0000
     1.0000   1.0000   1.0000   1.0000   1.0000   1.0000   1.0000   1.0000
     1.0000   1.0000   1.0000   1.0000   1.0000   1.0000   1.0000   1.0000
     1.0000   1.0000   1.0000   1.0000   1.0000   1.0000   1.0000   1.0000
[...]
    -9.6871  -9.6509  -9.6281  -9.6142  -9.6028  -9.5776  -9.5653  -9.5411
    -9.5154  -9.4919  -9.4744  -9.4452  -9.4279  -9.4148  -9.3954  -9.3765
    -9.3734  -9.3375  -9.3272  -9.2992  -9.2426  -9.2029  -9.1968  -9.1858
    -9.1728  -9.1445  -9.0778  -8.9637   1.5522   1.5926   1.6164   1.6381
     1.6451   1.6535   1.6890   1.7014   1.7096   1.7356   1.7510   1.7597
     1.7846   1.7926   1.8136   1.8231   1.8432   1.8568   1.8843   1.9066
     1.9119   1.9217   1.9491   1.9645   1.9835   1.9947   2.0046   2.0225
     2.0378   2.0447   2.0483   2.0667   2.0836   2.0891   2.1114   2.1156
     2.1310   2.1431   2.1488   2.1616   2.1706   2.1795   2.2012   2.2021
     2.2169   2.2283   2.2413   2.2572   2.2800   2.2934   2.3016   2.3124
     2.3250   2.3415   2.3624   2.4052   2.4104   2.4453   2.4584   2.4797
     2.4920   2.5171   2.5330   2.5458   2.5572   2.5791   2.6069   2.6238
     2.6343   2.6502   2.6685   2.6822   2.7118   2.7320   2.7482   2.7659
     2.7782   2.7859   2.8064   2.8318   2.8385   2.8597   2.8770   2.8951
     2.9068   2.9145   2.9375   2.9561   2.9717   2.9839   2.9881   3.0096
     3.0178   3.0330   3.0502   3.0718   3.0822   3.0912   3.1100   3.1252
     3.1625   3.2096   3.2604   3.3081   3.3142   3.3897   3.4323   3.4751
     3.4816   3.4940   3.5461   3.5820   3.6541   3.6710   3.7126   3.7479
     3.7967   3.8434   3.8904   3.9440   3.9972   4.0401   4.1099   4.1452
     4.1974   4.2556   4.3048   4.3674   4.4453   4.4900   4.5104   4.5813
     4.6185   4.6595   4.6893   4.7151   4.7243   4.7544   4.7985   4.8266
     4.8650   4.8971   4.9131   4.9526   4.9568   4.9880   5.0320   5.0458
     5.1019   5.1636   5.2708   5.2748   5.3147   5.3509   5.3876   5.4003
     5.4350   5.4671   5.4946   5.5116   5.5258   5.5678   5.5814   5.6214
     5.6366   5.6635   5.6779   5.6951   5.7455   5.7795   5.8150   5.8389
     5.8501   5.8829   5.9029   5.9394   5.9501   5.9593   6.0121   6.0281
     6.0512   6.0771   6.0886   6.1196   6.1430   6.1562   6.1853   6.2094
     6.2285   6.2484   6.2703   6.3078   6.3130   6.3559   6.3651   6.4056
     6.4208   6.4741   6.4915   6.5173   6.5476   6.6042   6.6502   6.6858
     6.8322   6.8636   6.8927   6.9098  10.2149  10.3105  11.2256  11.3908
    11.6709  11.8104  12.2798  12.4769  12.6861  12.8010  13.0780  13.3130
    13.3534  13.3975  13.4440  13.5188  13.5972  13.6209  13.6428  13.7314
    13.8393  13.8735  13.9262  14.0590  14.1197  14.1541  14.1875  14.2380
    14.2886  14.3470  14.7019  14.7471  14.7706  14.7918  14.8961  14.9826
    15.1174  15.3906  15.4166  15.4535  15.5698  15.7293  15.7630  15.7917
    15.8457  15.8811  15.9321  16.0551  16.1105  16.1821  16.3121  16.3678
    16.4765  16.5522  16.6836  16.7797  16.8200  16.9639  17.0128  17.1031
    17.1212  17.1575  17.2484  17.2940  17.3580  17.4054  17.4606  17.4858
    17.6333  17.7225  17.8899  17.9316  18.0225  18.1290  18.1678  18.2595
    18.2880  18.3682

     occupation numbers 
     1.0000   1.0000   1.0000   1.0000   1.0000   1.0000   1.0000   1.0000
     1.0000   1.0000   1.0000   1.0000   1.0000   1.0000   1.0000   1.0000
     1.0000   1.0000   1.0000   1.0000   1.0000   1.0000   1.0000   1.0000
     1.0000   1.0000   1.0000   1.0000   1.0000   1.0000   1.0000   1.0000
     1.0000   1.0000   1.0000   1.0000   1.0000   1.0000   1.0000   1.0000
     1.0000   1.0000   1.0000   1.0000   1.0000   1.0000   1.0000   1.0000
     1.0000   1.0000   1.0000   1.0000   1.0000   1.0000   1.0000   1.0000
     1.0000   1.0000   1.0000   1.0000   1.0000   1.0000   1.0000   1.0000
     1.0000   1.0000   1.0000   1.0000   1.0000   1.0000   1.0000   1.0000
     1.0000   1.0000   1.0000   1.0000   1.0000   1.0000   1.0000   1.0000
     1.0000   1.0000   1.0000   1.0000   1.0000   1.0000   1.0000   1.0000
     1.0000   1.0000   1.0000   1.0000   1.0000   1.0000   1.0000   1.0000
     1.0000   1.0000   1.0000   1.0000   1.0000   1.0000   1.0000   1.0000
     1.0000   1.0000   1.0000   1.0000   1.0000   1.0000   1.0000   1.0000
     1.0000   1.0000   1.0000   1.0000   1.0000   1.0000   1.0000   1.0000
     1.0000   1.0000   1.0000   1.0000   1.0000   1.0000   1.0000   1.0000
     1.0000   1.0000   1.0000   1.0000   1.0000   1.0000   1.0000   1.0000
     1.0000   1.0000   1.0000   1.0000   1.0000   1.0000   1.0000   1.0000
     1.0000   1.0000   1.0000   1.0000   1.0000   1.0000   1.0000   1.0000
     1.0000   1.0000   1.0000   1.0000   1.0000   1.0000   1.0000   1.0000
     1.0000   1.0000   1.0000   1.0000   1.0000   1.0000   1.0000   1.0000
     1.0000   1.0000   1.0000   1.0000   1.0000   1.0000   1.0000   1.0000
     1.0000   1.0000   1.0000   1.0000   1.0000   1.0000   1.0000   1.0000
     1.0000   1.0000   1.0000   1.0000   1.0000   1.0000   1.0000   1.0000
     1.0000   1.0000   1.0000   1.0000   1.0000   1.0000   1.0000   1.0000
     1.0000   1.0000   1.0000   1.0000   1.0000   1.0000   1.0000   1.0000
     1.0000   1.0000   1.0000   1.0000   1.0000   1.0000   1.0000   1.0000
     1.0000   1.0000   1.0000   1.0000   1.0000   1.0000   1.0000   1.0000
     1.0000   1.0000   1.0000   1.0000   1.0000   1.0000   1.0000   1.0000
     1.0000   1.0000   1.0000   1.0000   1.0000   1.0000   1.0000   1.0000
     1.0000   1.0000   1.0000   1.0000   1.0000   1.0000   1.0000   1.0000
     1.0000   1.0000   1.0000   1.0000   1.0000   1.0000   1.0000   1.0000
     1.0000   1.0000   1.0000   1.0000   1.0000   1.0000   1.0000   1.0000
     1.0000   1.0000   1.0000   1.0000   1.0000   1.0000   1.0000   1.0000
     1.0000   1.0000   1.0000   1.0000   1.0000   1.0000   1.0000   1.0000
     1.0000   1.0000   1.0000   1.0000   1.0000   1.0000   1.0000   1.0000
     1.0000   1.0000   1.0000   1.0000   1.0000   1.0000   1.0000   1.0000
     1.0000   1.0000   1.0000   1.0000   1.0000   1.0000   1.0000   1.0000
     1.0000   1.0000   1.0000   1.0000   1.0000   1.0000   1.0000   1.0000
     1.0000   1.0000   1.0000   1.0000   1.0000   1.0000   1.0000   1.0000
     1.0000   1.0000   1.0000   1.0000   1.0000   1.0000   1.0000   1.0000
     1.0000   1.0000   1.0000   1.0000   1.0000   1.0000   1.0000   1.0000
     1.0000   1.0000   1.0000   1.0000   1.0000   1.0000   1.0000   1.0000
     1.0000   1.0000   1.0000   1.0000   1.0000   1.0000   1.0000   1.0000
     1.0000   1.0000   1.0000   1.0000   1.0000   1.0000   1.0000   1.0000
     1.0000   1.0000   1.0000   1.0000   1.0000   1.0000   1.0000   1.0000
     1.0000   1.0000   1.0000   1.0000   1.0000   1.0000   1.0000   1.0000
     1.0000   1.0000   1.0000   1.0000   1.0000   1.0000   1.0000   1.0000
     1.0000   1.0000   1.0000   1.0000   0.0000   0.0000   0.0000   0.0000
     0.0000   0.0000   0.0000   0.0000   0.0000   0.0000   0.0000   0.0000
     0.0000   0.0000   0.0000   0.0000   0.0000   0.0000   0.0000   0.0000
     0.0000   0.0000   0.0000   0.0000   0.0000   0.0000   0.0000   0.0000
     0.0000   0.0000   0.0000   0.0000   0.0000   0.0000   0.0000   0.0000
     0.0000   0.0000   0.0000   0.0000   0.0000   0.0000   0.0000   0.0000
     0.0000   0.0000   0.0000   0.0000   0.0000   0.0000   0.0000   0.0000
     0.0000   0.0000   0.0000   0.0000   0.0000   0.0000   0.0000   0.0000
     0.0000   0.0000   0.0000   0.0000   0.0000   0.0000   0.0000   0.0000
     0.0000   0.0000   0.0000   0.0000   0.0000   0.0000   0.0000   0.0000
     0.0000   0.0000

          k =-0.5003-0.8657-0.4740 ( 44972 PWs)   bands (ev):

  -115.6823-115.6766-115.6741-115.6721-115.6715-115.6688-115.6681-115.6676
  -115.6636-115.6636-115.6623-115.6612-115.6600-115.6594-115.6554-115.6534
  -115.6479-115.6454-115.6450-115.6285 -70.0443 -70.0396 -70.0384 -70.0351
   -70.0341 -70.0329 -70.0326 -70.0318 -70.0307 -70.0304 -70.0300 -70.0295
   -70.0282 -70.0275 -70.0274 -70.0266 -70.0258 -70.0253 -70.0251 -70.0250
   -70.0245 -70.0244 -70.0238 -70.0233 -70.0227 -70.0220 -70.0216 -70.0213
   -70.0203 -70.0199 -70.0196 -70.0189 -70.0189 -70.0176 -70.0174 -70.0171
   -70.0166 -70.0146 -70.0145 -70.0131 -70.0110 -70.0108 -70.0106 -70.0105
   -70.0098 -70.0094 -70.0092 -70.0091 -70.0084 -70.0069 -70.0042 -70.0030
   -70.0023 -70.0016 -70.0007 -69.9962 -69.9927 -69.9920 -69.9848 -69.9785
   -65.1246 -65.1169 -65.1006 -65.0992 -65.0852 -65.0767 -65.0729 -65.0674
   -65.0636 -65.0597 -65.0563 -65.0527 -65.0484 -65.0481 -65.0344 -65.0264
   -32.1174 -32.1114 -32.1091 -32.1085 -32.1045 -32.1015 -32.0926 -32.0922
   -32.0882 -32.0875 -32.0847 -32.0826 -32.0799 -32.0736 -32.0734 -32.0703
   -32.0667 -32.0659 -32.0651 -32.0633 -32.0603 -32.0590 -32.0567 -32.0527
   -32.0516 -32.0511 -32.0502 -32.0494 -32.0478 -32.0459 -32.0447 -32.0438
   -32.0424 -32.0415 -32.0401 -32.0380 -32.0370 -32.0367 -32.0339 -32.0320
   -32.0299 -32.0289 -32.0276 -32.0203 -32.0172 -32.0153 -32.0102 -32.0064
   -10.1168 -10.1063 -10.0438  -9.9135  -9.8796  -9.8392  -9.7974  -9.7280
    -9.6731  -9.6414  -9.6273  -9.6117  -9.5763  -9.5679  -9.5671  -9.5477
    -9.5032  -9.4908  -9.4757  -9.4487  -9.4281  -9.4238  -9.3901  -9.3791
    -9.3637  -9.3432  -9.3256  -9.2906  -9.2466  -9.2071  -9.1940  -9.1888
    -9.1788  -9.1478  -9.0785  -8.9647   1.5713   1.6260   1.6314   1.6508
     1.6643   1.6729   1.6948   1.6981   1.7107   1.7450   1.7620   1.7764
     1.7846   1.7918   1.8254   1.8363   1.8439   1.8749   1.8894   1.9066
     1.9152   1.9239   1.9408   1.9626   1.9768   1.9861   1.9940   2.0189
     2.0313   2.0408   2.0490   2.0648   2.0812   2.0896   2.1134   2.1242
     2.1385   2.1407   2.1493   2.1557   2.1671   2.1686   2.1783   2.1862
     2.2038   2.2209   2.2350   2.2534   2.2720   2.2870   2.2987   2.3004
     2.3211   2.3295   2.3507   2.3620   2.3961   2.4117   2.4274   2.4598
     2.4728   2.4894   2.5091   2.5325   2.5495   2.5599   2.5956   2.6120
     2.6250   2.6395   2.6561   2.6777   2.7073   2.7276   2.7326   2.7673
     2.7755   2.7899   2.8011   2.8244   2.8353   2.8546   2.8807   2.8970
     2.9237   2.9353   2.9505   2.9580   2.9615   2.9792   2.9928   3.0098
     3.0210   3.0281   3.0458   3.0746   3.0816   3.0981   3.1134   3.1322
     3.1770   3.2287   3.2702   3.3261   3.3586   3.4342   3.4568   3.4665
     3.4875   3.5333   3.6011   3.6372   3.6604   3.7209   3.7385   3.7791
     3.7966   3.8335   3.8868   3.9050   3.9876   4.0063   4.0844   4.1193
     4.1438   4.1952   4.2663   4.3365   4.4280   4.5062   4.5731   4.6347
     4.6393   4.6649   4.6890   4.7045   4.7555   4.7789   4.8296   4.8522
     4.9008   4.9842   5.0104   5.0381   5.0638   5.1067   5.1173   5.1320
     5.1560   5.2097   5.2243   5.2399   5.2871   5.3000   5.3229   5.3282
     5.3423   5.3889   5.4061   5.4253   5.4742   5.4810   5.5305   5.5671
     5.5950   5.6080   5.6314   5.6913   5.7281   5.7508   5.7914   5.8211
     5.8277   5.8592   5.8785   5.9049   5.9291   5.9728   6.0149   6.0374
     6.0648   6.0930   6.1061   6.1442   6.1468   6.1829   6.2034   6.2152
     6.2374   6.2466   6.2740   6.2939   6.3107   6.3434   6.3593   6.3918
     6.4454   6.4767   6.5119   6.5405   6.6083   6.6648   6.7194   6.7796
     6.8062   6.8209   6.8581   6.8980  10.5511  10.6008  10.7085  10.9542
    11.8082  11.9002  11.9759  12.2394  13.0089  13.1448  13.2192  13.2470
    13.3513  13.3705  13.4511  13.5038  13.5201  13.6947  13.7306  13.8133
    13.8774  13.9417  13.9621  14.0181  14.1933  14.2684  14.3115  14.3407
    14.4122  14.4585  14.4711  14.5235  14.5389  14.5718  14.6058  14.6077
    15.3921  15.4733  15.5531  15.5688  15.6151  15.6610  15.7587  15.8280
    15.8817  15.9530  16.0226  16.0478  16.1054  16.1908  16.2243  16.3233
    16.4374  16.5469  16.6631  16.7566  16.8130  16.9377  16.9659  17.1116
    17.1801  17.2167  17.2364  17.2608  17.3120  17.3471  17.4058  17.4191
    17.5992  17.6819  17.8613  17.9135  18.0303  18.0789  18.1268  18.3211
    18.3890  18.4134

     occupation numbers 
     1.0000   1.0000   1.0000   1.0000   1.0000   1.0000   1.0000   1.0000
     1.0000   1.0000   1.0000   1.0000   1.0000   1.0000   1.0000   1.0000
     1.0000   1.0000   1.0000   1.0000   1.0000   1.0000   1.0000   1.0000
     1.0000   1.0000   1.0000   1.0000   1.0000   1.0000   1.0000   1.0000
     1.0000   1.0000   1.0000   1.0000   1.0000   1.0000   1.0000   1.0000
     1.0000   1.0000   1.0000   1.0000   1.0000   1.0000   1.0000   1.0000
     1.0000   1.0000   1.0000   1.0000   1.0000   1.0000   1.0000   1.0000
     1.0000   1.0000   1.0000   1.0000   1.0000   1.0000   1.0000   1.0000
     1.0000   1.0000   1.0000   1.0000   1.0000   1.0000   1.0000   1.0000
     1.0000   1.0000   1.0000   1.0000   1.0000   1.0000   1.0000   1.0000
     1.0000   1.0000   1.0000   1.0000   1.0000   1.0000   1.0000   1.0000
     1.0000   1.0000   1.0000   1.0000   1.0000   1.0000   1.0000   1.0000
     1.0000   1.0000   1.0000   1.0000   1.0000   1.0000   1.0000   1.0000
     1.0000   1.0000   1.0000   1.0000   1.0000   1.0000   1.0000   1.0000
     1.0000   1.0000   1.0000   1.0000   1.0000   1.0000   1.0000   1.0000
     1.0000   1.0000   1.0000   1.0000   1.0000   1.0000   1.0000   1.0000
     1.0000   1.0000   1.0000   1.0000   1.0000   1.0000   1.0000   1.0000
     1.0000   1.0000   1.0000   1.0000   1.0000   1.0000   1.0000   1.0000
     1.0000   1.0000   1.0000   1.0000   1.0000   1.0000   1.0000   1.0000
     1.0000   1.0000   1.0000   1.0000   1.0000   1.0000   1.0000   1.0000
     1.0000   1.0000   1.0000   1.0000   1.0000   1.0000   1.0000   1.0000
     1.0000   1.0000   1.0000   1.0000   1.0000   1.0000   1.0000   1.0000
     1.0000   1.0000   1.0000   1.0000   1.0000   1.0000   1.0000   1.0000
     1.0000   1.0000   1.0000   1.0000   1.0000   1.0000   1.0000   1.0000
     1.0000   1.0000   1.0000   1.0000   1.0000   1.0000   1.0000   1.0000
     1.0000   1.0000   1.0000   1.0000   1.0000   1.0000   1.0000   1.0000
     1.0000   1.0000   1.0000   1.0000   1.0000   1.0000   1.0000   1.0000
     1.0000   1.0000   1.0000   1.0000   1.0000   1.0000   1.0000   1.0000
     1.0000   1.0000   1.0000   1.0000   1.0000   1.0000   1.0000   1.0000
     1.0000   1.0000   1.0000   1.0000   1.0000   1.0000   1.0000   1.0000
     1.0000   1.0000   1.0000   1.0000   1.0000   1.0000   1.0000   1.0000
     1.0000   1.0000   1.0000   1.0000   1.0000   1.0000   1.0000   1.0000
     1.0000   1.0000   1.0000   1.0000   1.0000   1.0000   1.0000   1.0000
     1.0000   1.0000   1.0000   1.0000   1.0000   1.0000   1.0000   1.0000
     1.0000   1.0000   1.0000   1.0000   1.0000   1.0000   1.0000   1.0000
     1.0000   1.0000   1.0000   1.0000   1.0000   1.0000   1.0000   1.0000
     1.0000   1.0000   1.0000   1.0000   1.0000   1.0000   1.0000   1.0000
     1.0000   1.0000   1.0000   1.0000   1.0000   1.0000   1.0000   1.0000
     1.0000   1.0000   1.0000   1.0000   1.0000   1.0000   1.0000   1.0000
     1.0000   1.0000   1.0000   1.0000   1.0000   1.0000   1.0000   1.0000
     1.0000   1.0000   1.0000   1.0000   1.0000   1.0000   1.0000   1.0000
     1.0000   1.0000   1.0000   1.0000   1.0000   1.0000   1.0000   1.0000
     1.0000   1.0000   1.0000   1.0000   1.0000   1.0000   1.0000   1.0000
     1.0000   1.0000   1.0000   1.0000   1.0000   1.0000   1.0000   1.0000
     1.0000   1.0000   1.0000   1.0000   1.0000   1.0000   1.0000   1.0000
     1.0000   1.0000   1.0000   1.0000   1.0000   1.0000   1.0000   1.0000
     1.0000   1.0000   1.0000   1.0000   1.0000   1.0000   1.0000   1.0000
     1.0000   1.0000   1.0000   1.0000   1.0000   1.0000   1.0000   1.0000
     1.0000   1.0000   1.0000   1.0000   0.0000   0.0000   0.0000   0.0000
     0.0000   0.0000   0.0000   0.0000   0.0000   0.0000   0.0000   0.0000
     0.0000   0.0000   0.0000   0.0000   0.0000   0.0000   0.0000   0.0000
     0.0000   0.0000   0.0000   0.0000   0.0000   0.0000   0.0000   0.0000
     0.0000   0.0000   0.0000   0.0000   0.0000   0.0000   0.0000   0.0000
     0.0000   0.0000   0.0000   0.0000   0.0000   0.0000   0.0000   0.0000
     0.0000   0.0000   0.0000   0.0000   0.0000   0.0000   0.0000   0.0000
     0.0000   0.0000   0.0000   0.0000   0.0000   0.0000   0.0000   0.0000
     0.0000   0.0000   0.0000   0.0000   0.0000   0.0000   0.0000   0.0000
     0.0000   0.0000   0.0000   0.0000   0.0000   0.0000   0.0000   0.0000
     0.0000   0.0000

     the Fermi energy is     8.0405 ev

!    total energy              =  -12392.23121634 Ry
     Harris-Foulkes estimate   =  -12392.23121634 Ry
     estimated scf accuracy    <          1.0E-09 Ry

     The total energy is the sum of the following terms:

     one-electron contribution =  -10405.27689956 Ry
     hartree contribution      =    5457.64190647 Ry
     xc contribution           =   -1365.39757546 Ry
     ewald contribution        =   -6079.19864780 Ry
     smearing contrib. (-TS)   =       0.00000000 Ry

     convergence has been achieved in  14 iterations

     Writing output data file ZnO.save/
 
     init_run     :     13.42s CPU     14.17s WALL (       1 calls)
     electrons    :    714.76s CPU    730.26s WALL (       1 calls)

     Called by init_run:
     wfcinit      :     11.17s CPU     11.65s WALL (       1 calls)
     wfcinit:atom :      0.09s CPU      0.12s WALL (       5 calls)
     wfcinit:wfcr :     10.66s CPU     10.98s WALL (       5 calls)
     potinit      :      1.02s CPU      1.11s WALL (       1 calls)
     hinit0       :      0.78s CPU      0.88s WALL (       1 calls)

     Called by electrons:
     c_bands      :    656.09s CPU    670.01s WALL (      14 calls)
     sum_band     :     50.63s CPU     51.62s WALL (      14 calls)
     v_of_rho     :      6.41s CPU      6.76s WALL (      15 calls)
     v_h          :      0.17s CPU      0.22s WALL (      15 calls)
     v_xc         :      6.24s CPU      6.53s WALL (      15 calls)
     newd         :      1.33s CPU      1.40s WALL (      15 calls)
     mix_rho      :      0.38s CPU      0.52s WALL (      14 calls)

     Called by c_bands:
     init_us_2    :      5.07s CPU      5.17s WALL (     145 calls)
     cegterg      :    604.03s CPU    617.53s WALL (      70 calls)

     Called by sum_band:
     sum_band:bec :      0.26s CPU      0.27s WALL (      70 calls)
     addusdens    :      1.21s CPU      1.30s WALL (      14 calls)

     Called by *egterg:
     h_psi        :    218.29s CPU    221.90s WALL (     275 calls)
     s_psi        :     57.63s CPU     57.68s WALL (     275 calls)
     g_psi        :      0.88s CPU      0.88s WALL (     200 calls)
     cdiaghg      :    194.35s CPU    199.93s WALL (     270 calls)
     cegterg:over :     60.74s CPU     62.28s WALL (     200 calls)
     cegterg:upda :     39.83s CPU     40.37s WALL (     200 calls)
     cegterg:last :     22.28s CPU     22.33s WALL (      70 calls)
     cdiaghg:chol :      9.16s CPU      9.23s WALL (     270 calls)
     cdiaghg:inve :      2.94s CPU      2.96s WALL (     270 calls)
     cdiaghg:para :     47.11s CPU     51.60s WALL (     540 calls)

     Called by h_psi:
     h_psi:pot    :    216.49s CPU    218.91s WALL (     275 calls)
     h_psi:calbec :     60.22s CPU     61.80s WALL (     275 calls)
     vloc_psi     :     98.45s CPU     99.07s WALL (     275 calls)
     add_vuspsi   :     57.81s CPU     58.04s WALL (     275 calls)

     General routines
     calbec       :     83.72s CPU     85.96s WALL (     345 calls)
     fft          :      1.41s CPU      1.93s WALL (     193 calls)
     ffts         :      0.06s CPU      0.07s WALL (      29 calls)
     fftw         :    110.77s CPU    111.46s WALL (  196000 calls)
     interpolate  :      0.18s CPU      0.22s WALL (      15 calls)
 
     Parallel routines
     fft_scatt_xy :     17.66s CPU     17.76s WALL (  196222 calls)
     fft_scatt_yz :     33.48s CPU     34.19s WALL (  196222 calls)
 
     PWSCF        :  12m11.64s CPU  12m30.01s WALL

 
   This run was terminated on:   1:39: 0  15Jul2022            

=------------------------------------------------------------------------------=
   JOB DONE.
=------------------------------------------------------------------------------=
