
     Program PWSCF v.6.4.1 starts on 16Jun2022 at 14:32:45 

     This program is part of the open-source Quantum ESPRESSO suite
     for quantum simulation of materials; please cite
         "P. Giannozzi et al., J. Phys.:Condens. Matter 21 395502 (2009);
         "P. Giannozzi et al., J. Phys.:Condens. Matter 29 465901 (2017);
          URL http://www.quantum-espresso.org", 
     in publications or presentations arising from this work. More details at
     http://www.quantum-espresso.org/quote

     Parallel version (MPI), running on    64 processors

     MPI processes distributed on     1 nodes
     K-points division:     npool     =       4
     R & G space division:  proc/nbgrp/npool/nimage =      16
     Waiting for input...
     Reading input from standard input

     Current dimensions of program PWSCF are:
     Max number of different atomic species (ntypx) = 10
     Max number of k-points (npk) =  40000
     Max angular momentum in pseudopotentials (lmaxx) =  3

     Subspace diagonalization in iterative solution of the eigenvalue problem:
     one sub-group per band group will be used
     scalapack distributed-memory algorithm (size of sub-group:  2*  2 procs)

 
     Parallelization info
     --------------------
     sticks:   dense  smooth     PW     G-vecs:    dense   smooth      PW
     Min         104      57     17                 4768     1865     327
     Max         105      58     18                 4775     1870     332
     Sum        1675     913    283                76357    29869    5265
 


     bravais-lattice index     =            0
     lattice parameter (alat)  =       6.4003  a.u.
     unit-cell volume          =     308.4934 (a.u.)^3
     number of atoms/cell      =            4
     number of atomic types    =            2
     number of electrons       =        52.00
     number of Kohn-Sham states=           26
     kinetic-energy cutoff     =      80.0000  Ry
     charge density cutoff     =     600.0000  Ry
     convergence threshold     =      1.0E-06
     mixing beta               =       0.5000
     number of iterations used =            8  plain     mixing
     Exchange-correlation      = SLA  PW   PSX  PSC ( 1  4 10  8 0 0)
     Using LIBXC version       =    4   3   4
     nstep                     =          200


     celldm(1)=   6.400261  celldm(2)=   0.000000  celldm(3)=   0.000000
     celldm(4)=   0.000000  celldm(5)=   0.000000  celldm(6)=   0.000000

     crystal axes: (cart. coord. in units of alat)
               a(1) = (   1.000000   0.000000   0.000000 )  
               a(2) = (  -0.500000   0.866025  -0.000000 )  
               a(3) = (   0.000000  -0.000000   1.358696 )  

     reciprocal axes: (cart. coord. in units 2 pi/alat)
               b(1) = (  1.000000  0.577350  0.000000 )  
               b(2) = ( -0.000000  1.154701  0.000000 )  
               b(3) = ( -0.000000  0.000000  0.736000 )  


     PseudoPot. # 1 for Zn read from file:
     ./GBRV_PBEsol/zn_pbesol_v1.uspp.F.UPF
     MD5 check sum: 7d8615e52efe7c1e2b1899de8658bae2
     Pseudo is Ultrasoft, Zval = 20.0
     Generated by new atomic code, or converted to UPF format
     Using radial grid of  943 points,  6 beta functions with: 
                l(1) =   0
                l(2) =   0
                l(3) =   1
                l(4) =   1
                l(5) =   2
                l(6) =   2
     Q(r) pseudized with  8 coefficients,  rinner =    1.100   1.100   1.100
                                                       1.100   1.100

     PseudoPot. # 2 for O  read from file:
     ./GBRV_PBEsol/o_pbesol_v1.2.uspp.F.UPF
     MD5 check sum: 501638753501ef6325af9037351f7734
     Pseudo is Ultrasoft + core correction, Zval =  6.0
     Generated by new atomic code, or converted to UPF format
     Using radial grid of  737 points,  5 beta functions with: 
                l(1) =   0
                l(2) =   0
                l(3) =   1
                l(4) =   1
                l(5) =   2
     Q(r) pseudized with  8 coefficients,  rinner =    0.900   0.900   0.900
                                                       0.900   0.900

     atomic species   valence    mass     pseudopotential
        Zn            20.00    65.38000     Zn( 1.00)
        O              6.00    15.99900     O ( 1.00)

     No symmetry found


                                    s                        frac. trans.

      isym =  1     identity                                     

 cryst.   s( 1) = (     1          0          0      )
                  (     0          1          0      )
                  (     0          0          1      )

 cart.    s( 1) = (  1.0000000  0.0000000 -0.0000000 )
                  ( -0.0000000  1.0000000  0.0000000 )
                  ( -0.0000000  0.0000000  1.0000000 )


   Cartesian axes

     site n.     atom                  positions (alat units)
         1           O   tau(   1) = (   0.5000002   0.2886754   0.0099809  )
         2           O   tau(   2) = (   0.0000001   0.5773491   0.6893288  )
         3           Zn  tau(   3) = (   0.5000000   0.2886746   0.6472209  )
         4           Zn  tau(   4) = (  -0.0000001   0.5773508   1.3265689  )

   Crystallographic axes

     site n.     atom                  positions (cryst. coord.)
         1           O   tau(   1) = (  0.6666670  0.3333337  0.0073459  )
         2           O   tau(   2) = (  0.3333329  0.6666657  0.5073458  )
         3           Zn  tau(   3) = (  0.6666664  0.3333329  0.4763542  )
         4           Zn  tau(   4) = (  0.3333336  0.6666677  0.9763542  )

     number of k points=   260
                       cart. coord. in units 2pi/alat
        k(    1) = (   0.0000000   0.0000000   0.0000000), wk =   0.0039062
        k(    2) = (  -0.0000000   0.0000000   0.0919999), wk =   0.0078125
        k(    3) = (  -0.0000001   0.0000000   0.1839999), wk =   0.0078125
        k(    4) = (  -0.0000001   0.0000000   0.2759998), wk =   0.0078125
        k(    5) = (   0.0000001  -0.0000000  -0.3679998), wk =   0.0039062
        k(    6) = (  -0.0000000   0.1443376   0.0000000), wk =   0.0078125
        k(    7) = (  -0.0000000   0.1443376   0.0920000), wk =   0.0078125
        k(    8) = (  -0.0000001   0.1443376   0.1839999), wk =   0.0078125
        k(    9) = (  -0.0000001   0.1443376   0.2759999), wk =   0.0078125
        k(   10) = (   0.0000001   0.1443376  -0.3679998), wk =   0.0078125
        k(   11) = (   0.0000001   0.1443376  -0.2759998), wk =   0.0078125
        k(   12) = (   0.0000000   0.1443376  -0.1839999), wk =   0.0078125
        k(   13) = (   0.0000000   0.1443376  -0.0919999), wk =   0.0078125
        k(   14) = (  -0.0000000   0.2886752   0.0000000), wk =   0.0078125
        k(   15) = (  -0.0000000   0.2886753   0.0920000), wk =   0.0078125
        k(   16) = (  -0.0000001   0.2886753   0.1839999), wk =   0.0078125
        k(   17) = (  -0.0000001   0.2886753   0.2759999), wk =   0.0078125
        k(   18) = (   0.0000001   0.2886752  -0.3679997), wk =   0.0078125
        k(   19) = (   0.0000001   0.2886752  -0.2759998), wk =   0.0078125
        k(   20) = (   0.0000000   0.2886752  -0.1839999), wk =   0.0078125
        k(   21) = (   0.0000000   0.2886752  -0.0919999), wk =   0.0078125
        k(   22) = (  -0.0000000   0.4330129   0.0000001), wk =   0.0078125
        k(   23) = (  -0.0000001   0.4330129   0.0920000), wk =   0.0078125
        k(   24) = (  -0.0000001   0.4330129   0.1839999), wk =   0.0078125
        k(   25) = (  -0.0000001   0.4330129   0.2759999), wk =   0.0078125
        k(   26) = (   0.0000001   0.4330128  -0.3679997), wk =   0.0078125
        k(   27) = (   0.0000001   0.4330129  -0.2759998), wk =   0.0078125
        k(   28) = (   0.0000000   0.4330129  -0.1839998), wk =   0.0078125
        k(   29) = (  -0.0000000   0.4330129  -0.0919999), wk =   0.0078125
        k(   30) = (   0.0000000  -0.5773505  -0.0000001), wk =   0.0039062
        k(   31) = (   0.0000000  -0.5773505   0.0919999), wk =   0.0078125
        k(   32) = (  -0.0000000  -0.5773505   0.1839998), wk =   0.0078125
        k(   33) = (  -0.0000000  -0.5773505   0.2759998), wk =   0.0078125
        k(   34) = (   0.0000001  -0.5773505  -0.3679999), wk =   0.0039062
        k(   35) = (   0.1250000   0.0721688   0.0000000), wk =   0.0078125
        k(   36) = (   0.1250000   0.0721688   0.0919999), wk =   0.0078125
        k(   37) = (   0.1249999   0.0721688   0.1839999), wk =   0.0078125
        k(   38) = (   0.1249999   0.0721688   0.2759998), wk =   0.0078125
        k(   39) = (   0.1250001   0.0721688  -0.3679998), wk =   0.0078125
        k(   40) = (   0.1250001   0.0721688  -0.2759998), wk =   0.0078125
        k(   41) = (   0.1250000   0.0721688  -0.1839999), wk =   0.0078125
        k(   42) = (   0.1250000   0.0721688  -0.0919999), wk =   0.0078125
        k(   43) = (   0.1250000   0.2165064   0.0000000), wk =   0.0078125
        k(   44) = (   0.1250000   0.2165064   0.0920000), wk =   0.0078125
        k(   45) = (   0.1249999   0.2165064   0.1839999), wk =   0.0078125
        k(   46) = (   0.1249999   0.2165064   0.2759999), wk =   0.0078125
        k(   47) = (   0.1250001   0.2165064  -0.3679998), wk =   0.0078125
        k(   48) = (   0.1250001   0.2165064  -0.2759998), wk =   0.0078125
        k(   49) = (   0.1250000   0.2165064  -0.1839999), wk =   0.0078125
        k(   50) = (   0.1250000   0.2165064  -0.0919999), wk =   0.0078125
        k(   51) = (   0.1250000   0.3608441   0.0000000), wk =   0.0078125
        k(   52) = (   0.1250000   0.3608441   0.0920000), wk =   0.0078125
        k(   53) = (   0.1249999   0.3608441   0.1839999), wk =   0.0078125
        k(   54) = (   0.1249999   0.3608441   0.2759999), wk =   0.0078125
        k(   55) = (   0.1250001   0.3608440  -0.3679997), wk =   0.0078125
        k(   56) = (   0.1250001   0.3608440  -0.2759998), wk =   0.0078125
        k(   57) = (   0.1250000   0.3608440  -0.1839998), wk =   0.0078125
        k(   58) = (   0.1250000   0.3608440  -0.0919999), wk =   0.0078125
        k(   59) = (   0.1250000   0.5051817   0.0000001), wk =   0.0078125
        k(   60) = (   0.1249999   0.5051817   0.0920000), wk =   0.0078125
        k(   61) = (   0.1249999   0.5051817   0.1840000), wk =   0.0078125
        k(   62) = (   0.1249999   0.5051817   0.2759999), wk =   0.0078125
        k(   63) = (   0.1250001   0.5051817  -0.3679997), wk =   0.0078125
        k(   64) = (   0.1250000   0.5051817  -0.2759998), wk =   0.0078125
        k(   65) = (   0.1250000   0.5051817  -0.1839998), wk =   0.0078125
        k(   66) = (   0.1250000   0.5051817  -0.0919999), wk =   0.0078125
        k(   67) = (   0.1250000  -0.5051817  -0.0000001), wk =   0.0078125
        k(   68) = (   0.1250000  -0.5051817   0.0919999), wk =   0.0078125
        k(   69) = (   0.1250000  -0.5051817   0.1839998), wk =   0.0078125
        k(   70) = (   0.1250000  -0.5051817   0.2759998), wk =   0.0078125
        k(   71) = (   0.1250001  -0.5051817  -0.3679999), wk =   0.0078125
        k(   72) = (   0.1250001  -0.5051817  -0.2759999), wk =   0.0078125
        k(   73) = (   0.1250001  -0.5051817  -0.1840000), wk =   0.0078125
        k(   74) = (   0.1250001  -0.5051817  -0.0920000), wk =   0.0078125
        k(   75) = (   0.1250000  -0.3608441  -0.0000001), wk =   0.0078125
        k(   76) = (   0.1250000  -0.3608441   0.0919999), wk =   0.0078125
        k(   77) = (   0.1250000  -0.3608441   0.1839998), wk =   0.0078125
        k(   78) = (   0.1249999  -0.3608440   0.2759998), wk =   0.0078125
        k(   79) = (   0.1250001  -0.3608441  -0.3679998), wk =   0.0078125
        k(   80) = (   0.1250001  -0.3608441  -0.2759999), wk =   0.0078125
        k(   81) = (   0.1250001  -0.3608441  -0.1839999), wk =   0.0078125
        k(   82) = (   0.1250000  -0.3608441  -0.0920000), wk =   0.0078125
        k(   83) = (   0.1250000  -0.2165064  -0.0000000), wk =   0.0078125
        k(   84) = (   0.1250000  -0.2165064   0.0919999), wk =   0.0078125
        k(   85) = (   0.1250000  -0.2165064   0.1839999), wk =   0.0078125
        k(   86) = (   0.1249999  -0.2165064   0.2759998), wk =   0.0078125
        k(   87) = (   0.1250001  -0.2165065  -0.3679998), wk =   0.0078125
        k(   88) = (   0.1250001  -0.2165065  -0.2759999), wk =   0.0078125
        k(   89) = (   0.1250001  -0.2165065  -0.1839999), wk =   0.0078125
        k(   90) = (   0.1250000  -0.2165064  -0.0920000), wk =   0.0078125
        k(   91) = (   0.1250000  -0.0721688  -0.0000000), wk =   0.0078125
        k(   92) = (   0.1250000  -0.0721688   0.0919999), wk =   0.0078125
        k(   93) = (   0.1250000  -0.0721688   0.1839999), wk =   0.0078125
        k(   94) = (   0.1249999  -0.0721688   0.2759998), wk =   0.0078125
        k(   95) = (   0.1250001  -0.0721688  -0.3679998), wk =   0.0078125
        k(   96) = (   0.1250001  -0.0721688  -0.2759999), wk =   0.0078125
        k(   97) = (   0.1250001  -0.0721688  -0.1839999), wk =   0.0078125
        k(   98) = (   0.1250000  -0.0721688  -0.0920000), wk =   0.0078125
        k(   99) = (   0.2500000   0.1443376   0.0000000), wk =   0.0078125
        k(  100) = (   0.2500000   0.1443376   0.0919999), wk =   0.0078125
        k(  101) = (   0.2499999   0.1443376   0.1839999), wk =   0.0078125
        k(  102) = (   0.2499999   0.1443376   0.2759998), wk =   0.0078125
        k(  103) = (   0.2500001   0.1443376  -0.3679998), wk =   0.0078125
        k(  104) = (   0.2500001   0.1443376  -0.2759998), wk =   0.0078125
        k(  105) = (   0.2500000   0.1443376  -0.1839999), wk =   0.0078125
        k(  106) = (   0.2500000   0.1443376  -0.0919999), wk =   0.0078125
        k(  107) = (   0.2500000   0.2886752   0.0000000), wk =   0.0078125
        k(  108) = (   0.2500000   0.2886752   0.0920000), wk =   0.0078125
        k(  109) = (   0.2499999   0.2886752   0.1839999), wk =   0.0078125
        k(  110) = (   0.2499999   0.2886752   0.2759999), wk =   0.0078125
        k(  111) = (   0.2500001   0.2886752  -0.3679998), wk =   0.0078125
        k(  112) = (   0.2500001   0.2886752  -0.2759998), wk =   0.0078125
        k(  113) = (   0.2500000   0.2886752  -0.1839999), wk =   0.0078125
        k(  114) = (   0.2500000   0.2886752  -0.0919999), wk =   0.0078125
        k(  115) = (   0.2500000   0.4330129   0.0000000), wk =   0.0078125
        k(  116) = (   0.2499999   0.4330129   0.0920000), wk =   0.0078125
        k(  117) = (   0.2499999   0.4330129   0.1839999), wk =   0.0078125
        k(  118) = (   0.2499999   0.4330129   0.2759999), wk =   0.0078125
        k(  119) = (   0.2500001   0.4330128  -0.3679997), wk =   0.0078125
        k(  120) = (   0.2500001   0.4330128  -0.2759998), wk =   0.0078125
        k(  121) = (   0.2500000   0.4330128  -0.1839998), wk =   0.0078125
        k(  122) = (   0.2500000   0.4330128  -0.0919999), wk =   0.0078125
        k(  123) = (   0.2500000   0.5773505   0.0000001), wk =   0.0078125
        k(  124) = (   0.2499999   0.5773505   0.0920000), wk =   0.0078125
        k(  125) = (   0.2499999   0.5773505   0.1840000), wk =   0.0078125
        k(  126) = (   0.2499999   0.5773505   0.2759999), wk =   0.0078125
        k(  127) = (   0.2500001   0.5773505  -0.3679997), wk =   0.0078125
        k(  128) = (   0.2500000   0.5773505  -0.2759998), wk =   0.0078125
        k(  129) = (   0.2500000   0.5773505  -0.1839998), wk =   0.0078125
        k(  130) = (   0.2500000   0.5773505  -0.0919999), wk =   0.0078125
        k(  131) = (   0.2500000  -0.4330129  -0.0000001), wk =   0.0078125
        k(  132) = (   0.2500000  -0.4330129   0.0919999), wk =   0.0078125
        k(  133) = (   0.2500000  -0.4330129   0.1839998), wk =   0.0078125
        k(  134) = (   0.2499999  -0.4330129   0.2759998), wk =   0.0078125
        k(  135) = (   0.2500001  -0.4330129  -0.3679999), wk =   0.0078125
        k(  136) = (   0.2500001  -0.4330129  -0.2759999), wk =   0.0078125
        k(  137) = (   0.2500001  -0.4330129  -0.1840000), wk =   0.0078125
        k(  138) = (   0.2500001  -0.4330129  -0.0920000), wk =   0.0078125
        k(  139) = (   0.2500000  -0.2886753  -0.0000001), wk =   0.0078125
        k(  140) = (   0.2500000  -0.2886753   0.0919999), wk =   0.0078125
        k(  141) = (   0.2500000  -0.2886753   0.1839998), wk =   0.0078125
        k(  142) = (   0.2499999  -0.2886752   0.2759998), wk =   0.0078125
        k(  143) = (   0.2500001  -0.2886753  -0.3679998), wk =   0.0078125
        k(  144) = (   0.2500001  -0.2886753  -0.2759999), wk =   0.0078125
        k(  145) = (   0.2500001  -0.2886753  -0.1839999), wk =   0.0078125
        k(  146) = (   0.2500000  -0.2886753  -0.0920000), wk =   0.0078125
        k(  147) = (   0.2500000  -0.1443376  -0.0000000), wk =   0.0078125
        k(  148) = (   0.2500000  -0.1443376   0.0919999), wk =   0.0078125
        k(  149) = (   0.2500000  -0.1443376   0.1839999), wk =   0.0078125
        k(  150) = (   0.2499999  -0.1443376   0.2759998), wk =   0.0078125
        k(  151) = (   0.2500001  -0.1443377  -0.3679998), wk =   0.0078125
        k(  152) = (   0.2500001  -0.1443377  -0.2759999), wk =   0.0078125
        k(  153) = (   0.2500001  -0.1443377  -0.1839999), wk =   0.0078125
        k(  154) = (   0.2500000  -0.1443376  -0.0920000), wk =   0.0078125
        k(  155) = (   0.2500000  -0.0000000  -0.0000000), wk =   0.0078125
        k(  156) = (   0.2500000  -0.0000000   0.0919999), wk =   0.0078125
        k(  157) = (   0.2499999  -0.0000000   0.1839999), wk =   0.0078125
        k(  158) = (   0.2499999   0.0000000   0.2759998), wk =   0.0078125
        k(  159) = (   0.2500001  -0.0000000  -0.3679998), wk =   0.0078125
        k(  160) = (   0.2500001  -0.0000000  -0.2759998), wk =   0.0078125
        k(  161) = (   0.2500001  -0.0000000  -0.1839999), wk =   0.0078125
        k(  162) = (   0.2500000  -0.0000000  -0.0920000), wk =   0.0078125
        k(  163) = (   0.3750000   0.2165064   0.0000000), wk =   0.0078125
        k(  164) = (   0.3750000   0.2165064   0.0920000), wk =   0.0078125
        k(  165) = (   0.3749999   0.2165064   0.1839999), wk =   0.0078125
        k(  166) = (   0.3749999   0.2165064   0.2759998), wk =   0.0078125
        k(  167) = (   0.3750001   0.2165064  -0.3679998), wk =   0.0078125
        k(  168) = (   0.3750001   0.2165064  -0.2759998), wk =   0.0078125
        k(  169) = (   0.3750000   0.2165064  -0.1839999), wk =   0.0078125
        k(  170) = (   0.3750000   0.2165064  -0.0919999), wk =   0.0078125
        k(  171) = (   0.3750000   0.3608440   0.0000000), wk =   0.0078125
        k(  172) = (   0.3750000   0.3608440   0.0920000), wk =   0.0078125
        k(  173) = (   0.3749999   0.3608440   0.1839999), wk =   0.0078125
        k(  174) = (   0.3749999   0.3608441   0.2759999), wk =   0.0078125
        k(  175) = (   0.3750001   0.3608440  -0.3679998), wk =   0.0078125
        k(  176) = (   0.3750001   0.3608440  -0.2759998), wk =   0.0078125
        k(  177) = (   0.3750000   0.3608440  -0.1839999), wk =   0.0078125
        k(  178) = (   0.3750000   0.3608440  -0.0919999), wk =   0.0078125
        k(  179) = (   0.3750000   0.5051817   0.0000000), wk =   0.0078125
        k(  180) = (   0.3749999   0.5051817   0.0920000), wk =   0.0078125
        k(  181) = (   0.3749999   0.5051817   0.1839999), wk =   0.0078125
        k(  182) = (   0.3749999   0.5051817   0.2759999), wk =   0.0078125
        k(  183) = (   0.3750001   0.5051816  -0.3679997), wk =   0.0078125
        k(  184) = (   0.3750000   0.5051816  -0.2759998), wk =   0.0078125
        k(  185) = (   0.3750000   0.5051816  -0.1839998), wk =   0.0078125
        k(  186) = (   0.3750000   0.5051817  -0.0919999), wk =   0.0078125
        k(  187) = (   0.3750000   0.6495193   0.0000001), wk =   0.0078125
        k(  188) = (   0.3749999   0.6495193   0.0920000), wk =   0.0078125
        k(  189) = (   0.3749999   0.6495193   0.1840000), wk =   0.0078125
        k(  190) = (   0.3749999   0.6495193   0.2759999), wk =   0.0078125
        k(  191) = (   0.3750001   0.6495193  -0.3679997), wk =   0.0078125
        k(  192) = (   0.3750000   0.6495193  -0.2759998), wk =   0.0078125
        k(  193) = (   0.3750000   0.6495193  -0.1839998), wk =   0.0078125
        k(  194) = (   0.3750000   0.6495193  -0.0919999), wk =   0.0078125
        k(  195) = (   0.3750000  -0.3608441  -0.0000001), wk =   0.0078125
        k(  196) = (   0.3750000  -0.3608441   0.0919999), wk =   0.0078125
        k(  197) = (   0.3750000  -0.3608441   0.1839998), wk =   0.0078125
        k(  198) = (   0.3749999  -0.3608441   0.2759998), wk =   0.0078125
        k(  199) = (   0.3750001  -0.3608441  -0.3679999), wk =   0.0078125
        k(  200) = (   0.3750001  -0.3608441  -0.2759999), wk =   0.0078125
        k(  201) = (   0.3750001  -0.3608441  -0.1840000), wk =   0.0078125
        k(  202) = (   0.3750000  -0.3608441  -0.0920000), wk =   0.0078125
        k(  203) = (   0.3750000  -0.2165065  -0.0000001), wk =   0.0078125
        k(  204) = (   0.3750000  -0.2165065   0.0919999), wk =   0.0078125
        k(  205) = (   0.3750000  -0.2165064   0.1839998), wk =   0.0078125
        k(  206) = (   0.3749999  -0.2165064   0.2759998), wk =   0.0078125
        k(  207) = (   0.3750001  -0.2165065  -0.3679998), wk =   0.0078125
        k(  208) = (   0.3750001  -0.2165065  -0.2759999), wk =   0.0078125
        k(  209) = (   0.3750001  -0.2165065  -0.1839999), wk =   0.0078125
        k(  210) = (   0.3750000  -0.2165065  -0.0920000), wk =   0.0078125
        k(  211) = (   0.3750000  -0.0721688  -0.0000000), wk =   0.0078125
        k(  212) = (   0.3750000  -0.0721688   0.0919999), wk =   0.0078125
        k(  213) = (   0.3750000  -0.0721688   0.1839999), wk =   0.0078125
        k(  214) = (   0.3749999  -0.0721688   0.2759998), wk =   0.0078125
        k(  215) = (   0.3750001  -0.0721689  -0.3679998), wk =   0.0078125
        k(  216) = (   0.3750001  -0.0721689  -0.2759999), wk =   0.0078125
        k(  217) = (   0.3750001  -0.0721688  -0.1839999), wk =   0.0078125
        k(  218) = (   0.3750000  -0.0721688  -0.0920000), wk =   0.0078125
        k(  219) = (   0.3750000   0.0721688  -0.0000000), wk =   0.0078125
        k(  220) = (   0.3750000   0.0721688   0.0919999), wk =   0.0078125
        k(  221) = (   0.3749999   0.0721688   0.1839999), wk =   0.0078125
        k(  222) = (   0.3749999   0.0721688   0.2759998), wk =   0.0078125
        k(  223) = (   0.3750001   0.0721688  -0.3679998), wk =   0.0078125
        k(  224) = (   0.3750001   0.0721688  -0.2759998), wk =   0.0078125
        k(  225) = (   0.3750000   0.0721688  -0.1839999), wk =   0.0078125
        k(  226) = (   0.3750000   0.0721688  -0.0920000), wk =   0.0078125
        k(  227) = (  -0.5000000  -0.2886752  -0.0000000), wk =   0.0039062
        k(  228) = (  -0.5000000  -0.2886752   0.0919999), wk =   0.0078125
        k(  229) = (  -0.5000000  -0.2886752   0.1839999), wk =   0.0078125
        k(  230) = (  -0.5000001  -0.2886752   0.2759998), wk =   0.0078125
        k(  231) = (  -0.4999999  -0.2886752  -0.3679998), wk =   0.0039062
        k(  232) = (  -0.5000000  -0.1443376   0.0000000), wk =   0.0078125
        k(  233) = (  -0.5000000  -0.1443376   0.0920000), wk =   0.0078125
        k(  234) = (  -0.5000000  -0.1443376   0.1839999), wk =   0.0078125
        k(  235) = (  -0.5000001  -0.1443376   0.2759998), wk =   0.0078125
        k(  236) = (  -0.4999999  -0.1443376  -0.3679998), wk =   0.0078125
        k(  237) = (  -0.4999999  -0.1443376  -0.2759998), wk =   0.0078125
        k(  238) = (  -0.4999999  -0.1443376  -0.1839999), wk =   0.0078125
        k(  239) = (  -0.5000000  -0.1443376  -0.0919999), wk =   0.0078125
        k(  240) = (  -0.5000000   0.0000000   0.0000000), wk =   0.0078125
        k(  241) = (  -0.5000000   0.0000000   0.0920000), wk =   0.0078125
        k(  242) = (  -0.5000001   0.0000000   0.1839999), wk =   0.0078125
        k(  243) = (  -0.5000001   0.0000000   0.2759999), wk =   0.0078125
        k(  244) = (  -0.4999999   0.0000000  -0.3679998), wk =   0.0078125
        k(  245) = (  -0.4999999   0.0000000  -0.2759998), wk =   0.0078125
        k(  246) = (  -0.4999999   0.0000000  -0.1839999), wk =   0.0078125
        k(  247) = (  -0.5000000   0.0000000  -0.0919999), wk =   0.0078125
        k(  248) = (  -0.5000000   0.1443377   0.0000000), wk =   0.0078125
        k(  249) = (  -0.5000000   0.1443377   0.0920000), wk =   0.0078125
        k(  250) = (  -0.5000001   0.1443377   0.1839999), wk =   0.0078125
        k(  251) = (  -0.5000001   0.1443377   0.2759999), wk =   0.0078125
        k(  252) = (  -0.4999999   0.1443376  -0.3679997), wk =   0.0078125
        k(  253) = (  -0.4999999   0.1443376  -0.2759998), wk =   0.0078125
        k(  254) = (  -0.5000000   0.1443376  -0.1839998), wk =   0.0078125
        k(  255) = (  -0.5000000   0.1443376  -0.0919999), wk =   0.0078125
        k(  256) = (  -0.4999999  -0.8660257  -0.0000001), wk =   0.0039062
        k(  257) = (  -0.5000000  -0.8660257   0.0919999), wk =   0.0078125
        k(  258) = (  -0.5000000  -0.8660257   0.1839998), wk =   0.0078125
        k(  259) = (  -0.5000000  -0.8660257   0.2759997), wk =   0.0078125
        k(  260) = (  -0.4999998  -0.8660257  -0.3679999), wk =   0.0039062

                       cryst. coord.
        k(    1) = (   0.0000000   0.0000000   0.0000000), wk =   0.0039062
        k(    2) = (  -0.0000000   0.0000000   0.1250000), wk =   0.0078125
        k(    3) = (  -0.0000000   0.0000000   0.2500000), wk =   0.0078125
        k(    4) = (  -0.0000000   0.0000000   0.3750000), wk =   0.0078125
        k(    5) = (   0.0000000  -0.0000000  -0.5000000), wk =   0.0039062
        k(    6) = (  -0.0000000   0.1250000   0.0000000), wk =   0.0078125
        k(    7) = (   0.0000000   0.1250000   0.1250000), wk =   0.0078125
        k(    8) = (  -0.0000000   0.1250000   0.2500000), wk =   0.0078125
        k(    9) = (  -0.0000000   0.1250000   0.3750000), wk =   0.0078125
        k(   10) = (   0.0000000   0.1250000  -0.5000000), wk =   0.0078125
        k(   11) = (  -0.0000000   0.1250000  -0.3750000), wk =   0.0078125
        k(   12) = (   0.0000000   0.1250000  -0.2500000), wk =   0.0078125
        k(   13) = (  -0.0000000   0.1250000  -0.1250000), wk =   0.0078125
        k(   14) = (  -0.0000000   0.2500000   0.0000000), wk =   0.0078125
        k(   15) = (  -0.0000000   0.2500000   0.1250000), wk =   0.0078125
        k(   16) = (   0.0000000   0.2500000   0.2500000), wk =   0.0078125
        k(   17) = (  -0.0000000   0.2500000   0.3750000), wk =   0.0078125
        k(   18) = (   0.0000000   0.2500000  -0.5000000), wk =   0.0078125
        k(   19) = (  -0.0000000   0.2500000  -0.3750000), wk =   0.0078125
        k(   20) = (  -0.0000000   0.2500000  -0.2500000), wk =   0.0078125
        k(   21) = (  -0.0000000   0.2500000  -0.1250000), wk =   0.0078125
        k(   22) = (  -0.0000000   0.3750000   0.0000000), wk =   0.0078125
        k(   23) = (  -0.0000000   0.3750000   0.1250000), wk =   0.0078125
        k(   24) = (  -0.0000000   0.3750000   0.2500000), wk =   0.0078125
        k(   25) = (  -0.0000000   0.3750000   0.3750000), wk =   0.0078125
        k(   26) = (  -0.0000000   0.3750000  -0.5000000), wk =   0.0078125
        k(   27) = (  -0.0000000   0.3750000  -0.3750000), wk =   0.0078125
        k(   28) = (   0.0000000   0.3750000  -0.2500000), wk =   0.0078125
        k(   29) = (  -0.0000000   0.3750000  -0.1250000), wk =   0.0078125
        k(   30) = (   0.0000000  -0.5000000  -0.0000000), wk =   0.0039062
        k(   31) = (   0.0000000  -0.5000000   0.1250000), wk =   0.0078125
        k(   32) = (   0.0000000  -0.5000000   0.2500000), wk =   0.0078125
        k(   33) = (  -0.0000000  -0.5000000   0.3750000), wk =   0.0078125
        k(   34) = (  -0.0000000  -0.5000000  -0.5000000), wk =   0.0039062
        k(   35) = (   0.1250000   0.0000000  -0.0000000), wk =   0.0078125
        k(   36) = (   0.1250000   0.0000000   0.1250000), wk =   0.0078125
        k(   37) = (   0.1250000   0.0000000   0.2500000), wk =   0.0078125
        k(   38) = (   0.1250000   0.0000000   0.3750000), wk =   0.0078125
        k(   39) = (   0.1250000   0.0000000  -0.5000000), wk =   0.0078125
        k(   40) = (   0.1250000   0.0000000  -0.3750000), wk =   0.0078125
        k(   41) = (   0.1250000   0.0000000  -0.2500000), wk =   0.0078125
        k(   42) = (   0.1250000   0.0000000  -0.1250000), wk =   0.0078125
        k(   43) = (   0.1250000   0.1250000  -0.0000000), wk =   0.0078125
        k(   44) = (   0.1250000   0.1250000   0.1250000), wk =   0.0078125
        k(   45) = (   0.1250000   0.1250000   0.2500000), wk =   0.0078125
        k(   46) = (   0.1250000   0.1250000   0.3750000), wk =   0.0078125
        k(   47) = (   0.1250000   0.1250000  -0.5000000), wk =   0.0078125
        k(   48) = (   0.1250000   0.1250000  -0.3750000), wk =   0.0078125
        k(   49) = (   0.1250000   0.1250000  -0.2500000), wk =   0.0078125
        k(   50) = (   0.1250000   0.1250000  -0.1250000), wk =   0.0078125
        k(   51) = (   0.1250000   0.2500000   0.0000000), wk =   0.0078125
        k(   52) = (   0.1250000   0.2500000   0.1250000), wk =   0.0078125
        k(   53) = (   0.1250000   0.2500000   0.2500000), wk =   0.0078125
        k(   54) = (   0.1250000   0.2500000   0.3750000), wk =   0.0078125
        k(   55) = (   0.1250000   0.2500000  -0.5000000), wk =   0.0078125
        k(   56) = (   0.1250000   0.2500000  -0.3750000), wk =   0.0078125
        k(   57) = (   0.1250000   0.2500000  -0.2500000), wk =   0.0078125
        k(   58) = (   0.1250000   0.2500000  -0.1250000), wk =   0.0078125
        k(   59) = (   0.1250000   0.3750000   0.0000000), wk =   0.0078125
        k(   60) = (   0.1250000   0.3750000   0.1250000), wk =   0.0078125
        k(   61) = (   0.1250000   0.3750000   0.2500000), wk =   0.0078125
        k(   62) = (   0.1250000   0.3750000   0.3750000), wk =   0.0078125
        k(   63) = (   0.1250000   0.3750000  -0.5000000), wk =   0.0078125
        k(   64) = (   0.1250000   0.3750000  -0.3750000), wk =   0.0078125
        k(   65) = (   0.1250000   0.3750000  -0.2500000), wk =   0.0078125
        k(   66) = (   0.1250000   0.3750000  -0.1250000), wk =   0.0078125
        k(   67) = (   0.1250000  -0.5000000  -0.0000000), wk =   0.0078125
        k(   68) = (   0.1250000  -0.5000000   0.1250000), wk =   0.0078125
        k(   69) = (   0.1250000  -0.5000000   0.2500000), wk =   0.0078125
        k(   70) = (   0.1250000  -0.5000000   0.3750000), wk =   0.0078125
        k(   71) = (   0.1250000  -0.5000000  -0.5000000), wk =   0.0078125
        k(   72) = (   0.1250000  -0.5000000  -0.3750000), wk =   0.0078125
        k(   73) = (   0.1250000  -0.5000000  -0.2500000), wk =   0.0078125
        k(   74) = (   0.1250000  -0.5000000  -0.1250000), wk =   0.0078125
        k(   75) = (   0.1250000  -0.3750000  -0.0000000), wk =   0.0078125
        k(   76) = (   0.1250000  -0.3750000   0.1250000), wk =   0.0078125
        k(   77) = (   0.1250000  -0.3750000   0.2500000), wk =   0.0078125
        k(   78) = (   0.1250000  -0.3750000   0.3750000), wk =   0.0078125
        k(   79) = (   0.1250000  -0.3750000  -0.5000000), wk =   0.0078125
        k(   80) = (   0.1250000  -0.3750000  -0.3750000), wk =   0.0078125
        k(   81) = (   0.1250000  -0.3750000  -0.2500000), wk =   0.0078125
        k(   82) = (   0.1250000  -0.3750000  -0.1250000), wk =   0.0078125
        k(   83) = (   0.1250000  -0.2500000  -0.0000000), wk =   0.0078125
        k(   84) = (   0.1250000  -0.2500000   0.1250000), wk =   0.0078125
        k(   85) = (   0.1250000  -0.2500000   0.2500000), wk =   0.0078125
        k(   86) = (   0.1250000  -0.2500000   0.3750000), wk =   0.0078125
        k(   87) = (   0.1250000  -0.2500000  -0.5000000), wk =   0.0078125
        k(   88) = (   0.1250000  -0.2500000  -0.3750000), wk =   0.0078125
        k(   89) = (   0.1250000  -0.2500000  -0.2500000), wk =   0.0078125
        k(   90) = (   0.1250000  -0.2500000  -0.1250000), wk =   0.0078125
        k(   91) = (   0.1250000  -0.1250000  -0.0000000), wk =   0.0078125
        k(   92) = (   0.1250000  -0.1250000   0.1250000), wk =   0.0078125
        k(   93) = (   0.1250000  -0.1250000   0.2500000), wk =   0.0078125
        k(   94) = (   0.1250000  -0.1250000   0.3750000), wk =   0.0078125
        k(   95) = (   0.1250000  -0.1250000  -0.5000000), wk =   0.0078125
        k(   96) = (   0.1250000  -0.1250000  -0.3750000), wk =   0.0078125
        k(   97) = (   0.1250000  -0.1250000  -0.2500000), wk =   0.0078125
        k(   98) = (   0.1250000  -0.1250000  -0.1250000), wk =   0.0078125
        k(   99) = (   0.2500000   0.0000000  -0.0000000), wk =   0.0078125
        k(  100) = (   0.2500000   0.0000000   0.1250000), wk =   0.0078125
        k(  101) = (   0.2500000   0.0000000   0.2500000), wk =   0.0078125
        k(  102) = (   0.2500000   0.0000000   0.3750000), wk =   0.0078125
        k(  103) = (   0.2500000   0.0000000  -0.5000000), wk =   0.0078125
        k(  104) = (   0.2500000   0.0000000  -0.3750000), wk =   0.0078125
        k(  105) = (   0.2500000   0.0000000  -0.2500000), wk =   0.0078125
        k(  106) = (   0.2500000   0.0000000  -0.1250000), wk =   0.0078125
        k(  107) = (   0.2500000   0.1250000   0.0000000), wk =   0.0078125
        k(  108) = (   0.2500000   0.1250000   0.1250000), wk =   0.0078125
        k(  109) = (   0.2500000   0.1250000   0.2500000), wk =   0.0078125
        k(  110) = (   0.2500000   0.1250000   0.3750000), wk =   0.0078125
        k(  111) = (   0.2500000   0.1250000  -0.5000000), wk =   0.0078125
        k(  112) = (   0.2500000   0.1250000  -0.3750000), wk =   0.0078125
        k(  113) = (   0.2500000   0.1250000  -0.2500000), wk =   0.0078125
        k(  114) = (   0.2500000   0.1250000  -0.1250000), wk =   0.0078125
        k(  115) = (   0.2500000   0.2500000  -0.0000000), wk =   0.0078125
        k(  116) = (   0.2500000   0.2500000   0.1250000), wk =   0.0078125
        k(  117) = (   0.2500000   0.2500000   0.2500000), wk =   0.0078125
        k(  118) = (   0.2500000   0.2500000   0.3750000), wk =   0.0078125
        k(  119) = (   0.2500000   0.2500000  -0.5000000), wk =   0.0078125
        k(  120) = (   0.2500000   0.2500000  -0.3750000), wk =   0.0078125
        k(  121) = (   0.2500000   0.2500000  -0.2500000), wk =   0.0078125
        k(  122) = (   0.2500000   0.2500000  -0.1250000), wk =   0.0078125
        k(  123) = (   0.2500000   0.3750000   0.0000000), wk =   0.0078125
        k(  124) = (   0.2500000   0.3750000   0.1250000), wk =   0.0078125
        k(  125) = (   0.2500000   0.3750000   0.2500000), wk =   0.0078125
        k(  126) = (   0.2500000   0.3750000   0.3750000), wk =   0.0078125
        k(  127) = (   0.2500000   0.3750000  -0.5000000), wk =   0.0078125
        k(  128) = (   0.2500000   0.3750000  -0.3750000), wk =   0.0078125
        k(  129) = (   0.2500000   0.3750000  -0.2500000), wk =   0.0078125
        k(  130) = (   0.2500000   0.3750000  -0.1250000), wk =   0.0078125
        k(  131) = (   0.2500000  -0.5000000  -0.0000000), wk =   0.0078125
        k(  132) = (   0.2500000  -0.5000000   0.1250000), wk =   0.0078125
        k(  133) = (   0.2500000  -0.5000000   0.2500000), wk =   0.0078125
        k(  134) = (   0.2500000  -0.5000000   0.3750000), wk =   0.0078125
        k(  135) = (   0.2500000  -0.5000000  -0.5000000), wk =   0.0078125
        k(  136) = (   0.2500000  -0.5000000  -0.3750000), wk =   0.0078125
        k(  137) = (   0.2500000  -0.5000000  -0.2500000), wk =   0.0078125
        k(  138) = (   0.2500000  -0.5000000  -0.1250000), wk =   0.0078125
        k(  139) = (   0.2500000  -0.3750000  -0.0000000), wk =   0.0078125
        k(  140) = (   0.2500000  -0.3750000   0.1250000), wk =   0.0078125
        k(  141) = (   0.2500000  -0.3750000   0.2500000), wk =   0.0078125
        k(  142) = (   0.2500000  -0.3750000   0.3750000), wk =   0.0078125
        k(  143) = (   0.2500000  -0.3750000  -0.5000000), wk =   0.0078125
        k(  144) = (   0.2500000  -0.3750000  -0.3750000), wk =   0.0078125
        k(  145) = (   0.2500000  -0.3750000  -0.2500000), wk =   0.0078125
        k(  146) = (   0.2500000  -0.3750000  -0.1250000), wk =   0.0078125
        k(  147) = (   0.2500000  -0.2500000  -0.0000000), wk =   0.0078125
        k(  148) = (   0.2500000  -0.2500000   0.1250000), wk =   0.0078125
        k(  149) = (   0.2500000  -0.2500000   0.2500000), wk =   0.0078125
        k(  150) = (   0.2500000  -0.2500000   0.3750000), wk =   0.0078125
        k(  151) = (   0.2500000  -0.2500000  -0.5000000), wk =   0.0078125
        k(  152) = (   0.2500000  -0.2500000  -0.3750000), wk =   0.0078125
        k(  153) = (   0.2500000  -0.2500000  -0.2500000), wk =   0.0078125
        k(  154) = (   0.2500000  -0.2500000  -0.1250000), wk =   0.0078125
        k(  155) = (   0.2500000  -0.1250000  -0.0000000), wk =   0.0078125
        k(  156) = (   0.2500000  -0.1250000   0.1250000), wk =   0.0078125
        k(  157) = (   0.2500000  -0.1250000   0.2500000), wk =   0.0078125
        k(  158) = (   0.2500000  -0.1250000   0.3750000), wk =   0.0078125
        k(  159) = (   0.2500000  -0.1250000  -0.5000000), wk =   0.0078125
        k(  160) = (   0.2500000  -0.1250000  -0.3750000), wk =   0.0078125
        k(  161) = (   0.2500000  -0.1250000  -0.2500000), wk =   0.0078125
        k(  162) = (   0.2500000  -0.1250000  -0.1250000), wk =   0.0078125
        k(  163) = (   0.3750000   0.0000000  -0.0000000), wk =   0.0078125
        k(  164) = (   0.3750000   0.0000000   0.1250000), wk =   0.0078125
        k(  165) = (   0.3750000   0.0000000   0.2500000), wk =   0.0078125
        k(  166) = (   0.3750000   0.0000000   0.3750000), wk =   0.0078125
        k(  167) = (   0.3750000   0.0000000  -0.5000000), wk =   0.0078125
        k(  168) = (   0.3750000   0.0000000  -0.3750000), wk =   0.0078125
        k(  169) = (   0.3750000   0.0000000  -0.2500000), wk =   0.0078125
        k(  170) = (   0.3750000   0.0000000  -0.1250000), wk =   0.0078125
        k(  171) = (   0.3750000   0.1250000   0.0000000), wk =   0.0078125
        k(  172) = (   0.3750000   0.1250000   0.1250000), wk =   0.0078125
        k(  173) = (   0.3750000   0.1250000   0.2500000), wk =   0.0078125
        k(  174) = (   0.3750000   0.1250000   0.3750000), wk =   0.0078125
        k(  175) = (   0.3750000   0.1250000  -0.5000000), wk =   0.0078125
        k(  176) = (   0.3750000   0.1250000  -0.3750000), wk =   0.0078125
        k(  177) = (   0.3750000   0.1250000  -0.2500000), wk =   0.0078125
        k(  178) = (   0.3750000   0.1250000  -0.1250000), wk =   0.0078125
        k(  179) = (   0.3750000   0.2500000   0.0000000), wk =   0.0078125
        k(  180) = (   0.3750000   0.2500000   0.1250000), wk =   0.0078125
        k(  181) = (   0.3750000   0.2500000   0.2500000), wk =   0.0078125
        k(  182) = (   0.3750000   0.2500000   0.3750000), wk =   0.0078125
        k(  183) = (   0.3750000   0.2500000  -0.5000000), wk =   0.0078125
        k(  184) = (   0.3750000   0.2500000  -0.3750000), wk =   0.0078125
        k(  185) = (   0.3750000   0.2500000  -0.2500000), wk =   0.0078125
        k(  186) = (   0.3750000   0.2500000  -0.1250000), wk =   0.0078125
        k(  187) = (   0.3750000   0.3750000   0.0000000), wk =   0.0078125
        k(  188) = (   0.3750000   0.3750000   0.1250000), wk =   0.0078125
        k(  189) = (   0.3750000   0.3750000   0.2500000), wk =   0.0078125
        k(  190) = (   0.3750000   0.3750000   0.3750000), wk =   0.0078125
        k(  191) = (   0.3750000   0.3750000  -0.5000000), wk =   0.0078125
        k(  192) = (   0.3750000   0.3750000  -0.3750000), wk =   0.0078125
        k(  193) = (   0.3750000   0.3750000  -0.2500000), wk =   0.0078125
        k(  194) = (   0.3750000   0.3750000  -0.1250000), wk =   0.0078125
        k(  195) = (   0.3750000  -0.5000000  -0.0000000), wk =   0.0078125
        k(  196) = (   0.3750000  -0.5000000   0.1250000), wk =   0.0078125
        k(  197) = (   0.3750000  -0.5000000   0.2500000), wk =   0.0078125
        k(  198) = (   0.3750000  -0.5000000   0.3750000), wk =   0.0078125
        k(  199) = (   0.3750000  -0.5000000  -0.5000000), wk =   0.0078125
        k(  200) = (   0.3750000  -0.5000000  -0.3750000), wk =   0.0078125
        k(  201) = (   0.3750000  -0.5000000  -0.2500000), wk =   0.0078125
        k(  202) = (   0.3750000  -0.5000000  -0.1250000), wk =   0.0078125
        k(  203) = (   0.3750000  -0.3750000  -0.0000000), wk =   0.0078125
        k(  204) = (   0.3750000  -0.3750000   0.1250000), wk =   0.0078125
        k(  205) = (   0.3750000  -0.3750000   0.2500000), wk =   0.0078125
        k(  206) = (   0.3750000  -0.3750000   0.3750000), wk =   0.0078125
        k(  207) = (   0.3750000  -0.3750000  -0.5000000), wk =   0.0078125
        k(  208) = (   0.3750000  -0.3750000  -0.3750000), wk =   0.0078125
        k(  209) = (   0.3750000  -0.3750000  -0.2500000), wk =   0.0078125
        k(  210) = (   0.3750000  -0.3750000  -0.1250000), wk =   0.0078125
        k(  211) = (   0.3750000  -0.2500000  -0.0000000), wk =   0.0078125
        k(  212) = (   0.3750000  -0.2500000   0.1250000), wk =   0.0078125
        k(  213) = (   0.3750000  -0.2500000   0.2500000), wk =   0.0078125
        k(  214) = (   0.3750000  -0.2500000   0.3750000), wk =   0.0078125
        k(  215) = (   0.3750000  -0.2500000  -0.5000000), wk =   0.0078125
        k(  216) = (   0.3750000  -0.2500000  -0.3750000), wk =   0.0078125
        k(  217) = (   0.3750000  -0.2500000  -0.2500000), wk =   0.0078125
        k(  218) = (   0.3750000  -0.2500000  -0.1250000), wk =   0.0078125
        k(  219) = (   0.3750000  -0.1250000  -0.0000000), wk =   0.0078125
        k(  220) = (   0.3750000  -0.1250000   0.1250000), wk =   0.0078125
        k(  221) = (   0.3750000  -0.1250000   0.2500000), wk =   0.0078125
        k(  222) = (   0.3750000  -0.1250000   0.3750000), wk =   0.0078125
        k(  223) = (   0.3750000  -0.1250000  -0.5000000), wk =   0.0078125
        k(  224) = (   0.3750000  -0.1250000  -0.3750000), wk =   0.0078125
        k(  225) = (   0.3750000  -0.1250000  -0.2500000), wk =   0.0078125
        k(  226) = (   0.3750000  -0.1250000  -0.1250000), wk =   0.0078125
        k(  227) = (  -0.5000000  -0.0000000   0.0000000), wk =   0.0039062
        k(  228) = (  -0.5000000  -0.0000000   0.1250000), wk =   0.0078125
        k(  229) = (  -0.5000000  -0.0000000   0.2500000), wk =   0.0078125
        k(  230) = (  -0.5000000  -0.0000000   0.3750000), wk =   0.0078125
        k(  231) = (  -0.5000000  -0.0000000  -0.5000000), wk =   0.0039062
        k(  232) = (  -0.5000000   0.1250000   0.0000000), wk =   0.0078125
        k(  233) = (  -0.5000000   0.1250000   0.1250000), wk =   0.0078125
        k(  234) = (  -0.5000000   0.1250000   0.2500000), wk =   0.0078125
        k(  235) = (  -0.5000000   0.1250000   0.3750000), wk =   0.0078125
        k(  236) = (  -0.5000000   0.1250000  -0.5000000), wk =   0.0078125
        k(  237) = (  -0.5000000   0.1250000  -0.3750000), wk =   0.0078125
        k(  238) = (  -0.5000000   0.1250000  -0.2500000), wk =   0.0078125
        k(  239) = (  -0.5000000   0.1250000  -0.1250000), wk =   0.0078125
        k(  240) = (  -0.5000000   0.2500000   0.0000000), wk =   0.0078125
        k(  241) = (  -0.5000000   0.2500000   0.1250000), wk =   0.0078125
        k(  242) = (  -0.5000000   0.2500000   0.2500000), wk =   0.0078125
        k(  243) = (  -0.5000000   0.2500000   0.3750000), wk =   0.0078125
        k(  244) = (  -0.5000000   0.2500000  -0.5000000), wk =   0.0078125
        k(  245) = (  -0.5000000   0.2500000  -0.3750000), wk =   0.0078125
        k(  246) = (  -0.5000000   0.2500000  -0.2500000), wk =   0.0078125
        k(  247) = (  -0.5000000   0.2500000  -0.1250000), wk =   0.0078125
        k(  248) = (  -0.5000000   0.3750000   0.0000000), wk =   0.0078125
        k(  249) = (  -0.5000000   0.3750000   0.1250000), wk =   0.0078125
        k(  250) = (  -0.5000000   0.3750000   0.2500000), wk =   0.0078125
        k(  251) = (  -0.5000000   0.3750000   0.3750000), wk =   0.0078125
        k(  252) = (  -0.5000000   0.3750000  -0.5000000), wk =   0.0078125
        k(  253) = (  -0.5000000   0.3750000  -0.3750000), wk =   0.0078125
        k(  254) = (  -0.5000000   0.3750000  -0.2500000), wk =   0.0078125
        k(  255) = (  -0.5000000   0.3750000  -0.1250000), wk =   0.0078125
        k(  256) = (  -0.5000000  -0.5000000   0.0000000), wk =   0.0039062
        k(  257) = (  -0.5000000  -0.5000000   0.1250000), wk =   0.0078125
        k(  258) = (  -0.5000000  -0.5000000   0.2500000), wk =   0.0078125
        k(  259) = (  -0.5000000  -0.5000000   0.3750000), wk =   0.0078125
        k(  260) = (  -0.5000000  -0.5000000  -0.5000000), wk =   0.0039062

     Dense  grid:    76357 G-vectors     FFT dimensions: (  50,  50,  72)

     Smooth grid:    29869 G-vectors     FFT dimensions: (  40,  40,  50)

     Dynamical RAM for                 wfc:       0.09 MB

     Dynamical RAM for     wfc (w. buffer):       6.10 MB

     Dynamical RAM for           str. fact:       0.15 MB

     Dynamical RAM for           local pot:       0.00 MB

     Dynamical RAM for          nlocal pot:       0.22 MB

     Dynamical RAM for                qrad:       8.01 MB

     Dynamical RAM for          rho,v,vnew:       0.50 MB

     Dynamical RAM for               rhoin:       0.17 MB

     Dynamical RAM for            rho*nmix:       1.17 MB

     Dynamical RAM for           G-vectors:       0.29 MB

     Dynamical RAM for          h,s,v(r/c):       0.12 MB

     Dynamical RAM for          <psi|beta>:       0.02 MB

     Dynamical RAM for                 psi:       0.37 MB

     Dynamical RAM for                hpsi:       0.37 MB

     Dynamical RAM for                spsi:       0.37 MB

     Dynamical RAM for      wfcinit/wfcrot:       0.27 MB

     Dynamical RAM for           addusdens:       3.48 MB

     Dynamical RAM for          addusforce:       3.62 MB

     Dynamical RAM for         addusstress:       3.69 MB

     Estimated static dynamical RAM per process >      17.30 MB

     Estimated max dynamical RAM per process >      20.98 MB

     Estimated total dynamical RAM >       1.31 GB

     Check: negative core charge=   -0.000003

     Initial potential from superposition of free atoms

     starting charge   51.99974, renormalised to   52.00000
     Starting wfcs are   34 randomized atomic wfcs

     total cpu time spent up to now is        2.5 secs

     Self-consistent Calculation

     iteration #  1     ecut=    80.00 Ry     beta= 0.50
     Davidson diagonalization with overlap
     ethr =  1.00E-02,  avg # of iterations =  1.0

     total cpu time spent up to now is        3.4 secs

     total energy              =    -986.75554235 Ry
     Harris-Foulkes estimate   =    -987.27266620 Ry
     estimated scf accuracy    <       0.81274102 Ry

     iteration #  2     ecut=    80.00 Ry     beta= 0.50
     Davidson diagonalization with overlap
     ethr =  1.56E-03,  avg # of iterations =  3.0

     total cpu time spent up to now is        4.7 secs

     total energy              =    -986.99553048 Ry
     Harris-Foulkes estimate   =    -987.15890106 Ry
     estimated scf accuracy    <       0.37560933 Ry

     iteration #  3     ecut=    80.00 Ry     beta= 0.50
     Davidson diagonalization with overlap
     ethr =  7.22E-04,  avg # of iterations =  2.1

     total cpu time spent up to now is        5.8 secs

     total energy              =    -987.06314213 Ry
     Harris-Foulkes estimate   =    -987.06542494 Ry
     estimated scf accuracy    <       0.00679252 Ry

     iteration #  4     ecut=    80.00 Ry     beta= 0.50
     Davidson diagonalization with overlap
     ethr =  1.31E-05,  avg # of iterations =  2.0

     total cpu time spent up to now is        6.9 secs

     total energy              =    -987.06372647 Ry
     Harris-Foulkes estimate   =    -987.06416741 Ry
     estimated scf accuracy    <       0.00150330 Ry

     iteration #  5     ecut=    80.00 Ry     beta= 0.50
     Davidson diagonalization with overlap
     ethr =  2.89E-06,  avg # of iterations =  2.0

     total cpu time spent up to now is        8.0 secs

     total energy              =    -987.06387859 Ry
     Harris-Foulkes estimate   =    -987.06388652 Ry
     estimated scf accuracy    <       0.00001626 Ry

     iteration #  6     ecut=    80.00 Ry     beta= 0.50
     Davidson diagonalization with overlap
     ethr =  3.13E-08,  avg # of iterations =  2.4

     total cpu time spent up to now is        9.2 secs

     total energy              =    -987.06388163 Ry
     Harris-Foulkes estimate   =    -987.06388126 Ry
     estimated scf accuracy    <       0.00000384 Ry

     iteration #  7     ecut=    80.00 Ry     beta= 0.50
     Davidson diagonalization with overlap
     ethr =  7.39E-09,  avg # of iterations =  2.1

     total cpu time spent up to now is       10.2 secs

     End of self-consistent calculation

          k = 0.0000 0.0000 0.0000 (  3715 PWs)   bands (ev):

  -113.8823-113.8818 -68.2704 -68.2641 -68.2294 -68.2294 -68.2276 -68.2276
    -8.8379  -7.7021   3.3348   3.3348   3.4151   3.4151   4.1193   4.5412
     4.5799   4.5799   4.9462   4.9462   5.3354   8.4183   8.4646   8.4646
     9.1691   9.1691

     occupation numbers 
     1.0000   1.0000   1.0000   1.0000   1.0000   1.0000   1.0000   1.0000
     1.0000   1.0000   1.0000   1.0000   1.0000   1.0000   1.0000   1.0000
     1.0000   1.0000   1.0000   1.0000   1.0000   1.0000   1.0000   1.0000
     1.0000   1.0000

          k =-0.0000 0.0000 0.0920 (  3697 PWs)   bands (ev):

  -113.8823-113.8818 -68.2702 -68.2643 -68.2293 -68.2293 -68.2276 -68.2276
    -8.7954  -7.7451   3.3285   3.3285   3.4004   3.4004   3.9558   4.4520
     4.6054   4.6054   4.9415   4.9415   5.5871   8.1444   8.4974   8.4974
     9.1495   9.1495

     occupation numbers 
     1.0000   1.0000   1.0000   1.0000   1.0000   1.0000   1.0000   1.0000
     1.0000   1.0000   1.0000   1.0000   1.0000   1.0000   1.0000   1.0000
     1.0000   1.0000   1.0000   1.0000   1.0000   1.0000   1.0000   1.0000
     1.0000   1.0000

          k =-0.0000 0.0000 0.1840 (  3709 PWs)   bands (ev):

  -113.8823-113.8819 -68.2695 -68.2650 -68.2291 -68.2291 -68.2278 -68.2278
    -8.6739  -7.8683   3.3144   3.3144   3.3655   3.3655   3.7222   4.2189
     4.6709   4.6709   4.9244   4.9244   6.0707   7.7064   8.5888   8.5888
     9.0901   9.0901

     occupation numbers 
     1.0000   1.0000   1.0000   1.0000   1.0000   1.0000   1.0000   1.0000
     1.0000   1.0000   1.0000   1.0000   1.0000   1.0000   1.0000   1.0000
     1.0000   1.0000   1.0000   1.0000   1.0000   1.0000   1.0000   1.0000
     1.0000   1.0000

          k =-0.0000 0.0000 0.2760 (  3721 PWs)   bands (ev):

  -113.8822-113.8820 -68.2685 -68.2660 -68.2289 -68.2289 -68.2281 -68.2281
    -8.4906  -8.0536   3.3037   3.3037   3.3296   3.3296   3.6272   3.9349
     4.7530   4.7530   4.8884   4.8884   6.5473   7.3207   8.7193   8.7193
     8.9918   8.9918

     occupation numbers 
     1.0000   1.0000   1.0000   1.0000   1.0000   1.0000   1.0000   1.0000
     1.0000   1.0000   1.0000   1.0000   1.0000   1.0000   1.0000   1.0000
     1.0000   1.0000   1.0000   1.0000   1.0000   1.0000   1.0000   1.0000
     1.0000   1.0000

          k = 0.0000-0.0000-0.3680 (  3744 PWs)   bands (ev):

  -113.8821-113.8820 -68.2673 -68.2672 -68.2286 -68.2286 -68.2285 -68.2285
    -8.2728  -8.2723   3.3072   3.3072   3.3074   3.3074   3.7098   3.7099
     4.8299   4.8299   4.8299   4.8299   6.9556   6.9558   8.8620   8.8620
     8.8624   8.8624

     occupation numbers 
     1.0000   1.0000   1.0000   1.0000   1.0000   1.0000   1.0000   1.0000
     1.0000   1.0000   1.0000   1.0000   1.0000   1.0000   1.0000   1.0000
     1.0000   1.0000   1.0000   1.0000   1.0000   1.0000   1.0000   1.0000
     1.0000   1.0000

          k =-0.0000 0.1443 0.0000 (  3714 PWs)   bands (ev):

  -113.8823-113.8818 -68.2702 -68.2643 -68.2296 -68.2295 -68.2278 -68.2275
    -8.7501  -7.6848   3.3046   3.3858   3.4050   3.5196   4.0281   4.4836
     4.5577   4.6096   4.9597   5.1996   5.3303   7.9353   8.1972   8.3390
     8.4058   8.9966

     occupation numbers 
     1.0000   1.0000   1.0000   1.0000   1.0000   1.0000   1.0000   1.0000
     1.0000   1.0000   1.0000   1.0000   1.0000   1.0000   1.0000   1.0000
     1.0000   1.0000   1.0000   1.0000   1.0000   1.0000   1.0000   1.0000
     1.0000   1.0000

          k =-0.0000 0.1443 0.0920 (  3717 PWs)   bands (ev):

  -113.8823-113.8818 -68.2700 -68.2645 -68.2295 -68.2294 -68.2279 -68.2276
    -8.7095  -7.7241   3.2875   3.3630   3.3996   3.5025   3.9072   4.3903
     4.5850   4.6392   4.9533   5.0673   5.6678   7.8523   8.0401   8.2336
     8.7757   8.9732

     occupation numbers 
     1.0000   1.0000   1.0000   1.0000   1.0000   1.0000   1.0000   1.0000
     1.0000   1.0000   1.0000   1.0000   1.0000   1.0000   1.0000   1.0000
     1.0000   1.0000   1.0000   1.0000   1.0000   1.0000   1.0000   1.0000
     1.0000   1.0000

          k =-0.0000 0.1443 0.1840 (  3706 PWs)   bands (ev):

  -113.8822-113.8819 -68.2693 -68.2651 -68.2293 -68.2292 -68.2280 -68.2279
    -8.5936  -7.8373   3.2384   3.3063   3.3883   3.4621   3.7300   4.1644
     4.6547   4.7069   4.9314   4.9956   6.1417   7.4703   8.1916   8.3351
     8.9032   8.9529

     occupation numbers 
     1.0000   1.0000   1.0000   1.0000   1.0000   1.0000   1.0000   1.0000
     1.0000   1.0000   1.0000   1.0000   1.0000   1.0000   1.0000   1.0000
     1.0000   1.0000   1.0000   1.0000   1.0000   1.0000   1.0000   1.0000
     1.0000   1.0000

          k =-0.0000 0.1443 0.2760 (  3714 PWs)   bands (ev):

  -113.8822-113.8820 -68.2684 -68.2661 -68.2290 -68.2289 -68.2283 -68.2282
    -8.4194  -8.0090   3.1899   3.2443   3.3820   3.4196   3.6639   3.9077
     4.7417   4.7914   4.8891   4.9402   6.5560   7.1595   8.4445   8.4807
     8.7893   8.9057

     occupation numbers 
     1.0000   1.0000   1.0000   1.0000   1.0000   1.0000   1.0000   1.0000
     1.0000   1.0000   1.0000   1.0000   1.0000   1.0000   1.0000   1.0000
     1.0000   1.0000   1.0000   1.0000   1.0000   1.0000   1.0000   1.0000
     1.0000   1.0000

          k = 0.0000 0.1443-0.3680 (  3716 PWs)   bands (ev):

  -113.8821-113.8820 -68.2673 -68.2672 -68.2287 -68.2286 -68.2286 -68.2285
    -8.2141  -8.2135   3.1954   3.1956   3.3910   3.3912   3.7246   3.7247
     4.8243   4.8243   4.8729   4.8730   6.8790   6.8791   8.6414   8.6418
     8.7106   8.7109

     occupation numbers 
     1.0000   1.0000   1.0000   1.0000   1.0000   1.0000   1.0000   1.0000
     1.0000   1.0000   1.0000   1.0000   1.0000   1.0000   1.0000   1.0000
     1.0000   1.0000   1.0000   1.0000   1.0000   1.0000   1.0000   1.0000
     1.0000   1.0000

          k = 0.0000 0.1443-0.2760 (  3714 PWs)   bands (ev):

  -113.8822-113.8820 -68.2684 -68.2661 -68.2290 -68.2289 -68.2283 -68.2282
    -8.4194  -8.0090   3.1900   3.2443   3.3820   3.4196   3.6639   3.9077
     4.7417   4.7914   4.8891   4.9402   6.5560   7.1595   8.4445   8.4807
     8.7893   8.9057

     occupation numbers 
     1.0000   1.0000   1.0000   1.0000   1.0000   1.0000   1.0000   1.0000
     1.0000   1.0000   1.0000   1.0000   1.0000   1.0000   1.0000   1.0000
     1.0000   1.0000   1.0000   1.0000   1.0000   1.0000   1.0000   1.0000
     1.0000   1.0000

          k = 0.0000 0.1443-0.1840 (  3706 PWs)   bands (ev):

  -113.8822-113.8819 -68.2693 -68.2651 -68.2293 -68.2292 -68.2280 -68.2279
    -8.5936  -7.8373   3.2384   3.3062   3.3883   3.4621   3.7300   4.1644
     4.6547   4.7069   4.9314   4.9956   6.1417   7.4703   8.1916   8.3351
     8.9032   8.9529

     occupation numbers 
     1.0000   1.0000   1.0000   1.0000   1.0000   1.0000   1.0000   1.0000
     1.0000   1.0000   1.0000   1.0000   1.0000   1.0000   1.0000   1.0000
     1.0000   1.0000   1.0000   1.0000   1.0000   1.0000   1.0000   1.0000
     1.0000   1.0000

          k = 0.0000 0.1443-0.0920 (  3717 PWs)   bands (ev):

  -113.8823-113.8818 -68.2700 -68.2645 -68.2295 -68.2294 -68.2279 -68.2276
    -8.7095  -7.7241   3.2875   3.3630   3.3996   3.5025   3.9072   4.3903
     4.5850   4.6392   4.9533   5.0673   5.6678   7.8523   8.0401   8.2336
     8.7758   8.9732

     occupation numbers 
     1.0000   1.0000   1.0000   1.0000   1.0000   1.0000   1.0000   1.0000
     1.0000   1.0000   1.0000   1.0000   1.0000   1.0000   1.0000   1.0000
     1.0000   1.0000   1.0000   1.0000   1.0000   1.0000   1.0000   1.0000
     1.0000   1.0000

          k =-0.0000 0.2887 0.0000 (  3738 PWs)   bands (ev):

  -113.8822-113.8819 -68.2696 -68.2648 -68.2299 -68.2297 -68.2284 -68.2277
    -8.5186  -7.6577   3.1918   3.4453   3.6173   3.7788   3.9442   4.3479
     4.5156   4.6744   4.9866   5.2811   5.7436   6.8640   7.3215   7.5648
     8.2700   8.5545

     occupation numbers 
     1.0000   1.0000   1.0000   1.0000   1.0000   1.0000   1.0000   1.0000
     1.0000   1.0000   1.0000   1.0000   1.0000   1.0000   1.0000   1.0000
     1.0000   1.0000   1.0000   1.0000   1.0000   1.0000   1.0000   1.0000
     1.0000   1.0000

          k =-0.0000 0.2887 0.0920 (  3734 PWs)   bands (ev):

  -113.8822-113.8819 -68.2694 -68.2650 -68.2299 -68.2296 -68.2285 -68.2277
    -8.4836  -7.6868   3.1674   3.3848   3.6128   3.7565   3.8715   4.2538
     4.5469   4.7080   4.9757   5.1924   5.9341   6.9665   7.1916   7.6096
     8.4938   8.5242

     occupation numbers 
     1.0000   1.0000   1.0000   1.0000   1.0000   1.0000   1.0000   1.0000
     1.0000   1.0000   1.0000   1.0000   1.0000   1.0000   1.0000   1.0000
     1.0000   1.0000   1.0000   1.0000   1.0000   1.0000   1.0000   1.0000
     1.0000   1.0000

          k =-0.0000 0.2887 0.1840 (  3735 PWs)   bands (ev):

  -113.8822-113.8819 -68.2689 -68.2656 -68.2297 -68.2294 -68.2286 -68.2280
    -8.3844  -7.7720   3.0939   3.2408   3.6040   3.7055   3.7628   4.0503
     4.6245   4.7799   4.9426   5.1008   6.1745   6.8173   7.5269   7.7341
     8.4346   8.7894

     occupation numbers 
     1.0000   1.0000   1.0000   1.0000   1.0000   1.0000   1.0000   1.0000
     1.0000   1.0000   1.0000   1.0000   1.0000   1.0000   1.0000   1.0000
     1.0000   1.0000   1.0000   1.0000   1.0000   1.0000   1.0000   1.0000
     1.0000   1.0000

          k =-0.0000 0.2887 0.2760 (  3709 PWs)   bands (ev):

  -113.8821-113.8820 -68.2681 -68.2663 -68.2294 -68.2291 -68.2288 -68.2283
    -8.2378  -7.9049   3.0128   3.1029   3.6018   3.6530   3.7137   3.8548
     4.7195   4.8669   4.8871   5.0293   6.3389   6.6243   7.9120   8.0964
     8.2914   8.8372

     occupation numbers 
     1.0000   1.0000   1.0000   1.0000   1.0000   1.0000   1.0000   1.0000
     1.0000   1.0000   1.0000   1.0000   1.0000   1.0000   1.0000   1.0000
     1.0000   1.0000   1.0000   1.0000   1.0000   1.0000   1.0000   1.0000
     1.0000   1.0000

          k = 0.0000 0.2887-0.3680 (  3724 PWs)   bands (ev):

  -113.8821-113.8820 -68.2673 -68.2672 -68.2291 -68.2291 -68.2287 -68.2287
    -8.0688  -8.0683   3.0127   3.0128   3.6166   3.6167   3.7401   3.7402
     4.8109   4.8110   4.9529   4.9530   6.4760   6.4760   8.1086   8.1090
     8.5812   8.5812

     occupation numbers 
     1.0000   1.0000   1.0000   1.0000   1.0000   1.0000   1.0000   1.0000
     1.0000   1.0000   1.0000   1.0000   1.0000   1.0000   1.0000   1.0000
     1.0000   1.0000   1.0000   1.0000   1.0000   1.0000   1.0000   1.0000
     1.0000   1.0000

          k = 0.0000 0.2887-0.2760 (  3709 PWs)   bands (ev):

  -113.8821-113.8820 -68.2681 -68.2663 -68.2294 -68.2291 -68.2288 -68.2283
    -8.2378  -7.9049   3.0128   3.1029   3.6018   3.6530   3.7137   3.8548
     4.7195   4.8669   4.8872   5.0293   6.3389   6.6244   7.9120   8.0964
     8.2914   8.8372

     occupation numbers 
     1.0000   1.0000   1.0000   1.0000   1.0000   1.0000   1.0000   1.0000
     1.0000   1.0000   1.0000   1.0000   1.0000   1.0000   1.0000   1.0000
     1.0000   1.0000   1.0000   1.0000   1.0000   1.0000   1.0000   1.0000
     1.0000   1.0000

          k = 0.0000 0.2887-0.1840 (  3735 PWs)   bands (ev):

  -113.8822-113.8819 -68.2689 -68.2656 -68.2297 -68.2294 -68.2286 -68.2280
    -8.3844  -7.7720   3.0939   3.2407   3.6040   3.7055   3.7628   4.0503
     4.6245   4.7799   4.9426   5.1008   6.1744   6.8173   7.5269   7.7341
     8.4346   8.7894

     occupation numbers 
     1.0000   1.0000   1.0000   1.0000   1.0000   1.0000   1.0000   1.0000
     1.0000   1.0000   1.0000   1.0000   1.0000   1.0000   1.0000   1.0000
     1.0000   1.0000   1.0000   1.0000   1.0000   1.0000   1.0000   1.0000
     1.0000   1.0000

          k = 0.0000 0.2887-0.0920 (  3734 PWs)   bands (ev):

  -113.8822-113.8819 -68.2694 -68.2650 -68.2299 -68.2296 -68.2285 -68.2277
    -8.4836  -7.6868   3.1674   3.3848   3.6128   3.7566   3.8715   4.2538
     4.5469   4.7080   4.9757   5.1924   5.9341   6.9666   7.1915   7.6096
     8.4938   8.5242

     occupation numbers 
     1.0000   1.0000   1.0000   1.0000   1.0000   1.0000   1.0000   1.0000
     1.0000   1.0000   1.0000   1.0000   1.0000   1.0000   1.0000   1.0000
     1.0000   1.0000   1.0000   1.0000   1.0000   1.0000   1.0000   1.0000
     1.0000   1.0000

          k =-0.0000 0.4330 0.0000 (  3720 PWs)   bands (ev):

  -113.8822-113.8819 -68.2687 -68.2656 -68.2302 -68.2299 -68.2290 -68.2277
    -8.2372  -7.6733   3.1503   3.5835   3.8949   4.0109   4.0650   4.2057
     4.5073   4.7303   5.0078   5.1525   5.9518   6.2654   6.4764   6.9000
     8.0374   8.0745

     occupation numbers 
     1.0000   1.0000   1.0000   1.0000   1.0000   1.0000   1.0000   1.0000
     1.0000   1.0000   1.0000   1.0000   1.0000   1.0000   1.0000   1.0000
     1.0000   1.0000   1.0000   1.0000   1.0000   1.0000   1.0000   1.0000
     1.0000   1.0000

          k =-0.0000 0.4330 0.0920 (  3730 PWs)   bands (ev):

  -113.8822-113.8819 -68.2686 -68.2657 -68.2302 -68.2299 -68.2290 -68.2278
    -8.2109  -7.6887   3.1137   3.4946   3.8900   3.9452   4.0380   4.1301
     4.5408   4.7625   4.9907   5.1314   5.8387   6.2075   6.8134   6.9565
     8.0390   8.2528

     occupation numbers 
     1.0000   1.0000   1.0000   1.0000   1.0000   1.0000   1.0000   1.0000
     1.0000   1.0000   1.0000   1.0000   1.0000   1.0000   1.0000   1.0000
     1.0000   1.0000   1.0000   1.0000   1.0000   1.0000   1.0000   1.0000
     1.0000   1.0000

          k =-0.0000 0.4330 0.1840 (  3740 PWs)   bands (ev):

  -113.8821-113.8819 -68.2683 -68.2661 -68.2300 -68.2296 -68.2291 -68.2280
    -8.1378  -7.7357   3.0116   3.2793   3.8350   3.8801   3.9805   3.9827
     4.6186   4.8286   4.9443   5.0878   5.7905   6.0516   7.1102   7.4864
     7.9344   8.6367

     occupation numbers 
     1.0000   1.0000   1.0000   1.0000   1.0000   1.0000   1.0000   1.0000
     1.0000   1.0000   1.0000   1.0000   1.0000   1.0000   1.0000   1.0000
     1.0000   1.0000   1.0000   1.0000   1.0000   1.0000   1.0000   1.0000
     1.0000   1.0000

          k =-0.0000 0.4330 0.2760 (  3731 PWs)   bands (ev):

  -113.8821-113.8820 -68.2678 -68.2667 -68.2298 -68.2293 -68.2292 -68.2284
    -8.0332  -7.8143   2.9116   3.0554   3.7747   3.8576   3.8762   3.9255
     4.7097   4.8780   4.9028   5.0357   5.8154   5.9404   7.3239   7.7679
     8.1597   8.8257

     occupation numbers 
     1.0000   1.0000   1.0000   1.0000   1.0000   1.0000   1.0000   1.0000
     1.0000   1.0000   1.0000   1.0000   1.0000   1.0000   1.0000   1.0000
     1.0000   1.0000   1.0000   1.0000   1.0000   1.0000   1.0000   1.0000
     1.0000   1.0000

          k = 0.0000 0.4330-0.3680 (  3734 PWs)   bands (ev):

  -113.8821-113.8820 -68.2673 -68.2672 -68.2296 -68.2295 -68.2289 -68.2288
    -7.9186  -7.9181   2.9162   2.9163   3.7851   3.7852   3.8895   3.8896
     4.7984   4.7984   4.9737   4.9737   5.8679   5.8680   7.5552   7.5556
     8.6530   8.6531

     occupation numbers 
     1.0000   1.0000   1.0000   1.0000   1.0000   1.0000   1.0000   1.0000
     1.0000   1.0000   1.0000   1.0000   1.0000   1.0000   1.0000   1.0000
     1.0000   1.0000   1.0000   1.0000   1.0000   1.0000   1.0000   1.0000
     1.0000   1.0000

          k = 0.0000 0.4330-0.2760 (  3731 PWs)   bands (ev):

  -113.8821-113.8820 -68.2678 -68.2667 -68.2298 -68.2293 -68.2292 -68.2284
    -8.0332  -7.8143   2.9116   3.0553   3.7747   3.8576   3.8762   3.9255
     4.7097   4.8780   4.9028   5.0357   5.8154   5.9404   7.3239   7.7679
     8.1597   8.8257

     occupation numbers 
     1.0000   1.0000   1.0000   1.0000   1.0000   1.0000   1.0000   1.0000
     1.0000   1.0000   1.0000   1.0000   1.0000   1.0000   1.0000   1.0000
     1.0000   1.0000   1.0000   1.0000   1.0000   1.0000   1.0000   1.0000
     1.0000   1.0000

          k = 0.0000 0.4330-0.1840 (  3740 PWs)   bands (ev):

  -113.8821-113.8819 -68.2683 -68.2661 -68.2300 -68.2296 -68.2291 -68.2280
    -8.1378  -7.7357   3.0116   3.2793   3.8350   3.8801   3.9805   3.9827
     4.6186   4.8286   4.9443   5.0878   5.7905   6.0516   7.1102   7.4864
     7.9344   8.6368

     occupation numbers 
     1.0000   1.0000   1.0000   1.0000   1.0000   1.0000   1.0000   1.0000
     1.0000   1.0000   1.0000   1.0000   1.0000   1.0000   1.0000   1.0000
     1.0000   1.0000   1.0000   1.0000   1.0000   1.0000   1.0000   1.0000
     1.0000   1.0000

          k =-0.0000 0.4330-0.0920 (  3730 PWs)   bands (ev):

  -113.8822-113.8819 -68.2686 -68.2657 -68.2302 -68.2299 -68.2290 -68.2278
    -8.2109  -7.6887   3.1137   3.4946   3.8900   3.9453   4.0380   4.1301
     4.5408   4.7625   4.9907   5.1314   5.8386   6.2075   6.8134   6.9565
     8.0390   8.2528

     occupation numbers 
     1.0000   1.0000   1.0000   1.0000   1.0000   1.0000   1.0000   1.0000
     1.0000   1.0000   1.0000   1.0000   1.0000   1.0000   1.0000   1.0000
     1.0000   1.0000   1.0000   1.0000   1.0000   1.0000   1.0000   1.0000
     1.0000   1.0000

          k = 0.0000-0.5774-0.0000 (  3746 PWs)   bands (ev):

  -113.8821-113.8819 -68.2682 -68.2661 -68.2304 -68.2301 -68.2293 -68.2277
    -8.0817  -7.7163   3.1733   3.6490   4.0364   4.0641   4.1812   4.2225
     4.5427   4.7399   5.0133   5.0152   5.7234   5.8373   6.5909   6.7117
     7.8589   7.8600

     occupation numbers 
     1.0000   1.0000   1.0000   1.0000   1.0000   1.0000   1.0000   1.0000
     1.0000   1.0000   1.0000   1.0000   1.0000   1.0000   1.0000   1.0000
     1.0000   1.0000   1.0000   1.0000   1.0000   1.0000   1.0000   1.0000
     1.0000   1.0000

          k = 0.0000-0.5774 0.0920 (  3728 PWs)   bands (ev):

  -113.8821-113.8819 -68.2681 -68.2662 -68.2303 -68.2299 -68.2293 -68.2278
    -8.0618  -7.7233   3.1267   3.5607   3.9789   4.0314   4.1561   4.1629
     4.5720   4.7705   4.9932   5.0061   5.6676   5.7492   6.6558   7.0222
     7.8226   8.0873

     occupation numbers 
     1.0000   1.0000   1.0000   1.0000   1.0000   1.0000   1.0000   1.0000
     1.0000   1.0000   1.0000   1.0000   1.0000   1.0000   1.0000   1.0000
     1.0000   1.0000   1.0000   1.0000   1.0000   1.0000   1.0000   1.0000
     1.0000   1.0000

          k =-0.0000-0.5774 0.1840 (  3742 PWs)   bands (ev):

  -113.8821-113.8820 -68.2680 -68.2665 -68.2302 -68.2297 -68.2294 -68.2281
    -8.0073  -7.7465   3.0033   3.3273   3.8541   4.0205   4.0361   4.1037
     4.6387   4.8243   4.9381   4.9867   5.6048   5.6602   6.8286   7.6444
     7.7124   8.5290

     occupation numbers 
     1.0000   1.0000   1.0000   1.0000   1.0000   1.0000   1.0000   1.0000
     1.0000   1.0000   1.0000   1.0000   1.0000   1.0000   1.0000   1.0000
     1.0000   1.0000   1.0000   1.0000   1.0000   1.0000   1.0000   1.0000
     1.0000   1.0000

          k =-0.0000-0.5774 0.2760 (  3736 PWs)   bands (ev):

  -113.8821-113.8820 -68.2677 -68.2668 -68.2300 -68.2295 -68.2293 -68.2284
    -7.9322  -7.7901   2.8917   3.0643   3.8079   3.9174   4.0144   4.0546
     4.7163   4.8685   4.8746   4.9573   5.5937   5.6233   7.0626   7.5366
     8.2717   8.8053

     occupation numbers 
     1.0000   1.0000   1.0000   1.0000   1.0000   1.0000   1.0000   1.0000
     1.0000   1.0000   1.0000   1.0000   1.0000   1.0000   1.0000   1.0000
     1.0000   1.0000   1.0000   1.0000   1.0000   1.0000   1.0000   1.0000
     1.0000   1.0000

          k = 0.0000-0.5774-0.3680 (  3724 PWs)   bands (ev):

  -113.8821-113.8820 -68.2673 -68.2672 -68.2298 -68.2297 -68.2289 -68.2288
    -7.8549  -7.8543   2.9006   2.9007   3.8361   3.8362   4.0238   4.0239
     4.7937   4.7937   4.9192   4.9193   5.6056   5.6056   7.3110   7.3114
     8.7100   8.7102

     occupation numbers 
     1.0000   1.0000   1.0000   1.0000   1.0000   1.0000   1.0000   1.0000
     1.0000   1.0000   1.0000   1.0000   1.0000   1.0000   1.0000   1.0000
     1.0000   1.0000   1.0000   1.0000   1.0000   1.0000   1.0000   1.0000
     1.0000   1.0000

          k = 0.1250 0.0722 0.0000 (  3714 PWs)   bands (ev):

  -113.8823-113.8818 -68.2702 -68.2643 -68.2296 -68.2295 -68.2278 -68.2275
    -8.7501  -7.6848   3.3046   3.3858   3.4050   3.5196   4.0281   4.4836
     4.5577   4.6096   4.9597   5.1996   5.3303   7.9353   8.1972   8.3390
     8.4058   8.9966

     occupation numbers 
     1.0000   1.0000   1.0000   1.0000   1.0000   1.0000   1.0000   1.0000
     1.0000   1.0000   1.0000   1.0000   1.0000   1.0000   1.0000   1.0000
     1.0000   1.0000   1.0000   1.0000   1.0000   1.0000   1.0000   1.0000
     1.0000   1.0000

          k = 0.1250 0.0722 0.0920 (  3717 PWs)   bands (ev):

  -113.8823-113.8818 -68.2700 -68.2645 -68.2295 -68.2294 -68.2279 -68.2276
    -8.7095  -7.7241   3.2875   3.3630   3.3996   3.5025   3.9072   4.3903
     4.5850   4.6392   4.9533   5.0673   5.6678   7.8523   8.0401   8.2336
     8.7758   8.9732

     occupation numbers 
     1.0000   1.0000   1.0000   1.0000   1.0000   1.0000   1.0000   1.0000
     1.0000   1.0000   1.0000   1.0000   1.0000   1.0000   1.0000   1.0000
     1.0000   1.0000   1.0000   1.0000   1.0000   1.0000   1.0000   1.0000
     1.0000   1.0000

          k = 0.1250 0.0722 0.1840 (  3706 PWs)   bands (ev):

  -113.8822-113.8819 -68.2693 -68.2651 -68.2293 -68.2292 -68.2280 -68.2279
    -8.5936  -7.8373   3.2384   3.3062   3.3883   3.4621   3.7300   4.1644
     4.6547   4.7069   4.9314   4.9956   6.1417   7.4703   8.1916   8.3351
     8.9032   8.9529

     occupation numbers 
     1.0000   1.0000   1.0000   1.0000   1.0000   1.0000   1.0000   1.0000
     1.0000   1.0000   1.0000   1.0000   1.0000   1.0000   1.0000   1.0000
     1.0000   1.0000   1.0000   1.0000   1.0000   1.0000   1.0000   1.0000
     1.0000   1.0000

          k = 0.1250 0.0722 0.2760 (  3714 PWs)   bands (ev):

  -113.8822-113.8820 -68.2684 -68.2661 -68.2290 -68.2289 -68.2283 -68.2282
    -8.4194  -8.0090   3.1900   3.2443   3.3820   3.4196   3.6639   3.9077
     4.7417   4.7914   4.8891   4.9402   6.5560   7.1595   8.4445   8.4807
     8.7893   8.9057

     occupation numbers 
     1.0000   1.0000   1.0000   1.0000   1.0000   1.0000   1.0000   1.0000
     1.0000   1.0000   1.0000   1.0000   1.0000   1.0000   1.0000   1.0000
     1.0000   1.0000   1.0000   1.0000   1.0000   1.0000   1.0000   1.0000
     1.0000   1.0000

          k = 0.1250 0.0722-0.3680 (  3716 PWs)   bands (ev):

  -113.8821-113.8820 -68.2673 -68.2672 -68.2287 -68.2286 -68.2286 -68.2285
    -8.2141  -8.2135   3.1954   3.1956   3.3910   3.3912   3.7246   3.7247
     4.8243   4.8243   4.8729   4.8730   6.8790   6.8791   8.6414   8.6418
     8.7106   8.7109

     occupation numbers 
     1.0000   1.0000   1.0000   1.0000   1.0000   1.0000   1.0000   1.0000
     1.0000   1.0000   1.0000   1.0000   1.0000   1.0000   1.0000   1.0000
     1.0000   1.0000   1.0000   1.0000   1.0000   1.0000   1.0000   1.0000
     1.0000   1.0000

          k = 0.1250 0.0722-0.2760 (  3714 PWs)   bands (ev):

  -113.8822-113.8820 -68.2684 -68.2661 -68.2290 -68.2289 -68.2283 -68.2282
    -8.4194  -8.0090   3.1899   3.2443   3.3820   3.4196   3.6639   3.9077
     4.7417   4.7914   4.8891   4.9402   6.5560   7.1595   8.4445   8.4807
     8.7893   8.9057

     occupation numbers 
     1.0000   1.0000   1.0000   1.0000   1.0000   1.0000   1.0000   1.0000
     1.0000   1.0000   1.0000   1.0000   1.0000   1.0000   1.0000   1.0000
     1.0000   1.0000   1.0000   1.0000   1.0000   1.0000   1.0000   1.0000
     1.0000   1.0000

          k = 0.1250 0.0722-0.1840 (  3706 PWs)   bands (ev):

  -113.8822-113.8819 -68.2693 -68.2651 -68.2293 -68.2292 -68.2280 -68.2279
    -8.5936  -7.8373   3.2384   3.3063   3.3883   3.4621   3.7300   4.1644
     4.6547   4.7069   4.9314   4.9956   6.1417   7.4703   8.1916   8.3351
     8.9032   8.9529

     occupation numbers 
     1.0000   1.0000   1.0000   1.0000   1.0000   1.0000   1.0000   1.0000
     1.0000   1.0000   1.0000   1.0000   1.0000   1.0000   1.0000   1.0000
     1.0000   1.0000   1.0000   1.0000   1.0000   1.0000   1.0000   1.0000
     1.0000   1.0000

          k = 0.1250 0.0722-0.0920 (  3717 PWs)   bands (ev):

  -113.8823-113.8818 -68.2700 -68.2645 -68.2295 -68.2294 -68.2279 -68.2276
    -8.7095  -7.7241   3.2875   3.3630   3.3996   3.5025   3.9072   4.3903
     4.5850   4.6392   4.9533   5.0673   5.6678   7.8523   8.0401   8.2336
     8.7757   8.9732

     occupation numbers 
     1.0000   1.0000   1.0000   1.0000   1.0000   1.0000   1.0000   1.0000
     1.0000   1.0000   1.0000   1.0000   1.0000   1.0000   1.0000   1.0000
     1.0000   1.0000   1.0000   1.0000   1.0000   1.0000   1.0000   1.0000
     1.0000   1.0000

          k = 0.1250 0.2165 0.0000 (  3739 PWs)   bands (ev):

  -113.8823-113.8818 -68.2698 -68.2647 -68.2298 -68.2297 -68.2282 -68.2276
    -8.5901  -7.6628   3.2654   3.3591   3.5725   3.6903   3.9625   4.3854
     4.5284   4.6543   4.9789   5.2981   5.5915   7.2767   7.4151   7.8268
     8.3195   8.6128

     occupation numbers 
     1.0000   1.0000   1.0000   1.0000   1.0000   1.0000   1.0000   1.0000
     1.0000   1.0000   1.0000   1.0000   1.0000   1.0000   1.0000   1.0000
     1.0000   1.0000   1.0000   1.0000   1.0000   1.0000   1.0000   1.0000
     1.0000   1.0000

          k = 0.1250 0.2165 0.0920 (  3726 PWs)   bands (ev):

  -113.8823-113.8819 -68.2696 -68.2649 -68.2297 -68.2297 -68.2283 -68.2277
    -8.5533  -7.6952   3.2483   3.3108   3.5639   3.6671   3.8790   4.2935
     4.5558   4.6866   4.9704   5.1767   5.8586   7.2896   7.3923   7.7518
     8.5805   8.5826

     occupation numbers 
     1.0000   1.0000   1.0000   1.0000   1.0000   1.0000   1.0000   1.0000
     1.0000   1.0000   1.0000   1.0000   1.0000   1.0000   1.0000   1.0000
     1.0000   1.0000   1.0000   1.0000   1.0000   1.0000   1.0000   1.0000
     1.0000   1.0000

          k = 0.1250 0.2165 0.1840 (  3723 PWs)   bands (ev):

  -113.8822-113.8819 -68.2690 -68.2654 -68.2295 -68.2294 -68.2284 -68.2279
    -8.4486  -7.7893   3.1849   3.1987   3.5456   3.6183   3.7553   4.0819
     4.6296   4.7581   4.9426   5.0793   6.2098   7.0301   7.7376   7.8208
     8.4933   8.8662

     occupation numbers 
     1.0000   1.0000   1.0000   1.0000   1.0000   1.0000   1.0000   1.0000
     1.0000   1.0000   1.0000   1.0000   1.0000   1.0000   1.0000   1.0000
     1.0000   1.0000   1.0000   1.0000   1.0000   1.0000   1.0000   1.0000
     1.0000   1.0000

          k = 0.1250 0.2165 0.2760 (  3714 PWs)   bands (ev):

  -113.8821-113.8820 -68.2682 -68.2663 -68.2292 -68.2291 -68.2286 -68.2283
    -8.2928  -7.9347   3.0765   3.1251   3.5341   3.5733   3.7017   3.8673
     4.7231   4.8391   4.8972   5.0091   6.4585   6.8150   7.9810   8.2138
     8.3546   8.8951

     occupation numbers 
     1.0000   1.0000   1.0000   1.0000   1.0000   1.0000   1.0000   1.0000
     1.0000   1.0000   1.0000   1.0000   1.0000   1.0000   1.0000   1.0000
     1.0000   1.0000   1.0000   1.0000   1.0000   1.0000   1.0000   1.0000
     1.0000   1.0000

          k = 0.1250 0.2165-0.3680 (  3702 PWs)   bands (ev):

  -113.8821-113.8820 -68.2673 -68.2672 -68.2290 -68.2289 -68.2287 -68.2286
    -8.1119  -8.1114   3.0632   3.0634   3.5426   3.5427   3.7354   3.7354
     4.8116   4.8117   4.9360   4.9361   6.6406   6.6407   8.1693   8.1697
     8.6522   8.6524

     occupation numbers 
     1.0000   1.0000   1.0000   1.0000   1.0000   1.0000   1.0000   1.0000
     1.0000   1.0000   1.0000   1.0000   1.0000   1.0000   1.0000   1.0000
     1.0000   1.0000   1.0000   1.0000   1.0000   1.0000   1.0000   1.0000
     1.0000   1.0000

          k = 0.1250 0.2165-0.2760 (  3714 PWs)   bands (ev):

  -113.8821-113.8820 -68.2682 -68.2663 -68.2292 -68.2291 -68.2286 -68.2283
    -8.2928  -7.9347   3.0765   3.1251   3.5341   3.5733   3.7017   3.8673
     4.7231   4.8391   4.8972   5.0091   6.4585   6.8150   7.9810   8.2138
     8.3546   8.8951

     occupation numbers 
     1.0000   1.0000   1.0000   1.0000   1.0000   1.0000   1.0000   1.0000
     1.0000   1.0000   1.0000   1.0000   1.0000   1.0000   1.0000   1.0000
     1.0000   1.0000   1.0000   1.0000   1.0000   1.0000   1.0000   1.0000
     1.0000   1.0000

          k = 0.1250 0.2165-0.1840 (  3723 PWs)   bands (ev):

  -113.8822-113.8819 -68.2690 -68.2654 -68.2295 -68.2294 -68.2284 -68.2279
    -8.4486  -7.7893   3.1849   3.1987   3.5456   3.6183   3.7553   4.0819
     4.6296   4.7581   4.9426   5.0793   6.2098   7.0301   7.7376   7.8208
     8.4933   8.8662

     occupation numbers 
     1.0000   1.0000   1.0000   1.0000   1.0000   1.0000   1.0000   1.0000
     1.0000   1.0000   1.0000   1.0000   1.0000   1.0000   1.0000   1.0000
     1.0000   1.0000   1.0000   1.0000   1.0000   1.0000   1.0000   1.0000
     1.0000   1.0000

          k = 0.1250 0.2165-0.0920 (  3726 PWs)   bands (ev):

  -113.8823-113.8819 -68.2696 -68.2649 -68.2297 -68.2297 -68.2283 -68.2277
    -8.5533  -7.6952   3.2483   3.3108   3.5639   3.6671   3.8790   4.2935
     4.5558   4.6866   4.9704   5.1767   5.8586   7.2896   7.3923   7.7518
     8.5805   8.5826

     occupation numbers 
     1.0000   1.0000   1.0000   1.0000   1.0000   1.0000   1.0000   1.0000
     1.0000   1.0000   1.0000   1.0000   1.0000   1.0000   1.0000   1.0000
     1.0000   1.0000   1.0000   1.0000   1.0000   1.0000   1.0000   1.0000
     1.0000   1.0000

          k = 0.1250 0.3608 0.0000 (  3723 PWs)   bands (ev):

  -113.8822-113.8819 -68.2690 -68.2653 -68.2301 -68.2299 -68.2287 -68.2278
    -8.3299  -7.6600   3.2312   3.4984   3.8078   3.8798   4.0657   4.2536
     4.4891   4.7115   5.0024   5.2242   6.0776   6.4007   6.6662   6.9807
     8.0367   8.1277

     occupation numbers 
     1.0000   1.0000   1.0000   1.0000   1.0000   1.0000   1.0000   1.0000
     1.0000   1.0000   1.0000   1.0000   1.0000   1.0000   1.0000   1.0000
     1.0000   1.0000   1.0000   1.0000   1.0000   1.0000   1.0000   1.0000
     1.0000   1.0000

          k = 0.1250 0.3608 0.0920 (  3729 PWs)   bands (ev):

  -113.8822-113.8819 -68.2689 -68.2655 -68.2301 -68.2298 -68.2288 -68.2278
    -8.3005  -7.6802   3.2015   3.4190   3.7990   3.8458   4.0085   4.1681
     4.5248   4.7430   4.9898   5.1848   6.0062   6.5138   6.8111   7.0055
     7.9922   8.3636

     occupation numbers 
     1.0000   1.0000   1.0000   1.0000   1.0000   1.0000   1.0000   1.0000
     1.0000   1.0000   1.0000   1.0000   1.0000   1.0000   1.0000   1.0000
     1.0000   1.0000   1.0000   1.0000   1.0000   1.0000   1.0000   1.0000
     1.0000   1.0000

          k = 0.1250 0.3608 0.1840 (  3721 PWs)   bands (ev):

  -113.8821-113.8819 -68.2685 -68.2659 -68.2299 -68.2297 -68.2289 -68.2281
    -8.2178  -7.7405   3.1072   3.2337   3.7781   3.7869   3.9140   3.9927
     4.6076   4.8072   4.9559   5.1199   6.0029   6.3671   7.0263   7.5448
[...]
    -8.0126  -7.7363   3.3045   3.3115   3.8745   3.9015   4.0557   4.0910
     4.6375   4.7623   5.0004   5.0994   5.7791   5.9212   6.1361   7.0853
     7.8486   8.6066

     occupation numbers 
     1.0000   1.0000   1.0000   1.0000   1.0000   1.0000   1.0000   1.0000
     1.0000   1.0000   1.0000   1.0000   1.0000   1.0000   1.0000   1.0000
     1.0000   1.0000   1.0000   1.0000   1.0000   1.0000   1.0000   1.0000
     1.0000   1.0000

          k =-0.5000-0.0000 0.2761 (  3730 PWs)   bands (ev):

  -113.8754-113.8753 -68.2609 -68.2601 -68.2231 -68.2230 -68.2226 -68.2221
    -7.9343  -7.7837   3.1012   3.1317   3.8313   3.8326   4.0167   4.0345
     4.6931   4.7617   5.0076   5.0651   5.7873   5.8685   6.3411   6.8718
     8.5111   8.9492

     occupation numbers 
     1.0000   1.0000   1.0000   1.0000   1.0000   1.0000   1.0000   1.0000
     1.0000   1.0000   1.0000   1.0000   1.0000   1.0000   1.0000   1.0000
     1.0000   1.0000   1.0000   1.0000   1.0000   1.0000   1.0000   1.0000
     1.0000   1.0000

          k =-0.5000-0.0000-0.3681 (  3728 PWs)   bands (ev):

  -113.8754-113.8753 -68.2605 -68.2605 -68.2229 -68.2229 -68.2225 -68.2225
    -7.8526  -7.8525   3.0373   3.0373   3.8136   3.8136   4.0093   4.0094
     4.7365   4.7365   5.0326   5.0326   5.8210   5.8210   6.6097   6.6097
     8.9254   8.9255

     occupation numbers 
     1.0000   1.0000   1.0000   1.0000   1.0000   1.0000   1.0000   1.0000
     1.0000   1.0000   1.0000   1.0000   1.0000   1.0000   1.0000   1.0000
     1.0000   1.0000   1.0000   1.0000   1.0000   1.0000   1.0000   1.0000
     1.0000   1.0000

          k =-0.5000-0.0000-0.2761 (  3730 PWs)   bands (ev):

  -113.8754-113.8753 -68.2609 -68.2601 -68.2231 -68.2230 -68.2226 -68.2221
    -7.9343  -7.7837   3.1012   3.1317   3.8312   3.8326   4.0167   4.0345
     4.6931   4.7617   5.0076   5.0651   5.7873   5.8685   6.3411   6.8718
     8.5111   8.9492

     occupation numbers 
     1.0000   1.0000   1.0000   1.0000   1.0000   1.0000   1.0000   1.0000
     1.0000   1.0000   1.0000   1.0000   1.0000   1.0000   1.0000   1.0000
     1.0000   1.0000   1.0000   1.0000   1.0000   1.0000   1.0000   1.0000
     1.0000   1.0000

          k =-0.5000-0.0000-0.1840 (  3728 PWs)   bands (ev):

  -113.8754-113.8753 -68.2612 -68.2597 -68.2235 -68.2231 -68.2225 -68.2217
    -8.0126  -7.7363   3.3045   3.3115   3.8745   3.9015   4.0557   4.0910
     4.6375   4.7623   5.0004   5.0994   5.7791   5.9212   6.1361   7.0853
     7.8486   8.6066

     occupation numbers 
     1.0000   1.0000   1.0000   1.0000   1.0000   1.0000   1.0000   1.0000
     1.0000   1.0000   1.0000   1.0000   1.0000   1.0000   1.0000   1.0000
     1.0000   1.0000   1.0000   1.0000   1.0000   1.0000   1.0000   1.0000
     1.0000   1.0000

          k =-0.5000-0.0000-0.0920 (  3731 PWs)   bands (ev):

  -113.8754-113.8753 -68.2614 -68.2594 -68.2238 -68.2232 -68.2225 -68.2214
    -8.0692  -7.7104   3.4335   3.5477   3.9294   3.9872   4.1392   4.1731
     4.5807   4.7390   5.0141   5.1292   5.8391   5.8524   6.1832   7.0896
     7.2908   8.1159

     occupation numbers 
     1.0000   1.0000   1.0000   1.0000   1.0000   1.0000   1.0000   1.0000
     1.0000   1.0000   1.0000   1.0000   1.0000   1.0000   1.0000   1.0000
     1.0000   1.0000   1.0000   1.0000   1.0000   1.0000   1.0000   1.0000
     1.0000   1.0000

          k =-0.5000 0.1443-0.0000 (  3735 PWs)   bands (ev):

  -113.8754-113.8753 -68.2615 -68.2593 -68.2238 -68.2233 -68.2226 -68.2212
    -8.0837  -7.7070   3.2999   3.6653   4.0174   4.0440   4.1444   4.2729
     4.5453   4.7319   5.0237   5.0690   5.7655   5.9530   6.3378   6.7566
     7.6135   7.8602

     occupation numbers 
     1.0000   1.0000   1.0000   1.0000   1.0000   1.0000   1.0000   1.0000
     1.0000   1.0000   1.0000   1.0000   1.0000   1.0000   1.0000   1.0000
     1.0000   1.0000   1.0000   1.0000   1.0000   1.0000   1.0000   1.0000
     1.0000   1.0000

          k =-0.5000 0.1443 0.0920 (  3728 PWs)   bands (ev):

  -113.8754-113.8753 -68.2614 -68.2594 -68.2237 -68.2233 -68.2226 -68.2213
    -8.0634  -7.7144   3.2522   3.5782   3.9631   4.0259   4.0994   4.2114
     4.5774   4.7557   5.0072   5.0612   5.7075   5.8879   6.3445   7.1051
     7.5579   8.1116

     occupation numbers 
     1.0000   1.0000   1.0000   1.0000   1.0000   1.0000   1.0000   1.0000
     1.0000   1.0000   1.0000   1.0000   1.0000   1.0000   1.0000   1.0000
     1.0000   1.0000   1.0000   1.0000   1.0000   1.0000   1.0000   1.0000
     1.0000   1.0000

          k =-0.5000 0.1443 0.1840 (  3730 PWs)   bands (ev):

  -113.8754-113.8753 -68.2612 -68.2597 -68.2235 -68.2231 -68.2227 -68.2215
    -8.0078  -7.7390   3.1173   3.3536   3.8577   3.9760   4.0400   4.1129
     4.6412   4.7915   4.9756   5.0404   5.6602   5.7842   6.4857   7.4165
     7.7740   8.5802

     occupation numbers 
     1.0000   1.0000   1.0000   1.0000   1.0000   1.0000   1.0000   1.0000
     1.0000   1.0000   1.0000   1.0000   1.0000   1.0000   1.0000   1.0000
     1.0000   1.0000   1.0000   1.0000   1.0000   1.0000   1.0000   1.0000
     1.0000   1.0000

          k =-0.5000 0.1443 0.2761 (  3733 PWs)   bands (ev):

  -113.8754-113.8753 -68.2609 -68.2601 -68.2233 -68.2229 -68.2227 -68.2219
    -7.9310  -7.7845   2.9827   3.1100   3.8114   3.8923   4.0172   4.0505
     4.7075   4.7978   4.9632   5.0119   5.6649   5.7231   6.7153   7.2192
     8.4163   8.8937

     occupation numbers 
     1.0000   1.0000   1.0000   1.0000   1.0000   1.0000   1.0000   1.0000
     1.0000   1.0000   1.0000   1.0000   1.0000   1.0000   1.0000   1.0000
     1.0000   1.0000   1.0000   1.0000   1.0000   1.0000   1.0000   1.0000
     1.0000   1.0000

          k =-0.5000 0.1443-0.3681 (  3730 PWs)   bands (ev):

  -113.8754-113.8753 -68.2605 -68.2605 -68.2230 -68.2230 -68.2223 -68.2223
    -7.8513  -7.8512   2.9682   2.9682   3.8294   3.8294   4.0203   4.0203
     4.7639   4.7639   4.9817   4.9817   5.6892   5.6892   6.9739   6.9740
     8.8390   8.8390

     occupation numbers 
     1.0000   1.0000   1.0000   1.0000   1.0000   1.0000   1.0000   1.0000
     1.0000   1.0000   1.0000   1.0000   1.0000   1.0000   1.0000   1.0000
     1.0000   1.0000   1.0000   1.0000   1.0000   1.0000   1.0000   1.0000
     1.0000   1.0000

          k =-0.5000 0.1443-0.2761 (  3733 PWs)   bands (ev):

  -113.8754-113.8753 -68.2609 -68.2601 -68.2233 -68.2229 -68.2227 -68.2219
    -7.9310  -7.7845   2.9827   3.1100   3.8114   3.8923   4.0172   4.0505
     4.7075   4.7978   4.9632   5.0119   5.6649   5.7231   6.7153   7.2192
     8.4163   8.8937

     occupation numbers 
     1.0000   1.0000   1.0000   1.0000   1.0000   1.0000   1.0000   1.0000
     1.0000   1.0000   1.0000   1.0000   1.0000   1.0000   1.0000   1.0000
     1.0000   1.0000   1.0000   1.0000   1.0000   1.0000   1.0000   1.0000
     1.0000   1.0000

          k =-0.5000 0.1443-0.1840 (  3730 PWs)   bands (ev):

  -113.8754-113.8753 -68.2612 -68.2597 -68.2235 -68.2231 -68.2227 -68.2215
    -8.0078  -7.7390   3.1173   3.3536   3.8577   3.9760   4.0400   4.1129
     4.6412   4.7915   4.9756   5.0404   5.6602   5.7842   6.4857   7.4166
     7.7740   8.5802

     occupation numbers 
     1.0000   1.0000   1.0000   1.0000   1.0000   1.0000   1.0000   1.0000
     1.0000   1.0000   1.0000   1.0000   1.0000   1.0000   1.0000   1.0000
     1.0000   1.0000   1.0000   1.0000   1.0000   1.0000   1.0000   1.0000
     1.0000   1.0000

          k =-0.5000 0.1443-0.0920 (  3728 PWs)   bands (ev):

  -113.8754-113.8753 -68.2614 -68.2594 -68.2237 -68.2233 -68.2226 -68.2213
    -8.0634  -7.7144   3.2522   3.5782   3.9631   4.0259   4.0994   4.2114
     4.5774   4.7557   5.0072   5.0612   5.7075   5.8879   6.3445   7.1051
     7.5578   8.1116

     occupation numbers 
     1.0000   1.0000   1.0000   1.0000   1.0000   1.0000   1.0000   1.0000
     1.0000   1.0000   1.0000   1.0000   1.0000   1.0000   1.0000   1.0000
     1.0000   1.0000   1.0000   1.0000   1.0000   1.0000   1.0000   1.0000
     1.0000   1.0000

          k =-0.5000-0.8661-0.0000 (  3738 PWs)   bands (ev):

  -113.8754-113.8753 -68.2615 -68.2593 -68.2237 -68.2234 -68.2227 -68.2211
    -8.0774  -7.7116   3.1778   3.6544   4.0420   4.0695   4.1872   4.2285
     4.5490   4.7464   5.0200   5.0222   5.7298   5.8444   6.5963   6.7172
     7.8645   7.8664

     occupation numbers 
     1.0000   1.0000   1.0000   1.0000   1.0000   1.0000   1.0000   1.0000
     1.0000   1.0000   1.0000   1.0000   1.0000   1.0000   1.0000   1.0000
     1.0000   1.0000   1.0000   1.0000   1.0000   1.0000   1.0000   1.0000
     1.0000   1.0000

          k =-0.5000-0.8661 0.0920 (  3726 PWs)   bands (ev):

  -113.8754-113.8753 -68.2614 -68.2594 -68.2237 -68.2233 -68.2227 -68.2212
    -8.0575  -7.7186   3.1311   3.5659   3.9843   4.0369   4.1620   4.1688
     4.5784   4.7770   5.0001   5.0128   5.6740   5.7560   6.6612   7.0281
     7.8291   8.0933

     occupation numbers 
     1.0000   1.0000   1.0000   1.0000   1.0000   1.0000   1.0000   1.0000
     1.0000   1.0000   1.0000   1.0000   1.0000   1.0000   1.0000   1.0000
     1.0000   1.0000   1.0000   1.0000   1.0000   1.0000   1.0000   1.0000
     1.0000   1.0000

          k =-0.5000-0.8661 0.1840 (  3742 PWs)   bands (ev):

  -113.8754-113.8753 -68.2612 -68.2597 -68.2235 -68.2231 -68.2228 -68.2214
    -8.0029  -7.7418   3.0075   3.3320   3.8594   4.0260   4.0419   4.1095
     4.6452   4.8308   4.9449   4.9934   5.6112   5.6668   6.8343   7.6509
     7.7188   8.5356

     occupation numbers 
     1.0000   1.0000   1.0000   1.0000   1.0000   1.0000   1.0000   1.0000
     1.0000   1.0000   1.0000   1.0000   1.0000   1.0000   1.0000   1.0000
     1.0000   1.0000   1.0000   1.0000   1.0000   1.0000   1.0000   1.0000
     1.0000   1.0000

          k =-0.5000-0.8661 0.2761 (  3736 PWs)   bands (ev):

  -113.8754-113.8753 -68.2609 -68.2601 -68.2233 -68.2229 -68.2227 -68.2218
    -7.9277  -7.7854   2.8957   3.0686   3.8132   3.9230   4.0199   4.0602
     4.7228   4.8752   4.8811   4.9639   5.6003   5.6300   7.0686   7.5429
     8.2786   8.8124

     occupation numbers 
     1.0000   1.0000   1.0000   1.0000   1.0000   1.0000   1.0000   1.0000
     1.0000   1.0000   1.0000   1.0000   1.0000   1.0000   1.0000   1.0000
     1.0000   1.0000   1.0000   1.0000   1.0000   1.0000   1.0000   1.0000
     1.0000   1.0000

          k =-0.5000-0.8661-0.3681 (  3724 PWs)   bands (ev):

  -113.8754-113.8753 -68.2605 -68.2605 -68.2231 -68.2231 -68.2222 -68.2222
    -7.8500  -7.8500   2.9046   2.9046   3.8416   3.8416   4.0294   4.0294
     4.8004   4.8004   4.9258   4.9258   5.6123   5.6123   7.3173   7.3173
     8.7173   8.7173

     occupation numbers 
     1.0000   1.0000   1.0000   1.0000   1.0000   1.0000   1.0000   1.0000
     1.0000   1.0000   1.0000   1.0000   1.0000   1.0000   1.0000   1.0000
     1.0000   1.0000   1.0000   1.0000   1.0000   1.0000   1.0000   1.0000
     1.0000   1.0000

     highest occupied level (ev):     9.1760

!    total energy              =    -987.06387768 Ry
     Harris-Foulkes estimate   =    -987.06387770 Ry
     estimated scf accuracy    <       0.00000004 Ry

     The total energy is the sum of the following terms:

     one-electron contribution =    -792.43272048 Ry
     hartree contribution      =     418.56879606 Ry
     xc contribution           =     -98.09900664 Ry
     ewald contribution        =    -515.10094663 Ry

     convergence has been achieved in   7 iterations

     Forces acting on atoms (cartesian axes, Ry/au):

     atom    1 type  2   force =    -0.00000089    0.00000059    0.00530497
     atom    2 type  2   force =     0.00000003    0.00000069    0.00530468
     atom    3 type  1   force =    -0.00000045   -0.00000053   -0.00530391
     atom    4 type  1   force =     0.00000131   -0.00000076   -0.00530575
     The non-local contrib.  to forces
     atom    1 type  2   force =     0.00000120   -0.00000394    0.05840342
     atom    2 type  2   force =    -0.00000018    0.00000049    0.05840454
     atom    3 type  1   force =     0.00000039   -0.00000456    0.13542367
     atom    4 type  1   force =     0.00000281   -0.00000401    0.13542061
     The ionic contribution  to forces
     atom    1 type  2   force =    -0.00002519    0.00005332   -0.80820029
     atom    2 type  2   force =     0.00000703    0.00000165   -0.80819935
     atom    3 type  1   force =    -0.00001176   -0.00000708    0.80820455
     atom    4 type  1   force =     0.00002992   -0.00004789    0.80819509
     The local contribution  to forces
     atom    1 type  2   force =     0.00002313   -0.00004878    0.75553051
     atom    2 type  2   force =    -0.00000675   -0.00000151    0.75552829
     atom    3 type  1   force =     0.00001088    0.00001134   -0.94910880
     atom    4 type  1   force =    -0.00003149    0.00005098   -0.94909356
     The core correction contribution to forces
     atom    1 type  2   force =    -0.00000001    0.00000002   -0.00031288
     atom    2 type  2   force =     0.00000000   -0.00000001   -0.00031289
     atom    3 type  1   force =     0.00000000    0.00000000    0.00000000
     atom    4 type  1   force =     0.00000000    0.00000000    0.00000000
     The Hubbard contrib.    to forces
     atom    1 type  2   force =     0.00000000    0.00000000    0.00000000
     atom    2 type  2   force =     0.00000000    0.00000000    0.00000000
     atom    3 type  1   force =     0.00000000    0.00000000    0.00000000
     atom    4 type  1   force =     0.00000000    0.00000000    0.00000000
     The SCF correction term to forces
     atom    1 type  2   force =     0.00000000    0.00000000    0.00000000
     atom    2 type  2   force =     0.00000000    0.00000000    0.00000000
     atom    3 type  1   force =     0.00000000    0.00000000    0.00000000
     atom    4 type  1   force =     0.00000000    0.00000000    0.00000000

     Total force =     0.000000     Total SCF correction =     0.000000


     Computing stress (Cartesian axis) and pressure

          total   stress  (Ry/bohr**3)                   (kbar)     P=    0.04
   0.00000258   0.00000000   0.00000002          0.38      0.00      0.00
   0.00000000   0.00000258  -0.00000000          0.00      0.38     -0.00
   0.00000002  -0.00000000  -0.00000433          0.00     -0.00     -0.64

     kinetic stress (kbar)  34916.87     -0.00      0.00
                               -0.00  34916.87     -0.00
                                0.00     -0.00  35324.08

     local   stress (kbar)    802.80     -0.07      0.03
                               -0.07    802.56     -0.03
                                0.03     -0.03 -10726.25

     nonloc. stress (kbar)  -1716.81     -0.00     -0.00
                               -0.00  -1716.81      0.00
                               -0.00      0.00  -1871.06

     hartree stress (kbar)  64441.63      0.03     -0.01
                                0.03  64441.74      0.01
                               -0.01      0.01  70794.23

     exc-cor stress (kbar) -14634.62      0.00     -0.00
                                0.00 -14634.62      0.00
                               -0.00      0.00 -14639.68

     corecor stress (kbar)   -257.32     -0.00     -0.00
                               -0.00   -257.32      0.00
                               -0.00      0.00   -258.07

     ewald   stress (kbar) -83552.18      0.04     -0.01
                                0.04 -83552.04      0.02
                               -0.01      0.02 -78623.88

     hubbard stress (kbar)      0.00      0.00      0.00
                                0.00      0.00      0.00
                                0.00      0.00      0.00

     london  stress (kbar)      0.00      0.00      0.00
                                0.00      0.00      0.00
                                0.00      0.00      0.00

     DFT-D3  stress (kbar)      0.00      0.00      0.00
                                0.00      0.00      0.00
                                0.00      0.00      0.00

     XDM     stress (kbar)      0.00      0.00      0.00
                                0.00      0.00      0.00
                                0.00      0.00      0.00

     dft-nl  stress (kbar)      0.00      0.00      0.00
                                0.00      0.00      0.00
                                0.00      0.00      0.00

     TS-vdW  stress (kbar)      0.00      0.00      0.00
                                0.00      0.00      0.00
                                0.00      0.00      0.00



     Writing output data file ZnO.save/
 
     init_run     :      1.11s CPU      2.09s WALL (       2 calls)
     electrons    :     31.02s CPU     33.26s WALL (       5 calls)
     update_pot   :      0.37s CPU      0.64s WALL (       3 calls)
     forces       :      0.75s CPU      0.85s WALL (       5 calls)
     stress       :      2.43s CPU      2.52s WALL (       5 calls)

     Called by init_run:
     wfcinit      :      0.77s CPU      1.34s WALL (       2 calls)
     wfcinit:atom :      0.01s CPU      0.01s WALL (     130 calls)
     wfcinit:wfcr :      0.73s CPU      1.30s WALL (     130 calls)
     potinit      :      0.11s CPU      0.17s WALL (       2 calls)
     hinit0       :      0.19s CPU      0.35s WALL (       2 calls)

     Called by electrons:
     c_bands      :     26.29s CPU     28.14s WALL (      30 calls)
     sum_band     :      3.74s CPU      3.90s WALL (      30 calls)
     v_of_rho     :      0.90s CPU      0.94s WALL (      33 calls)
     v_h          :      0.01s CPU      0.01s WALL (      33 calls)
     v_xc         :      1.15s CPU      1.19s WALL (      43 calls)
     newd         :      0.14s CPU      0.16s WALL (      33 calls)
     mix_rho      :      0.02s CPU      0.04s WALL (      30 calls)

     Called by c_bands:
     init_us_2    :      0.34s CPU      0.36s WALL (    4680 calls)
     cegterg      :     24.46s CPU     25.50s WALL (    1950 calls)

     Called by sum_band:
     sum_band:bec :      0.02s CPU      0.03s WALL (    1950 calls)
     addusdens    :      0.14s CPU      0.15s WALL (      30 calls)

     Called by *egterg:
     h_psi        :     15.14s CPU     15.65s WALL (    6019 calls)
     s_psi        :      0.46s CPU      0.47s WALL (    6019 calls)
     g_psi        :      0.03s CPU      0.03s WALL (    3939 calls)
     cdiaghg      :      5.90s CPU      6.67s WALL (    5564 calls)
     cegterg:over :      1.50s CPU      1.73s WALL (    3939 calls)
     cegterg:upda :      0.85s CPU      0.86s WALL (    3939 calls)
     cegterg:last :      0.61s CPU      0.62s WALL (    2015 calls)
     cdiaghg:chol :      0.34s CPU      0.59s WALL (    5564 calls)
     cdiaghg:inve :      0.10s CPU      0.16s WALL (    5564 calls)
     cdiaghg:para :      0.60s CPU      0.65s WALL (   11128 calls)

     Called by h_psi:
     h_psi:pot    :     15.10s CPU     15.61s WALL (    6019 calls)
     h_psi:calbec :      0.82s CPU      0.86s WALL (    6019 calls)
     vloc_psi     :     13.80s CPU     14.26s WALL (    6019 calls)
     add_vuspsi   :      0.46s CPU      0.48s WALL (    6019 calls)

     General routines
     calbec       :      1.44s CPU      1.49s WALL (    9594 calls)
     fft          :      0.18s CPU      0.24s WALL (     549 calls)
     ffts         :      0.01s CPU      0.01s WALL (      63 calls)
     fftw         :     15.82s CPU     16.33s WALL (  313080 calls)
     interpolate  :      0.01s CPU      0.02s WALL (      33 calls)
 
     Parallel routines
     fft_scatt_xy :      2.51s CPU      2.60s WALL (  313692 calls)
     fft_scatt_yz :      7.96s CPU      8.23s WALL (  313692 calls)
 
     PWSCF        :     36.16s CPU     41.91s WALL

 
   This run was terminated on:  14:33:27  16Jun2022            

=------------------------------------------------------------------------------=
   JOB DONE.
=------------------------------------------------------------------------------=
