
     Program PWSCF v.6.4.1 starts on 16Jun2022 at 15:11:41 

     This program is part of the open-source Quantum ESPRESSO suite
     for quantum simulation of materials; please cite
         "P. Giannozzi et al., J. Phys.:Condens. Matter 21 395502 (2009);
         "P. Giannozzi et al., J. Phys.:Condens. Matter 29 465901 (2017);
          URL http://www.quantum-espresso.org", 
     in publications or presentations arising from this work. More details at
     http://www.quantum-espresso.org/quote

     Parallel version (MPI), running on    64 processors

     MPI processes distributed on     1 nodes
     K-points division:     npool     =       4
     R & G space division:  proc/nbgrp/npool/nimage =      16
     Waiting for input...
     Reading input from standard input
Warning: card &IONS ignored
Warning: card   UPSCALE           = 100.D0, ignored
Warning: card / ignored
Warning: card &CELL ignored
Warning: card   CELL_DYNAMICS     = 'BFGS' ignored
Warning: card   PRESS_CONV_THR    = 0.5D0 ignored
Warning: card   CELL_DOFREE = 'ALL' ignored
Warning: card / ignored

     Current dimensions of program PWSCF are:
     Max number of different atomic species (ntypx) = 10
     Max number of k-points (npk) =  40000
     Max angular momentum in pseudopotentials (lmaxx) =  3

     Subspace diagonalization in iterative solution of the eigenvalue problem:
     one sub-group per band group will be used
     scalapack distributed-memory algorithm (size of sub-group:  2*  2 procs)

 
     Parallelization info
     --------------------
     sticks:   dense  smooth     PW     G-vecs:    dense   smooth      PW
     Min         104      57     17                 4766     1865     325
     Max         105      58     18                 4773     1870     330
     Sum        1675     913    283                76333    29845    5253
 


     bravais-lattice index     =            0
     lattice parameter (alat)  =       6.3997  a.u.
     unit-cell volume          =     308.3650 (a.u.)^3
     number of atoms/cell      =            4
     number of atomic types    =            2
     number of electrons       =        52.00
     number of Kohn-Sham states=           26
     kinetic-energy cutoff     =      80.0000  Ry
     charge density cutoff     =     600.0000  Ry
     convergence threshold     =      1.0E-06
     mixing beta               =       0.5000
     number of iterations used =            8  plain     mixing
     Exchange-correlation      = SLA  PW   PSX  PSC ( 1  4 10  8 0 0)
     Using LIBXC version       =    4   3   4

     celldm(1)=   6.399726  celldm(2)=   0.000000  celldm(3)=   0.000000
     celldm(4)=   0.000000  celldm(5)=   0.000000  celldm(6)=   0.000000

     crystal axes: (cart. coord. in units of alat)
               a(1) = (   1.000000  -0.000000  -0.000000 )  
               a(2) = (  -0.500000   0.866025   0.000000 )  
               a(3) = (  -0.000000  -0.000000   1.358471 )  

     reciprocal axes: (cart. coord. in units 2 pi/alat)
               b(1) = (  1.000000  0.577350  0.000000 )  
               b(2) = (  0.000000  1.154701  0.000000 )  
               b(3) = (  0.000000 -0.000000  0.736122 )  


     PseudoPot. # 1 for Zn read from file:
     ./GBRV_PBEsol/zn_pbesol_v1.uspp.F.UPF
     MD5 check sum: 7d8615e52efe7c1e2b1899de8658bae2
     Pseudo is Ultrasoft, Zval = 20.0
     Generated by new atomic code, or converted to UPF format
     Using radial grid of  943 points,  6 beta functions with: 
                l(1) =   0
                l(2) =   0
                l(3) =   1
                l(4) =   1
                l(5) =   2
                l(6) =   2
     Q(r) pseudized with  8 coefficients,  rinner =    1.100   1.100   1.100
                                                       1.100   1.100

     PseudoPot. # 2 for O  read from file:
     ./GBRV_PBEsol/o_pbesol_v1.2.uspp.F.UPF
     MD5 check sum: 501638753501ef6325af9037351f7734
     Pseudo is Ultrasoft + core correction, Zval =  6.0
     Generated by new atomic code, or converted to UPF format
     Using radial grid of  737 points,  5 beta functions with: 
                l(1) =   0
                l(2) =   0
                l(3) =   1
                l(4) =   1
                l(5) =   2
     Q(r) pseudized with  8 coefficients,  rinner =    0.900   0.900   0.900
                                                       0.900   0.900

     atomic species   valence    mass     pseudopotential
        Zn            20.00    65.38000     Zn( 1.00)
        O              6.00    15.99900     O ( 1.00)

     No symmetry found


                                    s                        frac. trans.

      isym =  1     identity                                     

 cryst.   s( 1) = (     1          0          0      )
                  (     0          1          0      )
                  (     0          0          1      )

 cart.    s( 1) = (  1.0000000 -0.0000000  0.0000000 )
                  ( -0.0000000  1.0000000 -0.0000000 )
                  (  0.0000000  0.0000000  1.0000000 )


   Cartesian axes

     site n.     atom                  positions (alat units)
         1           O   tau(   1) = (   0.5000001   0.2886753   0.0099791  )
         2           O   tau(   2) = (  -0.0000002   0.5773493   0.6892146  )
         3           Zn  tau(   3) = (   0.4999998   0.2886747   0.6471134  )
         4           Zn  tau(   4) = (  -0.0000007   0.5773510   1.3263490  )

   Crystallographic axes

     site n.     atom                  positions (cryst. coord.)
         1           O   tau(   1) = (  0.6666670  0.3333337  0.0073459  )
         2           O   tau(   2) = (  0.3333329  0.6666657  0.5073458  )
         3           Zn  tau(   3) = (  0.6666664  0.3333329  0.4763542  )
         4           Zn  tau(   4) = (  0.3333336  0.6666677  0.9763542  )

     number of k points=   260
                       cart. coord. in units 2pi/alat
        k(    1) = (   0.0000000   0.0000000   0.0000000), wk =   0.0039062
        k(    2) = (   0.0000000  -0.0000000   0.0920152), wk =   0.0078125
        k(    3) = (   0.0000000  -0.0000000   0.1840304), wk =   0.0078125
        k(    4) = (   0.0000000  -0.0000000   0.2760456), wk =   0.0078125
        k(    5) = (  -0.0000000   0.0000000  -0.3680608), wk =   0.0039062
        k(    6) = (   0.0000000   0.1443376   0.0000000), wk =   0.0078125
        k(    7) = (   0.0000000   0.1443376   0.0920152), wk =   0.0078125
        k(    8) = (   0.0000000   0.1443376   0.1840304), wk =   0.0078125
        k(    9) = (   0.0000000   0.1443376   0.2760456), wk =   0.0078125
        k(   10) = (  -0.0000000   0.1443376  -0.3680608), wk =   0.0078125
        k(   11) = (  -0.0000000   0.1443376  -0.2760456), wk =   0.0078125
        k(   12) = (  -0.0000000   0.1443376  -0.1840304), wk =   0.0078125
        k(   13) = (   0.0000000   0.1443376  -0.0920152), wk =   0.0078125
        k(   14) = (   0.0000000   0.2886752   0.0000000), wk =   0.0078125
        k(   15) = (   0.0000000   0.2886752   0.0920152), wk =   0.0078125
        k(   16) = (   0.0000000   0.2886752   0.1840304), wk =   0.0078125
        k(   17) = (   0.0000000   0.2886752   0.2760456), wk =   0.0078125
        k(   18) = (  -0.0000000   0.2886752  -0.3680608), wk =   0.0078125
        k(   19) = (   0.0000000   0.2886752  -0.2760456), wk =   0.0078125
        k(   20) = (   0.0000000   0.2886752  -0.1840304), wk =   0.0078125
        k(   21) = (   0.0000000   0.2886752  -0.0920152), wk =   0.0078125
        k(   22) = (   0.0000000   0.4330128   0.0000000), wk =   0.0078125
        k(   23) = (   0.0000000   0.4330128   0.0920152), wk =   0.0078125
        k(   24) = (   0.0000001   0.4330128   0.1840304), wk =   0.0078125
        k(   25) = (   0.0000001   0.4330128   0.2760456), wk =   0.0078125
        k(   26) = (   0.0000000   0.4330128  -0.3680608), wk =   0.0078125
        k(   27) = (   0.0000000   0.4330128  -0.2760456), wk =   0.0078125
        k(   28) = (   0.0000000   0.4330128  -0.1840304), wk =   0.0078125
        k(   29) = (   0.0000000   0.4330128  -0.0920152), wk =   0.0078125
        k(   30) = (  -0.0000001  -0.5773504  -0.0000000), wk =   0.0039062
        k(   31) = (  -0.0000000  -0.5773504   0.0920152), wk =   0.0078125
        k(   32) = (  -0.0000000  -0.5773504   0.1840304), wk =   0.0078125
        k(   33) = (  -0.0000000  -0.5773504   0.2760456), wk =   0.0078125
        k(   34) = (  -0.0000001  -0.5773504  -0.3680608), wk =   0.0039062
        k(   35) = (   0.1250000   0.0721688   0.0000000), wk =   0.0078125
        k(   36) = (   0.1250000   0.0721688   0.0920152), wk =   0.0078125
        k(   37) = (   0.1250000   0.0721688   0.1840305), wk =   0.0078125
        k(   38) = (   0.1250000   0.0721688   0.2760457), wk =   0.0078125
        k(   39) = (   0.1250000   0.0721688  -0.3680608), wk =   0.0078125
        k(   40) = (   0.1250000   0.0721688  -0.2760456), wk =   0.0078125
        k(   41) = (   0.1250000   0.0721688  -0.1840304), wk =   0.0078125
        k(   42) = (   0.1250000   0.0721688  -0.0920152), wk =   0.0078125
        k(   43) = (   0.1250000   0.2165064   0.0000000), wk =   0.0078125
        k(   44) = (   0.1250000   0.2165064   0.0920153), wk =   0.0078125
        k(   45) = (   0.1250000   0.2165064   0.1840305), wk =   0.0078125
        k(   46) = (   0.1250000   0.2165064   0.2760457), wk =   0.0078125
        k(   47) = (   0.1250000   0.2165064  -0.3680608), wk =   0.0078125
        k(   48) = (   0.1250000   0.2165064  -0.2760456), wk =   0.0078125
        k(   49) = (   0.1250000   0.2165064  -0.1840304), wk =   0.0078125
        k(   50) = (   0.1250000   0.2165064  -0.0920152), wk =   0.0078125
        k(   51) = (   0.1250000   0.3608440   0.0000000), wk =   0.0078125
        k(   52) = (   0.1250000   0.3608440   0.0920153), wk =   0.0078125
        k(   53) = (   0.1250000   0.3608440   0.1840305), wk =   0.0078125
        k(   54) = (   0.1250001   0.3608440   0.2760457), wk =   0.0078125
        k(   55) = (   0.1250000   0.3608440  -0.3680608), wk =   0.0078125
        k(   56) = (   0.1250000   0.3608440  -0.2760456), wk =   0.0078125
        k(   57) = (   0.1250000   0.3608440  -0.1840304), wk =   0.0078125
        k(   58) = (   0.1250000   0.3608440  -0.0920152), wk =   0.0078125
        k(   59) = (   0.1250000   0.5051816   0.0000000), wk =   0.0078125
        k(   60) = (   0.1250001   0.5051816   0.0920153), wk =   0.0078125
        k(   61) = (   0.1250001   0.5051816   0.1840305), wk =   0.0078125
        k(   62) = (   0.1250001   0.5051816   0.2760457), wk =   0.0078125
        k(   63) = (   0.1250000   0.5051816  -0.3680608), wk =   0.0078125
        k(   64) = (   0.1250000   0.5051816  -0.2760456), wk =   0.0078125
        k(   65) = (   0.1250000   0.5051816  -0.1840304), wk =   0.0078125
        k(   66) = (   0.1250000   0.5051816  -0.0920152), wk =   0.0078125
        k(   67) = (   0.1250000  -0.5051816   0.0000000), wk =   0.0078125
        k(   68) = (   0.1250000  -0.5051816   0.0920152), wk =   0.0078125
        k(   69) = (   0.1250000  -0.5051816   0.1840304), wk =   0.0078125
        k(   70) = (   0.1250000  -0.5051816   0.2760457), wk =   0.0078125
        k(   71) = (   0.1249999  -0.5051816  -0.3680608), wk =   0.0078125
        k(   72) = (   0.1249999  -0.5051816  -0.2760456), wk =   0.0078125
        k(   73) = (   0.1249999  -0.5051816  -0.1840304), wk =   0.0078125
        k(   74) = (   0.1249999  -0.5051816  -0.0920152), wk =   0.0078125
        k(   75) = (   0.1250000  -0.3608440   0.0000000), wk =   0.0078125
        k(   76) = (   0.1250000  -0.3608440   0.0920152), wk =   0.0078125
        k(   77) = (   0.1250000  -0.3608440   0.1840304), wk =   0.0078125
        k(   78) = (   0.1250000  -0.3608440   0.2760457), wk =   0.0078125
        k(   79) = (   0.1249999  -0.3608440  -0.3680608), wk =   0.0078125
        k(   80) = (   0.1249999  -0.3608440  -0.2760456), wk =   0.0078125
        k(   81) = (   0.1250000  -0.3608440  -0.1840304), wk =   0.0078125
        k(   82) = (   0.1250000  -0.3608440  -0.0920152), wk =   0.0078125
        k(   83) = (   0.1250000  -0.2165064   0.0000000), wk =   0.0078125
        k(   84) = (   0.1250000  -0.2165064   0.0920152), wk =   0.0078125
        k(   85) = (   0.1250000  -0.2165064   0.1840305), wk =   0.0078125
        k(   86) = (   0.1250000  -0.2165064   0.2760457), wk =   0.0078125
        k(   87) = (   0.1250000  -0.2165064  -0.3680608), wk =   0.0078125
        k(   88) = (   0.1250000  -0.2165064  -0.2760456), wk =   0.0078125
        k(   89) = (   0.1250000  -0.2165064  -0.1840304), wk =   0.0078125
        k(   90) = (   0.1250000  -0.2165064  -0.0920152), wk =   0.0078125
        k(   91) = (   0.1250000  -0.0721688   0.0000000), wk =   0.0078125
        k(   92) = (   0.1250000  -0.0721688   0.0920152), wk =   0.0078125
        k(   93) = (   0.1250000  -0.0721688   0.1840305), wk =   0.0078125
        k(   94) = (   0.1250000  -0.0721688   0.2760457), wk =   0.0078125
        k(   95) = (   0.1250000  -0.0721688  -0.3680608), wk =   0.0078125
        k(   96) = (   0.1250000  -0.0721688  -0.2760456), wk =   0.0078125
        k(   97) = (   0.1250000  -0.0721688  -0.1840304), wk =   0.0078125
        k(   98) = (   0.1250000  -0.0721688  -0.0920152), wk =   0.0078125
        k(   99) = (   0.2500000   0.1443376   0.0000001), wk =   0.0078125
        k(  100) = (   0.2500000   0.1443376   0.0920153), wk =   0.0078125
        k(  101) = (   0.2500000   0.1443376   0.1840305), wk =   0.0078125
        k(  102) = (   0.2500000   0.1443376   0.2760457), wk =   0.0078125
        k(  103) = (   0.2500000   0.1443376  -0.3680608), wk =   0.0078125
        k(  104) = (   0.2500000   0.1443376  -0.2760455), wk =   0.0078125
        k(  105) = (   0.2500000   0.1443376  -0.1840303), wk =   0.0078125
        k(  106) = (   0.2500000   0.1443376  -0.0920151), wk =   0.0078125
        k(  107) = (   0.2500000   0.2886752   0.0000001), wk =   0.0078125
        k(  108) = (   0.2500000   0.2886752   0.0920153), wk =   0.0078125
        k(  109) = (   0.2500000   0.2886752   0.1840305), wk =   0.0078125
        k(  110) = (   0.2500000   0.2886752   0.2760457), wk =   0.0078125
        k(  111) = (   0.2500000   0.2886752  -0.3680608), wk =   0.0078125
        k(  112) = (   0.2500000   0.2886752  -0.2760455), wk =   0.0078125
        k(  113) = (   0.2500000   0.2886752  -0.1840303), wk =   0.0078125
        k(  114) = (   0.2500000   0.2886752  -0.0920151), wk =   0.0078125
        k(  115) = (   0.2500000   0.4330128   0.0000001), wk =   0.0078125
        k(  116) = (   0.2500000   0.4330128   0.0920153), wk =   0.0078125
        k(  117) = (   0.2500001   0.4330128   0.1840305), wk =   0.0078125
        k(  118) = (   0.2500001   0.4330128   0.2760457), wk =   0.0078125
        k(  119) = (   0.2500000   0.4330128  -0.3680607), wk =   0.0078125
        k(  120) = (   0.2500000   0.4330128  -0.2760455), wk =   0.0078125
        k(  121) = (   0.2500000   0.4330128  -0.1840303), wk =   0.0078125
        k(  122) = (   0.2500000   0.4330128  -0.0920151), wk =   0.0078125
        k(  123) = (   0.2500001   0.5773504   0.0000001), wk =   0.0078125
        k(  124) = (   0.2500001   0.5773504   0.0920153), wk =   0.0078125
        k(  125) = (   0.2500001   0.5773504   0.1840305), wk =   0.0078125
        k(  126) = (   0.2500001   0.5773504   0.2760457), wk =   0.0078125
        k(  127) = (   0.2500000   0.5773504  -0.3680607), wk =   0.0078125
        k(  128) = (   0.2500000   0.5773504  -0.2760455), wk =   0.0078125
        k(  129) = (   0.2500000   0.5773504  -0.1840303), wk =   0.0078125
        k(  130) = (   0.2500000   0.5773504  -0.0920151), wk =   0.0078125
        k(  131) = (   0.2500000  -0.4330128   0.0000001), wk =   0.0078125
        k(  132) = (   0.2500000  -0.4330128   0.0920153), wk =   0.0078125
        k(  133) = (   0.2500000  -0.4330128   0.1840305), wk =   0.0078125
        k(  134) = (   0.2500000  -0.4330128   0.2760457), wk =   0.0078125
        k(  135) = (   0.2499999  -0.4330128  -0.3680608), wk =   0.0078125
        k(  136) = (   0.2499999  -0.4330128  -0.2760456), wk =   0.0078125
        k(  137) = (   0.2499999  -0.4330128  -0.1840303), wk =   0.0078125
        k(  138) = (   0.2500000  -0.4330128  -0.0920151), wk =   0.0078125
        k(  139) = (   0.2500000  -0.2886752   0.0000001), wk =   0.0078125
        k(  140) = (   0.2500000  -0.2886752   0.0920153), wk =   0.0078125
        k(  141) = (   0.2500000  -0.2886752   0.1840305), wk =   0.0078125
        k(  142) = (   0.2500000  -0.2886752   0.2760457), wk =   0.0078125
        k(  143) = (   0.2499999  -0.2886752  -0.3680608), wk =   0.0078125
        k(  144) = (   0.2500000  -0.2886752  -0.2760456), wk =   0.0078125
        k(  145) = (   0.2500000  -0.2886752  -0.1840303), wk =   0.0078125
        k(  146) = (   0.2500000  -0.2886752  -0.0920151), wk =   0.0078125
        k(  147) = (   0.2500000  -0.1443376   0.0000001), wk =   0.0078125
        k(  148) = (   0.2500000  -0.1443376   0.0920153), wk =   0.0078125
        k(  149) = (   0.2500000  -0.1443376   0.1840305), wk =   0.0078125
        k(  150) = (   0.2500000  -0.1443376   0.2760457), wk =   0.0078125
        k(  151) = (   0.2500000  -0.1443376  -0.3680608), wk =   0.0078125
        k(  152) = (   0.2500000  -0.1443376  -0.2760456), wk =   0.0078125
        k(  153) = (   0.2500000  -0.1443376  -0.1840303), wk =   0.0078125
        k(  154) = (   0.2500000  -0.1443376  -0.0920151), wk =   0.0078125
        k(  155) = (   0.2500000   0.0000000   0.0000001), wk =   0.0078125
        k(  156) = (   0.2500000   0.0000000   0.0920153), wk =   0.0078125
        k(  157) = (   0.2500000   0.0000000   0.1840305), wk =   0.0078125
        k(  158) = (   0.2500000   0.0000000   0.2760457), wk =   0.0078125
        k(  159) = (   0.2500000   0.0000000  -0.3680608), wk =   0.0078125
        k(  160) = (   0.2500000   0.0000000  -0.2760455), wk =   0.0078125
        k(  161) = (   0.2500000   0.0000000  -0.1840303), wk =   0.0078125
        k(  162) = (   0.2500000   0.0000000  -0.0920151), wk =   0.0078125
        k(  163) = (   0.3750000   0.2165064   0.0000001), wk =   0.0078125
        k(  164) = (   0.3750000   0.2165064   0.0920153), wk =   0.0078125
        k(  165) = (   0.3750000   0.2165064   0.1840305), wk =   0.0078125
        k(  166) = (   0.3750000   0.2165064   0.2760457), wk =   0.0078125
        k(  167) = (   0.3750000   0.2165065  -0.3680607), wk =   0.0078125
        k(  168) = (   0.3750000   0.2165065  -0.2760455), wk =   0.0078125
        k(  169) = (   0.3750000   0.2165064  -0.1840303), wk =   0.0078125
        k(  170) = (   0.3750000   0.2165064  -0.0920151), wk =   0.0078125
        k(  171) = (   0.3750000   0.3608440   0.0000001), wk =   0.0078125
        k(  172) = (   0.3750000   0.3608440   0.0920153), wk =   0.0078125
        k(  173) = (   0.3750000   0.3608440   0.1840305), wk =   0.0078125
        k(  174) = (   0.3750001   0.3608440   0.2760457), wk =   0.0078125
        k(  175) = (   0.3750000   0.3608441  -0.3680607), wk =   0.0078125
        k(  176) = (   0.3750000   0.3608441  -0.2760455), wk =   0.0078125
        k(  177) = (   0.3750000   0.3608440  -0.1840303), wk =   0.0078125
        k(  178) = (   0.3750000   0.3608440  -0.0920151), wk =   0.0078125
        k(  179) = (   0.3750000   0.5051816   0.0000001), wk =   0.0078125
        k(  180) = (   0.3750001   0.5051816   0.0920153), wk =   0.0078125
        k(  181) = (   0.3750001   0.5051816   0.1840305), wk =   0.0078125
        k(  182) = (   0.3750001   0.5051816   0.2760457), wk =   0.0078125
        k(  183) = (   0.3750000   0.5051817  -0.3680607), wk =   0.0078125
        k(  184) = (   0.3750000   0.5051817  -0.2760455), wk =   0.0078125
        k(  185) = (   0.3750000   0.5051816  -0.1840303), wk =   0.0078125
        k(  186) = (   0.3750000   0.5051816  -0.0920151), wk =   0.0078125
        k(  187) = (   0.3750001   0.6495192   0.0000001), wk =   0.0078125
        k(  188) = (   0.3750001   0.6495192   0.0920153), wk =   0.0078125
        k(  189) = (   0.3750001   0.6495192   0.1840305), wk =   0.0078125
        k(  190) = (   0.3750001   0.6495192   0.2760458), wk =   0.0078125
        k(  191) = (   0.3750000   0.6495193  -0.3680607), wk =   0.0078125
        k(  192) = (   0.3750000   0.6495192  -0.2760455), wk =   0.0078125
        k(  193) = (   0.3750000   0.6495192  -0.1840303), wk =   0.0078125
        k(  194) = (   0.3750001   0.6495192  -0.0920151), wk =   0.0078125
        k(  195) = (   0.3750000  -0.3608440   0.0000001), wk =   0.0078125
        k(  196) = (   0.3750000  -0.3608440   0.0920153), wk =   0.0078125
        k(  197) = (   0.3750000  -0.3608440   0.1840305), wk =   0.0078125
        k(  198) = (   0.3750000  -0.3608440   0.2760457), wk =   0.0078125
        k(  199) = (   0.3749999  -0.3608439  -0.3680607), wk =   0.0078125
        k(  200) = (   0.3749999  -0.3608439  -0.2760455), wk =   0.0078125
        k(  201) = (   0.3750000  -0.3608440  -0.1840303), wk =   0.0078125
        k(  202) = (   0.3750000  -0.3608440  -0.0920151), wk =   0.0078125
        k(  203) = (   0.3750000  -0.2165064   0.0000001), wk =   0.0078125
        k(  204) = (   0.3750000  -0.2165064   0.0920153), wk =   0.0078125
        k(  205) = (   0.3750000  -0.2165064   0.1840305), wk =   0.0078125
        k(  206) = (   0.3750000  -0.2165064   0.2760457), wk =   0.0078125
        k(  207) = (   0.3750000  -0.2165063  -0.3680607), wk =   0.0078125
        k(  208) = (   0.3750000  -0.2165063  -0.2760455), wk =   0.0078125
        k(  209) = (   0.3750000  -0.2165064  -0.1840303), wk =   0.0078125
        k(  210) = (   0.3750000  -0.2165064  -0.0920151), wk =   0.0078125
        k(  211) = (   0.3750000  -0.0721688   0.0000001), wk =   0.0078125
        k(  212) = (   0.3750000  -0.0721688   0.0920153), wk =   0.0078125
        k(  213) = (   0.3750000  -0.0721688   0.1840305), wk =   0.0078125
        k(  214) = (   0.3750000  -0.0721688   0.2760457), wk =   0.0078125
        k(  215) = (   0.3750000  -0.0721687  -0.3680607), wk =   0.0078125
        k(  216) = (   0.3750000  -0.0721687  -0.2760455), wk =   0.0078125
        k(  217) = (   0.3750000  -0.0721688  -0.1840303), wk =   0.0078125
        k(  218) = (   0.3750000  -0.0721688  -0.0920151), wk =   0.0078125
        k(  219) = (   0.3750000   0.0721688   0.0000001), wk =   0.0078125
        k(  220) = (   0.3750000   0.0721688   0.0920153), wk =   0.0078125
        k(  221) = (   0.3750000   0.0721688   0.1840305), wk =   0.0078125
        k(  222) = (   0.3750000   0.0721688   0.2760457), wk =   0.0078125
        k(  223) = (   0.3750000   0.0721689  -0.3680607), wk =   0.0078125
        k(  224) = (   0.3750000   0.0721689  -0.2760455), wk =   0.0078125
        k(  225) = (   0.3750000   0.0721688  -0.1840303), wk =   0.0078125
        k(  226) = (   0.3750000   0.0721688  -0.0920151), wk =   0.0078125
        k(  227) = (  -0.5000000  -0.2886752  -0.0000002), wk =   0.0039062
        k(  228) = (  -0.5000000  -0.2886753   0.0920151), wk =   0.0078125
        k(  229) = (  -0.5000000  -0.2886753   0.1840303), wk =   0.0078125
        k(  230) = (  -0.5000000  -0.2886753   0.2760455), wk =   0.0078125
        k(  231) = (  -0.5000001  -0.2886752  -0.3680610), wk =   0.0039062
        k(  232) = (  -0.5000000  -0.1443376  -0.0000002), wk =   0.0078125
        k(  233) = (  -0.5000000  -0.1443377   0.0920151), wk =   0.0078125
        k(  234) = (  -0.5000000  -0.1443377   0.1840303), wk =   0.0078125
        k(  235) = (  -0.5000000  -0.1443377   0.2760455), wk =   0.0078125
        k(  236) = (  -0.5000000  -0.1443376  -0.3680610), wk =   0.0078125
        k(  237) = (  -0.5000000  -0.1443376  -0.2760458), wk =   0.0078125
        k(  238) = (  -0.5000000  -0.1443376  -0.1840306), wk =   0.0078125
        k(  239) = (  -0.5000000  -0.1443376  -0.0920154), wk =   0.0078125
        k(  240) = (  -0.5000000  -0.0000000  -0.0000002), wk =   0.0078125
        k(  241) = (  -0.5000000  -0.0000001   0.0920151), wk =   0.0078125
        k(  242) = (  -0.5000000  -0.0000001   0.1840303), wk =   0.0078125
        k(  243) = (  -0.5000000  -0.0000001   0.2760455), wk =   0.0078125
        k(  244) = (  -0.5000000  -0.0000000  -0.3680610), wk =   0.0078125
        k(  245) = (  -0.5000000  -0.0000000  -0.2760458), wk =   0.0078125
        k(  246) = (  -0.5000000  -0.0000000  -0.1840306), wk =   0.0078125
        k(  247) = (  -0.5000000  -0.0000000  -0.0920154), wk =   0.0078125
        k(  248) = (  -0.5000000   0.1443376  -0.0000001), wk =   0.0078125
        k(  249) = (  -0.5000000   0.1443375   0.0920151), wk =   0.0078125
        k(  250) = (  -0.5000000   0.1443375   0.1840303), wk =   0.0078125
        k(  251) = (  -0.5000000   0.1443375   0.2760455), wk =   0.0078125
        k(  252) = (  -0.5000000   0.1443376  -0.3680610), wk =   0.0078125
        k(  253) = (  -0.5000000   0.1443376  -0.2760458), wk =   0.0078125
        k(  254) = (  -0.5000000   0.1443376  -0.1840306), wk =   0.0078125
        k(  255) = (  -0.5000000   0.1443376  -0.0920154), wk =   0.0078125
        k(  256) = (  -0.5000001  -0.8660256  -0.0000002), wk =   0.0039062
        k(  257) = (  -0.5000001  -0.8660257   0.0920150), wk =   0.0078125
        k(  258) = (  -0.5000001  -0.8660257   0.1840302), wk =   0.0078125
        k(  259) = (  -0.5000001  -0.8660257   0.2760455), wk =   0.0078125
        k(  260) = (  -0.5000001  -0.8660256  -0.3680610), wk =   0.0039062

                       cryst. coord.
        k(    1) = (   0.0000000   0.0000000   0.0000000), wk =   0.0039062
        k(    2) = (   0.0000000  -0.0000000   0.1250000), wk =   0.0078125
        k(    3) = (   0.0000000  -0.0000000   0.2500000), wk =   0.0078125
        k(    4) = (   0.0000000  -0.0000000   0.3750000), wk =   0.0078125
        k(    5) = (  -0.0000000   0.0000000  -0.5000000), wk =   0.0039062
        k(    6) = (  -0.0000000   0.1250000   0.0000000), wk =   0.0078125
        k(    7) = (  -0.0000000   0.1250000   0.1250000), wk =   0.0078125
        k(    8) = (   0.0000000   0.1250000   0.2500000), wk =   0.0078125
        k(    9) = (   0.0000000   0.1250000   0.3750000), wk =   0.0078125
        k(   10) = (  -0.0000000   0.1250000  -0.5000000), wk =   0.0078125
        k(   11) = (  -0.0000000   0.1250000  -0.3750000), wk =   0.0078125
        k(   12) = (  -0.0000000   0.1250000  -0.2500000), wk =   0.0078125
        k(   13) = (  -0.0000000   0.1250000  -0.1250000), wk =   0.0078125
        k(   14) = (  -0.0000000   0.2500000   0.0000000), wk =   0.0078125
        k(   15) = (  -0.0000000   0.2500000   0.1250000), wk =   0.0078125
        k(   16) = (  -0.0000000   0.2500000   0.2500000), wk =   0.0078125
        k(   17) = (   0.0000000   0.2500000   0.3750000), wk =   0.0078125
        k(   18) = (  -0.0000000   0.2500000  -0.5000000), wk =   0.0078125
        k(   19) = (  -0.0000000   0.2500000  -0.3750000), wk =   0.0078125
        k(   20) = (  -0.0000000   0.2500000  -0.2500000), wk =   0.0078125
        k(   21) = (  -0.0000000   0.2500000  -0.1250000), wk =   0.0078125
        k(   22) = (   0.0000000   0.3750000   0.0000000), wk =   0.0078125
        k(   23) = (  -0.0000000   0.3750000   0.1250000), wk =   0.0078125
        k(   24) = (  -0.0000000   0.3750000   0.2500000), wk =   0.0078125
        k(   25) = (   0.0000000   0.3750000   0.3750000), wk =   0.0078125
        k(   26) = (  -0.0000000   0.3750000  -0.5000000), wk =   0.0078125
        k(   27) = (  -0.0000000   0.3750000  -0.3750000), wk =   0.0078125
        k(   28) = (  -0.0000000   0.3750000  -0.2500000), wk =   0.0078125
        k(   29) = (   0.0000000   0.3750000  -0.1250000), wk =   0.0078125
        k(   30) = (   0.0000000  -0.5000000  -0.0000000), wk =   0.0039062
        k(   31) = (  -0.0000000  -0.5000000   0.1250000), wk =   0.0078125
        k(   32) = (   0.0000000  -0.5000000   0.2500000), wk =   0.0078125
        k(   33) = (   0.0000000  -0.5000000   0.3750000), wk =   0.0078125
        k(   34) = (   0.0000000  -0.5000000  -0.5000000), wk =   0.0039062
        k(   35) = (   0.1250000  -0.0000000  -0.0000000), wk =   0.0078125
        k(   36) = (   0.1250000  -0.0000000   0.1250000), wk =   0.0078125
        k(   37) = (   0.1250000  -0.0000000   0.2500000), wk =   0.0078125
        k(   38) = (   0.1250000  -0.0000000   0.3750000), wk =   0.0078125
        k(   39) = (   0.1250000  -0.0000000  -0.5000000), wk =   0.0078125
        k(   40) = (   0.1250000  -0.0000000  -0.3750000), wk =   0.0078125
        k(   41) = (   0.1250000  -0.0000000  -0.2500000), wk =   0.0078125
        k(   42) = (   0.1250000  -0.0000000  -0.1250000), wk =   0.0078125
        k(   43) = (   0.1250000   0.1250000   0.0000000), wk =   0.0078125
        k(   44) = (   0.1250000   0.1250000   0.1250000), wk =   0.0078125
        k(   45) = (   0.1250000   0.1250000   0.2500000), wk =   0.0078125
        k(   46) = (   0.1250000   0.1250000   0.3750000), wk =   0.0078125
        k(   47) = (   0.1250000   0.1250000  -0.5000000), wk =   0.0078125
        k(   48) = (   0.1250000   0.1250000  -0.3750000), wk =   0.0078125
        k(   49) = (   0.1250000   0.1250000  -0.2500000), wk =   0.0078125
        k(   50) = (   0.1250000   0.1250000  -0.1250000), wk =   0.0078125
        k(   51) = (   0.1250000   0.2500000   0.0000000), wk =   0.0078125
        k(   52) = (   0.1250000   0.2500000   0.1250000), wk =   0.0078125
        k(   53) = (   0.1250000   0.2500000   0.2500000), wk =   0.0078125
        k(   54) = (   0.1250000   0.2500000   0.3750000), wk =   0.0078125
        k(   55) = (   0.1250000   0.2500000  -0.5000000), wk =   0.0078125
        k(   56) = (   0.1250000   0.2500000  -0.3750000), wk =   0.0078125
        k(   57) = (   0.1250000   0.2500000  -0.2500000), wk =   0.0078125
        k(   58) = (   0.1250000   0.2500000  -0.1250000), wk =   0.0078125
        k(   59) = (   0.1250000   0.3750000   0.0000000), wk =   0.0078125
        k(   60) = (   0.1250000   0.3750000   0.1250000), wk =   0.0078125
        k(   61) = (   0.1250000   0.3750000   0.2500000), wk =   0.0078125
        k(   62) = (   0.1250000   0.3750000   0.3750000), wk =   0.0078125
        k(   63) = (   0.1250000   0.3750000  -0.5000000), wk =   0.0078125
        k(   64) = (   0.1250000   0.3750000  -0.3750000), wk =   0.0078125
        k(   65) = (   0.1250000   0.3750000  -0.2500000), wk =   0.0078125
        k(   66) = (   0.1250000   0.3750000  -0.1250000), wk =   0.0078125
        k(   67) = (   0.1250000  -0.5000000   0.0000000), wk =   0.0078125
        k(   68) = (   0.1250000  -0.5000000   0.1250000), wk =   0.0078125
        k(   69) = (   0.1250000  -0.5000000   0.2500000), wk =   0.0078125
        k(   70) = (   0.1250000  -0.5000000   0.3750000), wk =   0.0078125
        k(   71) = (   0.1250000  -0.5000000  -0.5000000), wk =   0.0078125
        k(   72) = (   0.1250000  -0.5000000  -0.3750000), wk =   0.0078125
        k(   73) = (   0.1250000  -0.5000000  -0.2500000), wk =   0.0078125
        k(   74) = (   0.1250000  -0.5000000  -0.1250000), wk =   0.0078125
        k(   75) = (   0.1250000  -0.3750000  -0.0000000), wk =   0.0078125
        k(   76) = (   0.1250000  -0.3750000   0.1250000), wk =   0.0078125
        k(   77) = (   0.1250000  -0.3750000   0.2500000), wk =   0.0078125
        k(   78) = (   0.1250000  -0.3750000   0.3750000), wk =   0.0078125
        k(   79) = (   0.1250000  -0.3750000  -0.5000000), wk =   0.0078125
        k(   80) = (   0.1250000  -0.3750000  -0.3750000), wk =   0.0078125
        k(   81) = (   0.1250000  -0.3750000  -0.2500000), wk =   0.0078125
        k(   82) = (   0.1250000  -0.3750000  -0.1250000), wk =   0.0078125
        k(   83) = (   0.1250000  -0.2500000  -0.0000000), wk =   0.0078125
        k(   84) = (   0.1250000  -0.2500000   0.1250000), wk =   0.0078125
        k(   85) = (   0.1250000  -0.2500000   0.2500000), wk =   0.0078125
        k(   86) = (   0.1250000  -0.2500000   0.3750000), wk =   0.0078125
        k(   87) = (   0.1250000  -0.2500000  -0.5000000), wk =   0.0078125
        k(   88) = (   0.1250000  -0.2500000  -0.3750000), wk =   0.0078125
        k(   89) = (   0.1250000  -0.2500000  -0.2500000), wk =   0.0078125
        k(   90) = (   0.1250000  -0.2500000  -0.1250000), wk =   0.0078125
        k(   91) = (   0.1250000  -0.1250000  -0.0000000), wk =   0.0078125
        k(   92) = (   0.1250000  -0.1250000   0.1250000), wk =   0.0078125
        k(   93) = (   0.1250000  -0.1250000   0.2500000), wk =   0.0078125
        k(   94) = (   0.1250000  -0.1250000   0.3750000), wk =   0.0078125
        k(   95) = (   0.1250000  -0.1250000  -0.5000000), wk =   0.0078125
        k(   96) = (   0.1250000  -0.1250000  -0.3750000), wk =   0.0078125
        k(   97) = (   0.1250000  -0.1250000  -0.2500000), wk =   0.0078125
        k(   98) = (   0.1250000  -0.1250000  -0.1250000), wk =   0.0078125
        k(   99) = (   0.2500000  -0.0000000  -0.0000000), wk =   0.0078125
        k(  100) = (   0.2500000  -0.0000000   0.1250000), wk =   0.0078125
        k(  101) = (   0.2500000  -0.0000000   0.2500000), wk =   0.0078125
        k(  102) = (   0.2500000  -0.0000000   0.3750000), wk =   0.0078125
        k(  103) = (   0.2500000  -0.0000000  -0.5000000), wk =   0.0078125
        k(  104) = (   0.2500000  -0.0000000  -0.3750000), wk =   0.0078125
        k(  105) = (   0.2500000  -0.0000000  -0.2500000), wk =   0.0078125
        k(  106) = (   0.2500000  -0.0000000  -0.1250000), wk =   0.0078125
        k(  107) = (   0.2500000   0.1250000  -0.0000000), wk =   0.0078125
        k(  108) = (   0.2500000   0.1250000   0.1250000), wk =   0.0078125
        k(  109) = (   0.2500000   0.1250000   0.2500000), wk =   0.0078125
        k(  110) = (   0.2500000   0.1250000   0.3750000), wk =   0.0078125
        k(  111) = (   0.2500000   0.1250000  -0.5000000), wk =   0.0078125
        k(  112) = (   0.2500000   0.1250000  -0.3750000), wk =   0.0078125
        k(  113) = (   0.2500000   0.1250000  -0.2500000), wk =   0.0078125
        k(  114) = (   0.2500000   0.1250000  -0.1250000), wk =   0.0078125
        k(  115) = (   0.2500000   0.2500000   0.0000000), wk =   0.0078125
        k(  116) = (   0.2500000   0.2500000   0.1250000), wk =   0.0078125
        k(  117) = (   0.2500000   0.2500000   0.2500000), wk =   0.0078125
        k(  118) = (   0.2500000   0.2500000   0.3750000), wk =   0.0078125
        k(  119) = (   0.2500000   0.2500000  -0.5000000), wk =   0.0078125
        k(  120) = (   0.2500000   0.2500000  -0.3750000), wk =   0.0078125
        k(  121) = (   0.2500000   0.2500000  -0.2500000), wk =   0.0078125
        k(  122) = (   0.2500000   0.2500000  -0.1250000), wk =   0.0078125
        k(  123) = (   0.2500000   0.3750000  -0.0000000), wk =   0.0078125
        k(  124) = (   0.2500000   0.3750000   0.1250000), wk =   0.0078125
        k(  125) = (   0.2500000   0.3750000   0.2500000), wk =   0.0078125
        k(  126) = (   0.2500000   0.3750000   0.3750000), wk =   0.0078125
        k(  127) = (   0.2500000   0.3750000  -0.5000000), wk =   0.0078125
        k(  128) = (   0.2500000   0.3750000  -0.3750000), wk =   0.0078125
        k(  129) = (   0.2500000   0.3750000  -0.2500000), wk =   0.0078125
        k(  130) = (   0.2500000   0.3750000  -0.1250000), wk =   0.0078125
        k(  131) = (   0.2500000  -0.5000000  -0.0000000), wk =   0.0078125
        k(  132) = (   0.2500000  -0.5000000   0.1250000), wk =   0.0078125
        k(  133) = (   0.2500000  -0.5000000   0.2500000), wk =   0.0078125
        k(  134) = (   0.2500000  -0.5000000   0.3750000), wk =   0.0078125
        k(  135) = (   0.2500000  -0.5000000  -0.5000000), wk =   0.0078125
        k(  136) = (   0.2500000  -0.5000000  -0.3750000), wk =   0.0078125
        k(  137) = (   0.2500000  -0.5000000  -0.2500000), wk =   0.0078125
        k(  138) = (   0.2500000  -0.5000000  -0.1250000), wk =   0.0078125
        k(  139) = (   0.2500000  -0.3750000   0.0000000), wk =   0.0078125
        k(  140) = (   0.2500000  -0.3750000   0.1250000), wk =   0.0078125
        k(  141) = (   0.2500000  -0.3750000   0.2500000), wk =   0.0078125
        k(  142) = (   0.2500000  -0.3750000   0.3750000), wk =   0.0078125
        k(  143) = (   0.2500000  -0.3750000  -0.5000000), wk =   0.0078125
        k(  144) = (   0.2500000  -0.3750000  -0.3750000), wk =   0.0078125
        k(  145) = (   0.2500000  -0.3750000  -0.2500000), wk =   0.0078125
        k(  146) = (   0.2500000  -0.3750000  -0.1250000), wk =   0.0078125
        k(  147) = (   0.2500000  -0.2500000  -0.0000000), wk =   0.0078125
        k(  148) = (   0.2500000  -0.2500000   0.1250000), wk =   0.0078125
        k(  149) = (   0.2500000  -0.2500000   0.2500000), wk =   0.0078125
        k(  150) = (   0.2500000  -0.2500000   0.3750000), wk =   0.0078125
        k(  151) = (   0.2500000  -0.2500000  -0.5000000), wk =   0.0078125
        k(  152) = (   0.2500000  -0.2500000  -0.3750000), wk =   0.0078125
        k(  153) = (   0.2500000  -0.2500000  -0.2500000), wk =   0.0078125
        k(  154) = (   0.2500000  -0.2500000  -0.1250000), wk =   0.0078125
        k(  155) = (   0.2500000  -0.1250000   0.0000000), wk =   0.0078125
        k(  156) = (   0.2500000  -0.1250000   0.1250000), wk =   0.0078125
        k(  157) = (   0.2500000  -0.1250000   0.2500000), wk =   0.0078125
        k(  158) = (   0.2500000  -0.1250000   0.3750000), wk =   0.0078125
        k(  159) = (   0.2500000  -0.1250000  -0.5000000), wk =   0.0078125
        k(  160) = (   0.2500000  -0.1250000  -0.3750000), wk =   0.0078125
        k(  161) = (   0.2500000  -0.1250000  -0.2500000), wk =   0.0078125
        k(  162) = (   0.2500000  -0.1250000  -0.1250000), wk =   0.0078125
        k(  163) = (   0.3750000  -0.0000000  -0.0000000), wk =   0.0078125
        k(  164) = (   0.3750000  -0.0000000   0.1250000), wk =   0.0078125
        k(  165) = (   0.3750000  -0.0000000   0.2500000), wk =   0.0078125
        k(  166) = (   0.3750000  -0.0000000   0.3750000), wk =   0.0078125
        k(  167) = (   0.3750000  -0.0000000  -0.5000000), wk =   0.0078125
        k(  168) = (   0.3750000  -0.0000000  -0.3750000), wk =   0.0078125
        k(  169) = (   0.3750000  -0.0000000  -0.2500000), wk =   0.0078125
        k(  170) = (   0.3750000  -0.0000000  -0.1250000), wk =   0.0078125
        k(  171) = (   0.3750000   0.1250000  -0.0000000), wk =   0.0078125
        k(  172) = (   0.3750000   0.1250000   0.1250000), wk =   0.0078125
        k(  173) = (   0.3750000   0.1250000   0.2500000), wk =   0.0078125
        k(  174) = (   0.3750000   0.1250000   0.3750000), wk =   0.0078125
        k(  175) = (   0.3750000   0.1250000  -0.5000000), wk =   0.0078125
        k(  176) = (   0.3750000   0.1250000  -0.3750000), wk =   0.0078125
        k(  177) = (   0.3750000   0.1250000  -0.2500000), wk =   0.0078125
        k(  178) = (   0.3750000   0.1250000  -0.1250000), wk =   0.0078125
        k(  179) = (   0.3750000   0.2500000   0.0000000), wk =   0.0078125
        k(  180) = (   0.3750000   0.2500000   0.1250000), wk =   0.0078125
        k(  181) = (   0.3750000   0.2500000   0.2500000), wk =   0.0078125
        k(  182) = (   0.3750000   0.2500000   0.3750000), wk =   0.0078125
        k(  183) = (   0.3750000   0.2500000  -0.5000000), wk =   0.0078125
        k(  184) = (   0.3750000   0.2500000  -0.3750000), wk =   0.0078125
        k(  185) = (   0.3750000   0.2500000  -0.2500000), wk =   0.0078125
        k(  186) = (   0.3750000   0.2500000  -0.1250000), wk =   0.0078125
        k(  187) = (   0.3750000   0.3750000  -0.0000000), wk =   0.0078125
        k(  188) = (   0.3750000   0.3750000   0.1250000), wk =   0.0078125
        k(  189) = (   0.3750000   0.3750000   0.2500000), wk =   0.0078125
        k(  190) = (   0.3750000   0.3750000   0.3750000), wk =   0.0078125
        k(  191) = (   0.3750000   0.3750000  -0.5000000), wk =   0.0078125
        k(  192) = (   0.3750000   0.3750000  -0.3750000), wk =   0.0078125
        k(  193) = (   0.3750000   0.3750000  -0.2500000), wk =   0.0078125
        k(  194) = (   0.3750000   0.3750000  -0.1250000), wk =   0.0078125
        k(  195) = (   0.3750000  -0.5000000  -0.0000000), wk =   0.0078125
        k(  196) = (   0.3750000  -0.5000000   0.1250000), wk =   0.0078125
        k(  197) = (   0.3750000  -0.5000000   0.2500000), wk =   0.0078125
        k(  198) = (   0.3750000  -0.5000000   0.3750000), wk =   0.0078125
        k(  199) = (   0.3750000  -0.5000000  -0.5000000), wk =   0.0078125
        k(  200) = (   0.3750000  -0.5000000  -0.3750000), wk =   0.0078125
        k(  201) = (   0.3750000  -0.5000000  -0.2500000), wk =   0.0078125
        k(  202) = (   0.3750000  -0.5000000  -0.1250000), wk =   0.0078125
        k(  203) = (   0.3750000  -0.3750000  -0.0000000), wk =   0.0078125
        k(  204) = (   0.3750000  -0.3750000   0.1250000), wk =   0.0078125
        k(  205) = (   0.3750000  -0.3750000   0.2500000), wk =   0.0078125
        k(  206) = (   0.3750000  -0.3750000   0.3750000), wk =   0.0078125
        k(  207) = (   0.3750000  -0.3750000  -0.5000000), wk =   0.0078125
        k(  208) = (   0.3750000  -0.3750000  -0.3750000), wk =   0.0078125
        k(  209) = (   0.3750000  -0.3750000  -0.2500000), wk =   0.0078125
        k(  210) = (   0.3750000  -0.3750000  -0.1250000), wk =   0.0078125
        k(  211) = (   0.3750000  -0.2500000  -0.0000000), wk =   0.0078125
        k(  212) = (   0.3750000  -0.2500000   0.1250000), wk =   0.0078125
        k(  213) = (   0.3750000  -0.2500000   0.2500000), wk =   0.0078125
        k(  214) = (   0.3750000  -0.2500000   0.3750000), wk =   0.0078125
        k(  215) = (   0.3750000  -0.2500000  -0.5000000), wk =   0.0078125
        k(  216) = (   0.3750000  -0.2500000  -0.3750000), wk =   0.0078125
        k(  217) = (   0.3750000  -0.2500000  -0.2500000), wk =   0.0078125
        k(  218) = (   0.3750000  -0.2500000  -0.1250000), wk =   0.0078125
        k(  219) = (   0.3750000  -0.1250000  -0.0000000), wk =   0.0078125
        k(  220) = (   0.3750000  -0.1250000   0.1250000), wk =   0.0078125
        k(  221) = (   0.3750000  -0.1250000   0.2500000), wk =   0.0078125
        k(  222) = (   0.3750000  -0.1250000   0.3750000), wk =   0.0078125
        k(  223) = (   0.3750000  -0.1250000  -0.5000000), wk =   0.0078125
        k(  224) = (   0.3750000  -0.1250000  -0.3750000), wk =   0.0078125
        k(  225) = (   0.3750000  -0.1250000  -0.2500000), wk =   0.0078125
        k(  226) = (   0.3750000  -0.1250000  -0.1250000), wk =   0.0078125
        k(  227) = (  -0.5000000   0.0000000   0.0000000), wk =   0.0039062
        k(  228) = (  -0.5000000   0.0000000   0.1250000), wk =   0.0078125
        k(  229) = (  -0.5000000   0.0000000   0.2500000), wk =   0.0078125
        k(  230) = (  -0.5000000   0.0000000   0.3750000), wk =   0.0078125
        k(  231) = (  -0.5000000   0.0000000  -0.5000000), wk =   0.0039062
        k(  232) = (  -0.5000000   0.1250000   0.0000000), wk =   0.0078125
        k(  233) = (  -0.5000000   0.1250000   0.1250000), wk =   0.0078125
        k(  234) = (  -0.5000000   0.1250000   0.2500000), wk =   0.0078125
        k(  235) = (  -0.5000000   0.1250000   0.3750000), wk =   0.0078125
        k(  236) = (  -0.5000000   0.1250000  -0.5000000), wk =   0.0078125
        k(  237) = (  -0.5000000   0.1250000  -0.3750000), wk =   0.0078125
        k(  238) = (  -0.5000000   0.1250000  -0.2500000), wk =   0.0078125
        k(  239) = (  -0.5000000   0.1250000  -0.1250000), wk =   0.0078125
        k(  240) = (  -0.5000000   0.2500000  -0.0000000), wk =   0.0078125
        k(  241) = (  -0.5000000   0.2500000   0.1250000), wk =   0.0078125
        k(  242) = (  -0.5000000   0.2500000   0.2500000), wk =   0.0078125
        k(  243) = (  -0.5000000   0.2500000   0.3750000), wk =   0.0078125
        k(  244) = (  -0.5000000   0.2500000  -0.5000000), wk =   0.0078125
        k(  245) = (  -0.5000000   0.2500000  -0.3750000), wk =   0.0078125
        k(  246) = (  -0.5000000   0.2500000  -0.2500000), wk =   0.0078125
        k(  247) = (  -0.5000000   0.2500000  -0.1250000), wk =   0.0078125
        k(  248) = (  -0.5000000   0.3750000   0.0000000), wk =   0.0078125
        k(  249) = (  -0.5000000   0.3750000   0.1250000), wk =   0.0078125
        k(  250) = (  -0.5000000   0.3750000   0.2500000), wk =   0.0078125
        k(  251) = (  -0.5000000   0.3750000   0.3750000), wk =   0.0078125
        k(  252) = (  -0.5000000   0.3750000  -0.5000000), wk =   0.0078125
        k(  253) = (  -0.5000000   0.3750000  -0.3750000), wk =   0.0078125
        k(  254) = (  -0.5000000   0.3750000  -0.2500000), wk =   0.0078125
        k(  255) = (  -0.5000000   0.3750000  -0.1250000), wk =   0.0078125
        k(  256) = (  -0.5000000  -0.5000000  -0.0000000), wk =   0.0039062
        k(  257) = (  -0.5000000  -0.5000000   0.1250000), wk =   0.0078125
        k(  258) = (  -0.5000000  -0.5000000   0.2500000), wk =   0.0078125
        k(  259) = (  -0.5000000  -0.5000000   0.3750000), wk =   0.0078125
        k(  260) = (  -0.5000000  -0.5000000  -0.5000000), wk =   0.0039062

     Dense  grid:    76333 G-vectors     FFT dimensions: (  50,  50,  72)

     Smooth grid:    29845 G-vectors     FFT dimensions: (  40,  40,  50)

     Dynamical RAM for                 wfc:       0.09 MB

     Dynamical RAM for     wfc (w. buffer):       6.07 MB

     Dynamical RAM for           str. fact:       0.15 MB

     Dynamical RAM for           local pot:       0.00 MB

     Dynamical RAM for          nlocal pot:       0.22 MB

     Dynamical RAM for                qrad:       4.00 MB

     Dynamical RAM for          rho,v,vnew:       0.50 MB

     Dynamical RAM for               rhoin:       0.17 MB

     Dynamical RAM for            rho*nmix:       1.16 MB

     Dynamical RAM for           G-vectors:       0.29 MB

     Dynamical RAM for          h,s,v(r/c):       0.12 MB

     Dynamical RAM for          <psi|beta>:       0.02 MB

     Dynamical RAM for                 psi:       0.37 MB

     Dynamical RAM for                hpsi:       0.37 MB

     Dynamical RAM for                spsi:       0.37 MB

     Dynamical RAM for      wfcinit/wfcrot:       0.27 MB

     Dynamical RAM for           addusdens:       3.47 MB

     Dynamical RAM for          addusforce:       3.62 MB

     Dynamical RAM for         addusstress:       3.68 MB

     Estimated static dynamical RAM per process >      13.26 MB

     Estimated max dynamical RAM per process >      16.94 MB

     Estimated total dynamical RAM >       1.06 GB

     Check: negative core charge=   -0.000003

     Initial potential from superposition of free atoms

     starting charge   51.99974, renormalised to   52.00000
     Starting wfcs are   34 randomized atomic wfcs

     total cpu time spent up to now is        1.1 secs

     Self-consistent Calculation

     iteration #  1     ecut=    80.00 Ry     beta= 0.50
     Davidson diagonalization with overlap
     ethr =  1.00E-02,  avg # of iterations =  1.0

     total cpu time spent up to now is        1.9 secs

     total energy              =    -986.75560387 Ry
     Harris-Foulkes estimate   =    -987.27263144 Ry
     estimated scf accuracy    <       0.81258734 Ry

     iteration #  2     ecut=    80.00 Ry     beta= 0.50
     Davidson diagonalization with overlap
     ethr =  1.56E-03,  avg # of iterations =  3.0

     total cpu time spent up to now is        3.2 secs

     total energy              =    -986.99557582 Ry
     Harris-Foulkes estimate   =    -987.15883137 Ry
     estimated scf accuracy    <       0.37529519 Ry

     iteration #  3     ecut=    80.00 Ry     beta= 0.50
     Davidson diagonalization with overlap
     ethr =  7.22E-04,  avg # of iterations =  2.1

     total cpu time spent up to now is        4.3 secs

     total energy              =    -987.06313892 Ry
     Harris-Foulkes estimate   =    -987.06542035 Ry
     estimated scf accuracy    <       0.00678971 Ry

     iteration #  4     ecut=    80.00 Ry     beta= 0.50
     Davidson diagonalization with overlap
     ethr =  1.31E-05,  avg # of iterations =  2.0

     total cpu time spent up to now is        5.4 secs

     total energy              =    -987.06372243 Ry
     Harris-Foulkes estimate   =    -987.06416291 Ry
     estimated scf accuracy    <       0.00150205 Ry

     iteration #  5     ecut=    80.00 Ry     beta= 0.50
     Davidson diagonalization with overlap
     ethr =  2.89E-06,  avg # of iterations =  2.0

     total cpu time spent up to now is        6.5 secs

     total energy              =    -987.06387440 Ry
     Harris-Foulkes estimate   =    -987.06388231 Ry
     estimated scf accuracy    <       0.00001626 Ry

     iteration #  6     ecut=    80.00 Ry     beta= 0.50
     Davidson diagonalization with overlap
     ethr =  3.13E-08,  avg # of iterations =  2.4

     total cpu time spent up to now is        7.7 secs

     total energy              =    -987.06387742 Ry
     Harris-Foulkes estimate   =    -987.06387708 Ry
     estimated scf accuracy    <       0.00000388 Ry

     iteration #  7     ecut=    80.00 Ry     beta= 0.50
     Davidson diagonalization with overlap
     ethr =  7.46E-09,  avg # of iterations =  2.0

     total cpu time spent up to now is        8.7 secs

     End of self-consistent calculation

          k = 0.0000 0.0000 0.0000 (  3715 PWs)   bands (ev):

  -113.8756-113.8751 -68.2637 -68.2574 -68.2227 -68.2227 -68.2209 -68.2209
    -8.8341  -7.6970   3.3401   3.3401   3.4206   3.4206   4.1231   4.5477
     4.5862   4.5862   4.9530   4.9530   5.3427   8.4240   8.4709   8.4709
     9.1760   9.1760

     occupation numbers 
     1.0000   1.0000   1.0000   1.0000   1.0000   1.0000   1.0000   1.0000
     1.0000   1.0000   1.0000   1.0000   1.0000   1.0000   1.0000   1.0000
     1.0000   1.0000   1.0000   1.0000   1.0000   1.0000   1.0000   1.0000
     1.0000   1.0000

          k = 0.0000-0.0000 0.0920 (  3697 PWs)   bands (ev):

  -113.8756-113.8751 -68.2634 -68.2575 -68.2227 -68.2227 -68.2209 -68.2209
    -8.7916  -7.7401   3.3338   3.3338   3.4059   3.4059   3.9598   4.4582
     4.6117   4.6117   4.9483   4.9483   5.5943   8.1504   8.5038   8.5038
     9.1564   9.1564

     occupation numbers 
     1.0000   1.0000   1.0000   1.0000   1.0000   1.0000   1.0000   1.0000
     1.0000   1.0000   1.0000   1.0000   1.0000   1.0000   1.0000   1.0000
     1.0000   1.0000   1.0000   1.0000   1.0000   1.0000   1.0000   1.0000
     1.0000   1.0000

          k = 0.0000-0.0000 0.1840 (  3709 PWs)   bands (ev):

  -113.8755-113.8752 -68.2627 -68.2582 -68.2225 -68.2225 -68.2212 -68.2212
    -8.6700  -7.8634   3.3197   3.3197   3.3710   3.3710   3.7263   4.2247
     4.6774   4.6774   4.9312   4.9313   6.0778   7.7127   8.5952   8.5952
     9.0970   9.0970

     occupation numbers 
     1.0000   1.0000   1.0000   1.0000   1.0000   1.0000   1.0000   1.0000
     1.0000   1.0000   1.0000   1.0000   1.0000   1.0000   1.0000   1.0000
     1.0000   1.0000   1.0000   1.0000   1.0000   1.0000   1.0000   1.0000
     1.0000   1.0000

          k = 0.0000-0.0000 0.2760 (  3721 PWs)   bands (ev):

  -113.8754-113.8752 -68.2617 -68.2592 -68.2222 -68.2222 -68.2215 -68.2215
    -8.4864  -8.0489   3.3090   3.3090   3.3349   3.3349   3.6315   3.9401
     4.7596   4.7596   4.8952   4.8952   6.5545   7.3274   8.7258   8.7258
     8.9986   8.9986

     occupation numbers 
     1.0000   1.0000   1.0000   1.0000   1.0000   1.0000   1.0000   1.0000
     1.0000   1.0000   1.0000   1.0000   1.0000   1.0000   1.0000   1.0000
     1.0000   1.0000   1.0000   1.0000   1.0000   1.0000   1.0000   1.0000
     1.0000   1.0000

          k =-0.0000 0.0000-0.3681 (  3744 PWs)   bands (ev):

  -113.8754-113.8753 -68.2605 -68.2605 -68.2219 -68.2219 -68.2219 -68.2219
    -8.2682  -8.2681   3.3126   3.3126   3.3126   3.3126   3.7144   3.7145
     4.8366   4.8366   4.8366   4.8366   6.9627   6.9627   8.8689   8.8689
     8.8690   8.8690

     occupation numbers 
     1.0000   1.0000   1.0000   1.0000   1.0000   1.0000   1.0000   1.0000
     1.0000   1.0000   1.0000   1.0000   1.0000   1.0000   1.0000   1.0000
     1.0000   1.0000   1.0000   1.0000   1.0000   1.0000   1.0000   1.0000
     1.0000   1.0000

          k = 0.0000 0.1443 0.0000 (  3714 PWs)   bands (ev):

  -113.8756-113.8751 -68.2634 -68.2575 -68.2229 -68.2228 -68.2211 -68.2209
    -8.7463  -7.6797   3.3099   3.3912   3.4103   3.5252   4.0324   4.4899
     4.5640   4.6161   4.9666   5.2060   5.3375   7.9416   8.2034   8.3456
     8.4119   9.0035

     occupation numbers 
     1.0000   1.0000   1.0000   1.0000   1.0000   1.0000   1.0000   1.0000
     1.0000   1.0000   1.0000   1.0000   1.0000   1.0000   1.0000   1.0000
     1.0000   1.0000   1.0000   1.0000   1.0000   1.0000   1.0000   1.0000
     1.0000   1.0000

          k = 0.0000 0.1443 0.0920 (  3715 PWs)   bands (ev):

  -113.8756-113.8751 -68.2632 -68.2577 -68.2228 -68.2228 -68.2212 -68.2210
    -8.7056  -7.7191   3.2928   3.3684   3.4050   3.5081   3.9116   4.3965
     4.5913   4.6457   4.9601   5.0740   5.6747   7.8586   8.0464   8.2399
     8.7824   8.9801

     occupation numbers 
     1.0000   1.0000   1.0000   1.0000   1.0000   1.0000   1.0000   1.0000
     1.0000   1.0000   1.0000   1.0000   1.0000   1.0000   1.0000   1.0000
     1.0000   1.0000   1.0000   1.0000   1.0000   1.0000   1.0000   1.0000
     1.0000   1.0000

          k = 0.0000 0.1443 0.1840 (  3705 PWs)   bands (ev):

  -113.8755-113.8752 -68.2626 -68.2583 -68.2226 -68.2226 -68.2214 -68.2212
    -8.5896  -7.8324   3.2435   3.3115   3.3936   3.4676   3.7345   4.1701
     4.6611   4.7134   4.9382   5.0024   6.1487   7.4767   8.1981   8.3415
     8.9101   8.9598

     occupation numbers 
     1.0000   1.0000   1.0000   1.0000   1.0000   1.0000   1.0000   1.0000
     1.0000   1.0000   1.0000   1.0000   1.0000   1.0000   1.0000   1.0000
     1.0000   1.0000   1.0000   1.0000   1.0000   1.0000   1.0000   1.0000
     1.0000   1.0000

          k = 0.0000 0.1443 0.2760 (  3713 PWs)   bands (ev):

  -113.8754-113.8752 -68.2616 -68.2593 -68.2223 -68.2223 -68.2217 -68.2215
    -8.4152  -8.0043   3.1948   3.2495   3.3873   3.4250   3.6686   3.9129
     4.7483   4.7980   4.8958   4.9470   6.5630   7.1661   8.4512   8.4872
     8.7961   8.9127

     occupation numbers 
     1.0000   1.0000   1.0000   1.0000   1.0000   1.0000   1.0000   1.0000
     1.0000   1.0000   1.0000   1.0000   1.0000   1.0000   1.0000   1.0000
     1.0000   1.0000   1.0000   1.0000   1.0000   1.0000   1.0000   1.0000
     1.0000   1.0000

          k =-0.0000 0.1443-0.3681 (  3712 PWs)   bands (ev):

  -113.8753-113.8753 -68.2605 -68.2605 -68.2220 -68.2220 -68.2219 -68.2219
    -8.2093  -8.2092   3.2005   3.2005   3.3964   3.3964   3.7296   3.7296
     4.8310   4.8310   4.8796   4.8797   6.8859   6.8859   8.6482   8.6483
     8.7176   8.7177

     occupation numbers 
     1.0000   1.0000   1.0000   1.0000   1.0000   1.0000   1.0000   1.0000
     1.0000   1.0000   1.0000   1.0000   1.0000   1.0000   1.0000   1.0000
     1.0000   1.0000   1.0000   1.0000   1.0000   1.0000   1.0000   1.0000
     1.0000   1.0000

          k =-0.0000 0.1443-0.2760 (  3713 PWs)   bands (ev):

  -113.8754-113.8752 -68.2616 -68.2593 -68.2223 -68.2223 -68.2217 -68.2215
    -8.4152  -8.0043   3.1948   3.2495   3.3873   3.4250   3.6686   3.9129
     4.7483   4.7980   4.8958   4.9470   6.5630   7.1661   8.4512   8.4872
     8.7961   8.9127

     occupation numbers 
     1.0000   1.0000   1.0000   1.0000   1.0000   1.0000   1.0000   1.0000
     1.0000   1.0000   1.0000   1.0000   1.0000   1.0000   1.0000   1.0000
     1.0000   1.0000   1.0000   1.0000   1.0000   1.0000   1.0000   1.0000
     1.0000   1.0000

          k =-0.0000 0.1443-0.1840 (  3705 PWs)   bands (ev):

  -113.8755-113.8752 -68.2626 -68.2583 -68.2226 -68.2226 -68.2214 -68.2212
    -8.5896  -7.8324   3.2435   3.3115   3.3936   3.4676   3.7345   4.1701
     4.6611   4.7134   4.9382   5.0024   6.1487   7.4767   8.1981   8.3415
     8.9101   8.9598

     occupation numbers 
     1.0000   1.0000   1.0000   1.0000   1.0000   1.0000   1.0000   1.0000
     1.0000   1.0000   1.0000   1.0000   1.0000   1.0000   1.0000   1.0000
     1.0000   1.0000   1.0000   1.0000   1.0000   1.0000   1.0000   1.0000
     1.0000   1.0000

          k = 0.0000 0.1443-0.0920 (  3715 PWs)   bands (ev):

  -113.8756-113.8751 -68.2632 -68.2577 -68.2228 -68.2228 -68.2212 -68.2210
    -8.7056  -7.7191   3.2928   3.3684   3.4050   3.5081   3.9116   4.3965
     4.5913   4.6457   4.9601   5.0740   5.6747   7.8586   8.0464   8.2399
     8.7824   8.9801

     occupation numbers 
     1.0000   1.0000   1.0000   1.0000   1.0000   1.0000   1.0000   1.0000
     1.0000   1.0000   1.0000   1.0000   1.0000   1.0000   1.0000   1.0000
     1.0000   1.0000   1.0000   1.0000   1.0000   1.0000   1.0000   1.0000
     1.0000   1.0000

          k = 0.0000 0.2887 0.0000 (  3738 PWs)   bands (ev):

  -113.8755-113.8751 -68.2628 -68.2581 -68.2233 -68.2231 -68.2218 -68.2210
    -8.5146  -7.6527   3.1969   3.4507   3.6227   3.7846   3.9491   4.3539
     4.5219   4.6810   4.9934   5.2883   5.7494   6.8704   7.3284   7.5707
     8.2756   8.5612

     occupation numbers 
     1.0000   1.0000   1.0000   1.0000   1.0000   1.0000   1.0000   1.0000
     1.0000   1.0000   1.0000   1.0000   1.0000   1.0000   1.0000   1.0000
     1.0000   1.0000   1.0000   1.0000   1.0000   1.0000   1.0000   1.0000
     1.0000   1.0000

          k = 0.0000 0.2887 0.0920 (  3734 PWs)   bands (ev):

  -113.8755-113.8751 -68.2626 -68.2583 -68.2232 -68.2230 -68.2218 -68.2211
    -8.4796  -7.6818   3.1724   3.3901   3.6182   3.7622   3.8764   4.2597
     4.5532   4.7146   4.9825   5.1994   5.9404   6.9731   7.1981   7.6156
     8.5000   8.5309

     occupation numbers 
     1.0000   1.0000   1.0000   1.0000   1.0000   1.0000   1.0000   1.0000
     1.0000   1.0000   1.0000   1.0000   1.0000   1.0000   1.0000   1.0000
     1.0000   1.0000   1.0000   1.0000   1.0000   1.0000   1.0000   1.0000
     1.0000   1.0000

          k = 0.0000 0.2887 0.1840 (  3733 PWs)   bands (ev):

  -113.8755-113.8752 -68.2622 -68.2588 -68.2230 -68.2227 -68.2220 -68.2213
    -8.3803  -7.7671   3.0986   3.2457   3.6094   3.7111   3.7679   4.0560
     4.6309   4.7864   4.9494   5.1076   6.1810   6.8239   7.5335   7.7402
     8.4413   8.7962

     occupation numbers 
     1.0000   1.0000   1.0000   1.0000   1.0000   1.0000   1.0000   1.0000
     1.0000   1.0000   1.0000   1.0000   1.0000   1.0000   1.0000   1.0000
     1.0000   1.0000   1.0000   1.0000   1.0000   1.0000   1.0000   1.0000
     1.0000   1.0000

          k = 0.0000 0.2887 0.2760 (  3709 PWs)   bands (ev):

  -113.8754-113.8752 -68.2614 -68.2595 -68.2227 -68.2224 -68.2222 -68.2216
    -8.2334  -7.9001   3.0173   3.1076   3.6072   3.6585   3.7189   3.8602
     4.7261   4.8735   4.8939   5.0361   6.3455   6.6309   7.9183   8.1033
     8.2980   8.8443

     occupation numbers 
     1.0000   1.0000   1.0000   1.0000   1.0000   1.0000   1.0000   1.0000
     1.0000   1.0000   1.0000   1.0000   1.0000   1.0000   1.0000   1.0000
     1.0000   1.0000   1.0000   1.0000   1.0000   1.0000   1.0000   1.0000
     1.0000   1.0000

          k =-0.0000 0.2887-0.3681 (  3724 PWs)   bands (ev):

  -113.8753-113.8753 -68.2605 -68.2605 -68.2224 -68.2224 -68.2220 -68.2220
    -8.0640  -8.0639   3.0172   3.0172   3.6220   3.6221   3.7454   3.7454
     4.8176   4.8176   4.9597   4.9597   6.4826   6.4826   8.1152   8.1153
     8.5883   8.5883

     occupation numbers 
     1.0000   1.0000   1.0000   1.0000   1.0000   1.0000   1.0000   1.0000
     1.0000   1.0000   1.0000   1.0000   1.0000   1.0000   1.0000   1.0000
     1.0000   1.0000   1.0000   1.0000   1.0000   1.0000   1.0000   1.0000
     1.0000   1.0000

          k = 0.0000 0.2887-0.2760 (  3709 PWs)   bands (ev):

  -113.8754-113.8752 -68.2614 -68.2595 -68.2227 -68.2224 -68.2222 -68.2216
    -8.2334  -7.9001   3.0173   3.1076   3.6072   3.6585   3.7189   3.8602
     4.7261   4.8735   4.8939   5.0361   6.3455   6.6309   7.9183   8.1033
     8.2980   8.8443

     occupation numbers 
     1.0000   1.0000   1.0000   1.0000   1.0000   1.0000   1.0000   1.0000
     1.0000   1.0000   1.0000   1.0000   1.0000   1.0000   1.0000   1.0000
     1.0000   1.0000   1.0000   1.0000   1.0000   1.0000   1.0000   1.0000
     1.0000   1.0000

          k = 0.0000 0.2887-0.1840 (  3733 PWs)   bands (ev):

  -113.8755-113.8752 -68.2622 -68.2588 -68.2230 -68.2227 -68.2220 -68.2213
    -8.3803  -7.7671   3.0986   3.2457   3.6094   3.7111   3.7679   4.0560
     4.6309   4.7864   4.9494   5.1076   6.1810   6.8239   7.5335   7.7402
     8.4413   8.7962

     occupation numbers 
     1.0000   1.0000   1.0000   1.0000   1.0000   1.0000   1.0000   1.0000
     1.0000   1.0000   1.0000   1.0000   1.0000   1.0000   1.0000   1.0000
     1.0000   1.0000   1.0000   1.0000   1.0000   1.0000   1.0000   1.0000
     1.0000   1.0000

          k = 0.0000 0.2887-0.0920 (  3734 PWs)   bands (ev):

  -113.8755-113.8751 -68.2626 -68.2583 -68.2232 -68.2230 -68.2218 -68.2211
    -8.4796  -7.6818   3.1724   3.3901   3.6182   3.7622   3.8764   4.2597
     4.5532   4.7146   4.9825   5.1994   5.9404   6.9731   7.1981   7.6156
     8.5000   8.5309

     occupation numbers 
     1.0000   1.0000   1.0000   1.0000   1.0000   1.0000   1.0000   1.0000
     1.0000   1.0000   1.0000   1.0000   1.0000   1.0000   1.0000   1.0000
     1.0000   1.0000   1.0000   1.0000   1.0000   1.0000   1.0000   1.0000
     1.0000   1.0000

          k = 0.0000 0.4330 0.0000 (  3720 PWs)   bands (ev):

  -113.8754-113.8752 -68.2619 -68.2588 -68.2236 -68.2233 -68.2223 -68.2210
    -8.2329  -7.6684   3.1550   3.5888   3.9004   4.0163   4.0709   4.2115
     4.5135   4.7369   5.0147   5.1595   5.9581   6.2720   6.4824   6.9056
     8.0430   8.0811

     occupation numbers 
     1.0000   1.0000   1.0000   1.0000   1.0000   1.0000   1.0000   1.0000
     1.0000   1.0000   1.0000   1.0000   1.0000   1.0000   1.0000   1.0000
     1.0000   1.0000   1.0000   1.0000   1.0000   1.0000   1.0000   1.0000
     1.0000   1.0000

          k = 0.0000 0.4330 0.0920 (  3730 PWs)   bands (ev):

  -113.8754-113.8752 -68.2618 -68.2590 -68.2235 -68.2232 -68.2224 -68.2211
    -8.2067  -7.6838   3.1183   3.4997   3.8955   3.9506   4.0438   4.1359
     4.5471   4.7690   4.9976   5.1383   5.8449   6.2141   6.8196   6.9621
     8.0456   8.2588

     occupation numbers 
     1.0000   1.0000   1.0000   1.0000   1.0000   1.0000   1.0000   1.0000
     1.0000   1.0000   1.0000   1.0000   1.0000   1.0000   1.0000   1.0000
     1.0000   1.0000   1.0000   1.0000   1.0000   1.0000   1.0000   1.0000
     1.0000   1.0000

          k = 0.0000 0.4330 0.1840 (  3736 PWs)   bands (ev):

  -113.8754-113.8752 -68.2616 -68.2593 -68.2234 -68.2230 -68.2225 -68.2214
    -8.1335  -7.7309   3.0160   3.2840   3.8403   3.8856   3.9862   3.9884
     4.6251   4.8351   4.9512   5.0946   5.7969   6.0581   7.1160   7.4930
     7.9409   8.6434

     occupation numbers 
     1.0000   1.0000   1.0000   1.0000   1.0000   1.0000   1.0000   1.0000
     1.0000   1.0000   1.0000   1.0000   1.0000   1.0000   1.0000   1.0000
     1.0000   1.0000   1.0000   1.0000   1.0000   1.0000   1.0000   1.0000
     1.0000   1.0000

          k = 0.0000 0.4330 0.2760 (  3731 PWs)   bands (ev):

  -113.8754-113.8753 -68.2611 -68.2599 -68.2231 -68.2227 -68.2226 -68.2217
    -8.0287  -7.8095   2.9158   3.0597   3.7800   3.8632   3.8817   3.9311
     4.7163   4.8848   4.9094   5.0424   5.8219   5.9470   7.3300   7.7743
     8.1667   8.8328

     occupation numbers 
     1.0000   1.0000   1.0000   1.0000   1.0000   1.0000   1.0000   1.0000
     1.0000   1.0000   1.0000   1.0000   1.0000   1.0000   1.0000   1.0000
     1.0000   1.0000   1.0000   1.0000   1.0000   1.0000   1.0000   1.0000
     1.0000   1.0000

          k = 0.0000 0.4330-0.3681 (  3734 PWs)   bands (ev):

  -113.8753-113.8753 -68.2605 -68.2605 -68.2229 -68.2229 -68.2222 -68.2222
    -7.9137  -7.9136   2.9204   2.9204   3.7906   3.7906   3.8951   3.8951
     4.8050   4.8050   4.9804   4.9804   5.8745   5.8745   7.5617   7.5617
     8.6602   8.6603

     occupation numbers 
     1.0000   1.0000   1.0000   1.0000   1.0000   1.0000   1.0000   1.0000
     1.0000   1.0000   1.0000   1.0000   1.0000   1.0000   1.0000   1.0000
     1.0000   1.0000   1.0000   1.0000   1.0000   1.0000   1.0000   1.0000
     1.0000   1.0000

          k = 0.0000 0.4330-0.2760 (  3731 PWs)   bands (ev):

  -113.8754-113.8753 -68.2611 -68.2599 -68.2231 -68.2227 -68.2226 -68.2217
    -8.0287  -7.8095   2.9158   3.0597   3.7800   3.8632   3.8817   3.9311
     4.7163   4.8848   4.9094   5.0424   5.8219   5.9470   7.3300   7.7743
     8.1667   8.8328

     occupation numbers 
     1.0000   1.0000   1.0000   1.0000   1.0000   1.0000   1.0000   1.0000
     1.0000   1.0000   1.0000   1.0000   1.0000   1.0000   1.0000   1.0000
     1.0000   1.0000   1.0000   1.0000   1.0000   1.0000   1.0000   1.0000
     1.0000   1.0000

          k = 0.0000 0.4330-0.1840 (  3736 PWs)   bands (ev):

  -113.8754-113.8752 -68.2616 -68.2593 -68.2234 -68.2230 -68.2225 -68.2214
    -8.1335  -7.7309   3.0160   3.2840   3.8403   3.8856   3.9862   3.9884
     4.6251   4.8351   4.9512   5.0946   5.7969   6.0581   7.1160   7.4930
     7.9409   8.6434

     occupation numbers 
     1.0000   1.0000   1.0000   1.0000   1.0000   1.0000   1.0000   1.0000
     1.0000   1.0000   1.0000   1.0000   1.0000   1.0000   1.0000   1.0000
     1.0000   1.0000   1.0000   1.0000   1.0000   1.0000   1.0000   1.0000
     1.0000   1.0000

          k = 0.0000 0.4330-0.0920 (  3730 PWs)   bands (ev):

  -113.8754-113.8752 -68.2618 -68.2590 -68.2235 -68.2232 -68.2224 -68.2211
    -8.2067  -7.6838   3.1183   3.4997   3.8955   3.9506   4.0438   4.1359
     4.5471   4.7690   4.9976   5.1383   5.8449   6.2141   6.8196   6.9621
     8.0456   8.2588

     occupation numbers 
     1.0000   1.0000   1.0000   1.0000   1.0000   1.0000   1.0000   1.0000
     1.0000   1.0000   1.0000   1.0000   1.0000   1.0000   1.0000   1.0000
     1.0000   1.0000   1.0000   1.0000   1.0000   1.0000   1.0000   1.0000
     1.0000   1.0000

          k =-0.0000-0.5774-0.0000 (  3738 PWs)   bands (ev):

  -113.8754-113.8752 -68.2614 -68.2593 -68.2237 -68.2234 -68.2226 -68.2211
    -8.0773  -7.7115   3.1779   3.6544   4.0420   4.0695   4.1872   4.2285
     4.5490   4.7464   5.0200   5.0221   5.7299   5.8444   6.5963   6.7173
     7.8646   7.8665

     occupation numbers 
     1.0000   1.0000   1.0000   1.0000   1.0000   1.0000   1.0000   1.0000
     1.0000   1.0000   1.0000   1.0000   1.0000   1.0000   1.0000   1.0000
     1.0000   1.0000   1.0000   1.0000   1.0000   1.0000   1.0000   1.0000
     1.0000   1.0000

          k =-0.0000-0.5774 0.0920 (  3726 PWs)   bands (ev):

  -113.8754-113.8752 -68.2614 -68.2594 -68.2237 -68.2233 -68.2226 -68.2211
    -8.0574  -7.7185   3.1311   3.5659   3.9843   4.0369   4.1621   4.1688
     4.5784   4.7770   5.0001   5.0128   5.6740   5.7561   6.6613   7.0282
     7.8291   8.0933

     occupation numbers 
     1.0000   1.0000   1.0000   1.0000   1.0000   1.0000   1.0000   1.0000
     1.0000   1.0000   1.0000   1.0000   1.0000   1.0000   1.0000   1.0000
     1.0000   1.0000   1.0000   1.0000   1.0000   1.0000   1.0000   1.0000
     1.0000   1.0000

          k =-0.0000-0.5774 0.1840 (  3742 PWs)   bands (ev):

  -113.8754-113.8752 -68.2612 -68.2597 -68.2235 -68.2230 -68.2227 -68.2214
    -8.0028  -7.7417   3.0075   3.3320   3.8595   4.0261   4.0419   4.1095
     4.6452   4.8308   4.9449   4.9934   5.6113   5.6669   6.8343   7.6509
     7.7188   8.5356

     occupation numbers 
     1.0000   1.0000   1.0000   1.0000   1.0000   1.0000   1.0000   1.0000
     1.0000   1.0000   1.0000   1.0000   1.0000   1.0000   1.0000   1.0000
     1.0000   1.0000   1.0000   1.0000   1.0000   1.0000   1.0000   1.0000
     1.0000   1.0000

          k =-0.0000-0.5774 0.2760 (  3736 PWs)   bands (ev):

  -113.8753-113.8753 -68.2609 -68.2601 -68.2233 -68.2229 -68.2226 -68.2218
    -7.9276  -7.7853   2.8957   3.0686   3.8133   3.9230   4.0199   4.0603
     4.7228   4.8752   4.8812   4.9639   5.6003   5.6300   7.0686   7.5430
     8.2787   8.8124

     occupation numbers 
     1.0000   1.0000   1.0000   1.0000   1.0000   1.0000   1.0000   1.0000
     1.0000   1.0000   1.0000   1.0000   1.0000   1.0000   1.0000   1.0000
     1.0000   1.0000   1.0000   1.0000   1.0000   1.0000   1.0000   1.0000
     1.0000   1.0000

          k =-0.0000-0.5774-0.3681 (  3724 PWs)   bands (ev):

  -113.8753-113.8753 -68.2605 -68.2605 -68.2231 -68.2231 -68.2222 -68.2222
    -7.8499  -7.8498   2.9047   2.9047   3.8416   3.8416   4.0294   4.0294
     4.8004   4.8004   4.9259   4.9259   5.6123   5.6123   7.3173   7.3174
     8.7173   8.7173

     occupation numbers 
     1.0000   1.0000   1.0000   1.0000   1.0000   1.0000   1.0000   1.0000
     1.0000   1.0000   1.0000   1.0000   1.0000   1.0000   1.0000   1.0000
     1.0000   1.0000   1.0000   1.0000   1.0000   1.0000   1.0000   1.0000
     1.0000   1.0000

          k = 0.1250 0.0722 0.0000 (  3714 PWs)   bands (ev):

  -113.8756-113.8751 -68.2634 -68.2575 -68.2229 -68.2228 -68.2211 -68.2209
    -8.7463  -7.6797   3.3099   3.3912   3.4103   3.5252   4.0324   4.4899
     4.5640   4.6161   4.9666   5.2060   5.3375   7.9416   8.2034   8.3456
     8.4119   9.0035

     occupation numbers 
     1.0000   1.0000   1.0000   1.0000   1.0000   1.0000   1.0000   1.0000
     1.0000   1.0000   1.0000   1.0000   1.0000   1.0000   1.0000   1.0000
     1.0000   1.0000   1.0000   1.0000   1.0000   1.0000   1.0000   1.0000
     1.0000   1.0000

          k = 0.1250 0.0722 0.0920 (  3715 PWs)   bands (ev):

  -113.8756-113.8751 -68.2632 -68.2577 -68.2228 -68.2228 -68.2212 -68.2210
    -8.7056  -7.7191   3.2928   3.3684   3.4050   3.5081   3.9116   4.3965
     4.5913   4.6457   4.9601   5.0740   5.6747   7.8586   8.0464   8.2399
     8.7824   8.9801

     occupation numbers 
     1.0000   1.0000   1.0000   1.0000   1.0000   1.0000   1.0000   1.0000
     1.0000   1.0000   1.0000   1.0000   1.0000   1.0000   1.0000   1.0000
     1.0000   1.0000   1.0000   1.0000   1.0000   1.0000   1.0000   1.0000
     1.0000   1.0000

          k = 0.1250 0.0722 0.1840 (  3705 PWs)   bands (ev):

  -113.8755-113.8752 -68.2626 -68.2583 -68.2226 -68.2226 -68.2214 -68.2212
    -8.5896  -7.8324   3.2435   3.3115   3.3936   3.4676   3.7345   4.1701
     4.6611   4.7134   4.9382   5.0024   6.1487   7.4767   8.1981   8.3415
     8.9101   8.9598

     occupation numbers 
     1.0000   1.0000   1.0000   1.0000   1.0000   1.0000   1.0000   1.0000
     1.0000   1.0000   1.0000   1.0000   1.0000   1.0000   1.0000   1.0000
     1.0000   1.0000   1.0000   1.0000   1.0000   1.0000   1.0000   1.0000
     1.0000   1.0000

          k = 0.1250 0.0722 0.2760 (  3713 PWs)   bands (ev):

  -113.8754-113.8752 -68.2616 -68.2593 -68.2223 -68.2223 -68.2217 -68.2215
    -8.4152  -8.0043   3.1948   3.2495   3.3873   3.4250   3.6686   3.9129
     4.7483   4.7980   4.8958   4.9470   6.5630   7.1661   8.4512   8.4872
     8.7961   8.9127

     occupation numbers 
     1.0000   1.0000   1.0000   1.0000   1.0000   1.0000   1.0000   1.0000
     1.0000   1.0000   1.0000   1.0000   1.0000   1.0000   1.0000   1.0000
     1.0000   1.0000   1.0000   1.0000   1.0000   1.0000   1.0000   1.0000
     1.0000   1.0000

          k = 0.1250 0.0722-0.3681 (  3712 PWs)   bands (ev):

  -113.8753-113.8753 -68.2605 -68.2605 -68.2220 -68.2220 -68.2219 -68.2219
    -8.2093  -8.2092   3.2005   3.2005   3.3964   3.3964   3.7296   3.7296
     4.8310   4.8310   4.8796   4.8797   6.8859   6.8859   8.6482   8.6483
     8.7176   8.7177

     occupation numbers 
     1.0000   1.0000   1.0000   1.0000   1.0000   1.0000   1.0000   1.0000
     1.0000   1.0000   1.0000   1.0000   1.0000   1.0000   1.0000   1.0000
     1.0000   1.0000   1.0000   1.0000   1.0000   1.0000   1.0000   1.0000
     1.0000   1.0000

          k = 0.1250 0.0722-0.2760 (  3713 PWs)   bands (ev):

  -113.8754-113.8752 -68.2616 -68.2593 -68.2223 -68.2223 -68.2217 -68.2215
    -8.4152  -8.0043   3.1948   3.2495   3.3873   3.4250   3.6686   3.9129
     4.7483   4.7980   4.8958   4.9470   6.5630   7.1661   8.4512   8.4872
     8.7961   8.9127

     occupation numbers 
     1.0000   1.0000   1.0000   1.0000   1.0000   1.0000   1.0000   1.0000
     1.0000   1.0000   1.0000   1.0000   1.0000   1.0000   1.0000   1.0000
     1.0000   1.0000   1.0000   1.0000   1.0000   1.0000   1.0000   1.0000
     1.0000   1.0000

          k = 0.1250 0.0722-0.1840 (  3705 PWs)   bands (ev):

  -113.8755-113.8752 -68.2626 -68.2583 -68.2226 -68.2226 -68.2214 -68.2212
    -8.5896  -7.8324   3.2435   3.3115   3.3936   3.4676   3.7345   4.1701
     4.6611   4.7134   4.9382   5.0024   6.1487   7.4767   8.1981   8.3415
     8.9101   8.9598

     occupation numbers 
     1.0000   1.0000   1.0000   1.0000   1.0000   1.0000   1.0000   1.0000
     1.0000   1.0000   1.0000   1.0000   1.0000   1.0000   1.0000   1.0000
     1.0000   1.0000   1.0000   1.0000   1.0000   1.0000   1.0000   1.0000
     1.0000   1.0000

          k = 0.1250 0.0722-0.0920 (  3715 PWs)   bands (ev):

  -113.8756-113.8751 -68.2632 -68.2577 -68.2228 -68.2228 -68.2212 -68.2210
    -8.7056  -7.7191   3.2928   3.3684   3.4050   3.5081   3.9116   4.3965
     4.5913   4.6457   4.9601   5.0740   5.6747   7.8586   8.0464   8.2399
     8.7824   8.9801

     occupation numbers 
     1.0000   1.0000   1.0000   1.0000   1.0000   1.0000   1.0000   1.0000
     1.0000   1.0000   1.0000   1.0000   1.0000   1.0000   1.0000   1.0000
     1.0000   1.0000   1.0000   1.0000   1.0000   1.0000   1.0000   1.0000
     1.0000   1.0000

          k = 0.1250 0.2165 0.0000 (  3739 PWs)   bands (ev):

  -113.8755-113.8751 -68.2630 -68.2579 -68.2231 -68.2231 -68.2216 -68.2210
    -8.5862  -7.6577   3.2706   3.3644   3.5780   3.6960   3.9673   4.3915
     4.5347   4.6609   4.9858   5.3054   5.5974   7.2829   7.4217   7.8332
     8.3252   8.6196

     occupation numbers 
     1.0000   1.0000   1.0000   1.0000   1.0000   1.0000   1.0000   1.0000
     1.0000   1.0000   1.0000   1.0000   1.0000   1.0000   1.0000   1.0000
     1.0000   1.0000   1.0000   1.0000   1.0000   1.0000   1.0000   1.0000
     1.0000   1.0000

          k = 0.1250 0.2165 0.0920 (  3726 PWs)   bands (ev):

  -113.8755-113.8751 -68.2628 -68.2581 -68.2230 -68.2230 -68.2216 -68.2210
    -8.5493  -7.6902   3.2535   3.3160   3.5693   3.6727   3.8839   4.2995
     4.5621   4.6931   4.9772   5.1836   5.8650   7.2962   7.3987   7.7579
     8.5869   8.5893

     occupation numbers 
     1.0000   1.0000   1.0000   1.0000   1.0000   1.0000   1.0000   1.0000
     1.0000   1.0000   1.0000   1.0000   1.0000   1.0000   1.0000   1.0000
     1.0000   1.0000   1.0000   1.0000   1.0000   1.0000   1.0000   1.0000
     1.0000   1.0000

          k = 0.1250 0.2165 0.1840 (  3722 PWs)   bands (ev):

  -113.8755-113.8752 -68.2623 -68.2586 -68.2228 -68.2228 -68.2218 -68.2213
    -8.4444  -7.7844   3.1897   3.2038   3.5510   3.6238   3.7603   4.0876
     4.6360   4.7646   4.9495   5.0861   6.2165   7.0366   7.7442   7.8269
     8.5000   8.8730

     occupation numbers 
     1.0000   1.0000   1.0000   1.0000   1.0000   1.0000   1.0000   1.0000
     1.0000   1.0000   1.0000   1.0000   1.0000   1.0000   1.0000   1.0000
     1.0000   1.0000   1.0000   1.0000   1.0000   1.0000   1.0000   1.0000
     1.0000   1.0000

          k = 0.1250 0.2165 0.2760 (  3712 PWs)   bands (ev):

  -113.8754-113.8752 -68.2614 -68.2595 -68.2226 -68.2224 -68.2220 -68.2216
    -8.2885  -7.9299   3.0811   3.1300   3.5395   3.5787   3.7067   3.8727
     4.7296   4.8458   4.9040   5.0159   6.4652   6.8216   7.9873   8.2207
     8.3612   8.9022

     occupation numbers 
     1.0000   1.0000   1.0000   1.0000   1.0000   1.0000   1.0000   1.0000
     1.0000   1.0000   1.0000   1.0000   1.0000   1.0000   1.0000   1.0000
     1.0000   1.0000   1.0000   1.0000   1.0000   1.0000   1.0000   1.0000
     1.0000   1.0000

          k = 0.1250 0.2165-0.3681 (  3702 PWs)   bands (ev):

  -113.8753-113.8753 -68.2605 -68.2605 -68.2223 -68.2223 -68.2220 -68.2220
    -8.1072  -8.1071   3.0679   3.0680   3.5480   3.5480   3.7406   3.7406
     4.8183   4.8183   4.9428   4.9428   6.6473   6.6473   8.1760   8.1761
     8.6594   8.6594

     occupation numbers 
     1.0000   1.0000   1.0000   1.0000   1.0000   1.0000   1.0000   1.0000
     1.0000   1.0000   1.0000   1.0000   1.0000   1.0000   1.0000   1.0000
     1.0000   1.0000   1.0000   1.0000   1.0000   1.0000   1.0000   1.0000
     1.0000   1.0000

          k = 0.1250 0.2165-0.2760 (  3712 PWs)   bands (ev):

  -113.8754-113.8752 -68.2614 -68.2595 -68.2226 -68.2224 -68.2220 -68.2216
    -8.2885  -7.9299   3.0811   3.1300   3.5395   3.5787   3.7067   3.8727
     4.7296   4.8458   4.9040   5.0159   6.4652   6.8216   7.9873   8.2207
     8.3612   8.9022

     occupation numbers 
     1.0000   1.0000   1.0000   1.0000   1.0000   1.0000   1.0000   1.0000
     1.0000   1.0000   1.0000   1.0000   1.0000   1.0000   1.0000   1.0000
     1.0000   1.0000   1.0000   1.0000   1.0000   1.0000   1.0000   1.0000
     1.0000   1.0000

          k = 0.1250 0.2165-0.1840 (  3722 PWs)   bands (ev):

  -113.8755-113.8752 -68.2623 -68.2586 -68.2228 -68.2228 -68.2218 -68.2213
    -8.4444  -7.7844   3.1897   3.2038   3.5510   3.6238   3.7603   4.0876
     4.6360   4.7646   4.9495   5.0861   6.2165   7.0366   7.7442   7.8269
     8.5000   8.8730

     occupation numbers 
     1.0000   1.0000   1.0000   1.0000   1.0000   1.0000   1.0000   1.0000
     1.0000   1.0000   1.0000   1.0000   1.0000   1.0000   1.0000   1.0000
     1.0000   1.0000   1.0000   1.0000   1.0000   1.0000   1.0000   1.0000
     1.0000   1.0000

          k = 0.1250 0.2165-0.0920 (  3726 PWs)   bands (ev):

  -113.8755-113.8751 -68.2628 -68.2581 -68.2230 -68.2230 -68.2216 -68.2210
    -8.5493  -7.6902   3.2535   3.3160   3.5693   3.6727   3.8839   4.2995
     4.5621   4.6931   4.9772   5.1836   5.8650   7.2962   7.3987   7.7579
     8.5869   8.5893

     occupation numbers 
     1.0000   1.0000   1.0000   1.0000   1.0000   1.0000   1.0000   1.0000
     1.0000   1.0000   1.0000   1.0000   1.0000   1.0000   1.0000   1.0000
     1.0000   1.0000   1.0000   1.0000   1.0000   1.0000   1.0000   1.0000
     1.0000   1.0000

          k = 0.1250 0.3608 0.0000 (  3723 PWs)   bands (ev):

  -113.8755-113.8752 -68.2622 -68.2586 -68.2235 -68.2232 -68.2221 -68.2211
    -8.3257  -7.6550   3.2362   3.5037   3.8133   3.8851   4.0714   4.2595
     4.4953   4.7181   5.0093   5.2313   6.0833   6.4071   6.6728   6.9867
     8.0433   8.1333

     occupation numbers 
     1.0000   1.0000   1.0000   1.0000   1.0000   1.0000   1.0000   1.0000
     1.0000   1.0000   1.0000   1.0000   1.0000   1.0000   1.0000   1.0000
     1.0000   1.0000   1.0000   1.0000   1.0000   1.0000   1.0000   1.0000
     1.0000   1.0000

          k = 0.1250 0.3608 0.0920 (  3728 PWs)   bands (ev):

  -113.8754-113.8752 -68.2621 -68.2587 -68.2234 -68.2232 -68.2221 -68.2212
    -8.2963  -7.6752   3.2064   3.4240   3.8044   3.8512   4.0141   4.1740
     4.5311   4.7495   4.9967   5.1918   6.0123   6.5205   6.8173   7.0115
     7.9988   8.3697

     occupation numbers 
     1.0000   1.0000   1.0000   1.0000   1.0000   1.0000   1.0000   1.0000
     1.0000   1.0000   1.0000   1.0000   1.0000   1.0000   1.0000   1.0000
     1.0000   1.0000   1.0000   1.0000   1.0000   1.0000   1.0000   1.0000
     1.0000   1.0000

[...]

  -113.8754-113.8752 -68.2612 -68.2597 -68.2235 -68.2231 -68.2225 -68.2216
    -8.0125  -7.7362   3.3045   3.3116   3.8745   3.9016   4.0557   4.0910
     4.6375   4.7623   5.0004   5.0994   5.7792   5.9212   6.1362   7.0853
     7.8486   8.6067

     occupation numbers 
     1.0000   1.0000   1.0000   1.0000   1.0000   1.0000   1.0000   1.0000
     1.0000   1.0000   1.0000   1.0000   1.0000   1.0000   1.0000   1.0000
     1.0000   1.0000   1.0000   1.0000   1.0000   1.0000   1.0000   1.0000
     1.0000   1.0000

          k =-0.5000-0.0000 0.2760 (  3730 PWs)   bands (ev):

  -113.8753-113.8753 -68.2609 -68.2601 -68.2231 -68.2229 -68.2225 -68.2220
    -7.9342  -7.7836   3.1012   3.1318   3.8313   3.8326   4.0167   4.0345
     4.6931   4.7617   5.0076   5.0651   5.7873   5.8685   6.3411   6.8719
     8.5112   8.9493

     occupation numbers 
     1.0000   1.0000   1.0000   1.0000   1.0000   1.0000   1.0000   1.0000
     1.0000   1.0000   1.0000   1.0000   1.0000   1.0000   1.0000   1.0000
     1.0000   1.0000   1.0000   1.0000   1.0000   1.0000   1.0000   1.0000
     1.0000   1.0000

          k =-0.5000-0.0000-0.3681 (  3728 PWs)   bands (ev):

  -113.8753-113.8753 -68.2605 -68.2605 -68.2228 -68.2228 -68.2224 -68.2224
    -7.8525  -7.8524   3.0373   3.0373   3.8136   3.8136   4.0094   4.0094
     4.7365   4.7365   5.0326   5.0326   5.8210   5.8210   6.6097   6.6097
     8.9255   8.9255

     occupation numbers 
     1.0000   1.0000   1.0000   1.0000   1.0000   1.0000   1.0000   1.0000
     1.0000   1.0000   1.0000   1.0000   1.0000   1.0000   1.0000   1.0000
     1.0000   1.0000   1.0000   1.0000   1.0000   1.0000   1.0000   1.0000
     1.0000   1.0000

          k =-0.5000-0.0000-0.2760 (  3730 PWs)   bands (ev):

  -113.8753-113.8753 -68.2609 -68.2601 -68.2231 -68.2229 -68.2225 -68.2220
    -7.9341  -7.7836   3.1012   3.1318   3.8313   3.8326   4.0167   4.0345
     4.6931   4.7617   5.0076   5.0651   5.7873   5.8685   6.3411   6.8719
     8.5112   8.9493

     occupation numbers 
     1.0000   1.0000   1.0000   1.0000   1.0000   1.0000   1.0000   1.0000
     1.0000   1.0000   1.0000   1.0000   1.0000   1.0000   1.0000   1.0000
     1.0000   1.0000   1.0000   1.0000   1.0000   1.0000   1.0000   1.0000
     1.0000   1.0000

          k =-0.5000-0.0000-0.1840 (  3728 PWs)   bands (ev):

  -113.8754-113.8752 -68.2612 -68.2597 -68.2235 -68.2231 -68.2225 -68.2216
    -8.0125  -7.7362   3.3045   3.3116   3.8745   3.9016   4.0557   4.0910
     4.6375   4.7623   5.0004   5.0994   5.7792   5.9212   6.1362   7.0853
     7.8486   8.6067

     occupation numbers 
     1.0000   1.0000   1.0000   1.0000   1.0000   1.0000   1.0000   1.0000
     1.0000   1.0000   1.0000   1.0000   1.0000   1.0000   1.0000   1.0000
     1.0000   1.0000   1.0000   1.0000   1.0000   1.0000   1.0000   1.0000
     1.0000   1.0000

          k =-0.5000-0.0000-0.0920 (  3731 PWs)   bands (ev):

  -113.8754-113.8752 -68.2614 -68.2594 -68.2237 -68.2232 -68.2225 -68.2214
    -8.0691  -7.7103   3.4335   3.5477   3.9294   3.9872   4.1392   4.1731
     4.5807   4.7390   5.0140   5.1292   5.8392   5.8525   6.1832   7.0896
     7.2909   8.1160

     occupation numbers 
     1.0000   1.0000   1.0000   1.0000   1.0000   1.0000   1.0000   1.0000
     1.0000   1.0000   1.0000   1.0000   1.0000   1.0000   1.0000   1.0000
     1.0000   1.0000   1.0000   1.0000   1.0000   1.0000   1.0000   1.0000
     1.0000   1.0000

          k =-0.5000 0.1443-0.0000 (  3735 PWs)   bands (ev):

  -113.8754-113.8752 -68.2614 -68.2593 -68.2238 -68.2233 -68.2226 -68.2212
    -8.0836  -7.7069   3.3000   3.6653   4.0175   4.0441   4.1444   4.2729
     4.5453   4.7319   5.0237   5.0690   5.7655   5.9530   6.3378   6.7566
     7.6135   7.8602

     occupation numbers 
     1.0000   1.0000   1.0000   1.0000   1.0000   1.0000   1.0000   1.0000
     1.0000   1.0000   1.0000   1.0000   1.0000   1.0000   1.0000   1.0000
     1.0000   1.0000   1.0000   1.0000   1.0000   1.0000   1.0000   1.0000
     1.0000   1.0000

          k =-0.5000 0.1443 0.0920 (  3728 PWs)   bands (ev):

  -113.8754-113.8752 -68.2614 -68.2594 -68.2237 -68.2232 -68.2226 -68.2212
    -8.0633  -7.7143   3.2522   3.5783   3.9631   4.0259   4.0994   4.2114
     4.5774   4.7557   5.0072   5.0612   5.7076   5.8879   6.3445   7.1052
     7.5579   8.1116

     occupation numbers 
     1.0000   1.0000   1.0000   1.0000   1.0000   1.0000   1.0000   1.0000
     1.0000   1.0000   1.0000   1.0000   1.0000   1.0000   1.0000   1.0000
     1.0000   1.0000   1.0000   1.0000   1.0000   1.0000   1.0000   1.0000
     1.0000   1.0000

          k =-0.5000 0.1443 0.1840 (  3730 PWs)   bands (ev):

  -113.8754-113.8752 -68.2612 -68.2597 -68.2235 -68.2230 -68.2226 -68.2215
    -8.0077  -7.7389   3.1173   3.3536   3.8577   3.9760   4.0400   4.1129
     4.6412   4.7915   4.9756   5.0405   5.6602   5.7842   6.4857   7.4166
     7.7740   8.5803

     occupation numbers 
     1.0000   1.0000   1.0000   1.0000   1.0000   1.0000   1.0000   1.0000
     1.0000   1.0000   1.0000   1.0000   1.0000   1.0000   1.0000   1.0000
     1.0000   1.0000   1.0000   1.0000   1.0000   1.0000   1.0000   1.0000
     1.0000   1.0000

          k =-0.5000 0.1443 0.2760 (  3733 PWs)   bands (ev):

  -113.8753-113.8753 -68.2609 -68.2601 -68.2232 -68.2228 -68.2227 -68.2219
    -7.9309  -7.7844   2.9827   3.1101   3.8114   3.8923   4.0173   4.0505
     4.7075   4.7978   4.9632   5.0119   5.6649   5.7231   6.7154   7.2192
     8.4164   8.8938

     occupation numbers 
     1.0000   1.0000   1.0000   1.0000   1.0000   1.0000   1.0000   1.0000
     1.0000   1.0000   1.0000   1.0000   1.0000   1.0000   1.0000   1.0000
     1.0000   1.0000   1.0000   1.0000   1.0000   1.0000   1.0000   1.0000
     1.0000   1.0000

          k =-0.5000 0.1443-0.3681 (  3730 PWs)   bands (ev):

  -113.8753-113.8753 -68.2605 -68.2605 -68.2230 -68.2230 -68.2223 -68.2223
    -7.8512  -7.8511   2.9682   2.9683   3.8294   3.8294   4.0203   4.0203
     4.7639   4.7639   4.9817   4.9817   5.6892   5.6893   6.9739   6.9740
     8.8391   8.8391

     occupation numbers 
     1.0000   1.0000   1.0000   1.0000   1.0000   1.0000   1.0000   1.0000
     1.0000   1.0000   1.0000   1.0000   1.0000   1.0000   1.0000   1.0000
     1.0000   1.0000   1.0000   1.0000   1.0000   1.0000   1.0000   1.0000
     1.0000   1.0000

          k =-0.5000 0.1443-0.2760 (  3733 PWs)   bands (ev):

  -113.8753-113.8753 -68.2609 -68.2601 -68.2232 -68.2228 -68.2227 -68.2219
    -7.9309  -7.7844   2.9827   3.1101   3.8114   3.8923   4.0173   4.0505
     4.7075   4.7978   4.9632   5.0119   5.6649   5.7231   6.7154   7.2192
     8.4163   8.8938

     occupation numbers 
     1.0000   1.0000   1.0000   1.0000   1.0000   1.0000   1.0000   1.0000
     1.0000   1.0000   1.0000   1.0000   1.0000   1.0000   1.0000   1.0000
     1.0000   1.0000   1.0000   1.0000   1.0000   1.0000   1.0000   1.0000
     1.0000   1.0000

          k =-0.5000 0.1443-0.1840 (  3730 PWs)   bands (ev):

  -113.8754-113.8752 -68.2612 -68.2597 -68.2235 -68.2230 -68.2226 -68.2215
    -8.0077  -7.7389   3.1173   3.3536   3.8577   3.9760   4.0400   4.1129
     4.6412   4.7915   4.9756   5.0405   5.6602   5.7842   6.4857   7.4166
     7.7740   8.5803

     occupation numbers 
     1.0000   1.0000   1.0000   1.0000   1.0000   1.0000   1.0000   1.0000
     1.0000   1.0000   1.0000   1.0000   1.0000   1.0000   1.0000   1.0000
     1.0000   1.0000   1.0000   1.0000   1.0000   1.0000   1.0000   1.0000
     1.0000   1.0000

          k =-0.5000 0.1443-0.0920 (  3728 PWs)   bands (ev):

  -113.8754-113.8752 -68.2614 -68.2594 -68.2237 -68.2232 -68.2226 -68.2212
    -8.0633  -7.7143   3.2522   3.5783   3.9631   4.0259   4.0994   4.2114
     4.5774   4.7557   5.0072   5.0612   5.7076   5.8879   6.3446   7.1052
     7.5579   8.1116

     occupation numbers 
     1.0000   1.0000   1.0000   1.0000   1.0000   1.0000   1.0000   1.0000
     1.0000   1.0000   1.0000   1.0000   1.0000   1.0000   1.0000   1.0000
     1.0000   1.0000   1.0000   1.0000   1.0000   1.0000   1.0000   1.0000
     1.0000   1.0000

          k =-0.5000-0.8660-0.0000 (  3738 PWs)   bands (ev):

  -113.8754-113.8752 -68.2614 -68.2593 -68.2237 -68.2234 -68.2226 -68.2211
    -8.0773  -7.7115   3.1779   3.6544   4.0420   4.0695   4.1872   4.2285
     4.5490   4.7464   5.0200   5.0221   5.7299   5.8444   6.5963   6.7173
     7.8646   7.8665

     occupation numbers 
     1.0000   1.0000   1.0000   1.0000   1.0000   1.0000   1.0000   1.0000
     1.0000   1.0000   1.0000   1.0000   1.0000   1.0000   1.0000   1.0000
     1.0000   1.0000   1.0000   1.0000   1.0000   1.0000   1.0000   1.0000
     1.0000   1.0000

          k =-0.5000-0.8660 0.0920 (  3726 PWs)   bands (ev):

  -113.8754-113.8752 -68.2614 -68.2594 -68.2237 -68.2233 -68.2226 -68.2211
    -8.0574  -7.7185   3.1311   3.5659   3.9843   4.0369   4.1620   4.1688
     4.5784   4.7770   5.0001   5.0128   5.6740   5.7561   6.6613   7.0282
     7.8291   8.0933

     occupation numbers 
     1.0000   1.0000   1.0000   1.0000   1.0000   1.0000   1.0000   1.0000
     1.0000   1.0000   1.0000   1.0000   1.0000   1.0000   1.0000   1.0000
     1.0000   1.0000   1.0000   1.0000   1.0000   1.0000   1.0000   1.0000
     1.0000   1.0000

          k =-0.5000-0.8660 0.1840 (  3742 PWs)   bands (ev):

  -113.8754-113.8752 -68.2612 -68.2597 -68.2235 -68.2230 -68.2227 -68.2214
    -8.0028  -7.7417   3.0075   3.3320   3.8595   4.0261   4.0419   4.1095
     4.6452   4.8308   4.9449   4.9934   5.6113   5.6669   6.8343   7.6509
     7.7188   8.5356

     occupation numbers 
     1.0000   1.0000   1.0000   1.0000   1.0000   1.0000   1.0000   1.0000
     1.0000   1.0000   1.0000   1.0000   1.0000   1.0000   1.0000   1.0000
     1.0000   1.0000   1.0000   1.0000   1.0000   1.0000   1.0000   1.0000
     1.0000   1.0000

          k =-0.5000-0.8660 0.2760 (  3736 PWs)   bands (ev):

  -113.8753-113.8753 -68.2609 -68.2601 -68.2233 -68.2229 -68.2226 -68.2218
    -7.9276  -7.7853   2.8957   3.0686   3.8133   3.9230   4.0199   4.0603
     4.7228   4.8752   4.8812   4.9639   5.6003   5.6300   7.0686   7.5430
     8.2787   8.8124

     occupation numbers 
     1.0000   1.0000   1.0000   1.0000   1.0000   1.0000   1.0000   1.0000
     1.0000   1.0000   1.0000   1.0000   1.0000   1.0000   1.0000   1.0000
     1.0000   1.0000   1.0000   1.0000   1.0000   1.0000   1.0000   1.0000
     1.0000   1.0000

          k =-0.5000-0.8660-0.3681 (  3724 PWs)   bands (ev):

  -113.8753-113.8753 -68.2605 -68.2605 -68.2231 -68.2231 -68.2222 -68.2222
    -7.8499  -7.8498   2.9047   2.9047   3.8416   3.8416   4.0294   4.0294
     4.8004   4.8004   4.9259   4.9259   5.6123   5.6123   7.3173   7.3174
     8.7173   8.7173

     occupation numbers 
     1.0000   1.0000   1.0000   1.0000   1.0000   1.0000   1.0000   1.0000
     1.0000   1.0000   1.0000   1.0000   1.0000   1.0000   1.0000   1.0000
     1.0000   1.0000   1.0000   1.0000   1.0000   1.0000   1.0000   1.0000
     1.0000   1.0000

     highest occupied level (ev):     9.1760

!    total energy              =    -987.06387769 Ry
     Harris-Foulkes estimate   =    -987.06387771 Ry
     estimated scf accuracy    <       0.00000007 Ry

     The total energy is the sum of the following terms:

     one-electron contribution =    -792.43234294 Ry
     hartree contribution      =     418.56826103 Ry
     xc contribution           =     -98.09884916 Ry
     ewald contribution        =    -515.10094661 Ry

     convergence has been achieved in   7 iterations

     Forces acting on atoms (cartesian axes, Ry/au):

     atom    1 type  2   force =     0.00000008    0.00000146    0.00531791
     atom    2 type  2   force =     0.00000109    0.00000147    0.00531712
     atom    3 type  1   force =    -0.00000062   -0.00000126   -0.00532019
     atom    4 type  1   force =    -0.00000055   -0.00000167   -0.00531484
     The non-local contrib.  to forces
     atom    1 type  2   force =     0.00000125   -0.00000367    0.05839471
     atom    2 type  2   force =    -0.00000002    0.00000074    0.05839513
     atom    3 type  1   force =     0.00000041   -0.00000427    0.13541997
     atom    4 type  1   force =     0.00000295   -0.00000445    0.13541784
     The ionic contribution  to forces
     atom    1 type  2   force =    -0.00002519    0.00005331   -0.80820029
     atom    2 type  2   force =     0.00000704    0.00000165   -0.80819935
     atom    3 type  1   force =    -0.00001177   -0.00000708    0.80820455
     atom    4 type  1   force =     0.00002992   -0.00004789    0.80819509
     The local contribution  to forces
     atom    1 type  2   force =     0.00002276   -0.00005042    0.75555505
     atom    2 type  2   force =    -0.00000731   -0.00000263    0.75555380
     atom    3 type  1   force =     0.00001160    0.00001131   -0.94908322
     atom    4 type  1   force =    -0.00003064    0.00005300   -0.94907944
     The core correction contribution to forces
     atom    1 type  2   force =    -0.00000002    0.00000001   -0.00031274
     atom    2 type  2   force =     0.00000000   -0.00000001   -0.00031275
     atom    3 type  1   force =     0.00000000    0.00000000    0.00000000
     atom    4 type  1   force =     0.00000000    0.00000000    0.00000000
     The Hubbard contrib.    to forces
     atom    1 type  2   force =     0.00000000    0.00000000    0.00000000
     atom    2 type  2   force =     0.00000000    0.00000000    0.00000000
     atom    3 type  1   force =     0.00000000    0.00000000    0.00000000
     atom    4 type  1   force =     0.00000000    0.00000000    0.00000000
     The SCF correction term to forces
     atom    1 type  2   force =     0.00000000    0.00000000    0.00000000
     atom    2 type  2   force =     0.00000000    0.00000000    0.00000000
     atom    3 type  1   force =     0.00000000    0.00000000    0.00000000
     atom    4 type  1   force =     0.00000000    0.00000000    0.00000000

     Total force =     0.000000     Total SCF correction =     0.000000


     Computing stress (Cartesian axis) and pressure

          total   stress  (Ry/bohr**3)                   (kbar)     P=   -0.27
   0.00000041   0.00000000   0.00000002          0.06      0.00      0.00
   0.00000000   0.00000041  -0.00000000          0.00      0.06     -0.00
   0.00000002  -0.00000000  -0.00000640          0.00     -0.00     -0.94

     kinetic stress (kbar)  34916.84     -0.00      0.00
                               -0.00  34916.84     -0.00
                                0.00     -0.00  35324.05

     local   stress (kbar)    802.77     -0.07      0.03
                               -0.07    802.52     -0.03
                                0.03     -0.03 -10726.39

     nonloc. stress (kbar)  -1716.97     -0.00     -0.00
                               -0.00  -1716.97      0.00
                               -0.00      0.00  -1871.19

     hartree stress (kbar)  64441.52      0.03     -0.01
                                0.03  64441.63      0.01
                               -0.01      0.01  70794.20

     exc-cor stress (kbar) -14634.59      0.00     -0.00
                                0.00 -14634.59      0.00
                               -0.00      0.00 -14639.65

     corecor stress (kbar)   -257.31     -0.00     -0.00
                               -0.00   -257.31      0.00
                               -0.00      0.00   -258.07

     ewald   stress (kbar) -83552.18      0.04     -0.01
                                0.04 -83552.04      0.02
                               -0.01      0.02 -78623.88

     hubbard stress (kbar)      0.00      0.00      0.00
                                0.00      0.00      0.00
                                0.00      0.00      0.00

     london  stress (kbar)      0.00      0.00      0.00
                                0.00      0.00      0.00
                                0.00      0.00      0.00

     DFT-D3  stress (kbar)      0.00      0.00      0.00
                                0.00      0.00      0.00
                                0.00      0.00      0.00

     XDM     stress (kbar)      0.00      0.00      0.00
                                0.00      0.00      0.00
                                0.00      0.00      0.00

     dft-nl  stress (kbar)      0.00      0.00      0.00
                                0.00      0.00      0.00
                                0.00      0.00      0.00

     TS-vdW  stress (kbar)      0.00      0.00      0.00
                                0.00      0.00      0.00
                                0.00      0.00      0.00



     Writing output data file ZnO.save/
 
     init_run     :      0.51s CPU      0.77s WALL (       1 calls)
     electrons    :      7.20s CPU      7.67s WALL (       1 calls)
     forces       :      0.15s CPU      0.16s WALL (       1 calls)
     stress       :      0.27s CPU      0.28s WALL (       1 calls)

     Called by init_run:
     wfcinit      :      0.37s CPU      0.48s WALL (       1 calls)
     wfcinit:atom :      0.00s CPU      0.00s WALL (      65 calls)
     wfcinit:wfcr :      0.35s CPU      0.46s WALL (      65 calls)
     potinit      :      0.06s CPU      0.07s WALL (       1 calls)
     hinit0       :      0.06s CPU      0.16s WALL (       1 calls)

     Called by electrons:
     c_bands      :      6.09s CPU      6.47s WALL (       7 calls)
     sum_band     :      0.86s CPU      0.91s WALL (       7 calls)
     v_of_rho     :      0.22s CPU      0.24s WALL (       8 calls)
     v_h          :      0.00s CPU      0.00s WALL (       8 calls)
     v_xc         :      0.27s CPU      0.28s WALL (      10 calls)
     newd         :      0.03s CPU      0.05s WALL (       8 calls)
     mix_rho      :      0.01s CPU      0.02s WALL (       7 calls)

     Called by c_bands:
     init_us_2    :      0.07s CPU      0.08s WALL (    1105 calls)
     cegterg      :      5.72s CPU      5.95s WALL (     455 calls)

     Called by sum_band:
     sum_band:bec :      0.01s CPU      0.01s WALL (     455 calls)
     addusdens    :      0.03s CPU      0.04s WALL (       7 calls)

     Called by *egterg:
     h_psi        :      3.61s CPU      3.74s WALL (    1484 calls)
     s_psi        :      0.11s CPU      0.12s WALL (    1484 calls)
     g_psi        :      0.01s CPU      0.01s WALL (     964 calls)
     cdiaghg      :      1.49s CPU      1.63s WALL (    1419 calls)
     cegterg:over :      0.35s CPU      0.40s WALL (     964 calls)
     cegterg:upda :      0.20s CPU      0.20s WALL (     964 calls)
     cegterg:last :      0.13s CPU      0.13s WALL (     455 calls)
     cdiaghg:chol :      0.09s CPU      0.12s WALL (    1419 calls)
     cdiaghg:inve :      0.02s CPU      0.03s WALL (    1419 calls)
     cdiaghg:para :      0.15s CPU      0.16s WALL (    2838 calls)

     Called by h_psi:
     h_psi:pot    :      3.60s CPU      3.73s WALL (    1484 calls)
     h_psi:calbec :      0.19s CPU      0.20s WALL (    1484 calls)
     vloc_psi     :      3.29s CPU      3.40s WALL (    1484 calls)
     add_vuspsi   :      0.11s CPU      0.12s WALL (    1484 calls)

     General routines
     calbec       :      0.31s CPU      0.32s WALL (    2264 calls)
     fft          :      0.04s CPU      0.07s WALL (     127 calls)
     ffts         :      0.00s CPU      0.00s WALL (      15 calls)
     fftw         :      3.74s CPU      3.87s WALL (   74420 calls)
     interpolate  :      0.00s CPU      0.00s WALL (       8 calls)
 
     Parallel routines
     fft_scatt_xy :      0.60s CPU      0.62s WALL (   74562 calls)
     fft_scatt_yz :      1.86s CPU      1.93s WALL (   74562 calls)
 
     PWSCF        :      8.44s CPU     10.17s WALL

 
   This run was terminated on:  15:11:52  16Jun2022            

=------------------------------------------------------------------------------=
   JOB DONE.
=------------------------------------------------------------------------------=
