
     Program PWSCF v.6.4.1 starts on 15Jul2022 at  2:10:39 

     This program is part of the open-source Quantum ESPRESSO suite
     for quantum simulation of materials; please cite
         "P. Giannozzi et al., J. Phys.:Condens. Matter 21 395502 (2009);
         "P. Giannozzi et al., J. Phys.:Condens. Matter 29 465901 (2017);
          URL http://www.quantum-espresso.org", 
     in publications or presentations arising from this work. More details at
     http://www.quantum-espresso.org/quote

     Parallel version (MPI), running on   128 processors

     MPI processes distributed on     2 nodes
     R & G space division:  proc/nbgrp/npool/nimage =     128
     Waiting for input...
     Reading input from standard input
Warning: card &IONS ignored
Warning: card   UPSCALE           = 100.D0, ignored
Warning: card / ignored
Warning: card &CELL ignored
Warning: card   CELL_DYNAMICS     = 'BFGS' ignored
Warning: card   PRESS_CONV_THR    = 0.5D0 ignored
Warning: card   CELL_DOFREE = 'ALL' ignored
Warning: card / ignored

     Current dimensions of program PWSCF are:
     Max number of different atomic species (ntypx) = 10
     Max number of k-points (npk) =  40000
     Max angular momentum in pseudopotentials (lmaxx) =  3

     Atomic positions and unit cell read from directory:
     ./temp/ZnO.save/
 

     Subspace diagonalization in iterative solution of the eigenvalue problem:
     one sub-group per band group will be used
     scalapack distributed-memory algorithm (size of sub-group:  8*  8 procs)

 
     Parallelization info
     --------------------
     sticks:   dense  smooth     PW     G-vecs:    dense   smooth      PW
     Min          91      43     12                 8407     2790     414
     Max          92      44     13                 8415     2800     421
     Sum       11705    5623   1573              1076523   357953   53339
 


     bravais-lattice index     =            0
     lattice parameter (alat)  =      18.4233  a.u.
     unit-cell volume          =    5701.3510 (a.u.)^3
     number of atoms/cell      =           72
     number of atomic types    =            3
     number of electrons       =       796.00
     number of Kohn-Sham states=          398
     kinetic-energy cutoff     =      60.0000  Ry
     charge density cutoff     =     500.0000  Ry
     Exchange-correlation      = SLA  PW   PSX  PSC ( 1  4 10  8 0 0)
     Using LIBXC version       =    4   3   4

     celldm(1)=  18.423338  celldm(2)=   0.000000  celldm(3)=   0.000000
     celldm(4)=   0.000000  celldm(5)=   0.000000  celldm(6)=   0.000000

     crystal axes: (cart. coord. in units of alat)
               a(1) = (   1.000000   0.000410  -0.000414 )  
               a(2) = (  -0.499644   0.866141   0.000428 )  
               a(3) = (  -0.000442   0.000273   1.052402 )  

     reciprocal axes: (cart. coord. in units 2 pi/alat)
               b(1) = (  0.999764  0.576725  0.000270 )  
               b(2) = ( -0.000473  1.154273 -0.000299 )  
               b(3) = (  0.000393 -0.000243  0.950208 )  


     PseudoPot. # 1 for Zn read from file:
     ./GBRV_PBEsol/zn_pbesol_v1.uspp.F.UPF
     MD5 check sum: 7d8615e52efe7c1e2b1899de8658bae2
     Pseudo is Ultrasoft, Zval = 20.0
     Generated by new atomic code, or converted to UPF format
     Using radial grid of  943 points,  6 beta functions with: 
                l(1) =   0
                l(2) =   0
                l(3) =   1
                l(4) =   1
                l(5) =   2
                l(6) =   2
     Q(r) pseudized with  8 coefficients,  rinner =    1.100   1.100   1.100
                                                       1.100   1.100

     PseudoPot. # 2 for O  read from file:
     ./GBRV_PBEsol/o_pbesol_v1.2.uspp.F.UPF
     MD5 check sum: 501638753501ef6325af9037351f7734
     Pseudo is Ultrasoft + core correction, Zval =  6.0
     Generated by new atomic code, or converted to UPF format
     Using radial grid of  737 points,  5 beta functions with: 
                l(1) =   0
                l(2) =   0
                l(3) =   1
                l(4) =   1
                l(5) =   2
     Q(r) pseudized with  8 coefficients,  rinner =    0.900   0.900   0.900
                                                       0.900   0.900

     PseudoPot. # 3 for Mg read from file:
     ./GBRV_PBEsol/mg_pbesol_v1.4.uspp.F.UPF
     MD5 check sum: 4059f37963cf5867752dbf5ab2400678
     Pseudo is Ultrasoft, Zval = 10.0
     Generated by new atomic code, or converted to UPF format
     Using radial grid of  821 points,  7 beta functions with: 
                l(1) =   0
                l(2) =   0
                l(3) =   0
                l(4) =   1
                l(5) =   1
                l(6) =   2
                l(7) =   2
     Q(r) pseudized with  8 coefficients,  rinner =    1.200   1.200   1.200
                                                       1.200   1.200

     atomic species   valence    mass     pseudopotential
        Zn            20.00    65.38000     Zn( 1.00)
        O              6.00    15.99900     O ( 1.00)
        Mg            10.00    24.30500     Mg( 1.00)

     No symmetry found


                                    s                        frac. trans.

      isym =  1     identity                                     

 cryst.   s( 1) = (     1          0          0      )
                  (     0          1          0      )
                  (     0          0          1      )

 cart.    s( 1) = (  1.0000000  0.0000000 -0.0000000 )
                  (  0.0000000  1.0000000 -0.0000000 )
                  ( -0.0000000 -0.0000000  1.0000000 )


   Cartesian axes

     site n.     atom                  positions (alat units)
         1           Zn  tau(   1) = (   0.1662851   0.0972637   0.2054993  )
         2           Zn  tau(   2) = (   0.1676691   0.0960778   0.7321046  )
         3           Zn  tau(   3) = (   0.0018957   0.3863108   0.2061179  )
         4           Zn  tau(   4) = (  -0.0009959   0.3853236   0.7313591  )
         5           Zn  tau(   5) = (  -0.1662239   0.6731481   0.2035272  )
         6           Mg  tau(   6) = (  -0.1656390   0.6765446   0.7329342  )
         7           Zn  tau(   7) = (   0.5011015   0.0965641   0.2053261  )
         8           Zn  tau(   8) = (   0.4993655   0.0973408   0.7317893  )
         9           Mg  tau(   9) = (   0.3329316   0.3861227   0.2051705  )
        10           Mg  tau(  10) = (   0.3335269   0.3849411   0.7308193  )
        11           Mg  tau(  11) = (   0.1651191   0.6727757   0.2066022  )
        12           Zn  tau(  12) = (   0.1670768   0.6754837   0.7280653  )
        13           Mg  tau(  13) = (   0.8337610   0.0980821   0.2029000  )
        14           Mg  tau(  14) = (   0.8344259   0.0966343   0.7300144  )
        15           Zn  tau(  15) = (   0.6668873   0.3854483   0.2027210  )
        16           Mg  tau(  16) = (   0.6658040   0.3868228   0.7340834  )
        17           Zn  tau(  17) = (   0.4977774   0.6739127   0.2057423  )
        18           Zn  tau(  18) = (   0.5015582   0.6742752   0.7312009  )
        19           Zn  tau(  19) = (  -0.0018289   0.1928622   0.4691590  )
        20           Zn  tau(  20) = (   0.0004272   0.1922519   0.9945687  )
        21           Mg  tau(  21) = (  -0.1688704   0.4818461   0.4684830  )
        22           Zn  tau(  22) = (  -0.1650333   0.4811700   0.9930769  )
        23           Zn  tau(  23) = (  -0.3316807   0.7695480   0.4677266  )
        24           Mg  tau(  24) = (  -0.3351846   0.7695187   0.9975211  )
        25           Zn  tau(  25) = (   0.3327578   0.1921214   0.4670550  )
        26           Mg  tau(  26) = (   0.3330091   0.1922192   0.9955376  )
        27           Mg  tau(  27) = (   0.1652168   0.4794612   0.4696528  )
        28           Zn  tau(  28) = (   0.1662119   0.4824717   0.9922064  )
        29           Zn  tau(  29) = (  -0.0018691   0.7704453   0.4689030  )
        30           Zn  tau(  30) = (   0.0022508   0.7695295   0.9950501  )
        31           Mg  tau(  31) = (   0.6647625   0.1944189   0.4684158  )
        32           Zn  tau(  32) = (   0.6672154   0.1912677   0.9919351  )
        33           Zn  tau(  33) = (   0.5019478   0.4802570   0.4688668  )
        34           Zn  tau(  34) = (   0.4980176   0.4827707   0.9944858  )
        35           Mg  tau(  35) = (   0.3351477   0.7707978   0.4675050  )
        36           Mg  tau(  36) = (   0.3318304   0.7679071   0.9926047  )
        37           O   tau(  37) = (   0.1673080   0.0955637   0.0025027  )
        38           O   tau(  38) = (   0.1658889   0.0961847   0.5285693  )
        39           O   tau(  39) = (   0.0009550   0.3846480   0.0026528  )
        40           O   tau(  40) = (  -0.0020671   0.3855770   0.5280754  )
        41           O   tau(  41) = (  -0.1661296   0.6738182   0.0002969  )
        42           O   tau(  42) = (  -0.1667333   0.6732483   0.5311070  )
        43           O   tau(  43) = (   0.5007906   0.0962200   0.0020418  )
        44           O   tau(  44) = (   0.4991886   0.0966729   0.5283929  )
        45           O   tau(  45) = (   0.3326981   0.3843700   0.0026516  )
        46           O   tau(  46) = (   0.3330420   0.3850263   0.5285103  )
        47           O   tau(  47) = (   0.1675287   0.6728304   0.0047020  )
        48           O   tau(  48) = (   0.1675281   0.6736282   0.5246155  )
        49           O   tau(  49) = (   0.8339169   0.0942865   0.0004890  )
        50           O   tau(  50) = (   0.8311812   0.0964011   0.5277518  )
        51           O   tau(  51) = (   0.6671039   0.3848291  -0.0008114  )
        52           O   tau(  52) = (   0.6672671   0.3850312   0.5317701  )
        53           O   tau(  53) = (   0.4988409   0.6741117   0.0025823  )
        54           O   tau(  54) = (   0.5009511   0.6739189   0.5278383  )
        55           O   tau(  55) = (  -0.0003708   0.1931558   0.2655672  )
        56           O   tau(  56) = (   0.0002471   0.1928422   0.7913900  )
        57           O   tau(  57) = (  -0.1667103   0.4811866   0.2662310  )
        58           O   tau(  58) = (  -0.1671342   0.4833079   0.7899435  )
        59           O   tau(  59) = (  -0.3335688   0.7695908   0.2641015  )
        60           O   tau(  60) = (  -0.3326889   0.7702737   0.7952089  )
        61           O   tau(  61) = (   0.3337407   0.1934170   0.2635365  )
        62           O   tau(  62) = (   0.3333610   0.1936833   0.7937192  )
        63           O   tau(  63) = (   0.1678447   0.4817236   0.2679957  )
        64           O   tau(  64) = (   0.1667976   0.4822234   0.7887021  )
        65           O   tau(  65) = (  -0.0007661   0.7701367   0.2655748  )
        66           O   tau(  66) = (   0.0014943   0.7710625   0.7919614  )
        67           O   tau(  67) = (   0.6675988   0.1933868   0.2662338  )
        68           O   tau(  68) = (   0.6677778   0.1933506   0.7886228  )
        69           O   tau(  69) = (   0.5002236   0.4811298   0.2652486  )
        70           O   tau(  70) = (   0.4988185   0.4817478   0.7915111  )
        71           O   tau(  71) = (   0.3313144   0.7718373   0.2649034  )
        72           O   tau(  72) = (   0.3338794   0.7707788   0.7904770  )

   Crystallographic axes

     site n.     atom                  positions (cryst. coord.)
         1           Zn  tau(   1) = (  0.2223958  0.1121288  0.1953089  )
         2           Zn  tau(   2) = (  0.2232378  0.1106016  0.6956941  )
         3           Zn  tau(   3) = (  0.2247461  0.4458456  0.1957619  )
         4           Zn  tau(   4) = (  0.2214277  0.4445503  0.6948492  )
         5           Zn  tau(   5) = (  0.2220916  0.7770144  0.1931645  )
         6           Mg  tau(   6) = (  0.2247783  0.7807763  0.6962105  )
         7           Zn  tau(   7) = (  0.5567297  0.1111629  0.1952761  )
         8           Zn  tau(   8) = (  0.5555842  0.1119026  0.6955246  )
         9           Mg  tau(   9) = (  0.5555951  0.4454722  0.1949919  )
        10           Mg  tau(  10) = (  0.5556508  0.4439507  0.6944679  )
        11           Mg  tau(  11) = (  0.5531425  0.7764269  0.1962168  )
        12           Zn  tau(  12) = (  0.5568024  0.7793957  0.6917151  )
        13           Mg  tau(  13) = (  0.8901855  0.1127584  0.1931013  )
        14           Mg  tau(  14) = (  0.8901576  0.1109292  0.6939701  )
        15           Zn  tau(  15) = (  0.8890823  0.4445365  0.1927958  )
        16           Mg  tau(  16) = (  0.8889356  0.4459645  0.6976997  )
        17           Zn  tau(  17) = (  0.8863779  0.7775822  0.1955302  )
        18           Zn  tau(  18) = (  0.8905087  0.7778416  0.6948265  )
        19           Zn  tau(  19) = (  0.1095267  0.2224761  0.4457510  )
        20           Zn  tau(  20) = (  0.1115723  0.2216133  0.9450004  )
        21           Mg  tau(  21) = (  0.1091887  0.5561216  0.4449729  )
        22           Zn  tau(  22) = (  0.1127767  0.5551825  0.9434477  )
        23           Zn  tau(  23) = (  0.1123415  0.8882854  0.4441204  )
        24           Mg  tau(  24) = (  0.1089646  0.8880947  0.9475338  )
        25           Zn  tau(  25) = (  0.4436067  0.2214633  0.4438835  )
        26           Mg  tau(  26) = (  0.4440571  0.2214180  0.9460518  )
        27           Mg  tau(  27) = (  0.4418220  0.5532104  0.4462165  )
        28           Zn  tau(  28) = (  0.4446942  0.5565285  0.9427505  )
        29           Zn  tau(  29) = (  0.4425931  0.8891648  0.4453677  )
        30           Zn  tau(  30) = (  0.4463260  0.8879483  0.9453186  )
        31           Mg  tau(  31) = (  0.7768584  0.2239579  0.4453066  )
        32           Zn  tau(  32) = (  0.7776348  0.2201626  0.9427605  )
        33           Zn  tau(  33) = (  0.7789322  0.5539700  0.4456018  )
        34           Zn  tau(  34) = (  0.7765947  0.5567161  0.9450469  )
        35           Mg  tau(  35) = (  0.7797333  0.8894127  0.4441717  )
        36           Mg  tau(  36) = (  0.7748915  0.8859204  0.9431249  )
        37           O   tau(  37) = (  0.2223832  0.1102267  0.0024207  )
        38           O   tau(  38) = (  0.2214646  0.1107867  0.5022926  )
        39           O   tau(  39) = (  0.2227917  0.4439876  0.0024278  )
        40           O   tau(  40) = (  0.2204479  0.4449040  0.5016871  )
        41           O   tau(  41) = (  0.2225175  0.7778486  0.0000534  )
        42           O   tau(  42) = (  0.2217287  0.7770323  0.5044331  )
        43           O   tau(  43) = (  0.5561655  0.1108267  0.0021137  )
        44           O   tau(  44) = (  0.5549672  0.1111927  0.5022559  )
        45           O   tau(  45) = (  0.5542961  0.4435098  0.0025572  )
        46           O   tau(  46) = (  0.5551605  0.4441098  0.5022321  )
        47           O   tau(  47) = (  0.5555285  0.7765493  0.0043706  )
        48           O   tau(  48) = (  0.5561285  0.7773146  0.4983962  )
        49           O   tau(  49) = (  0.8880976  0.1084378  0.0007697  )
        50           O   tau(  50) = (  0.8867245  0.1107220  0.5017773  )
        51           O   tau(  51) = (  0.8888869  0.4438826 -0.0006020  )
        52           O   tau(  52) = (  0.8893104  0.4439563  0.5054611  )
        53           O   tau(  53) = (  0.8875009  0.7778723  0.0024864  )
        54           O   tau(  54) = (  0.8896414  0.7774915  0.5015896  )
        55           O   tau(  55) = (  0.1110989  0.2228753  0.2522971  )
        56           O   tau(  56) = (  0.1116778  0.2223557  0.7519382  )
        57           O   tau(  57) = (  0.1109133  0.5554199  0.2527925  )
        58           O   tau(  58) = (  0.1118544  0.5577119  0.7504275  )
        59           O   tau(  59) = (  0.1104235  0.8883967  0.2506335  )
        60           O   tau(  60) = (  0.1118406  0.8890256  0.7552960  )
        61           O   tau(  61) = (  0.4452816  0.2230193  0.2504987  )
        62           O   tau(  62) = (  0.4451987  0.2231682  0.7542822  )
        63           O   tau(  63) = (  0.4456996  0.5558809  0.2546007  )
        64           O   tau(  64) = (  0.4450816  0.5563026  0.7493795  )
        65           O   tau(  65) = (  0.4434629  0.8888690  0.2521642  )
        66           O   tau(  66) = (  0.4463989  0.8897790  0.7523414  )
        67           O   tau(  67) = (  0.7790441  0.2228257  0.2531931  )
        68           O   tau(  68) = (  0.7793434  0.2226276  0.7495713  )
        69           O   tau(  69) = (  0.7776568  0.5550392  0.2521213  )
        70           O   tau(  70) = (  0.7767506  0.5555957  0.7521793  )
        71           O   tau(  71) = (  0.7764456  0.8906749  0.2516564  )
        72           O   tau(  72) = (  0.7785416  0.8892947  0.7510618  )

     number of k points=    80
                       cart. coord. in units 2pi/alat
        k(    1) = (   0.0000000   0.0000000   0.0000000), wk =   0.0156250
        k(    2) = (   0.0000562  -0.0000346   0.1357440), wk =   0.0156250
        k(    3) = (   0.0001124  -0.0000693   0.2714879), wk =   0.0156250
        k(    4) = (   0.0001686  -0.0001039   0.4072319), wk =   0.0156250
        k(    5) = (   0.0002247  -0.0001386   0.5429758), wk =   0.0156250
        k(    6) = (   0.0002809  -0.0001732   0.6787198), wk =   0.0156250
        k(    7) = (   0.0003371  -0.0002079   0.8144638), wk =   0.0156250
        k(    8) = (   0.0003933  -0.0002425   0.9502077), wk =   0.0156250
        k(    9) = (  -0.0001183   0.2885683  -0.0000748), wk =   0.0312500
        k(   10) = (  -0.0000621   0.2885336   0.1356692), wk =   0.0312500
        k(   11) = (  -0.0000059   0.2884990   0.2714131), wk =   0.0312500
        k(   12) = (   0.0000503   0.2884643   0.4071571), wk =   0.0312500
        k(   13) = (   0.0001065   0.2884297   0.5429010), wk =   0.0312500
        k(   14) = (   0.0001627   0.2883950   0.6786450), wk =   0.0312500
        k(   15) = (   0.0002188   0.2883604   0.8143890), wk =   0.0312500
        k(   16) = (   0.0002750   0.2883257   0.9501329), wk =   0.0312500
        k(   17) = (   0.0002365  -0.5771365   0.0001496), wk =   0.0156250
        k(   18) = (   0.0002927  -0.5771712   0.1358936), wk =   0.0156250
        k(   19) = (   0.0003489  -0.5772058   0.2716375), wk =   0.0156250
        k(   20) = (   0.0004051  -0.5772405   0.4073815), wk =   0.0156250
        k(   21) = (   0.0004613  -0.5772751   0.5431255), wk =   0.0156250
        k(   22) = (   0.0005174  -0.5773097   0.6788694), wk =   0.0156250
        k(   23) = (   0.0005736  -0.5773444   0.8146134), wk =   0.0156250
        k(   24) = (   0.0006298  -0.5773790   0.9503574), wk =   0.0156250
        k(   25) = (   0.2499410   0.1441813   0.0000675), wk =   0.0312500
        k(   26) = (   0.2499972   0.1441466   0.1358115), wk =   0.0312500
        k(   27) = (   0.2500534   0.1441120   0.2715555), wk =   0.0312500
        k(   28) = (   0.2501096   0.1440773   0.4072994), wk =   0.0312500
        k(   29) = (   0.2501657   0.1440427   0.5430434), wk =   0.0312500
        k(   30) = (   0.2502219   0.1440080   0.6787873), wk =   0.0312500
        k(   31) = (   0.2502781   0.1439734   0.8145313), wk =   0.0312500
        k(   32) = (   0.2503343   0.1439387   0.9502753), wk =   0.0312500
        k(   33) = (   0.2498227   0.4327495  -0.0000073), wk =   0.0312500
        k(   34) = (   0.2498789   0.4327149   0.1357367), wk =   0.0312500
        k(   35) = (   0.2499351   0.4326802   0.2714807), wk =   0.0312500
        k(   36) = (   0.2499913   0.4326456   0.4072246), wk =   0.0312500
        k(   37) = (   0.2500475   0.4326109   0.5429686), wk =   0.0312500
        k(   38) = (   0.2501037   0.4325763   0.6787125), wk =   0.0312500
        k(   39) = (   0.2501598   0.4325417   0.8144565), wk =   0.0312500
        k(   40) = (   0.2502160   0.4325070   0.9502005), wk =   0.0312500
        k(   41) = (   0.2501775  -0.4329553   0.0002172), wk =   0.0312500
        k(   42) = (   0.2502337  -0.4329899   0.1359611), wk =   0.0312500
        k(   43) = (   0.2502899  -0.4330245   0.2717051), wk =   0.0312500
        k(   44) = (   0.2503461  -0.4330592   0.4074490), wk =   0.0312500
        k(   45) = (   0.2504023  -0.4330938   0.5431930), wk =   0.0312500
        k(   46) = (   0.2504584  -0.4331285   0.6789370), wk =   0.0312500
        k(   47) = (   0.2505146  -0.4331631   0.8146809), wk =   0.0312500
        k(   48) = (   0.2505708  -0.4331978   0.9504249), wk =   0.0312500
        k(   49) = (   0.2500593  -0.1443870   0.0001424), wk =   0.0312500
        k(   50) = (   0.2501154  -0.1444216   0.1358863), wk =   0.0312500
        k(   51) = (   0.2501716  -0.1444563   0.2716303), wk =   0.0312500
        k(   52) = (   0.2502278  -0.1444909   0.4073742), wk =   0.0312500
        k(   53) = (   0.2502840  -0.1445256   0.5431182), wk =   0.0312500
        k(   54) = (   0.2503402  -0.1445602   0.6788622), wk =   0.0312500
        k(   55) = (   0.2503964  -0.1445949   0.8146061), wk =   0.0312500
        k(   56) = (   0.2504525  -0.1446295   0.9503501), wk =   0.0312500
        k(   57) = (  -0.4998820  -0.2883625  -0.0001351), wk =   0.0156250
        k(   58) = (  -0.4998258  -0.2883972   0.1356089), wk =   0.0156250
        k(   59) = (  -0.4997696  -0.2884318   0.2713528), wk =   0.0156250
        k(   60) = (  -0.4997134  -0.2884664   0.4070968), wk =   0.0156250
        k(   61) = (  -0.4996573  -0.2885011   0.5428408), wk =   0.0156250
        k(   62) = (  -0.4996011  -0.2885357   0.6785847), wk =   0.0156250
        k(   63) = (  -0.4995449  -0.2885704   0.8143287), wk =   0.0156250
        k(   64) = (  -0.4994887  -0.2886050   0.9500727), wk =   0.0156250
        k(   65) = (  -0.5000003   0.0002057  -0.0002099), wk =   0.0312500
        k(   66) = (  -0.4999441   0.0001711   0.1355341), wk =   0.0312500
        k(   67) = (  -0.4998879   0.0001365   0.2712780), wk =   0.0312500
        k(   68) = (  -0.4998317   0.0001018   0.4070220), wk =   0.0312500
        k(   69) = (  -0.4997755   0.0000672   0.5427660), wk =   0.0312500
        k(   70) = (  -0.4997193   0.0000325   0.6785099), wk =   0.0312500
        k(   71) = (  -0.4996631  -0.0000021   0.8142539), wk =   0.0312500
        k(   72) = (  -0.4996070  -0.0000368   0.9499978), wk =   0.0312500
        k(   73) = (  -0.4996455  -0.8654990   0.0000145), wk =   0.0156250
        k(   74) = (  -0.4995893  -0.8655337   0.1357585), wk =   0.0156250
        k(   75) = (  -0.4995331  -0.8655683   0.2715025), wk =   0.0156250
        k(   76) = (  -0.4994769  -0.8656030   0.4072464), wk =   0.0156250
        k(   77) = (  -0.4994207  -0.8656376   0.5429904), wk =   0.0156250
        k(   78) = (  -0.4993646  -0.8656723   0.6787344), wk =   0.0156250
        k(   79) = (  -0.4993084  -0.8657069   0.8144783), wk =   0.0156250
        k(   80) = (  -0.4992522  -0.8657415   0.9502223), wk =   0.0156250

                       cryst. coord.
        k(    1) = (   0.0000000   0.0000000   0.0000000), wk =   0.0156250
        k(    2) = (  -0.0000000   0.0000000   0.1428571), wk =   0.0156250
        k(    3) = (  -0.0000000   0.0000000   0.2857143), wk =   0.0156250
        k(    4) = (  -0.0000000   0.0000000   0.4285714), wk =   0.0156250
        k(    5) = (  -0.0000000   0.0000000   0.5714286), wk =   0.0156250
        k(    6) = (  -0.0000000  -0.0000000   0.7142857), wk =   0.0156250
        k(    7) = (  -0.0000000   0.0000000   0.8571429), wk =   0.0156250
        k(    8) = (  -0.0000000   0.0000000   1.0000000), wk =   0.0156250
        k(    9) = (   0.0000000   0.2500000  -0.0000000), wk =   0.0312500
        k(   10) = (  -0.0000000   0.2500000   0.1428571), wk =   0.0312500
        k(   11) = (  -0.0000000   0.2500000   0.2857143), wk =   0.0312500
        k(   12) = (   0.0000000   0.2500000   0.4285714), wk =   0.0312500
        k(   13) = (   0.0000000   0.2500000   0.5714286), wk =   0.0312500
        k(   14) = (  -0.0000000   0.2500000   0.7142857), wk =   0.0312500
        k(   15) = (   0.0000000   0.2500000   0.8571429), wk =   0.0312500
        k(   16) = (  -0.0000000   0.2500000   1.0000000), wk =   0.0312500
        k(   17) = (  -0.0000000  -0.5000000   0.0000000), wk =   0.0156250
        k(   18) = (  -0.0000000  -0.5000000   0.1428571), wk =   0.0156250
        k(   19) = (  -0.0000000  -0.5000000   0.2857143), wk =   0.0156250
        k(   20) = (  -0.0000000  -0.5000000   0.4285714), wk =   0.0156250
        k(   21) = (  -0.0000000  -0.5000000   0.5714286), wk =   0.0156250
        k(   22) = (  -0.0000000  -0.5000000   0.7142857), wk =   0.0156250
        k(   23) = (  -0.0000000  -0.5000000   0.8571429), wk =   0.0156250
        k(   24) = (  -0.0000000  -0.5000000   1.0000000), wk =   0.0156250
        k(   25) = (   0.2500000  -0.0000000   0.0000000), wk =   0.0312500
        k(   26) = (   0.2500000  -0.0000000   0.1428571), wk =   0.0312500
        k(   27) = (   0.2500000   0.0000000   0.2857143), wk =   0.0312500
        k(   28) = (   0.2500000   0.0000000   0.4285714), wk =   0.0312500
        k(   29) = (   0.2500000   0.0000000   0.5714286), wk =   0.0312500
        k(   30) = (   0.2500000  -0.0000000   0.7142857), wk =   0.0312500
        k(   31) = (   0.2500000   0.0000000   0.8571429), wk =   0.0312500
        k(   32) = (   0.2500000   0.0000000   1.0000000), wk =   0.0312500
        k(   33) = (   0.2500000   0.2500000  -0.0000000), wk =   0.0312500
        k(   34) = (   0.2500000   0.2500000   0.1428571), wk =   0.0312500
        k(   35) = (   0.2500000   0.2500000   0.2857143), wk =   0.0312500
        k(   36) = (   0.2500000   0.2500000   0.4285714), wk =   0.0312500
        k(   37) = (   0.2500000   0.2500000   0.5714286), wk =   0.0312500
        k(   38) = (   0.2500000   0.2500000   0.7142857), wk =   0.0312500
        k(   39) = (   0.2500000   0.2500000   0.8571429), wk =   0.0312500
        k(   40) = (   0.2500000   0.2500000   1.0000000), wk =   0.0312500
        k(   41) = (   0.2500000  -0.5000000  -0.0000000), wk =   0.0312500
        k(   42) = (   0.2500000  -0.5000000   0.1428571), wk =   0.0312500
        k(   43) = (   0.2500000  -0.5000000   0.2857143), wk =   0.0312500
        k(   44) = (   0.2500000  -0.5000000   0.4285714), wk =   0.0312500
        k(   45) = (   0.2500000  -0.5000000   0.5714286), wk =   0.0312500
        k(   46) = (   0.2500000  -0.5000000   0.7142857), wk =   0.0312500
        k(   47) = (   0.2500000  -0.5000000   0.8571429), wk =   0.0312500
        k(   48) = (   0.2500000  -0.5000000   1.0000000), wk =   0.0312500
        k(   49) = (   0.2500000  -0.2500000  -0.0000000), wk =   0.0312500
        k(   50) = (   0.2500000  -0.2500000   0.1428571), wk =   0.0312500
        k(   51) = (   0.2500000  -0.2500000   0.2857143), wk =   0.0312500
        k(   52) = (   0.2500000  -0.2500000   0.4285714), wk =   0.0312500
        k(   53) = (   0.2500000  -0.2500000   0.5714286), wk =   0.0312500
        k(   54) = (   0.2500000  -0.2500000   0.7142857), wk =   0.0312500
        k(   55) = (   0.2500000  -0.2500000   0.8571429), wk =   0.0312500
        k(   56) = (   0.2500000  -0.2500000   1.0000000), wk =   0.0312500
        k(   57) = (  -0.5000000   0.0000000  -0.0000000), wk =   0.0156250
        k(   58) = (  -0.5000000  -0.0000000   0.1428571), wk =   0.0156250
        k(   59) = (  -0.5000000  -0.0000000   0.2857143), wk =   0.0156250
        k(   60) = (  -0.5000000  -0.0000000   0.4285714), wk =   0.0156250
        k(   61) = (  -0.5000000   0.0000000   0.5714286), wk =   0.0156250
        k(   62) = (  -0.5000000   0.0000000   0.7142857), wk =   0.0156250
        k(   63) = (  -0.5000000  -0.0000000   0.8571429), wk =   0.0156250
        k(   64) = (  -0.5000000  -0.0000000   1.0000000), wk =   0.0156250
        k(   65) = (  -0.5000000   0.2500000  -0.0000000), wk =   0.0312500
        k(   66) = (  -0.5000000   0.2500000   0.1428571), wk =   0.0312500
        k(   67) = (  -0.5000000   0.2500000   0.2857143), wk =   0.0312500
        k(   68) = (  -0.5000000   0.2500000   0.4285714), wk =   0.0312500
        k(   69) = (  -0.5000000   0.2500000   0.5714286), wk =   0.0312500
        k(   70) = (  -0.5000000   0.2500000   0.7142857), wk =   0.0312500
        k(   71) = (  -0.5000000   0.2500000   0.8571429), wk =   0.0312500
        k(   72) = (  -0.5000000   0.2500000   1.0000000), wk =   0.0312500
        k(   73) = (  -0.5000000  -0.5000000   0.0000000), wk =   0.0156250
        k(   74) = (  -0.5000000  -0.5000000   0.1428571), wk =   0.0156250
        k(   75) = (  -0.5000000  -0.5000000   0.2857143), wk =   0.0156250
        k(   76) = (  -0.5000000  -0.5000000   0.4285714), wk =   0.0156250
        k(   77) = (  -0.5000000  -0.5000000   0.5714286), wk =   0.0156250
        k(   78) = (  -0.5000000  -0.5000000   0.7142857), wk =   0.0156250
        k(   79) = (  -0.5000000  -0.5000000   0.8571429), wk =   0.0156250
        k(   80) = (  -0.5000000  -0.5000000   1.0000000), wk =   0.0156250

     Dense  grid:  1076523 G-vectors     FFT dimensions: ( 135, 135, 144)

     Smooth grid:   357953 G-vectors     FFT dimensions: (  96,  96,  96)

     Dynamical RAM for                 wfc:       2.12 MB

     Dynamical RAM for     wfc (w. buffer):     171.68 MB

     Dynamical RAM for           str. fact:       0.38 MB

     Dynamical RAM for           local pot:       0.00 MB

     Dynamical RAM for          nlocal pot:       6.02 MB

     Dynamical RAM for                qrad:      21.02 MB

     Dynamical RAM for          rho,v,vnew:       1.22 MB

     Dynamical RAM for           G-vectors:       0.50 MB

     Dynamical RAM for          h,s,v(r/c):       1.81 MB

     Dynamical RAM for          <psi|beta>:       6.86 MB

     Dynamical RAM for                 psi:       8.48 MB

     Dynamical RAM for                hpsi:       8.48 MB

     Dynamical RAM for                spsi:       8.48 MB

     Dynamical RAM for      wfcinit/wfcrot:      11.05 MB

     Dynamical RAM for           addusdens:      30.92 MB

     Estimated static dynamical RAM per process >     202.73 MB

     Estimated max dynamical RAM per process >     236.83 MB

     Estimated total dynamical RAM >      29.60 GB

     Check: negative core charge=   -0.000002

     The potential is recalculated from file :
     ./temp/ZnO.save/charge-density

     Starting wfcs are  500 randomized atomic wfcs

     Band Structure Calculation
     Davidson diagonalization with overlap

     Computing kpt #:     1
     total cpu time spent up to now is       19.1 secs

     Computing kpt #:     2
     total cpu time spent up to now is       32.1 secs

     Computing kpt #:     3
     total cpu time spent up to now is       45.0 secs

     Computing kpt #:     4
     total cpu time spent up to now is       57.9 secs

     Computing kpt #:     5
     total cpu time spent up to now is       70.7 secs

     Computing kpt #:     6
     total cpu time spent up to now is       83.6 secs

     Computing kpt #:     7
     total cpu time spent up to now is       96.5 secs

     Computing kpt #:     8
     total cpu time spent up to now is      109.3 secs

     Computing kpt #:     9
     total cpu time spent up to now is      122.2 secs

     Computing kpt #:    10
     total cpu time spent up to now is      135.0 secs

     Computing kpt #:    11
     total cpu time spent up to now is      147.8 secs

     Computing kpt #:    12
     total cpu time spent up to now is      160.7 secs

     Computing kpt #:    13
     total cpu time spent up to now is      173.6 secs

     Computing kpt #:    14
     total cpu time spent up to now is      186.4 secs

     Computing kpt #:    15
     total cpu time spent up to now is      199.1 secs

     Computing kpt #:    16
     total cpu time spent up to now is      212.0 secs

     Computing kpt #:    17
     total cpu time spent up to now is      224.9 secs

     Computing kpt #:    18
     total cpu time spent up to now is      237.8 secs

     Computing kpt #:    19
     total cpu time spent up to now is      250.6 secs

     Computing kpt #:    20
     total cpu time spent up to now is      263.3 secs

     Computing kpt #:    21
     total cpu time spent up to now is      276.3 secs

     Computing kpt #:    22
     total cpu time spent up to now is      289.1 secs

     Computing kpt #:    23
     total cpu time spent up to now is      301.9 secs

     Computing kpt #:    24
     total cpu time spent up to now is      314.7 secs

     Computing kpt #:    25
     total cpu time spent up to now is      327.6 secs

     Computing kpt #:    26
     total cpu time spent up to now is      340.5 secs

     Computing kpt #:    27
     total cpu time spent up to now is      353.4 secs

     Computing kpt #:    28
     total cpu time spent up to now is      366.2 secs

     Computing kpt #:    29
     total cpu time spent up to now is      379.0 secs

     Computing kpt #:    30
     total cpu time spent up to now is      392.0 secs

     Computing kpt #:    31
     total cpu time spent up to now is      404.8 secs

     Computing kpt #:    32
     total cpu time spent up to now is      417.7 secs

     Computing kpt #:    33
     total cpu time spent up to now is      430.5 secs

     Computing kpt #:    34
     total cpu time spent up to now is      443.3 secs

     Computing kpt #:    35
     total cpu time spent up to now is      456.3 secs

     Computing kpt #:    36
     total cpu time spent up to now is      469.1 secs

     Computing kpt #:    37
     total cpu time spent up to now is      482.0 secs

     Computing kpt #:    38
     total cpu time spent up to now is      494.7 secs

     Computing kpt #:    39
     total cpu time spent up to now is      507.6 secs

     Computing kpt #:    40
     total cpu time spent up to now is      520.5 secs

     Computing kpt #:    41
     total cpu time spent up to now is      533.3 secs

     Computing kpt #:    42
     total cpu time spent up to now is      546.0 secs

     Computing kpt #:    43
     total cpu time spent up to now is      558.8 secs

     Computing kpt #:    44
     total cpu time spent up to now is      571.9 secs

     Computing kpt #:    45
     total cpu time spent up to now is      584.7 secs

     Computing kpt #:    46
     total cpu time spent up to now is      597.6 secs

     Computing kpt #:    47
     total cpu time spent up to now is      610.4 secs

     Computing kpt #:    48
     total cpu time spent up to now is      623.2 secs

     Computing kpt #:    49
     total cpu time spent up to now is      636.3 secs

     Computing kpt #:    50
     total cpu time spent up to now is      649.2 secs

     Computing kpt #:    51
     total cpu time spent up to now is      662.1 secs

     Computing kpt #:    52
     total cpu time spent up to now is      674.9 secs

     Computing kpt #:    53
     total cpu time spent up to now is      687.9 secs

     Computing kpt #:    54
     total cpu time spent up to now is      700.9 secs

     Computing kpt #:    55
     total cpu time spent up to now is      713.7 secs

     Computing kpt #:    56
     total cpu time spent up to now is      726.6 secs

     Computing kpt #:    57
     total cpu time spent up to now is      739.3 secs

     Computing kpt #:    58
     total cpu time spent up to now is      752.3 secs

     Computing kpt #:    59
     total cpu time spent up to now is      765.1 secs

     Computing kpt #:    60
     total cpu time spent up to now is      778.0 secs

     Computing kpt #:    61
     total cpu time spent up to now is      790.8 secs

     Computing kpt #:    62
     total cpu time spent up to now is      803.6 secs

     Computing kpt #:    63
     total cpu time spent up to now is      816.6 secs

     Computing kpt #:    64
     total cpu time spent up to now is      829.4 secs

     Computing kpt #:    65
     total cpu time spent up to now is      842.3 secs

     Computing kpt #:    66
     total cpu time spent up to now is      855.1 secs

     Computing kpt #:    67
     total cpu time spent up to now is      868.0 secs

     Computing kpt #:    68
     total cpu time spent up to now is      880.9 secs

     Computing kpt #:    69
     total cpu time spent up to now is      893.7 secs

     Computing kpt #:    70
     total cpu time spent up to now is      906.6 secs

     Computing kpt #:    71
     total cpu time spent up to now is      919.4 secs

     Computing kpt #:    72
     total cpu time spent up to now is      932.3 secs

     Computing kpt #:    73
     total cpu time spent up to now is      945.2 secs

     Computing kpt #:    74
     total cpu time spent up to now is      958.1 secs

     Computing kpt #:    75
     total cpu time spent up to now is      970.9 secs

     Computing kpt #:    76
     total cpu time spent up to now is      983.7 secs

     Computing kpt #:    77
     total cpu time spent up to now is      996.7 secs

     Computing kpt #:    78
     total cpu time spent up to now is     1009.5 secs

     Computing kpt #:    79
     total cpu time spent up to now is     1022.3 secs

     Computing kpt #:    80
     total cpu time spent up to now is     1035.1 secs

     ethr =  1.26E-12,  avg # of iterations = 12.1

     total cpu time spent up to now is     1035.1 secs

     End of band structure calculation

          k = 0.0000 0.0000 0.0000 ( 44635 PWs)   bands (ev):

  -115.4386-115.4366-115.4315-115.4214-115.4195-115.4194-115.4159-115.4153
  -115.4153-115.4153-115.4151-115.4150-115.4147-115.4130-115.4123-115.4120
  -115.4081-115.4072-115.4069-115.4057-115.4044-115.3963 -69.7995 -69.7971
   -69.7949 -69.7937 -69.7919 -69.7914 -69.7903 -69.7873 -69.7839 -69.7838
   -69.7831 -69.7822 -69.7792 -69.7787 -69.7786 -69.7784 -69.7782 -69.7777
   -69.7772 -69.7770 -69.7767 -69.7761 -69.7753 -69.7749 -69.7749 -69.7740
   -69.7735 -69.7721 -69.7713 -69.7712 -69.7711 -69.7710 -69.7708 -69.7706
   -69.7705 -69.7705 -69.7700 -69.7696 -69.7692 -69.7692 -69.7689 -69.7683
   -69.7681 -69.7681 -69.7672 -69.7669 -69.7667 -69.7661 -69.7656 -69.7650
   -69.7645 -69.7644 -69.7632 -69.7631 -69.7627 -69.7623 -69.7614 -69.7593
   -69.7589 -69.7588 -69.7574 -69.7570 -69.7559 -69.7544 -69.7530 -69.7481
   -64.8570 -64.8544 -64.8517 -64.8514 -64.8433 -64.8401 -64.8370 -64.8324
   -64.8258 -64.8243 -64.8172 -64.8147 -64.8044 -64.7932 -31.8534 -31.8504
   -31.8471 -31.8468 -31.8444 -31.8441 -31.8433 -31.8411 -31.8407 -31.8386
   -31.8379 -31.8360 -31.8356 -31.8341 -31.8306 -31.8297 -31.8279 -31.8268
   -31.8261 -31.8241 -31.8237 -31.8231 -31.8200 -31.8176 -31.8173 -31.8160
   -31.8144 -31.8114 -31.8097 -31.8087 -31.8079 -31.8072 -31.8021 -31.8018
   -31.7996 -31.7987 -31.7942 -31.7891 -31.7868 -31.7848 -31.7788 -31.7777
   -10.1093  -9.7980  -9.7439  -9.6951  -9.6470  -9.6265  -9.5936  -9.5707
    -9.5043  -9.4604  -9.4526  -9.4380  -9.4311  -9.3888  -9.3877  -9.3608
    -9.3346  -9.3078  -9.2966  -9.2715  -9.2563  -9.2340  -9.2176  -9.1894
    -9.1689  -9.1559  -9.1424  -9.1223  -9.1122  -9.1080  -9.0992  -9.0722
    -8.9946  -8.9868  -8.9493  -8.9126   1.7236   1.7329   1.7508   1.7692
     1.7763   1.7975   1.8154   1.8290   1.8671   1.8789   1.8869   1.9194
     1.9286   1.9629   1.9864   2.0128   2.0294   2.0427   2.0670   2.0813
     2.1050   2.1231   2.1459   2.1707   2.1764   2.1896   2.1991   2.2232
     2.2312   2.2352   2.2607   2.2669   2.2834   2.2920   2.3067   2.3107
     2.3194   2.3312   2.3338   2.3539   2.3566   2.3782   2.3796   2.3997
     2.4015   2.4257   2.4319   2.4389   2.4464   2.4590   2.4668   2.4856
     2.5037   2.5290   2.5530   2.5772   2.6088   2.6298   2.6340   2.6597
     2.6717   2.7080   2.7174   2.7317   2.7548   2.7725   2.7818   2.7981
     2.8210   2.8340   2.8404   2.8487   2.8697   2.8770   2.8817   2.8911
     2.9154   2.9322   2.9420   2.9511   2.9745   2.9895   2.9951   3.0204
     3.0527   3.0597   3.0646   3.0923   3.1139   3.1221   3.1391   3.1462
     3.1783   3.1875   3.2061   3.2079   3.2155   3.2292   3.2314   3.2479
     3.2601   3.2630   3.2922   3.3009   3.3111   3.3230   3.3258   3.3656
     3.3811   3.3979   3.4511   3.4977   3.5687   3.6261   3.6559   3.6693
     3.7239   3.7651   3.7719   3.8170   3.8317   3.8569   3.8877   3.9115
     3.9296   3.9660   4.0072   4.0336   4.0528   4.1013   4.1588   4.2064
     4.2514   4.2563   4.2920   4.3239   4.3530   4.4312   4.5331   4.5464
     4.5942   4.6089   4.6647   4.6957   4.7348   4.7665   4.7767   4.8024
     4.8206   4.9130   4.9966   5.0079   5.0477   5.1580   5.1863   5.3574
     5.3849   5.4378   5.4797   5.5059   5.5380   5.5732   5.6217   5.6263
     5.7039   5.7253   5.7521   5.7558   5.7579   5.7759   5.8075   5.8499
     5.8790   5.9538   5.9724   6.0254   6.0303   6.0651   6.0944   6.1194
     6.1565   6.1684   6.2196   6.2546   6.2739   6.2914   6.3219   6.3275
     6.3616   6.3713   6.3945   6.4103   6.4483   6.4574   6.4669   6.4705
     6.4802   6.5087   6.5632   6.5882   6.6280   6.6471   6.6609   6.6955
     6.7194   6.7336   6.7511   6.7803   6.8167   6.8464   6.8876   6.9886
     6.9901   7.0324   7.1077   7.2882   7.2993   7.3125

     occupation numbers 
     1.0000   1.0000   1.0000   1.0000   1.0000   1.0000   1.0000   1.0000
     1.0000   1.0000   1.0000   1.0000   1.0000   1.0000   1.0000   1.0000
     1.0000   1.0000   1.0000   1.0000   1.0000   1.0000   1.0000   1.0000
     1.0000   1.0000   1.0000   1.0000   1.0000   1.0000   1.0000   1.0000
     1.0000   1.0000   1.0000   1.0000   1.0000   1.0000   1.0000   1.0000
     1.0000   1.0000   1.0000   1.0000   1.0000   1.0000   1.0000   1.0000
     1.0000   1.0000   1.0000   1.0000   1.0000   1.0000   1.0000   1.0000
     1.0000   1.0000   1.0000   1.0000   1.0000   1.0000   1.0000   1.0000
     1.0000   1.0000   1.0000   1.0000   1.0000   1.0000   1.0000   1.0000
     1.0000   1.0000   1.0000   1.0000   1.0000   1.0000   1.0000   1.0000
     1.0000   1.0000   1.0000   1.0000   1.0000   1.0000   1.0000   1.0000
     1.0000   1.0000   1.0000   1.0000   1.0000   1.0000   1.0000   1.0000
     1.0000   1.0000   1.0000   1.0000   1.0000   1.0000   1.0000   1.0000
     1.0000   1.0000   1.0000   1.0000   1.0000   1.0000   1.0000   1.0000
     1.0000   1.0000   1.0000   1.0000   1.0000   1.0000   1.0000   1.0000
     1.0000   1.0000   1.0000   1.0000   1.0000   1.0000   1.0000   1.0000
     1.0000   1.0000   1.0000   1.0000   1.0000   1.0000   1.0000   1.0000
     1.0000   1.0000   1.0000   1.0000   1.0000   1.0000   1.0000   1.0000
     1.0000   1.0000   1.0000   1.0000   1.0000   1.0000   1.0000   1.0000
     1.0000   1.0000   1.0000   1.0000   1.0000   1.0000   1.0000   1.0000
     1.0000   1.0000   1.0000   1.0000   1.0000   1.0000   1.0000   1.0000
     1.0000   1.0000   1.0000   1.0000   1.0000   1.0000   1.0000   1.0000
     1.0000   1.0000   1.0000   1.0000   1.0000   1.0000   1.0000   1.0000
     1.0000   1.0000   1.0000   1.0000   1.0000   1.0000   1.0000   1.0000
     1.0000   1.0000   1.0000   1.0000   1.0000   1.0000   1.0000   1.0000
     1.0000   1.0000   1.0000   1.0000   1.0000   1.0000   1.0000   1.0000
     1.0000   1.0000   1.0000   1.0000   1.0000   1.0000   1.0000   1.0000
     1.0000   1.0000   1.0000   1.0000   1.0000   1.0000   1.0000   1.0000
     1.0000   1.0000   1.0000   1.0000   1.0000   1.0000   1.0000   1.0000
     1.0000   1.0000   1.0000   1.0000   1.0000   1.0000   1.0000   1.0000
     1.0000   1.0000   1.0000   1.0000   1.0000   1.0000   1.0000   1.0000
     1.0000   1.0000   1.0000   1.0000   1.0000   1.0000   1.0000   1.0000
     1.0000   1.0000   1.0000   1.0000   1.0000   1.0000   1.0000   1.0000
     1.0000   1.0000   1.0000   1.0000   1.0000   1.0000   1.0000   1.0000
     1.0000   1.0000   1.0000   1.0000   1.0000   1.0000   1.0000   1.0000
     1.0000   1.0000   1.0000   1.0000   1.0000   1.0000   1.0000   1.0000
     1.0000   1.0000   1.0000   1.0000   1.0000   1.0000   1.0000   1.0000
     1.0000   1.0000   1.0000   1.0000   1.0000   1.0000   1.0000   1.0000
     1.0000   1.0000   1.0000   1.0000   1.0000   1.0000   1.0000   1.0000
     1.0000   1.0000   1.0000   1.0000   1.0000   1.0000   1.0000   1.0000
     1.0000   1.0000   1.0000   1.0000   1.0000   1.0000   1.0000   1.0000
     1.0000   1.0000   1.0000   1.0000   1.0000   1.0000   1.0000   1.0000
     1.0000   1.0000   1.0000   1.0000   1.0000   1.0000   1.0000   1.0000
     1.0000   1.0000   1.0000   1.0000   1.0000   1.0000   1.0000   1.0000
     1.0000   1.0000   1.0000   1.0000   1.0000   1.0000   1.0000   1.0000
     1.0000   1.0000   1.0000   1.0000   1.0000   1.0000   1.0000   1.0000
     1.0000   1.0000   1.0000   1.0000   1.0000   1.0000   1.0000   1.0000
     1.0000   1.0000   1.0000   1.0000   1.0000   1.0000   1.0000   1.0000
     1.0000   1.0000   1.0000   1.0000   1.0000   1.0000   1.0000   1.0000
     1.0000   1.0000   1.0000   1.0000   1.0000   1.0000

          k = 0.0001-0.0000 0.1357 ( 44703 PWs)   bands (ev):

  -115.4386-115.4366-115.4315-115.4214-115.4195-115.4194-115.4159-115.4153
  -115.4153-115.4153-115.4151-115.4150-115.4147-115.4130-115.4123-115.4120
  -115.4081-115.4072-115.4069-115.4057-115.4044-115.3963 -69.7995 -69.7971
   -69.7949 -69.7937 -69.7919 -69.7914 -69.7903 -69.7873 -69.7839 -69.7838
   -69.7831 -69.7822 -69.7792 -69.7787 -69.7786 -69.7784 -69.7782 -69.7777
   -69.7772 -69.7770 -69.7767 -69.7761 -69.7753 -69.7749 -69.7749 -69.7740
   -69.7735 -69.7721 -69.7713 -69.7712 -69.7711 -69.7710 -69.7708 -69.7706
   -69.7705 -69.7705 -69.7700 -69.7696 -69.7692 -69.7692 -69.7689 -69.7683
   -69.7681 -69.7681 -69.7672 -69.7669 -69.7667 -69.7661 -69.7656 -69.7650
   -69.7645 -69.7644 -69.7632 -69.7631 -69.7627 -69.7623 -69.7614 -69.7593
   -69.7589 -69.7588 -69.7574 -69.7570 -69.7559 -69.7544 -69.7530 -69.7481
   -64.8570 -64.8544 -64.8517 -64.8514 -64.8433 -64.8401 -64.8370 -64.8324
   -64.8258 -64.8243 -64.8172 -64.8147 -64.8044 -64.7932 -31.8534 -31.8504
   -31.8472 -31.8468 -31.8443 -31.8441 -31.8433 -31.8411 -31.8407 -31.8386
   -31.8380 -31.8360 -31.8356 -31.8341 -31.8306 -31.8297 -31.8279 -31.8268
   -31.8261 -31.8241 -31.8237 -31.8231 -31.8200 -31.8176 -31.8173 -31.8160
   -31.8144 -31.8114 -31.8097 -31.8087 -31.8080 -31.8072 -31.8021 -31.8018
   -31.7996 -31.7987 -31.7942 -31.7891 -31.7868 -31.7848 -31.7788 -31.7777
   -10.1007  -9.8402  -9.7182  -9.6907  -9.6436  -9.6254  -9.5841  -9.5594
    -9.5048  -9.4842  -9.4681  -9.4423  -9.4228  -9.4022  -9.3769  -9.3651
    -9.3263  -9.3087  -9.2883  -9.2739  -9.2537  -9.2255  -9.2157  -9.1878
    -9.1667  -9.1564  -9.1418  -9.1210  -9.1138  -9.1081  -9.0987  -9.0755
    -8.9961  -8.9884  -8.9505  -8.9144   1.7262   1.7407   1.7554   1.7714
     1.7929   1.8000   1.8254   1.8330   1.8703   1.8798   1.8905   1.9184
     1.9361   1.9650   1.9915   2.0197   2.0357   2.0472   2.0702   2.0817
     2.1069   2.1215   2.1435   2.1674   2.1766   2.1893   2.1990   2.2198
     2.2285   2.2343   2.2532   2.2613   2.2807   2.2876   2.2998   2.3088
     2.3157   2.3303   2.3380   2.3505   2.3620   2.3714   2.3881   2.3967
     2.4043   2.4190   2.4331   2.4376   2.4519   2.4574   2.4646   2.4852
     2.5032   2.5239   2.5480   2.5763   2.6000   2.6249   2.6309   2.6516
     2.6672   2.6986   2.7068   2.7243   2.7473   2.7657   2.7703   2.7888
     2.7941   2.8230   2.8312   2.8450   2.8544   2.8740   2.8836   2.8970
     2.9065   2.9198   2.9280   2.9551   2.9686   2.9888   2.9977   3.0074
     3.0413   3.0540   3.0712   3.0848   3.1110   3.1172   3.1312   3.1468
     3.1803   3.1932   3.2018   3.2053   3.2227   3.2311   3.2399   3.2533
     3.2574   3.2715   3.2919   3.2971   3.3080   3.3245   3.3342   3.3570
     3.3795   3.3949   3.4407   3.5316   3.6110   3.6206   3.6749   3.6989
     3.7351   3.7703   3.7765   3.8142   3.8386   3.8669   3.8979   3.9192
     3.9367   3.9696   4.0267   4.0391   4.0733   4.1188   4.1639   4.2208
     4.2549   4.2793   4.3072   4.3514   4.3606   4.4501   4.5224   4.5535
     4.5682   4.5907   4.6235   4.6524   4.6954   4.7222   4.7548   4.8175
     4.8764   4.9417   4.9720   5.0349   5.1189   5.1582   5.2721   5.3696
     5.3926   5.4464   5.4917   5.5042   5.5451   5.5780   5.6179   5.6319
     5.6682   5.6990   5.7221   5.7364   5.7605   5.7682   5.7950   5.8234
     5.8403   5.8858   5.9272   5.9882   6.0051   6.0241   6.0687   6.1183
     6.1384   6.1532   6.1893   6.2111   6.2665   6.2953   6.3171   6.3318
     6.3651   6.3868   6.4134   6.4316   6.4515   6.4667   6.4810   6.5203
     6.5513   6.5700   6.5804   6.5919   6.6435   6.6669   6.6741   6.7053
     6.7258   6.7440   6.7545   6.7873   6.8091   6.8448   6.8799   6.9454
     6.9815   7.0684   7.1214   7.2186   7.2848   7.3072

     occupation numbers 
     1.0000   1.0000   1.0000   1.0000   1.0000   1.0000   1.0000   1.0000
     1.0000   1.0000   1.0000   1.0000   1.0000   1.0000   1.0000   1.0000
     1.0000   1.0000   1.0000   1.0000   1.0000   1.0000   1.0000   1.0000
     1.0000   1.0000   1.0000   1.0000   1.0000   1.0000   1.0000   1.0000
     1.0000   1.0000   1.0000   1.0000   1.0000   1.0000   1.0000   1.0000
     1.0000   1.0000   1.0000   1.0000   1.0000   1.0000   1.0000   1.0000
     1.0000   1.0000   1.0000   1.0000   1.0000   1.0000   1.0000   1.0000
     1.0000   1.0000   1.0000   1.0000   1.0000   1.0000   1.0000   1.0000
     1.0000   1.0000   1.0000   1.0000   1.0000   1.0000   1.0000   1.0000
     1.0000   1.0000   1.0000   1.0000   1.0000   1.0000   1.0000   1.0000
     1.0000   1.0000   1.0000   1.0000   1.0000   1.0000   1.0000   1.0000
     1.0000   1.0000   1.0000   1.0000   1.0000   1.0000   1.0000   1.0000
     1.0000   1.0000   1.0000   1.0000   1.0000   1.0000   1.0000   1.0000
     1.0000   1.0000   1.0000   1.0000   1.0000   1.0000   1.0000   1.0000
     1.0000   1.0000   1.0000   1.0000   1.0000   1.0000   1.0000   1.0000
     1.0000   1.0000   1.0000   1.0000   1.0000   1.0000   1.0000   1.0000
     1.0000   1.0000   1.0000   1.0000   1.0000   1.0000   1.0000   1.0000
     1.0000   1.0000   1.0000   1.0000   1.0000   1.0000   1.0000   1.0000
     1.0000   1.0000   1.0000   1.0000   1.0000   1.0000   1.0000   1.0000
     1.0000   1.0000   1.0000   1.0000   1.0000   1.0000   1.0000   1.0000
     1.0000   1.0000   1.0000   1.0000   1.0000   1.0000   1.0000   1.0000
     1.0000   1.0000   1.0000   1.0000   1.0000   1.0000   1.0000   1.0000
     1.0000   1.0000   1.0000   1.0000   1.0000   1.0000   1.0000   1.0000
     1.0000   1.0000   1.0000   1.0000   1.0000   1.0000   1.0000   1.0000
     1.0000   1.0000   1.0000   1.0000   1.0000   1.0000   1.0000   1.0000
     1.0000   1.0000   1.0000   1.0000   1.0000   1.0000   1.0000   1.0000
     1.0000   1.0000   1.0000   1.0000   1.0000   1.0000   1.0000   1.0000
     1.0000   1.0000   1.0000   1.0000   1.0000   1.0000   1.0000   1.0000
     1.0000   1.0000   1.0000   1.0000   1.0000   1.0000   1.0000   1.0000
     1.0000   1.0000   1.0000   1.0000   1.0000   1.0000   1.0000   1.0000
     1.0000   1.0000   1.0000   1.0000   1.0000   1.0000   1.0000   1.0000
     1.0000   1.0000   1.0000   1.0000   1.0000   1.0000   1.0000   1.0000
     1.0000   1.0000   1.0000   1.0000   1.0000   1.0000   1.0000   1.0000
     1.0000   1.0000   1.0000   1.0000   1.0000   1.0000   1.0000   1.0000
     1.0000   1.0000   1.0000   1.0000   1.0000   1.0000   1.0000   1.0000
     1.0000   1.0000   1.0000   1.0000   1.0000   1.0000   1.0000   1.0000
     1.0000   1.0000   1.0000   1.0000   1.0000   1.0000   1.0000   1.0000
     1.0000   1.0000   1.0000   1.0000   1.0000   1.0000   1.0000   1.0000
     1.0000   1.0000   1.0000   1.0000   1.0000   1.0000   1.0000   1.0000
     1.0000   1.0000   1.0000   1.0000   1.0000   1.0000   1.0000   1.0000
     1.0000   1.0000   1.0000   1.0000   1.0000   1.0000   1.0000   1.0000
     1.0000   1.0000   1.0000   1.0000   1.0000   1.0000   1.0000   1.0000
     1.0000   1.0000   1.0000   1.0000   1.0000   1.0000   1.0000   1.0000
     1.0000   1.0000   1.0000   1.0000   1.0000   1.0000   1.0000   1.0000
     1.0000   1.0000   1.0000   1.0000   1.0000   1.0000   1.0000   1.0000
     1.0000   1.0000   1.0000   1.0000   1.0000   1.0000   1.0000   1.0000
     1.0000   1.0000   1.0000   1.0000   1.0000   1.0000   1.0000   1.0000
     1.0000   1.0000   1.0000   1.0000   1.0000   1.0000   1.0000   1.0000
     1.0000   1.0000   1.0000   1.0000   1.0000   1.0000   1.0000   1.0000
     1.0000   1.0000   1.0000   1.0000   1.0000   1.0000

          k = 0.0001-0.0001 0.2715 ( 44774 PWs)   bands (ev):

  -115.4386-115.4366-115.4315-115.4214-115.4195-115.4194-115.4159-115.4153
  -115.4153-115.4153-115.4151-115.4150-115.4147-115.4130-115.4123-115.4120
  -115.4081-115.4072-115.4069-115.4057-115.4044-115.3963 -69.7995 -69.7971
   -69.7949 -69.7937 -69.7919 -69.7914 -69.7903 -69.7873 -69.7839 -69.7837
   -69.7831 -69.7822 -69.7792 -69.7787 -69.7786 -69.7784 -69.7782 -69.7777
   -69.7772 -69.7770 -69.7767 -69.7761 -69.7753 -69.7749 -69.7749 -69.7740
   -69.7735 -69.7721 -69.7713 -69.7712 -69.7711 -69.7710 -69.7708 -69.7706
   -69.7705 -69.7705 -69.7700 -69.7696 -69.7692 -69.7692 -69.7689 -69.7683
   -69.7681 -69.7681 -69.7672 -69.7669 -69.7667 -69.7661 -69.7656 -69.7650
   -69.7645 -69.7644 -69.7632 -69.7631 -69.7627 -69.7623 -69.7614 -69.7593
   -69.7589 -69.7588 -69.7574 -69.7570 -69.7559 -69.7544 -69.7530 -69.7481
   -64.8570 -64.8544 -64.8517 -64.8514 -64.8433 -64.8401 -64.8370 -64.8324
   -64.8258 -64.8243 -64.8172 -64.8147 -64.8044 -64.7932 -31.8534 -31.8503
   -31.8473 -31.8469 -31.8441 -31.8440 -31.8434 -31.8411 -31.8407 -31.8386
   -31.8383 -31.8360 -31.8356 -31.8341 -31.8306 -31.8296 -31.8278 -31.8268
   -31.8261 -31.8241 -31.8237 -31.8232 -31.8199 -31.8176 -31.8173 -31.8160
   -31.8144 -31.8114 -31.8097 -31.8087 -31.8080 -31.8072 -31.8020 -31.8018
   -31.7996 -31.7987 -31.7942 -31.7891 -31.7868 -31.7848 -31.7788 -31.7777
   -10.0757  -9.9053  -9.6924  -9.6785  -9.6342  -9.6208  -9.5756  -9.5359
    -9.5183  -9.5043  -9.4840  -9.4571  -9.4345  -9.4008  -9.3880  -9.3624
    -9.3189  -9.3080  -9.2794  -9.2594  -9.2500  -9.2152  -9.2101  -9.1855
    -9.1619  -9.1576  -9.1387  -9.1211  -9.1140  -9.1072  -9.0971  -9.0841
    -9.0006  -8.9913  -8.9534  -8.9187   1.7352   1.7526   1.7674   1.7838
     1.8077   1.8225   1.8396   1.8560   1.8754   1.8838   1.9019   1.9180
     1.9538   1.9713   2.0048   2.0346   2.0521   2.0616   2.0711   2.0862
     2.1132   2.1170   2.1352   2.1597   2.1736   2.1799   2.2016   2.2092
     2.2247   2.2270   2.2379   2.2487   2.2653   2.2800   2.2884   2.3045
     2.3132   2.3312   2.3391   2.3486   2.3682   2.3755   2.3875   2.4007
     2.4085   2.4137   2.4267   2.4428   2.4499   2.4567   2.4673   2.4823
     2.4988   2.5178   2.5351   2.5651   2.5811   2.5922   2.6157   2.6319
     2.6535   2.6707   2.6812   2.6978   2.7215   2.7428   2.7573   2.7663
     2.7811   2.8049   2.8180   2.8308   2.8401   2.8573   2.8744   2.8846
     2.8955   2.9013   2.9213   2.9419   2.9606   2.9892   2.9959   3.0076
     3.0298   3.0391   3.0553   3.0844   3.0984   3.1160   3.1366   3.1456
     3.1785   3.1970   3.2052   3.2120   3.2247   3.2358   3.2486   3.2577
     3.2685   3.2824   3.2950   3.2994   3.3074   3.3185   3.3409   3.3516
     3.3638   3.3977   3.5002   3.5735   3.6209   3.6565   3.6963   3.7188
     3.7484   3.7705   3.7926   3.8262   3.8657   3.8934   3.9123   3.9304
     3.9646   3.9852   4.0452   4.0668   4.1096   4.1366   4.1764   4.2291
     4.2640   4.3053   4.3295   4.3967   4.4053   4.4677   4.4838   4.5286
     4.5446   4.6002   4.6024   4.6219   4.6729   4.7139   4.7821   4.8106
     4.8838   4.9567   5.0726   5.1240   5.1576   5.2236   5.2937   5.3601
     5.3937   5.4189   5.4510   5.4966   5.5217   5.5574   5.5821   5.6115
     5.6281   5.6696   5.6803   5.6953   5.7420   5.7591   5.7883   5.8051
     5.8377   5.8604   5.8778   5.9084   5.9366   5.9655   6.0116   6.0463
     6.0734   6.1031   6.1385   6.2294   6.2711   6.2985   6.3212   6.3488
     6.3787   6.4095   6.4227   6.4449   6.4790   6.5000   6.5282   6.5584
     6.5764   6.6057   6.6293   6.6657   6.6823   6.7057   6.7105   6.7233
     6.7539   6.7611   6.7775   6.7896   6.8207   6.8446   6.8603   6.9015
     6.9438   7.0454   7.1182   7.1496   7.2717   7.2938

     occupation numbers 
     1.0000   1.0000   1.0000   1.0000   1.0000   1.0000   1.0000   1.0000
     1.0000   1.0000   1.0000   1.0000   1.0000   1.0000   1.0000   1.0000
     1.0000   1.0000   1.0000   1.0000   1.0000   1.0000   1.0000   1.0000
     1.0000   1.0000   1.0000   1.0000   1.0000   1.0000   1.0000   1.0000
     1.0000   1.0000   1.0000   1.0000   1.0000   1.0000   1.0000   1.0000
     1.0000   1.0000   1.0000   1.0000   1.0000   1.0000   1.0000   1.0000
     1.0000   1.0000   1.0000   1.0000   1.0000   1.0000   1.0000   1.0000
     1.0000   1.0000   1.0000   1.0000   1.0000   1.0000   1.0000   1.0000
     1.0000   1.0000   1.0000   1.0000   1.0000   1.0000   1.0000   1.0000
     1.0000   1.0000   1.0000   1.0000   1.0000   1.0000   1.0000   1.0000
     1.0000   1.0000   1.0000   1.0000   1.0000   1.0000   1.0000   1.0000
     1.0000   1.0000   1.0000   1.0000   1.0000   1.0000   1.0000   1.0000
     1.0000   1.0000   1.0000   1.0000   1.0000   1.0000   1.0000   1.0000
     1.0000   1.0000   1.0000   1.0000   1.0000   1.0000   1.0000   1.0000
     1.0000   1.0000   1.0000   1.0000   1.0000   1.0000   1.0000   1.0000
     1.0000   1.0000   1.0000   1.0000   1.0000   1.0000   1.0000   1.0000
     1.0000   1.0000   1.0000   1.0000   1.0000   1.0000   1.0000   1.0000
     1.0000   1.0000   1.0000   1.0000   1.0000   1.0000   1.0000   1.0000
     1.0000   1.0000   1.0000   1.0000   1.0000   1.0000   1.0000   1.0000
     1.0000   1.0000   1.0000   1.0000   1.0000   1.0000   1.0000   1.0000
     1.0000   1.0000   1.0000   1.0000   1.0000   1.0000   1.0000   1.0000
     1.0000   1.0000   1.0000   1.0000   1.0000   1.0000   1.0000   1.0000
     1.0000   1.0000   1.0000   1.0000   1.0000   1.0000   1.0000   1.0000
     1.0000   1.0000   1.0000   1.0000   1.0000   1.0000   1.0000   1.0000
     1.0000   1.0000   1.0000   1.0000   1.0000   1.0000   1.0000   1.0000
     1.0000   1.0000   1.0000   1.0000   1.0000   1.0000   1.0000   1.0000
     1.0000   1.0000   1.0000   1.0000   1.0000   1.0000   1.0000   1.0000
     1.0000   1.0000   1.0000   1.0000   1.0000   1.0000   1.0000   1.0000
     1.0000   1.0000   1.0000   1.0000   1.0000   1.0000   1.0000   1.0000
     1.0000   1.0000   1.0000   1.0000   1.0000   1.0000   1.0000   1.0000
     1.0000   1.0000   1.0000   1.0000   1.0000   1.0000   1.0000   1.0000
     1.0000   1.0000   1.0000   1.0000   1.0000   1.0000   1.0000   1.0000
     1.0000   1.0000   1.0000   1.0000   1.0000   1.0000   1.0000   1.0000
     1.0000   1.0000   1.0000   1.0000   1.0000   1.0000   1.0000   1.0000
     1.0000   1.0000   1.0000   1.0000   1.0000   1.0000   1.0000   1.0000
     1.0000   1.0000   1.0000   1.0000   1.0000   1.0000   1.0000   1.0000
     1.0000   1.0000   1.0000   1.0000   1.0000   1.0000   1.0000   1.0000
     1.0000   1.0000   1.0000   1.0000   1.0000   1.0000   1.0000   1.0000
     1.0000   1.0000   1.0000   1.0000   1.0000   1.0000   1.0000   1.0000
     1.0000   1.0000   1.0000   1.0000   1.0000   1.0000   1.0000   1.0000
     1.0000   1.0000   1.0000   1.0000   1.0000   1.0000   1.0000   1.0000
     1.0000   1.0000   1.0000   1.0000   1.0000   1.0000   1.0000   1.0000
     1.0000   1.0000   1.0000   1.0000   1.0000   1.0000   1.0000   1.0000
     1.0000   1.0000   1.0000   1.0000   1.0000   1.0000   1.0000   1.0000
     1.0000   1.0000   1.0000   1.0000   1.0000   1.0000   1.0000   1.0000
     1.0000   1.0000   1.0000   1.0000   1.0000   1.0000   1.0000   1.0000
     1.0000   1.0000   1.0000   1.0000   1.0000   1.0000   1.0000   1.0000
     1.0000   1.0000   1.0000   1.0000   1.0000   1.0000   1.0000   1.0000
     1.0000   1.0000   1.0000   1.0000   1.0000   1.0000   1.0000   1.0000
     1.0000   1.0000   1.0000   1.0000   1.0000   1.0000

          k = 0.0002-0.0001 0.4072 ( 44770 PWs)   bands (ev):

  -115.4386-115.4366-115.4315-115.4214-115.4195-115.4194-115.4159-115.4153
  -115.4153-115.4153-115.4151-115.4150-115.4147-115.4130-115.4123-115.4120
  -115.4081-115.4072-115.4069-115.4057-115.4044-115.3963 -69.7995 -69.7971
   -69.7949 -69.7937 -69.7919 -69.7914 -69.7903 -69.7873 -69.7839 -69.7837
   -69.7831 -69.7822 -69.7792 -69.7788 -69.7785 -69.7784 -69.7782 -69.7777
   -69.7772 -69.7770 -69.7767 -69.7761 -69.7753 -69.7749 -69.7749 -69.7740
   -69.7735 -69.7721 -69.7713 -69.7712 -69.7711 -69.7710 -69.7708 -69.7706
   -69.7705 -69.7705 -69.7700 -69.7696 -69.7692 -69.7692 -69.7689 -69.7683
   -69.7681 -69.7681 -69.7672 -69.7669 -69.7667 -69.7661 -69.7656 -69.7650
   -69.7645 -69.7644 -69.7632 -69.7631 -69.7627 -69.7623 -69.7614 -69.7593
   -69.7589 -69.7588 -69.7574 -69.7570 -69.7559 -69.7544 -69.7530 -69.7481
   -64.8570 -64.8544 -64.8517 -64.8514 -64.8433 -64.8401 -64.8370 -64.8324
   -64.8258 -64.8243 -64.8172 -64.8147 -64.8044 -64.7932 -31.8534 -31.8503
   -31.8474 -31.8470 -31.8441 -31.8438 -31.8434 -31.8412 -31.8408 -31.8386
   -31.8384 -31.8360 -31.8356 -31.8341 -31.8305 -31.8296 -31.8278 -31.8268
   -31.8261 -31.8241 -31.8237 -31.8232 -31.8199 -31.8176 -31.8173 -31.8160
   -31.8144 -31.8114 -31.8097 -31.8087 -31.8080 -31.8072 -31.8020 -31.8018
   -31.7996 -31.7987 -31.7942 -31.7891 -31.7868 -31.7848 -31.7788 -31.7777
   -10.0396  -9.9638  -9.6781  -9.6651  -9.6257  -9.6158  -9.5730  -9.5448
    -9.5353  -9.5033  -9.4834  -9.4612  -9.4397  -9.4050  -9.3921  -9.3671
    -9.3241  -9.3061  -9.2660  -9.2527  -9.2399  -9.2126  -9.2030  -9.1840
    -9.1666  -9.1536  -9.1341  -9.1228  -9.1112  -9.1044  -9.0960  -9.0930
    -9.0057  -8.9929  -8.9558  -8.9224   1.7444   1.7561   1.7812   1.7947
     1.8223   1.8342   1.8507   1.8634   1.8759   1.9074   1.9167   1.9346
     1.9647   1.9788   2.0136   2.0466   2.0583   2.0685   2.0782   2.0948
     2.1117   2.1174   2.1380   2.1508   2.1612   2.1711   2.1905   2.2001
     2.2064   2.2182   2.2294   2.2497   2.2575   2.2733   2.2813   2.3047
     2.3116   2.3300   2.3374   2.3533   2.3677   2.3782   2.3964   2.4030
     2.4089   2.4210   2.4269   2.4359   2.4473   2.4603   2.4712   2.4838
     2.4977   2.5077   2.5255   2.5281   2.5419   2.5572   2.5971   2.6088
     2.6374   2.6539   2.6697   2.6875   2.7044   2.7233   2.7398   2.7676
     2.7819   2.7944   2.8061   2.8292   2.8343   2.8491   2.8519   2.8736
     2.8826   2.8942   2.9198   2.9374   2.9598   2.9722   3.0024   3.0104
     3.0191   3.0377   3.0507   3.0782   3.0911   3.1184   3.1361   3.1550
     3.1757   3.1897   3.2080   3.2207   3.2270   3.2464   3.2535   3.2617
     3.2708   3.2875   3.2964   3.3055   3.3075   3.3159   3.3341   3.3523
     3.3644   3.3987   3.5614   3.6073   3.6293   3.6793   3.7027   3.7329
     3.7545   3.7630   3.7959   3.8267   3.8843   3.9027   3.9256   3.9522
     3.9983   4.0270   4.0646   4.0948   4.1199   4.1476   4.1711   4.1953
     4.2290   4.2553   4.3142   4.4054   4.4236   4.4551   4.4733   4.5515
     4.5752   4.6037   4.6287   4.6961   4.7474   4.7701   4.8384   4.8603
     4.9315   4.9821   5.0740   5.1315   5.1921   5.2364   5.2886   5.2984
     5.3279   5.3533   5.3969   5.4179   5.4352   5.4631   5.5064   5.5406
     5.6739   5.6889   5.7021   5.7343   5.7468   5.7675   5.8008   5.8229
     5.8512   5.8811   5.9036   5.9103   5.9419   5.9636   5.9783   6.0025
     6.0071   6.0223   6.0719   6.1538   6.2714   6.3056   6.3327   6.3572
     6.3861   6.4170   6.4437   6.4579   6.4996   6.5267   6.5430   6.5934
     6.6012   6.6272   6.6486   6.6818   6.7062   6.7114   6.7355   6.7496
     6.7587   6.7854   6.8011   6.8129   6.8243   6.8477   6.8604   6.8790
     6.9028   6.9154   7.1546   7.1726   7.2566   7.2795

     occupation numbers 
     1.0000   1.0000   1.0000   1.0000   1.0000   1.0000   1.0000   1.0000
     1.0000   1.0000   1.0000   1.0000   1.0000   1.0000   1.0000   1.0000
     1.0000   1.0000   1.0000   1.0000   1.0000   1.0000   1.0000   1.0000
     1.0000   1.0000   1.0000   1.0000   1.0000   1.0000   1.0000   1.0000
     1.0000   1.0000   1.0000   1.0000   1.0000   1.0000   1.0000   1.0000
     1.0000   1.0000   1.0000   1.0000   1.0000   1.0000   1.0000   1.0000
     1.0000   1.0000   1.0000   1.0000   1.0000   1.0000   1.0000   1.0000
     1.0000   1.0000   1.0000   1.0000   1.0000   1.0000   1.0000   1.0000
     1.0000   1.0000   1.0000   1.0000   1.0000   1.0000   1.0000   1.0000
     1.0000   1.0000   1.0000   1.0000   1.0000   1.0000   1.0000   1.0000
     1.0000   1.0000   1.0000   1.0000   1.0000   1.0000   1.0000   1.0000
     1.0000   1.0000   1.0000   1.0000   1.0000   1.0000   1.0000   1.0000
     1.0000   1.0000   1.0000   1.0000   1.0000   1.0000   1.0000   1.0000
     1.0000   1.0000   1.0000   1.0000   1.0000   1.0000   1.0000   1.0000
     1.0000   1.0000   1.0000   1.0000   1.0000   1.0000   1.0000   1.0000
     1.0000   1.0000   1.0000   1.0000   1.0000   1.0000   1.0000   1.0000
     1.0000   1.0000   1.0000   1.0000   1.0000   1.0000   1.0000   1.0000
     1.0000   1.0000   1.0000   1.0000   1.0000   1.0000   1.0000   1.0000
     1.0000   1.0000   1.0000   1.0000   1.0000   1.0000   1.0000   1.0000
     1.0000   1.0000   1.0000   1.0000   1.0000   1.0000   1.0000   1.0000
     1.0000   1.0000   1.0000   1.0000   1.0000   1.0000   1.0000   1.0000
     1.0000   1.0000   1.0000   1.0000   1.0000   1.0000   1.0000   1.0000
     1.0000   1.0000   1.0000   1.0000   1.0000   1.0000   1.0000   1.0000
     1.0000   1.0000   1.0000   1.0000   1.0000   1.0000   1.0000   1.0000
     1.0000   1.0000   1.0000   1.0000   1.0000   1.0000   1.0000   1.0000
     1.0000   1.0000   1.0000   1.0000   1.0000   1.0000   1.0000   1.0000
     1.0000   1.0000   1.0000   1.0000   1.0000   1.0000   1.0000   1.0000
     1.0000   1.0000   1.0000   1.0000   1.0000   1.0000   1.0000   1.0000
     1.0000   1.0000   1.0000   1.0000   1.0000   1.0000   1.0000   1.0000
     1.0000   1.0000   1.0000   1.0000   1.0000   1.0000   1.0000   1.0000
     1.0000   1.0000   1.0000   1.0000   1.0000   1.0000   1.0000   1.0000
     1.0000   1.0000   1.0000   1.0000   1.0000   1.0000   1.0000   1.0000
     1.0000   1.0000   1.0000   1.0000   1.0000   1.0000   1.0000   1.0000
     1.0000   1.0000   1.0000   1.0000   1.0000   1.0000   1.0000   1.0000
     1.0000   1.0000   1.0000   1.0000   1.0000   1.0000   1.0000   1.0000
     1.0000   1.0000   1.0000   1.0000   1.0000   1.0000   1.0000   1.0000
     1.0000   1.0000   1.0000   1.0000   1.0000   1.0000   1.0000   1.0000
     1.0000   1.0000   1.0000   1.0000   1.0000   1.0000   1.0000   1.0000
     1.0000   1.0000   1.0000   1.0000   1.0000   1.0000   1.0000   1.0000
     1.0000   1.0000   1.0000   1.0000   1.0000   1.0000   1.0000   1.0000
     1.0000   1.0000   1.0000   1.0000   1.0000   1.0000   1.0000   1.0000
     1.0000   1.0000   1.0000   1.0000   1.0000   1.0000   1.0000   1.0000
     1.0000   1.0000   1.0000   1.0000   1.0000   1.0000   1.0000   1.0000
     1.0000   1.0000   1.0000   1.0000   1.0000   1.0000   1.0000   1.0000
     1.0000   1.0000   1.0000   1.0000   1.0000   1.0000   1.0000   1.0000
     1.0000   1.0000   1.0000   1.0000   1.0000   1.0000   1.0000   1.0000
     1.0000   1.0000   1.0000   1.0000   1.0000   1.0000   1.0000   1.0000
     1.0000   1.0000   1.0000   1.0000   1.0000   1.0000   1.0000   1.0000
     1.0000   1.0000   1.0000   1.0000   1.0000   1.0000   1.0000   1.0000
     1.0000   1.0000   1.0000   1.0000   1.0000   1.0000

          k = 0.0002-0.0001 0.5430 ( 44770 PWs)   bands (ev):

  -115.4386-115.4366-115.4315-115.4214-115.4195-115.4194-115.4159-115.4153
  -115.4153-115.4153-115.4151-115.4150-115.4147-115.4130-115.4123-115.4120
  -115.4081-115.4072-115.4069-115.4057-115.4044-115.3963 -69.7995 -69.7971
   -69.7949 -69.7937 -69.7919 -69.7914 -69.7903 -69.7873 -69.7839 -69.7837
   -69.7831 -69.7822 -69.7792 -69.7788 -69.7785 -69.7784 -69.7782 -69.7777
   -69.7772 -69.7770 -69.7767 -69.7761 -69.7753 -69.7749 -69.7749 -69.7740
   -69.7735 -69.7721 -69.7713 -69.7712 -69.7711 -69.7710 -69.7708 -69.7706
   -69.7705 -69.7705 -69.7700 -69.7696 -69.7692 -69.7692 -69.7689 -69.7683
   -69.7681 -69.7681 -69.7672 -69.7669 -69.7667 -69.7661 -69.7656 -69.7650
   -69.7645 -69.7644 -69.7632 -69.7631 -69.7627 -69.7623 -69.7614 -69.7593
   -69.7589 -69.7588 -69.7574 -69.7570 -69.7559 -69.7544 -69.7530 -69.7481
   -64.8570 -64.8544 -64.8517 -64.8514 -64.8433 -64.8401 -64.8370 -64.8324
   -64.8258 -64.8243 -64.8172 -64.8147 -64.8044 -64.7932 -31.8534 -31.8503
   -31.8474 -31.8470 -31.8441 -31.8438 -31.8434 -31.8412 -31.8408 -31.8386
   -31.8384 -31.8360 -31.8356 -31.8341 -31.8305 -31.8296 -31.8278 -31.8268
   -31.8261 -31.8241 -31.8237 -31.8232 -31.8199 -31.8176 -31.8173 -31.8160
   -31.8144 -31.8114 -31.8097 -31.8087 -31.8080 -31.8072 -31.8020 -31.8018
   -31.7996 -31.7987 -31.7942 -31.7891 -31.7868 -31.7848 -31.7788 -31.7777
   -10.0396  -9.9638  -9.6781  -9.6651  -9.6257  -9.6158  -9.5730  -9.5448
    -9.5353  -9.5033  -9.4834  -9.4612  -9.4397  -9.4050  -9.3921  -9.3671
    -9.3241  -9.3061  -9.2660  -9.2527  -9.2399  -9.2126  -9.2030  -9.1840
    -9.1666  -9.1536  -9.1341  -9.1228  -9.1112  -9.1044  -9.0960  -9.0930
    -9.0057  -8.9929  -8.9558  -8.9224   1.7444   1.7561   1.7812   1.7947
     1.8223   1.8342   1.8507   1.8634   1.8759   1.9074   1.9167   1.9346
     1.9647   1.9788   2.0136   2.0466   2.0583   2.0685   2.0782   2.0948
     2.1117   2.1174   2.1380   2.1508   2.1612   2.1711   2.1905   2.2001
     2.2064   2.2182   2.2294   2.2497   2.2575   2.2733   2.2813   2.3047
     2.3116   2.3300   2.3374   2.3533   2.3677   2.3782   2.3964   2.4030
     2.4089   2.4210   2.4269   2.4359   2.4473   2.4603   2.4712   2.4838
     2.4977   2.5077   2.5255   2.5281   2.5419   2.5572   2.5971   2.6088
     2.6374   2.6539   2.6697   2.6875   2.7044   2.7233   2.7398   2.7676
     2.7819   2.7944   2.8061   2.8292   2.8343   2.8491   2.8519   2.8736
     2.8826   2.8942   2.9198   2.9374   2.9598   2.9722   3.0024   3.0104
     3.0191   3.0377   3.0507   3.0782   3.0911   3.1184   3.1361   3.1550
     3.1757   3.1897   3.2080   3.2207   3.2270   3.2464   3.2535   3.2617
     3.2708   3.2875   3.2964   3.3055   3.3075   3.3159   3.3341   3.3523
     3.3644   3.3987   3.5614   3.6073   3.6293   3.6793   3.7027   3.7329
     3.7545   3.7630   3.7959   3.8267   3.8843   3.9027   3.9256   3.9522
     3.9983   4.0270   4.0646   4.0948   4.1199   4.1476   4.1711   4.1953
     4.2290   4.2553   4.3142   4.4054   4.4236   4.4551   4.4733   4.5515
     4.5752   4.6037   4.6287   4.6961   4.7474   4.7701   4.8384   4.8603
     4.9315   4.9821   5.0740   5.1315   5.1921   5.2364   5.2886   5.2984
     5.3279   5.3533   5.3969   5.4179   5.4352   5.4631   5.5064   5.5406
     5.6739   5.6889   5.7021   5.7343   5.7468   5.7675   5.8008   5.8229
     5.8512   5.8811   5.9036   5.9103   5.9419   5.9636   5.9783   6.0025
     6.0071   6.0223   6.0719   6.1538   6.2714   6.3056   6.3327   6.3572
     6.3861   6.4170   6.4437   6.4579   6.4996   6.5267   6.5430   6.5934
     6.6012   6.6272   6.6486   6.6818   6.7062   6.7114   6.7355   6.7496
     6.7587   6.7854   6.8011   6.8129   6.8243   6.8477   6.8604   6.8790
     6.9028   6.9154   7.1546   7.1726   7.2566   7.2795

     occupation numbers 
     1.0000   1.0000   1.0000   1.0000   1.0000   1.0000   1.0000   1.0000
     1.0000   1.0000   1.0000   1.0000   1.0000   1.0000   1.0000   1.0000
     1.0000   1.0000   1.0000   1.0000   1.0000   1.0000   1.0000   1.0000
     1.0000   1.0000   1.0000   1.0000   1.0000   1.0000   1.0000   1.0000
     1.0000   1.0000   1.0000   1.0000   1.0000   1.0000   1.0000   1.0000
     1.0000   1.0000   1.0000   1.0000   1.0000   1.0000   1.0000   1.0000
     1.0000   1.0000   1.0000   1.0000   1.0000   1.0000   1.0000   1.0000
     1.0000   1.0000   1.0000   1.0000   1.0000   1.0000   1.0000   1.0000
     1.0000   1.0000   1.0000   1.0000   1.0000   1.0000   1.0000   1.0000
     1.0000   1.0000   1.0000   1.0000   1.0000   1.0000   1.0000   1.0000
     1.0000   1.0000   1.0000   1.0000   1.0000   1.0000   1.0000   1.0000
     1.0000   1.0000   1.0000   1.0000   1.0000   1.0000   1.0000   1.0000
     1.0000   1.0000   1.0000   1.0000   1.0000   1.0000   1.0000   1.0000
     1.0000   1.0000   1.0000   1.0000   1.0000   1.0000   1.0000   1.0000
     1.0000   1.0000   1.0000   1.0000   1.0000   1.0000   1.0000   1.0000
     1.0000   1.0000   1.0000   1.0000   1.0000   1.0000   1.0000   1.0000
     1.0000   1.0000   1.0000   1.0000   1.0000   1.0000   1.0000   1.0000
     1.0000   1.0000   1.0000   1.0000   1.0000   1.0000   1.0000   1.0000
     1.0000   1.0000   1.0000   1.0000   1.0000   1.0000   1.0000   1.0000
     1.0000   1.0000   1.0000   1.0000   1.0000   1.0000   1.0000   1.0000
     1.0000   1.0000   1.0000   1.0000   1.0000   1.0000   1.0000   1.0000
     1.0000   1.0000   1.0000   1.0000   1.0000   1.0000   1.0000   1.0000
     1.0000   1.0000   1.0000   1.0000   1.0000   1.0000   1.0000   1.0000
     1.0000   1.0000   1.0000   1.0000   1.0000   1.0000   1.0000   1.0000
     1.0000   1.0000   1.0000   1.0000   1.0000   1.0000   1.0000   1.0000
     1.0000   1.0000   1.0000   1.0000   1.0000   1.0000   1.0000   1.0000
     1.0000   1.0000   1.0000   1.0000   1.0000   1.0000   1.0000   1.0000
     1.0000   1.0000   1.0000   1.0000   1.0000   1.0000   1.0000   1.0000
     1.0000   1.0000   1.0000   1.0000   1.0000   1.0000   1.0000   1.0000
     1.0000   1.0000   1.0000   1.0000   1.0000   1.0000   1.0000   1.0000
     1.0000   1.0000   1.0000   1.0000   1.0000   1.0000   1.0000   1.0000
     1.0000   1.0000   1.0000   1.0000   1.0000   1.0000   1.0000   1.0000
     1.0000   1.0000   1.0000   1.0000   1.0000   1.0000   1.0000   1.0000
     1.0000   1.0000   1.0000   1.0000   1.0000   1.0000   1.0000   1.0000
     1.0000   1.0000   1.0000   1.0000   1.0000   1.0000   1.0000   1.0000
     1.0000   1.0000   1.0000   1.0000   1.0000   1.0000   1.0000   1.0000
     1.0000   1.0000   1.0000   1.0000   1.0000   1.0000   1.0000   1.0000
     1.0000   1.0000   1.0000   1.0000   1.0000   1.0000   1.0000   1.0000
     1.0000   1.0000   1.0000   1.0000   1.0000   1.0000   1.0000   1.0000
     1.0000   1.0000   1.0000   1.0000   1.0000   1.0000   1.0000   1.0000
     1.0000   1.0000   1.0000   1.0000   1.0000   1.0000   1.0000   1.0000
     1.0000   1.0000   1.0000   1.0000   1.0000   1.0000   1.0000   1.0000
     1.0000   1.0000   1.0000   1.0000   1.0000   1.0000   1.0000   1.0000
     1.0000   1.0000   1.0000   1.0000   1.0000   1.0000   1.0000   1.0000
     1.0000   1.0000   1.0000   1.0000   1.0000   1.0000   1.0000   1.0000
     1.0000   1.0000   1.0000   1.0000   1.0000   1.0000   1.0000   1.0000
     1.0000   1.0000   1.0000   1.0000   1.0000   1.0000   1.0000   1.0000
     1.0000   1.0000   1.0000   1.0000   1.0000   1.0000   1.0000   1.0000
     1.0000   1.0000   1.0000   1.0000   1.0000   1.0000   1.0000   1.0000
     1.0000   1.0000   1.0000   1.0000   1.0000   1.0000

          k = 0.0003-0.0002 0.6787 ( 44774 PWs)   bands (ev):

  -115.4386-115.4366-115.4315-115.4214-115.4195-115.4194-115.4159-115.4153
  -115.4153-115.4153-115.4151-115.4150-115.4147-115.4130-115.4123-115.4120
  -115.4081-115.4072-115.4069-115.4057-115.4044-115.3963 -69.7995 -69.7971
   -69.7949 -69.7937 -69.7919 -69.7914 -69.7903 -69.7873 -69.7839 -69.7837
   -69.7831 -69.7822 -69.7792 -69.7787 -69.7786 -69.7784 -69.7782 -69.7777
   -69.7772 -69.7770 -69.7767 -69.7761 -69.7753 -69.7749 -69.7749 -69.7740
   -69.7735 -69.7721 -69.7713 -69.7712 -69.7711 -69.7710 -69.7708 -69.7706
   -69.7705 -69.7705 -69.7700 -69.7696 -69.7692 -69.7692 -69.7689 -69.7683
   -69.7681 -69.7681 -69.7672 -69.7669 -69.7667 -69.7661 -69.7656 -69.7650
   -69.7645 -69.7644 -69.7632 -69.7631 -69.7627 -69.7623 -69.7614 -69.7593
   -69.7589 -69.7588 -69.7574 -69.7570 -69.7559 -69.7544 -69.7530 -69.7481
   -64.8570 -64.8544 -64.8517 -64.8514 -64.8433 -64.8401 -64.8370 -64.8324
   -64.8258 -64.8243 -64.8172 -64.8147 -64.8044 -64.7932 -31.8534 -31.8503
   -31.8473 -31.8469 -31.8441 -31.8440 -31.8434 -31.8411 -31.8407 -31.8386
   -31.8383 -31.8360 -31.8356 -31.8341 -31.8306 -31.8296 -31.8278 -31.8268
   -31.8261 -31.8241 -31.8237 -31.8232 -31.8199 -31.8176 -31.8173 -31.8160
   -31.8144 -31.8114 -31.8097 -31.8087 -31.8080 -31.8072 -31.8020 -31.8018
   -31.7996 -31.7987 -31.7942 -31.7891 -31.7868 -31.7848 -31.7788 -31.7777
   -10.0757  -9.9053  -9.6924  -9.6785  -9.6342  -9.6208  -9.5756  -9.5359
    -9.5183  -9.5043  -9.4840  -9.4571  -9.4345  -9.4008  -9.3880  -9.3624
    -9.3189  -9.3080  -9.2794  -9.2594  -9.2500  -9.2152  -9.2101  -9.1855
    -9.1619  -9.1576  -9.1387  -9.1211  -9.1140  -9.1072  -9.0971  -9.0841
    -9.0006  -8.9913  -8.9534  -8.9187   1.7352   1.7526   1.7674   1.7838
     1.8077   1.8225   1.8396   1.8560   1.8754   1.8838   1.9019   1.9180
     1.9538   1.9713   2.0048   2.0346   2.0521   2.0616   2.0711   2.0862
     2.1132   2.1170   2.1352   2.1597   2.1736   2.1799   2.2016   2.2092
     2.2247   2.2270   2.2379   2.2487   2.2653   2.2800   2.2884   2.3045
     2.3132   2.3312   2.3391   2.3486   2.3682   2.3755   2.3875   2.4007
     2.4085   2.4137   2.4267   2.4428   2.4499   2.4567   2.4673   2.4823
     2.4988   2.5178   2.5351   2.5651   2.5811   2.5922   2.6157   2.6319
     2.6535   2.6707   2.6812   2.6978   2.7215   2.7428   2.7573   2.7663
     2.7811   2.8049   2.8180   2.8308   2.8401   2.8573   2.8744   2.8846
     2.8955   2.9013   2.9213   2.9419   2.9606   2.9892   2.9959   3.0076
     3.0298   3.0391   3.0553   3.0844   3.0984   3.1160   3.1366   3.1456
     3.1785   3.1970   3.2052   3.2120   3.2247   3.2358   3.2486   3.2577
     3.2685   3.2824   3.2950   3.2994   3.3074   3.3185   3.3409   3.3516
     3.3638   3.3977   3.5002   3.5735   3.6209   3.6565   3.6963   3.7188
     3.7484   3.7705   3.7926   3.8262   3.8657   3.8934   3.9123   3.9304
     3.9646   3.9852   4.0452   4.0668   4.1096   4.1366   4.1764   4.2291
     4.2640   4.3053   4.3295   4.3967   4.4053   4.4677   4.4838   4.5286
     4.5446   4.6002   4.6024   4.6219   4.6729   4.7139   4.7821   4.8106
     4.8838   4.9567   5.0726   5.1240   5.1576   5.2236   5.2937   5.3601
     5.3937   5.4189   5.4510   5.4966   5.5217   5.5574   5.5821   5.6115
     5.6281   5.6696   5.6803   5.6953   5.7420   5.7591   5.7883   5.8051
     5.8377   5.8604   5.8778   5.9084   5.9366   5.9655   6.0116   6.0463
     6.0734   6.1031   6.1385   6.2294   6.2711   6.2985   6.3212   6.3488
     6.3787   6.4095   6.4227   6.4449   6.4790   6.5000   6.5282   6.5584
     6.5764   6.6057   6.6293   6.6657   6.6823   6.7057   6.7105   6.7233
     6.7539   6.7611   6.7775   6.7896   6.8207   6.8446   6.8603   6.9015
     6.9438   7.0454   7.1182   7.1496   7.2717   7.2938

     occupation numbers 
     1.0000   1.0000   1.0000   1.0000   1.0000   1.0000   1.0000   1.0000
     1.0000   1.0000   1.0000   1.0000   1.0000   1.0000   1.0000   1.0000
     1.0000   1.0000   1.0000   1.0000   1.0000   1.0000   1.0000   1.0000
     1.0000   1.0000   1.0000   1.0000   1.0000   1.0000   1.0000   1.0000
     1.0000   1.0000   1.0000   1.0000   1.0000   1.0000   1.0000   1.0000
     1.0000   1.0000   1.0000   1.0000   1.0000   1.0000   1.0000   1.0000
     1.0000   1.0000   1.0000   1.0000   1.0000   1.0000   1.0000   1.0000
     1.0000   1.0000   1.0000   1.0000   1.0000   1.0000   1.0000   1.0000
     1.0000   1.0000   1.0000   1.0000   1.0000   1.0000   1.0000   1.0000
     1.0000   1.0000   1.0000   1.0000   1.0000   1.0000   1.0000   1.0000
     1.0000   1.0000   1.0000   1.0000   1.0000   1.0000   1.0000   1.0000
     1.0000   1.0000   1.0000   1.0000   1.0000   1.0000   1.0000   1.0000
[...]
   -31.8471 -31.8468 -31.8444 -31.8441 -31.8433 -31.8411 -31.8407 -31.8386
   -31.8379 -31.8360 -31.8356 -31.8341 -31.8306 -31.8297 -31.8279 -31.8268
   -31.8261 -31.8241 -31.8237 -31.8231 -31.8200 -31.8176 -31.8173 -31.8160
   -31.8144 -31.8115 -31.8097 -31.8087 -31.8079 -31.8072 -31.8021 -31.8018
   -31.7996 -31.7987 -31.7942 -31.7890 -31.7868 -31.7849 -31.7788 -31.7777
    -9.9899  -9.9501  -9.7486  -9.7124  -9.6549  -9.6127  -9.5928  -9.5853
    -9.5143  -9.4754  -9.4659  -9.4439  -9.4093  -9.3940  -9.3549  -9.3378
    -9.3181  -9.3142  -9.2673  -9.2494  -9.2388  -9.2259  -9.2082  -9.1967
    -9.1889  -9.1849  -9.1643  -9.1225  -9.1126  -9.1102  -9.0871  -9.0665
    -8.9881  -8.9845  -8.9538  -8.9133   1.7441   1.7675   1.7853   1.7961
     1.8140   1.8207   1.8287   1.8681   1.8709   1.8931   1.9177   1.9265
     1.9543   1.9934   2.0003   2.0326   2.0430   2.0598   2.0607   2.0918
     2.1033   2.1234   2.1348   2.1534   2.1559   2.1722   2.1858   2.2100
     2.2274   2.2357   2.2390   2.2569   2.2656   2.2793   2.2910   2.3055
     2.3171   2.3229   2.3252   2.3485   2.3508   2.3589   2.3672   2.3854
     2.3950   2.3978   2.4070   2.4313   2.4335   2.4540   2.4596   2.4662
     2.4844   2.4977   2.5051   2.5217   2.5570   2.5679   2.5958   2.6227
     2.6637   2.6692   2.6871   2.6952   2.7251   2.7374   2.7568   2.7798
     2.7898   2.8067   2.8181   2.8388   2.8504   2.8609   2.8868   2.8975
     2.9107   2.9222   2.9416   2.9670   2.9791   2.9989   3.0297   3.0344
     3.0410   3.0482   3.0931   3.0984   3.1064   3.1254   3.1305   3.1375
     3.1687   3.1750   3.1905   3.2012   3.2132   3.2245   3.2348   3.2585
     3.2678   3.2802   3.2903   3.3024   3.3046   3.3258   3.3443   3.3536
     3.3699   3.4012   3.4131   3.4377   3.4879   3.5305   3.6045   3.6350
     3.6774   3.7080   3.7391   3.7491   3.7927   3.8170   3.8331   3.8761
     3.9237   3.9450   4.0235   4.0680   4.0863   4.1727   4.2107   4.2635
     4.3502   4.3767   4.4414   4.5461   4.6022   4.6403   4.7014   4.7377
     4.7679   4.8008   4.8363   4.8449   4.8785   4.9119   4.9401   4.9569
     4.9825   5.0103   5.0431   5.0709   5.0864   5.1673   5.1808   5.3744
     5.3838   5.4038   5.4298   5.4512   5.4725   5.5081   5.5198   5.5629
     5.6561   5.6931   5.7126   5.7530   5.8070   5.8202   5.8658   5.8919
     5.9442   5.9493   5.9702   5.9974   6.0315   6.0678   6.1029   6.1210
     6.1404   6.1737   6.1802   6.2172   6.2420   6.2600   6.2605   6.2906
     6.2972   6.3077   6.3324   6.3527   6.3784   6.3934   6.4092   6.4321
     6.4682   6.4849   6.5034   6.5191   6.5258   6.5466   6.5550   6.5889
     6.6148   6.6266   6.6493   6.6655   6.7378   6.7763   6.7901   6.8543
     6.8842   6.9015   7.1144   7.1464   7.1959   7.2341

     occupation numbers 
     1.0000   1.0000   1.0000   1.0000   1.0000   1.0000   1.0000   1.0000
     1.0000   1.0000   1.0000   1.0000   1.0000   1.0000   1.0000   1.0000
     1.0000   1.0000   1.0000   1.0000   1.0000   1.0000   1.0000   1.0000
     1.0000   1.0000   1.0000   1.0000   1.0000   1.0000   1.0000   1.0000
     1.0000   1.0000   1.0000   1.0000   1.0000   1.0000   1.0000   1.0000
     1.0000   1.0000   1.0000   1.0000   1.0000   1.0000   1.0000   1.0000
     1.0000   1.0000   1.0000   1.0000   1.0000   1.0000   1.0000   1.0000
     1.0000   1.0000   1.0000   1.0000   1.0000   1.0000   1.0000   1.0000
     1.0000   1.0000   1.0000   1.0000   1.0000   1.0000   1.0000   1.0000
     1.0000   1.0000   1.0000   1.0000   1.0000   1.0000   1.0000   1.0000
     1.0000   1.0000   1.0000   1.0000   1.0000   1.0000   1.0000   1.0000
     1.0000   1.0000   1.0000   1.0000   1.0000   1.0000   1.0000   1.0000
     1.0000   1.0000   1.0000   1.0000   1.0000   1.0000   1.0000   1.0000
     1.0000   1.0000   1.0000   1.0000   1.0000   1.0000   1.0000   1.0000
     1.0000   1.0000   1.0000   1.0000   1.0000   1.0000   1.0000   1.0000
     1.0000   1.0000   1.0000   1.0000   1.0000   1.0000   1.0000   1.0000
     1.0000   1.0000   1.0000   1.0000   1.0000   1.0000   1.0000   1.0000
     1.0000   1.0000   1.0000   1.0000   1.0000   1.0000   1.0000   1.0000
     1.0000   1.0000   1.0000   1.0000   1.0000   1.0000   1.0000   1.0000
     1.0000   1.0000   1.0000   1.0000   1.0000   1.0000   1.0000   1.0000
     1.0000   1.0000   1.0000   1.0000   1.0000   1.0000   1.0000   1.0000
     1.0000   1.0000   1.0000   1.0000   1.0000   1.0000   1.0000   1.0000
     1.0000   1.0000   1.0000   1.0000   1.0000   1.0000   1.0000   1.0000
     1.0000   1.0000   1.0000   1.0000   1.0000   1.0000   1.0000   1.0000
     1.0000   1.0000   1.0000   1.0000   1.0000   1.0000   1.0000   1.0000
     1.0000   1.0000   1.0000   1.0000   1.0000   1.0000   1.0000   1.0000
     1.0000   1.0000   1.0000   1.0000   1.0000   1.0000   1.0000   1.0000
     1.0000   1.0000   1.0000   1.0000   1.0000   1.0000   1.0000   1.0000
     1.0000   1.0000   1.0000   1.0000   1.0000   1.0000   1.0000   1.0000
     1.0000   1.0000   1.0000   1.0000   1.0000   1.0000   1.0000   1.0000
     1.0000   1.0000   1.0000   1.0000   1.0000   1.0000   1.0000   1.0000
     1.0000   1.0000   1.0000   1.0000   1.0000   1.0000   1.0000   1.0000
     1.0000   1.0000   1.0000   1.0000   1.0000   1.0000   1.0000   1.0000
     1.0000   1.0000   1.0000   1.0000   1.0000   1.0000   1.0000   1.0000
     1.0000   1.0000   1.0000   1.0000   1.0000   1.0000   1.0000   1.0000
     1.0000   1.0000   1.0000   1.0000   1.0000   1.0000   1.0000   1.0000
     1.0000   1.0000   1.0000   1.0000   1.0000   1.0000   1.0000   1.0000
     1.0000   1.0000   1.0000   1.0000   1.0000   1.0000   1.0000   1.0000
     1.0000   1.0000   1.0000   1.0000   1.0000   1.0000   1.0000   1.0000
     1.0000   1.0000   1.0000   1.0000   1.0000   1.0000   1.0000   1.0000
     1.0000   1.0000   1.0000   1.0000   1.0000   1.0000   1.0000   1.0000
     1.0000   1.0000   1.0000   1.0000   1.0000   1.0000   1.0000   1.0000
     1.0000   1.0000   1.0000   1.0000   1.0000   1.0000   1.0000   1.0000
     1.0000   1.0000   1.0000   1.0000   1.0000   1.0000   1.0000   1.0000
     1.0000   1.0000   1.0000   1.0000   1.0000   1.0000   1.0000   1.0000
     1.0000   1.0000   1.0000   1.0000   1.0000   1.0000   1.0000   1.0000
     1.0000   1.0000   1.0000   1.0000   1.0000   1.0000   1.0000   1.0000
     1.0000   1.0000   1.0000   1.0000   1.0000   1.0000   1.0000   1.0000
     1.0000   1.0000   1.0000   1.0000   1.0000   1.0000   1.0000   1.0000
     1.0000   1.0000   1.0000   1.0000   1.0000   1.0000

     highest occupied level (ev):     7.3125



               ==================================================
                            POLARIZATION CALCULATION
                         !!! NOT THOROUGHLY TESTED !!!
               --------------------------------------------------


                     K-POINTS STRINGS USED IN CALCULATIONS
                     ~~~~~~~~~~~~~~~~~~~~~~~~~~~~~~~~~~~~~

       G-vector along string (2 pi/a):  0.00039 -0.00024  0.95021
       Modulus of the vector (1/bohr):  0.32406
       Number of k-points per string:   8
       Number of different strings  :  10


                               IONIC POLARIZATION
                               ~~~~~~~~~~~~~~~~~~

        Note: (mod 1) means that the phases (angles ranging from
        -pi to pi) have been mapped to the interval [-1/2,+1/2) by
        dividing by 2*pi; (mod 2) refers to the interval [-1,+1)

  ============================================================================
    Ion    Species    Charge              Position                Phase
  ----------------------------------------------------------------------------
     1        Zn      20.000       0.1663  0.0973  0.2055    -0.09382 (mod 2)
     2        Zn      20.000       0.1677  0.0961  0.7321    -0.08612 (mod 2)
     3        Zn      20.000       0.0019  0.3863  0.2061    -0.08476 (mod 2)
     4        Zn      20.000      -0.0010  0.3853  0.7314    -0.10302 (mod 2)
     5        Zn      20.000      -0.1662  0.6731  0.2035    -0.13671 (mod 2)
     6        Mg      10.000      -0.1656  0.6765  0.7329     0.96211 (mod 2)
     7        Zn      20.000       0.5011  0.0966  0.2053    -0.09448 (mod 2)
     8        Zn      20.000       0.4994  0.0973  0.7318    -0.08951 (mod 2)
     9        Mg      10.000       0.3329  0.3861  0.2052    -0.05008 (mod 2)
    10        Mg      10.000       0.3335  0.3849  0.7308     0.94468 (mod 2)
    11        Mg      10.000       0.1651  0.6728  0.2066    -0.03783 (mod 2)
    12        Zn      20.000       0.1671  0.6755  0.7281    -0.16570 (mod 2)
    13        Mg      10.000       0.8338  0.0981  0.2029    -0.06899 (mod 2)
    14        Mg      10.000       0.8344  0.0966  0.7300     0.93970 (mod 2)
    15        Zn      20.000       0.6669  0.3854  0.2027    -0.14408 (mod 2)
    16        Mg      10.000       0.6658  0.3868  0.7341     0.97700 (mod 2)
    17        Zn      20.000       0.4978  0.6739  0.2057    -0.08940 (mod 2)
    18        Zn      20.000       0.5016  0.6743  0.7312    -0.10347 (mod 2)
    19        Zn      20.000      -0.0018  0.1929  0.4692     0.91502 (mod 2)
    20        Zn      20.000       0.0004  0.1923  0.9946     0.90001 (mod 2)
    21        Mg      10.000      -0.1689  0.4818  0.4685     0.44973 (mod 2)
    22        Zn      20.000      -0.1650  0.4812  0.9931     0.86895 (mod 2)
    23        Zn      20.000      -0.3317  0.7695  0.4677     0.88241 (mod 2)
    24        Mg      10.000      -0.3352  0.7695  0.9975    -0.52466 (mod 2)
    25        Zn      20.000       0.3328  0.1921  0.4671     0.87767 (mod 2)
    26        Mg      10.000       0.3330  0.1922  0.9955    -0.53948 (mod 2)
    27        Mg      10.000       0.1652  0.4795  0.4697     0.46216 (mod 2)
    28        Zn      20.000       0.1662  0.4825  0.9922     0.85501 (mod 2)
    29        Zn      20.000      -0.0019  0.7704  0.4689     0.90735 (mod 2)
    30        Zn      20.000       0.0023  0.7695  0.9951     0.90637 (mod 2)
    31        Mg      10.000       0.6648  0.1944  0.4684     0.45307 (mod 2)
    32        Zn      20.000       0.6672  0.1913  0.9919     0.85521 (mod 2)
    33        Zn      20.000       0.5019  0.4803  0.4689     0.91204 (mod 2)
    34        Zn      20.000       0.4980  0.4828  0.9945     0.90094 (mod 2)
    35        Mg      10.000       0.3351  0.7708  0.4675     0.44172 (mod 2)
    36        Mg      10.000       0.3318  0.7679  0.9926    -0.56875 (mod 2)
    37        O        6.000       0.1673  0.0956  0.0025     0.01452 (mod 2)
    38        O        6.000       0.1659  0.0962  0.5286    -0.98624 (mod 2)
    39        O        6.000       0.0010  0.3846  0.0027     0.01457 (mod 2)
    40        O        6.000      -0.0021  0.3856  0.5281    -0.98988 (mod 2)
    41        O        6.000      -0.1661  0.6738  0.0003     0.00032 (mod 2)
    42        O        6.000      -0.1667  0.6732  0.5311    -0.97340 (mod 2)
    43        O        6.000       0.5008  0.0962  0.0020     0.01268 (mod 2)
    44        O        6.000       0.4992  0.0967  0.5284    -0.98646 (mod 2)
    45        O        6.000       0.3327  0.3844  0.0027     0.01534 (mod 2)
    46        O        6.000       0.3330  0.3850  0.5285    -0.98661 (mod 2)
    47        O        6.000       0.1675  0.6728  0.0047     0.02622 (mod 2)
    48        O        6.000       0.1675  0.6736  0.5246     0.99038 (mod 2)
    49        O        6.000       0.8339  0.0943  0.0005     0.00462 (mod 2)
    50        O        6.000       0.8312  0.0964  0.5278    -0.98934 (mod 2)
    51        O        6.000       0.6671  0.3848 -0.0008    -0.00361 (mod 2)
    52        O        6.000       0.6673  0.3850  0.5318    -0.96723 (mod 2)
    53        O        6.000       0.4988  0.6741  0.0026     0.01492 (mod 2)
    54        O        6.000       0.5010  0.6739  0.5278    -0.99046 (mod 2)
    55        O        6.000      -0.0004  0.1932  0.2656    -0.48622 (mod 2)
    56        O        6.000       0.0002  0.1928  0.7914     0.51163 (mod 2)
    57        O        6.000      -0.1667  0.4812  0.2662    -0.48324 (mod 2)
    58        O        6.000      -0.1671  0.4833  0.7899     0.50257 (mod 2)
    59        O        6.000      -0.3336  0.7696  0.2641    -0.49620 (mod 2)
    60        O        6.000      -0.3327  0.7703  0.7952     0.53178 (mod 2)
    61        O        6.000       0.3337  0.1934  0.2635    -0.49701 (mod 2)
    62        O        6.000       0.3334  0.1937  0.7937     0.52569 (mod 2)
    63        O        6.000       0.1678  0.4817  0.2680    -0.47240 (mod 2)
    64        O        6.000       0.1668  0.4822  0.7887     0.49628 (mod 2)
    65        O        6.000      -0.0008  0.7701  0.2656    -0.48701 (mod 2)
    66        O        6.000       0.0015  0.7711  0.7920     0.51405 (mod 2)
    67        O        6.000       0.6676  0.1934  0.2662    -0.48084 (mod 2)
    68        O        6.000       0.6678  0.1934  0.7886     0.49743 (mod 2)
    69        O        6.000       0.5002  0.4811  0.2652    -0.48727 (mod 2)
    70        O        6.000       0.4988  0.4817  0.7915     0.51308 (mod 2)
    71        O        6.000       0.3313  0.7718  0.2649    -0.49006 (mod 2)
    72        O        6.000       0.3339  0.7708  0.7905     0.50637 (mod 2)
  ----------------------------------------------------------------------------
                                               IONIC PHASE:  -0.13077 (mod 2)
  ============================================================================


                            ELECTRONIC POLARIZATION
                            ~~~~~~~~~~~~~~~~~~~~~~~

        Note: (mod 1) means that the phases (angles ranging from
        -pi to pi) have been mapped to the interval [-1/2,+1/2) by
        dividing by 2*pi; (mod 2) refers to the interval [-1,+1)

  ============================================================================
   Spin    String     Weight      First k-point in string         Phase
  ----------------------------------------------------------------------------
    up        1      0.062500      0.0000  0.0000  0.0000     0.00447 (mod 1)
    up        2      0.125000     -0.0001  0.2886 -0.0001     0.00076 (mod 1)
    up        3      0.062500      0.0002 -0.5771  0.0001    -0.00196 (mod 1)
    up        4      0.125000      0.2499  0.1442  0.0001     0.00078 (mod 1)
    up        5      0.125000      0.2498  0.4327 -0.0000    -0.00195 (mod 1)
    up        6      0.125000      0.2502 -0.4330  0.0002    -0.00198 (mod 1)
    up        7      0.125000      0.2501 -0.1444  0.0001     0.00075 (mod 1)
    up        8      0.062500     -0.4999 -0.2884 -0.0001    -0.00193 (mod 1)
    up        9      0.125000     -0.5000  0.0002 -0.0002    -0.00198 (mod 1)
    up       10      0.062500     -0.4996 -0.8655  0.0000    -0.00199 (mod 1)
  ----------------------------------------------------------------------------
   down       1      0.062500      0.0000  0.0000  0.0000     0.00447 (mod 1)
   down       2      0.125000     -0.0001  0.2886 -0.0001     0.00076 (mod 1)
   down       3      0.062500      0.0002 -0.5771  0.0001    -0.00196 (mod 1)
   down       4      0.125000      0.2499  0.1442  0.0001     0.00078 (mod 1)
   down       5      0.125000      0.2498  0.4327 -0.0000    -0.00195 (mod 1)
   down       6      0.125000      0.2502 -0.4330  0.0002    -0.00198 (mod 1)
   down       7      0.125000      0.2501 -0.1444  0.0001     0.00075 (mod 1)
   down       8      0.062500     -0.4999 -0.2884 -0.0001    -0.00193 (mod 1)
   down       9      0.125000     -0.5000  0.0002 -0.0002    -0.00198 (mod 1)
   down      10      0.062500     -0.4996 -0.8655  0.0000    -0.00199 (mod 1)
  ----------------------------------------------------------------------------
                                        Average phase (up):  -0.00054 (mod 1)
                                      Average phase (down):  -0.00054 (mod 1)
                                          ELECTRONIC PHASE:  -0.00108 (mod 2)
  ============================================================================


                               SUMMARY OF PHASES
                               ~~~~~~~~~~~~~~~~~

                          Ionic Phase: -0.13077 (mod 2)
                     Electronic Phase: -0.00108 (mod 2)
                          TOTAL PHASE: -0.13185 (mod 2)


                             VALUES OF POLARIZATION
                             ~~~~~~~~~~~~~~~~~~~~~~

        The calculation of phases done along the direction of vector 3
        of the reciprocal lattice gives the following contribution to
        the polarization vector (in different units, and being Omega
        the volume of the unit cell):

           P =  -2.5563850  (mod  38.7775087)  (e/Omega).bohr

           P =  -0.0004484  (mod   0.0068015)  e/bohr^2

           P =  -0.0256348  (mod   0.3888512)  C/m^2

        The polarization direction is:  (-0.00042 , 0.00026 , 1.00000 )


               ==================================================



     Writing output data file ZnO.save/
 
     init_run     :      2.71s CPU      5.23s WALL (       1 calls)
     electrons    :   1404.73s CPU   1432.47s WALL (       1 calls)

     Called by init_run:
     wfcinit      :      0.00s CPU      0.01s WALL (       1 calls)
     wfcinit:atom :      0.15s CPU      0.15s WALL (      80 calls)
     wfcinit:wfcr :     63.98s CPU     65.28s WALL (      80 calls)
     potinit      :      0.19s CPU      0.31s WALL (       1 calls)
     hinit0       :      1.76s CPU      3.95s WALL (       1 calls)

     Called by electrons:
     c_bands      :   1002.84s CPU   1029.01s WALL (       1 calls)
     v_of_rho     :      0.14s CPU      0.16s WALL (       1 calls)
     v_h          :      0.01s CPU      0.01s WALL (       1 calls)
     v_xc         :      0.13s CPU      0.15s WALL (       1 calls)
     newd         :      0.08s CPU      0.11s WALL (       1 calls)

     Called by c_bands:
     init_us_2    :      0.71s CPU      0.73s WALL (     220 calls)
     cegterg      :    936.28s CPU    961.08s WALL (      80 calls)

     Called by sum_band:

     Called by *egterg:
     h_psi        :    411.34s CPU    421.37s WALL (    1128 calls)
     s_psi        :     34.70s CPU     34.71s WALL (    1128 calls)
     g_psi        :      0.33s CPU      0.34s WALL (     968 calls)
     cdiaghg      :    293.23s CPU    299.28s WALL (    1048 calls)
     cegterg:over :     72.57s CPU     82.13s WALL (     968 calls)
     cegterg:upda :     89.21s CPU     89.42s WALL (     968 calls)
     cegterg:last :     83.51s CPU     83.66s WALL (     320 calls)
     cdiaghg:chol :     17.10s CPU     17.38s WALL (    1048 calls)
     cdiaghg:inve :     11.98s CPU     12.04s WALL (    1048 calls)
     cdiaghg:para :     45.74s CPU     49.57s WALL (    2096 calls)

     Called by h_psi:
     h_psi:pot    :    410.39s CPU    420.39s WALL (    1128 calls)
     h_psi:calbec :     49.85s CPU     57.18s WALL (    1128 calls)
     vloc_psi     :    325.17s CPU    327.75s WALL (    1128 calls)
     add_vuspsi   :     35.36s CPU     35.45s WALL (    1128 calls)

     General routines
     calbec       :     58.31s CPU     66.76s WALL (    1268 calls)
     fft          :      1.69s CPU      3.83s WALL (      13 calls)
     ffts         :      0.01s CPU      0.01s WALL (       1 calls)
     fftw         :    321.64s CPU    324.21s WALL (  724834 calls)
     interpolate  :      0.01s CPU      0.02s WALL (       1 calls)
 
     Parallel routines
     fft_scatt_xy :      9.15s CPU      9.21s WALL (  724848 calls)
     fft_scatt_yz :    277.91s CPU    282.30s WALL (  724848 calls)
 
     PWSCF        :  24m42.49s CPU  25m28.14s WALL

 
   This run was terminated on:   2:36: 7  15Jul2022            

=------------------------------------------------------------------------------=
   JOB DONE.
=------------------------------------------------------------------------------=
