
     Program PWSCF v.6.4.1 starts on  8Nov2021 at 21:44:33 

     This program is part of the open-source Quantum ESPRESSO suite
     for quantum simulation of materials; please cite
         "P. Giannozzi et al., J. Phys.:Condens. Matter 21 395502 (2009);
         "P. Giannozzi et al., J. Phys.:Condens. Matter 29 465901 (2017);
          URL http://www.quantum-espresso.org", 
     in publications or presentations arising from this work. More details at
     http://www.quantum-espresso.org/quote

     Parallel version (MPI), running on   128 processors

     MPI processes distributed on     2 nodes
     K-points division:     npool     =       8
     R & G space division:  proc/nbgrp/npool/nimage =      16
     Waiting for input...
     Reading input from standard input
Warning: card &IONS ignored
Warning: card   UPSCALE           = 100.D0, ignored
Warning: card / ignored
Warning: card &CELL ignored
Warning: card   CELL_DYNAMICS     = 'BFGS' ignored
Warning: card   PRESS_CONV_THR    = 0.5D0 ignored
Warning: card   CELL_DOFREE = 'ALL' ignored
Warning: card / ignored

     Current dimensions of program PWSCF are:
     Max number of different atomic species (ntypx) = 10
     Max number of k-points (npk) =  40000
     Max angular momentum in pseudopotentials (lmaxx) =  3

     Subspace diagonalization in iterative solution of the eigenvalue problem:
     one sub-group per band group will be used
     scalapack distributed-memory algorithm (size of sub-group:  2*  2 procs)

 
     Parallelization info
     --------------------
     sticks:   dense  smooth     PW     G-vecs:    dense   smooth      PW
     Min         825     396    108                64410    21418    3082
     Max         826     397    109                64412    21420    3087
     Sum       13205    6349   1735              1030573   342699   49347
 


     bravais-lattice index     =            0
     lattice parameter (alat)  =      19.5815  a.u.
     unit-cell volume          =    5459.1992 (a.u.)^3
     number of atoms/cell      =           72
     number of atomic types    =            3
     number of electrons       =       816.00
     number of Kohn-Sham states=          490
     kinetic-energy cutoff     =      60.0000  Ry
     charge density cutoff     =     500.0000  Ry
     convergence threshold     =      1.0E-08
     mixing beta               =       0.5000
     number of iterations used =            8  plain     mixing
     Exchange-correlation      = SLA  PW   PSX  PSC ( 1  4 10  8 0 0)
     Using LIBXC version       =    4   3   4

     celldm(1)=  19.581452  celldm(2)=   0.000000  celldm(3)=   0.000000
     celldm(4)=   0.000000  celldm(5)=   0.000000  celldm(6)=   0.000000

     crystal axes: (cart. coord. in units of alat)
               a(1) = (   1.000000  -0.000655  -0.000032 )  
               a(2) = (  -0.500566   0.865600   0.000179 )  
               a(3) = (  -0.000039   0.000264   0.840314 )  

     reciprocal axes: (cart. coord. in units 2 pi/alat)
               b(1) = (  1.000379  0.578507 -0.000136 )  
               b(2) = (  0.000757  1.155706 -0.000363 )  
               b(3) = (  0.000038 -0.000224  1.190031 )  


     PseudoPot. # 1 for Zn read from file:
     ./GBRV_PBEsol/zn_pbesol_v1.uspp.F.UPF
     MD5 check sum: 7d8615e52efe7c1e2b1899de8658bae2
     Pseudo is Ultrasoft, Zval = 20.0
     Generated by new atomic code, or converted to UPF format
     Using radial grid of  943 points,  6 beta functions with: 
                l(1) =   0
                l(2) =   0
                l(3) =   1
                l(4) =   1
                l(5) =   2
                l(6) =   2
     Q(r) pseudized with  8 coefficients,  rinner =    1.100   1.100   1.100
                                                       1.100   1.100

     PseudoPot. # 2 for O  read from file:
     ./GBRV_PBEsol/o_pbesol_v1.2.uspp.F.UPF
     MD5 check sum: 501638753501ef6325af9037351f7734
     Pseudo is Ultrasoft + core correction, Zval =  6.0
     Generated by new atomic code, or converted to UPF format
     Using radial grid of  737 points,  5 beta functions with: 
                l(1) =   0
                l(2) =   0
                l(3) =   1
                l(4) =   1
                l(5) =   2
     Q(r) pseudized with  8 coefficients,  rinner =    0.900   0.900   0.900
                                                       0.900   0.900

     PseudoPot. # 3 for Mg read from file:
     ./GBRV_PBEsol/mg_pbesol_v1.4.uspp.F.UPF
     MD5 check sum: 4059f37963cf5867752dbf5ab2400678
     Pseudo is Ultrasoft, Zval = 10.0
     Generated by new atomic code, or converted to UPF format
     Using radial grid of  821 points,  7 beta functions with: 
                l(1) =   0
                l(2) =   0
                l(3) =   0
                l(4) =   1
                l(5) =   1
                l(6) =   2
                l(7) =   2
     Q(r) pseudized with  8 coefficients,  rinner =    1.200   1.200   1.200
                                                       1.200   1.200

     atomic species   valence    mass     pseudopotential
        Zn            20.00    65.38000     Zn( 1.00)
        O              6.00    15.99900     O ( 1.00)
        Mg            10.00    24.30500     Mg( 1.00)

     No symmetry found


                                    s                        frac. trans.

      isym =  1     identity                                     

 cryst.   s( 1) = (     1          0          0      )
                  (     0          1          0      )
                  (     0          0          1      )

 cart.    s( 1) = (  1.0000000  0.0000000 -0.0000000 )
                  ( -0.0000000  1.0000000  0.0000000 )
                  ( -0.0000000 -0.0000000  1.0000000 )


   Cartesian axes

     site n.     atom                  positions (alat units)
         1           Zn  tau(   1) = (   0.1668826   0.0969513   0.2132548  )
         2           Zn  tau(   2) = (   0.1666697   0.0966791   0.6324360  )
         3           Zn  tau(   3) = (   0.0000011   0.3845334   0.2107114  )
         4           Zn  tau(   4) = (  -0.0003264   0.3849169   0.6351829  )
         5           Zn  tau(   5) = (  -0.1669792   0.6742850   0.2126621  )
         6           Zn  tau(   6) = (  -0.1672146   0.6733614   0.6322388  )
         7           Zn  tau(   7) = (   0.4996437   0.0964828   0.2130137  )
         8           Zn  tau(   8) = (   0.5003594   0.0958232   0.6336673  )
         9           Zn  tau(   9) = (   0.3334953   0.3838255   0.2121261  )
        10           Mg  tau(  10) = (   0.3349156   0.3835136   0.6326701  )
        11           Mg  tau(  11) = (   0.1665972   0.6745887   0.2154213  )
        12           Zn  tau(  12) = (   0.1666144   0.6730229   0.6311984  )
        13           Zn  tau(  13) = (   0.8329472   0.0950899   0.2124819  )
        14           Mg  tau(  14) = (   0.8324161   0.0948129   0.6327925  )
        15           Zn  tau(  15) = (   0.6656103   0.3837055   0.2120754  )
        16           Mg  tau(  16) = (   0.6652205   0.3840964   0.6313253  )
        17           Mg  tau(  17) = (   0.4983915   0.6721801   0.2114355  )
        18           Mg  tau(  18) = (   0.4978097   0.6714044   0.6321175  )
        19           Zn  tau(  19) = (  -0.0001880   0.1936961   0.4223013  )
        20           Zn  tau(  20) = (   0.0006169   0.1930124   0.0024469  )
        21           Zn  tau(  21) = (  -0.1662094   0.4814788   0.4223234  )
        22           Mg  tau(  22) = (  -0.1661814   0.4814049   0.0017998  )
        23           Mg  tau(  23) = (  -0.3329903   0.7699234   0.4222161  )
        24           Mg  tau(  24) = (  -0.3319401   0.7708937   0.0033555  )
        25           Zn  tau(  25) = (   0.3337852   0.1926340   0.4233497  )
        26           Zn  tau(  26) = (   0.3333494   0.1920983   0.0009942  )
        27           Mg  tau(  27) = (   0.1657590   0.4798622   0.4244146  )
        28           Mg  tau(  28) = (   0.1665475   0.4801163   0.0033698  )
        29           Mg  tau(  29) = (  -0.0010562   0.7697563   0.4204837  )
        30           Zn  tau(  30) = (  -0.0002618   0.7685297   0.0014405  )
        31           Zn  tau(  31) = (   0.6658418   0.1918530   0.4244538  )
        32           Zn  tau(  32) = (   0.6661066   0.1922128   0.0016160  )
        33           Zn  tau(  33) = (   0.4990868   0.4800712   0.4237184  )
        34           Zn  tau(  34) = (   0.4999115   0.4793879   0.0017636  )
        35           Zn  tau(  35) = (   0.3322325   0.7681142   0.4224723  )
        36           Zn  tau(  36) = (   0.3319218   0.7682018   0.0031049  )
        37           O   tau(  37) = (   0.1666153   0.0967072   0.0029838  )
        38           O   tau(  38) = (   0.1667431   0.0966022   0.4222778  )
        39           O   tau(  39) = (   0.0001012   0.3850915   0.0024829  )
        40           O   tau(  40) = (  -0.0007539   0.3855234   0.4222999  )
        41           O   tau(  41) = (  -0.1667952   0.6737509   0.0018363  )
        42           O   tau(  42) = (  -0.1673381   0.6733889   0.4221927  )
        43           O   tau(  43) = (   0.4999054   0.0951950   0.0032013  )
        44           O   tau(  44) = (   0.4996256   0.0961795   0.4233262  )
        45           O   tau(  45) = (   0.3329041   0.3845822   0.0010307  )
        46           O   tau(  46) = (   0.3322309   0.3846748   0.4243916  )
        47           O   tau(  47) = (   0.1655616   0.6721150   0.0034058  )
        48           O   tau(  48) = (   0.1652097   0.6721983   0.4204598  )
        49           O   tau(  49) = (   0.8334193   0.0956558   0.0012870  )
        50           O   tau(  50) = (   0.8329101   0.0953195   0.4244301  )
        51           O   tau(  51) = (   0.6669344   0.3845877   0.0016523  )
        52           O   tau(  52) = (   0.6668112   0.3846300   0.4236952  )
        53           O   tau(  53) = (   0.5008458   0.6730506   0.0017998  )
        54           O   tau(  54) = (   0.5000902   0.6732529   0.4224487  )
        55           O   tau(  55) = (  -0.0005648   0.1922317   0.2132782  )
        56           O   tau(  56) = (  -0.0004655   0.1923101   0.6324596  )
        57           O   tau(  57) = (  -0.1671932   0.4812207   0.2107352  )
        58           O   tau(  58) = (  -0.1676357   0.4805655   0.6352060  )
        59           O   tau(  59) = (  -0.3349142   0.7691328   0.2126850  )
        60           O   tau(  60) = (  -0.3351650   0.7690833   0.6322624  )
        61           O   tau(  61) = (   0.3333980   0.1924369   0.2130374  )
        62           O   tau(  62) = (   0.3336506   0.1916215   0.6336903  )
        63           O   tau(  63) = (   0.1670623   0.4816337   0.2121499  )
        64           O   tau(  64) = (   0.1677496   0.4799943   0.6326936  )
        65           O   tau(  65) = (  -0.0001270   0.7695438   0.2154443  )
        66           O   tau(  66) = (  -0.0000473   0.7688548   0.6312219  )
        67           O   tau(  67) = (   0.6668561   0.1917077   0.2125054  )
        68           O   tau(  68) = (   0.6666247   0.1921478   0.6328162  )
        69           O   tau(  69) = (   0.4994108   0.4802342   0.2120991  )
        70           O   tau(  70) = (   0.4998420   0.4802034   0.6313487  )
        71           O   tau(  71) = (   0.3331356   0.7688797   0.2114589  )
        72           O   tau(  72) = (   0.3325506   0.7683676   0.6321411  )

   Crystallographic axes

     site n.     atom                  positions (cryst. coord.)
         1           Zn  tau(   1) = (  0.2230040  0.1120961  0.2537645  )
         2           Zn  tau(   2) = (  0.2225767  0.1116294  0.7526031  )
         3           Zn  tau(   3) = (  0.2224278  0.4443311  0.2506669  )
         4           Zn  tau(   4) = (  0.2222645  0.4446201  0.7558010  )
         5           Zn  tau(   5) = (  0.2230072  0.7790718  0.2529169  )
         6           Zn  tau(   6) = (  0.2221805  0.7778519  0.7522264  )
         7           Zn  tau(   7) = (  0.5556201  0.1118066  0.2534903  )
         8           Zn  tau(   8) = (  0.5558975  0.1108922  0.7540813  )
         9           Zn  tau(   9) = (  0.5556386  0.4437648  0.2523633  )
        10           Mg  tau(  10) = (  0.5568220  0.4432528  0.7528238  )
        11           Mg  tau(  11) = (  0.5568854  0.7796742  0.2562131  )
        12           Zn  tau(  12) = (  0.5559404  0.7777137  0.7510011  )
        13           Zn  tau(  13) = (  0.8882442  0.1104492  0.2528705  )
        14           Mg  tau(  14) = (  0.8874957  0.1099762  0.7530532  )
        15           Zn  tau(  15) = (  0.8878101  0.4438775  0.2523156  )
        16           Mg  tau(  16) = (  0.8875894  0.4441768  0.7512359  )
        17           Mg  tau(  17) = (  0.8874126  0.7771430  0.2514831  )
        18           Mg  tau(  18) = (  0.8863248  0.7760935  0.7521079  )
        19           Zn  tau(  19) = (  0.1118092  0.2237024  0.5025082  )
        20           Zn  tau(  20) = (  0.1122758  0.2230652  0.0028686  )
        21           Zn  tau(  21) = (  0.1122092  0.5561689  0.5024637  )
        22           Mg  tau(  22) = (  0.1122515  0.5562362  0.0020276  )
        23           Mg  tau(  23) = (  0.1122323  0.8894000  0.5022649  )
        24           Mg  tau(  24) = (  0.1139009  0.8906741  0.0038076  )
        25           Zn  tau(  25) = (  0.4452945  0.2227273  0.5037688  )
        26           Zn  tau(  26) = (  0.4446058  0.2222611  0.0011528  )
        27           Mg  tau(  27) = (  0.4433679  0.5545511  0.5049652  )
        28           Mg  tau(  28) = (  0.4443608  0.5549981  0.0039088  )
        29           Mg  tau(  29) = (  0.4441957  0.8894587  0.5002160  )
        30           Zn  tau(  30) = (  0.4443377  0.8881937  0.0015418  )
        31           Zn  tau(  31) = (  0.7770249  0.2220755  0.5050955  )
        32           Zn  tau(  32) = (  0.7775553  0.2226450  0.0019054  )
        33           Zn  tau(  33) = (  0.7769431  0.5550452  0.5041494  )
        34           Zn  tau(  34) = (  0.7774299  0.5544092  0.0020102  )
        35           Zn  tau(  35) = (  0.7766605  0.8878123  0.5025955  )
        36           Zn  tau(  36) = (  0.7764573  0.8880655  0.0035353  )
        37           O   tau(  37) = (  0.2226239  0.1118901  0.0035355  )
        38           O   tau(  38) = (  0.2226341  0.1116167  0.5025083  )
        39           O   tau(  39) = (  0.2228790  0.4450518  0.0028684  )
        40           O   tau(  40) = (  0.2222166  0.4453980  0.5024635  )
        41           O   tau(  41) = (  0.2229109  0.7785311  0.0020278  )
        42           O   tau(  42) = (  0.2221014  0.7779598  0.5022650  )
        43           O   tau(  43) = (  0.5551654  0.1103946  0.0038073  )
        44           O   tau(  44) = (  0.5553981  0.1113797  0.5037688  )
        45           O   tau(  45) = (  0.5555136  0.4447155  0.0011530  )
        46           O   tau(  46) = (  0.5548363  0.4446685  0.5049656  )
        47           O   tau(  47) = (  0.5544471  0.7768914  0.0039087  )
        48           O   tau(  48) = (  0.5540867  0.7768361  0.5002158  )
        49           O   tau(  49) = (  0.8890725  0.1111801  0.0015419  )
        50           O   tau(  50) = (  0.8883112  0.1106376  0.5050953  )
        51           O   tau(  51) = (  0.8896737  0.4449745  0.0019054  )
        52           O   tau(  52) = (  0.8895176  0.4448701  0.5041496  )
        53           O   tau(  53) = (  0.8903999  0.7782270  0.0020100  )
        54           O   tau(  54) = (  0.8897039  0.7783076  0.5025951  )
        55           O   tau(  55) = (  0.1106135  0.2220856  0.2537646  )
        56           O   tau(  56) = (  0.1107013  0.2220241  0.7526034  )
        57           O   tau(  57) = (  0.1111044  0.5559467  0.2506672  )
        58           O   tau(  58) = (  0.1102252  0.5550352  0.7558007  )
        59           O   tau(  59) = (  0.1098787  0.8885608  0.2529165  )
        60           O   tau(  60) = (  0.1095423  0.8883512  0.7522267  )
        61           O   tau(  61) = (  0.4448216  0.2225755  0.2534906  )
        62           O   tau(  62) = (  0.4445456  0.2214807  0.7540809  )
        63           O   tau(  63) = (  0.4457253  0.5566764  0.2523633  )
        64           O   tau(  64) = (  0.4454074  0.5546298  0.7528238  )
        65           O   tau(  65) = (  0.4450302  0.8892881  0.2562128  )
        66           O   tau(  66) = (  0.4446549  0.8883411  0.7510012  )
        67           O   tau(  67) = (  0.7779843  0.2219853  0.2528704  )
        68           O   tau(  68) = (  0.7779505  0.2223413  0.7530532  )
        69           O   tau(  69) = (  0.7773902  0.5553106  0.2523158  )
        70           O   tau(  70) = (  0.7777468  0.5551232  0.7512358  )
        71           O   tau(  71) = (  0.7780354  0.8887743  0.2514829  )
        72           O   tau(  72) = (  0.7770970  0.8880294  0.7521079  )

     number of k points=    36  Marzari-Vanderbilt smearing, width (Ry)=  0.0010
                       cart. coord. in units 2pi/alat
        k(    1) = (   0.0000000   0.0000000   0.0000000), wk =   0.0312500
        k(    2) = (   0.0000095  -0.0000561   0.2975078), wk =   0.0625000
        k(    3) = (  -0.0000190   0.0001121  -0.5950155), wk =   0.0312500
        k(    4) = (   0.0001892   0.2889265  -0.0000907), wk =   0.0625000
        k(    5) = (   0.0001987   0.2888704   0.2974171), wk =   0.0625000
        k(    6) = (   0.0001701   0.2890386  -0.5951062), wk =   0.0625000
        k(    7) = (   0.0001797   0.2889826  -0.2975985), wk =   0.0625000
        k(    8) = (  -0.0003784  -0.5778530   0.0001814), wk =   0.0312500
        k(    9) = (  -0.0003688  -0.5779091   0.2976891), wk =   0.0625000
        k(   10) = (  -0.0003974  -0.5777409  -0.5948341), wk =   0.0312500
        k(   11) = (   0.2500948   0.1446267  -0.0000339), wk =   0.0625000
        k(   12) = (   0.2501043   0.1445707   0.2974739), wk =   0.0625000
        k(   13) = (   0.2500757   0.1447389  -0.5950494), wk =   0.0625000
        k(   14) = (   0.2500852   0.1446828  -0.2975416), wk =   0.0625000
        k(   15) = (   0.2502839   0.4335532  -0.0001246), wk =   0.0625000
        k(   16) = (   0.2502935   0.4334972   0.2973832), wk =   0.0625000
        k(   17) = (   0.2502649   0.4336654  -0.5951401), wk =   0.0625000
        k(   18) = (   0.2502744   0.4336093  -0.2976323), wk =   0.0625000
        k(   19) = (   0.2497164  -0.4332263   0.0001475), wk =   0.0625000
        k(   20) = (   0.2497259  -0.4332823   0.2976553), wk =   0.0625000
        k(   21) = (   0.2496973  -0.4331142  -0.5948680), wk =   0.0625000
        k(   22) = (   0.2497069  -0.4331702  -0.2973603), wk =   0.0625000
        k(   23) = (   0.2499056  -0.1442998   0.0000568), wk =   0.0625000
        k(   24) = (   0.2499151  -0.1443558   0.2975646), wk =   0.0625000
        k(   25) = (   0.2498865  -0.1441876  -0.5949587), wk =   0.0625000
        k(   26) = (   0.2498960  -0.1442437  -0.2974510), wk =   0.0625000
        k(   27) = (  -0.5001895  -0.2892535   0.0000678), wk =   0.0312500
        k(   28) = (  -0.5001800  -0.2893095   0.2975755), wk =   0.0625000
        k(   29) = (  -0.5002086  -0.2891413  -0.5949477), wk =   0.0312500
        k(   30) = (  -0.5000003  -0.0003270  -0.0000229), wk =   0.0625000
        k(   31) = (  -0.4999908  -0.0003830   0.2974848), wk =   0.0625000
        k(   32) = (  -0.5000194  -0.0002148  -0.5950384), wk =   0.0625000
        k(   33) = (  -0.5000098  -0.0002709  -0.2975307), wk =   0.0625000
        k(   34) = (  -0.5005679  -0.8671065   0.0002492), wk =   0.0312500
        k(   35) = (  -0.5005583  -0.8671625   0.2977569), wk =   0.0625000
        k(   36) = (  -0.5005869  -0.8669944  -0.5947663), wk =   0.0312500

                       cryst. coord.
        k(    1) = (   0.0000000   0.0000000   0.0000000), wk =   0.0312500
        k(    2) = (  -0.0000000  -0.0000000   0.2500000), wk =   0.0625000
        k(    3) = (   0.0000000   0.0000000  -0.5000000), wk =   0.0312500
        k(    4) = (   0.0000000   0.2500000   0.0000000), wk =   0.0625000
        k(    5) = (   0.0000000   0.2500000   0.2500000), wk =   0.0625000
        k(    6) = (   0.0000000   0.2500000  -0.5000000), wk =   0.0625000
        k(    7) = (   0.0000000   0.2500000  -0.2500000), wk =   0.0625000
        k(    8) = (  -0.0000000  -0.5000000  -0.0000000), wk =   0.0312500
        k(    9) = (   0.0000000  -0.5000000   0.2500000), wk =   0.0625000
        k(   10) = (  -0.0000000  -0.5000000  -0.5000000), wk =   0.0312500
        k(   11) = (   0.2500000  -0.0000000  -0.0000000), wk =   0.0625000
        k(   12) = (   0.2500000   0.0000000   0.2500000), wk =   0.0625000
        k(   13) = (   0.2500000  -0.0000000  -0.5000000), wk =   0.0625000
        k(   14) = (   0.2500000  -0.0000000  -0.2500000), wk =   0.0625000
        k(   15) = (   0.2500000   0.2500000   0.0000000), wk =   0.0625000
        k(   16) = (   0.2500000   0.2500000   0.2500000), wk =   0.0625000
        k(   17) = (   0.2500000   0.2500000  -0.5000000), wk =   0.0625000
        k(   18) = (   0.2500000   0.2500000  -0.2500000), wk =   0.0625000
        k(   19) = (   0.2500000  -0.5000000   0.0000000), wk =   0.0625000
        k(   20) = (   0.2500000  -0.5000000   0.2500000), wk =   0.0625000
        k(   21) = (   0.2500000  -0.5000000  -0.5000000), wk =   0.0625000
        k(   22) = (   0.2500000  -0.5000000  -0.2500000), wk =   0.0625000
        k(   23) = (   0.2500000  -0.2500000  -0.0000000), wk =   0.0625000
        k(   24) = (   0.2500000  -0.2500000   0.2500000), wk =   0.0625000
        k(   25) = (   0.2500000  -0.2500000  -0.5000000), wk =   0.0625000
        k(   26) = (   0.2500000  -0.2500000  -0.2500000), wk =   0.0625000
        k(   27) = (  -0.5000000   0.0000000   0.0000000), wk =   0.0312500
        k(   28) = (  -0.5000000  -0.0000000   0.2500000), wk =   0.0625000
        k(   29) = (  -0.5000000  -0.0000000  -0.5000000), wk =   0.0312500
        k(   30) = (  -0.5000000   0.2500000   0.0000000), wk =   0.0625000
        k(   31) = (  -0.5000000   0.2500000   0.2500000), wk =   0.0625000
        k(   32) = (  -0.5000000   0.2500000  -0.5000000), wk =   0.0625000
        k(   33) = (  -0.5000000   0.2500000  -0.2500000), wk =   0.0625000
        k(   34) = (  -0.5000000  -0.5000000  -0.0000000), wk =   0.0312500
        k(   35) = (  -0.5000000  -0.5000000   0.2500000), wk =   0.0625000
        k(   36) = (  -0.5000000  -0.5000000  -0.5000000), wk =   0.0312500

     Dense  grid:  1030573 G-vectors     FFT dimensions: ( 144, 144, 120)

     Smooth grid:   342699 G-vectors     FFT dimensions: ( 100, 100,  81)

     Dynamical RAM for                 wfc:      20.02 MB

     Dynamical RAM for     wfc (w. buffer):     120.09 MB

     Dynamical RAM for           str. fact:       2.95 MB

     Dynamical RAM for           local pot:       0.00 MB

     Dynamical RAM for          nlocal pot:      46.08 MB

     Dynamical RAM for                qrad:      22.34 MB

     Dynamical RAM for          rho,v,vnew:       6.75 MB

     Dynamical RAM for               rhoin:       2.25 MB

     Dynamical RAM for            rho*nmix:      15.73 MB

     Dynamical RAM for           G-vectors:       3.85 MB

     Dynamical RAM for          h,s,v(r/c):      43.96 MB

     Dynamical RAM for          <psi|beta>:       8.43 MB

     Dynamical RAM for                 psi:      80.06 MB

     Dynamical RAM for                hpsi:      80.06 MB

     Dynamical RAM for                spsi:      80.06 MB

     Dynamical RAM for      wfcinit/wfcrot:      48.25 MB

     Dynamical RAM for           addusdens:      30.47 MB

     Dynamical RAM for          addusforce:      52.28 MB

     Dynamical RAM for         addusstress:      27.46 MB

     Estimated static dynamical RAM per process >     230.29 MB

     Estimated max dynamical RAM per process >     522.87 MB

     Estimated total dynamical RAM >      65.36 GB

     Check: negative core charge=   -0.000002

     Initial potential from superposition of free atoms

     starting charge  812.39409, renormalised to  816.00000
     Starting wfcs are  516 randomized atomic wfcs

     total cpu time spent up to now is       15.0 secs

     Self-consistent Calculation

     iteration #  1     ecut=    60.00 Ry     beta= 0.50
     Davidson diagonalization with overlap
     ethr =  1.00E-02,  avg # of iterations =  5.0

     total cpu time spent up to now is       75.7 secs

     total energy              =  -13728.07470832 Ry
     Harris-Foulkes estimate   =  -13741.22780410 Ry
     estimated scf accuracy    <      19.71169802 Ry

     iteration #  2     ecut=    60.00 Ry     beta= 0.50
     Davidson diagonalization with overlap
     ethr =  2.42E-03,  avg # of iterations =  3.9

     total cpu time spent up to now is      150.0 secs

     total energy              =  -13733.94482316 Ry
     Harris-Foulkes estimate   =  -13738.54774912 Ry
     estimated scf accuracy    <      10.48783771 Ry

     iteration #  3     ecut=    60.00 Ry     beta= 0.50
     Davidson diagonalization with overlap
     ethr =  1.29E-03,  avg # of iterations =  3.8

     total cpu time spent up to now is      211.7 secs

     total energy              =  -13735.83597926 Ry
     Harris-Foulkes estimate   =  -13735.92486035 Ry
     estimated scf accuracy    <       0.22574268 Ry

     iteration #  4     ecut=    60.00 Ry     beta= 0.50
     Davidson diagonalization with overlap
     ethr =  2.77E-05,  avg # of iterations =  5.8

     total cpu time spent up to now is      301.3 secs

     total energy              =  -13735.86020702 Ry
     Harris-Foulkes estimate   =  -13735.90263027 Ry
     estimated scf accuracy    <       0.12361911 Ry

     iteration #  5     ecut=    60.00 Ry     beta= 0.50
     Davidson diagonalization with overlap
     ethr =  1.51E-05,  avg # of iterations =  5.8

     total cpu time spent up to now is      378.6 secs

     total energy              =  -13735.87742079 Ry
     Harris-Foulkes estimate   =  -13735.87818478 Ry
     estimated scf accuracy    <       0.00313440 Ry

     iteration #  6     ecut=    60.00 Ry     beta= 0.50
     Davidson diagonalization with overlap
     ethr =  3.84E-07,  avg # of iterations =  6.0

     total cpu time spent up to now is      479.3 secs

     total energy              =  -13735.87791939 Ry
     Harris-Foulkes estimate   =  -13735.87826437 Ry
     estimated scf accuracy    <       0.00097030 Ry

     iteration #  7     ecut=    60.00 Ry     beta= 0.50
     Davidson diagonalization with overlap
     ethr =  1.19E-07,  avg # of iterations =  2.0

     total cpu time spent up to now is      520.7 secs

     total energy              =  -13735.87813328 Ry
     Harris-Foulkes estimate   =  -13735.87815744 Ry
     estimated scf accuracy    <       0.00014540 Ry

     iteration #  8     ecut=    60.00 Ry     beta= 0.50
     Davidson diagonalization with overlap
     ethr =  1.78E-08,  avg # of iterations =  2.0

     total cpu time spent up to now is      560.4 secs

     total energy              =  -13735.87816176 Ry
     Harris-Foulkes estimate   =  -13735.87815954 Ry
     estimated scf accuracy    <       0.00001704 Ry

     iteration #  9     ecut=    60.00 Ry     beta= 0.50
     Davidson diagonalization with overlap
     ethr =  2.09E-09,  avg # of iterations =  2.0

     total cpu time spent up to now is      607.4 secs

     total energy              =  -13735.87816455 Ry
     Harris-Foulkes estimate   =  -13735.87816545 Ry
     estimated scf accuracy    <       0.00000414 Ry

     iteration # 10     ecut=    60.00 Ry     beta= 0.50
     Davidson diagonalization with overlap
     ethr =  5.08E-10,  avg # of iterations =  2.0

     total cpu time spent up to now is      648.3 secs

     total energy              =  -13735.87816537 Ry
     Harris-Foulkes estimate   =  -13735.87816540 Ry
     estimated scf accuracy    <       0.00000050 Ry

     iteration # 11     ecut=    60.00 Ry     beta= 0.50
     Davidson diagonalization with overlap
     ethr =  6.17E-11,  avg # of iterations =  2.0

     total cpu time spent up to now is      690.4 secs

     total energy              =  -13735.87816547 Ry
     Harris-Foulkes estimate   =  -13735.87816547 Ry
     estimated scf accuracy    <       0.00000006 Ry

     iteration # 12     ecut=    60.00 Ry     beta= 0.50
     Davidson diagonalization with overlap
     ethr =  7.34E-12,  avg # of iterations =  2.0

     total cpu time spent up to now is      738.2 secs

     End of self-consistent calculation

          k = 0.0000 0.0000 0.0000 ( 42851 PWs)   bands (ev):

  -114.7004-114.6951-114.6865-114.6836-114.6830-114.6826-114.6789-114.6747
  -114.6581-114.6564-114.6558-114.6540-114.6512-114.6427-114.6394-114.6363
  -114.6313-114.6296-114.6253-114.6230-114.6184-114.6147-114.6144-114.6082
   -69.0609 -69.0589 -69.0581 -69.0565 -69.0537 -69.0519 -69.0476 -69.0457
   -69.0453 -69.0442 -69.0442 -69.0434 -69.0430 -69.0414 -69.0412 -69.0406
   -69.0405 -69.0397 -69.0395 -69.0376 -69.0367 -69.0360 -69.0347 -69.0290
   -69.0217 -69.0192 -69.0178 -69.0170 -69.0164 -69.0154 -69.0151 -69.0148
   -69.0144 -69.0141 -69.0140 -69.0122 -69.0119 -69.0093 -69.0056 -69.0044
   -69.0033 -69.0006 -68.9999 -68.9994 -68.9990 -68.9968 -68.9957 -68.9945
   -68.9941 -68.9917 -68.9912 -68.9897 -68.9882 -68.9877 -68.9871 -68.9861
   -68.9857 -68.9824 -68.9823 -68.9805 -68.9798 -68.9789 -68.9785 -68.9781
   -68.9764 -68.9732 -68.9724 -68.9723 -68.9706 -68.9681 -68.9680 -68.9659
   -64.2789 -64.2760 -64.2680 -64.2613 -64.2574 -64.2543 -64.2452 -64.2444
   -64.2397 -64.2337 -64.2303 -64.2185 -31.2746 -31.2712 -31.2605 -31.2589
   -31.2578 -31.2563 -31.2559 -31.2553 -31.2498 -31.2474 -31.2467 -31.2450
   -31.2448 -31.2443 -31.2407 -31.2394 -31.2330 -31.2316 -31.2299 -31.2292
   -31.2277 -31.2260 -31.2236 -31.2235 -31.2228 -31.2217 -31.2193 -31.2184
   -31.2154 -31.2150 -31.2125 -31.2105 -31.2041 -31.2017 -31.1990 -31.1970
    -9.4930  -9.0682  -9.0400  -9.0061  -8.9801  -8.9345  -8.8831  -8.8229
    -8.8095  -8.6357  -8.6260  -8.6149  -8.5962  -8.5776  -8.5671  -8.5309
    -8.5137  -8.5040  -8.4852  -8.4669  -8.4649  -8.4592  -8.4459  -8.4401
    -8.4279  -8.3608  -8.3409  -8.3357  -8.3303  -8.2458  -8.2228  -8.2023
    -8.1520  -8.1223  -8.1131  -8.0629   2.1566   2.1818   2.2193   2.2345
     2.2984   2.3235   2.4084   2.4196   2.4519   2.4597   2.4802   2.5087
     2.5774   2.6320   2.6428   2.6691   2.6843   2.7075   2.7251   2.7579
     2.7668   2.7762   2.8093   2.8381   2.8490   2.8928   2.9070   2.9256
     2.9330   2.9428   2.9630   2.9860   2.9915   3.0053   3.0187   3.0357
     3.0444   3.0568   3.0712   3.0794   3.0867   3.0914   3.1181   3.1284
     3.1460   3.1728   3.1896   3.1928   3.2194   3.2296   3.2591   3.2707
     3.2882   3.2980   3.3101   3.3136   3.3266   3.3446   3.3552   3.3600
     3.3778   3.3858   3.4019   3.4191   3.4267   3.4289   3.4611   3.4701
     3.4796   3.4903   3.5030   3.5139   3.5161   3.5406   3.5560   3.5615
     3.5674   3.5945   3.6111   3.6350   3.6560   3.6631   3.6731   3.6949
     3.7209   3.7242   3.7409   3.7470   3.7567   3.7758   3.7790   3.8047
     3.8150   3.8220   3.8362   3.8508   3.8683   3.8834   3.8901   3.9182
     3.9459   3.9683   3.9978   4.0052   4.0216   4.0274   4.0384   4.0548
     4.0700   4.0799   4.0878   4.0954   4.1203   4.1238   4.1483   4.1803
     4.1857   4.1930   4.2078   4.2325   4.2579   4.2931   4.3286   4.3869
     4.4931   4.5590   4.5745   4.6723   4.7366   4.7476   4.8060   4.8238
     4.8497   4.9219   4.9587   4.9972   5.0106   5.0519   5.0839   5.0946
     5.1714   5.1856   5.2150   5.2215   5.2509   5.2708   5.2936   5.3082
     5.3225   5.3292   5.3570   5.3617   5.3949   5.4195   5.4456   5.4530
     5.4936   5.5060   5.5253   5.6781   5.7079   5.7747   5.8335   5.8530
     5.8695   5.8968   5.9720   6.0386   6.0540   6.0829   6.0934   6.1567
     6.1671   6.2009   6.2116   6.2302   6.2515   6.3167   6.3190   6.5309
     6.5663   6.5961   6.6144   6.6873   6.7250   6.7599   6.7780   6.8100
     6.8286   6.8455   6.8535   6.8700   6.9366   6.9727   7.0207   7.0303
     7.0444   7.0749   7.1099   7.1571   7.1868   7.2399   7.3000   7.3341
     7.3504   7.4082   7.4287   7.4870   7.5109   7.5257   7.5462   7.5512
     7.6249   7.6469   7.6809   7.7070   7.7350   7.7647   7.9355   7.9719
     7.9972   8.1068   8.1130   8.1418   8.3441   8.3459   8.4166   8.4805
     9.8293  12.8559  12.8790  12.9237  12.9905  13.0327  13.1436  13.2562
    13.3765  13.9912  14.1371  14.1483  14.1642  14.1883  14.2511  14.2590
    14.2786  14.2908  14.3308  14.4238  14.4899  14.5076  15.2043  15.2961
    15.5393  15.6615  15.7015  15.7294  15.8144  15.9773  16.1116  16.1978
    16.2632  16.3362  16.3474  16.3533  16.3626  16.4806  16.5957  16.6955
    16.7432  16.9443  17.0701  17.0814  17.1986  17.3984  17.4143  17.4176
    17.4258  17.4513  17.4665  17.4749  17.5524  17.6478  17.7193  17.8835
    18.0005  18.0627  18.1179  18.1618  18.2243  18.3255  18.3386  18.4654
    18.5265  18.7957  18.9421  19.1167  19.2618  19.3837  19.4642  19.5875
    19.6219  19.6619  19.7167  19.8082  19.8546  19.8673  19.8987  19.9560
    20.0107  20.0822

     occupation numbers 
     1.0000   1.0000   1.0000   1.0000   1.0000   1.0000   1.0000   1.0000
     1.0000   1.0000   1.0000   1.0000   1.0000   1.0000   1.0000   1.0000
     1.0000   1.0000   1.0000   1.0000   1.0000   1.0000   1.0000   1.0000
     1.0000   1.0000   1.0000   1.0000   1.0000   1.0000   1.0000   1.0000
     1.0000   1.0000   1.0000   1.0000   1.0000   1.0000   1.0000   1.0000
     1.0000   1.0000   1.0000   1.0000   1.0000   1.0000   1.0000   1.0000
     1.0000   1.0000   1.0000   1.0000   1.0000   1.0000   1.0000   1.0000
     1.0000   1.0000   1.0000   1.0000   1.0000   1.0000   1.0000   1.0000
     1.0000   1.0000   1.0000   1.0000   1.0000   1.0000   1.0000   1.0000
     1.0000   1.0000   1.0000   1.0000   1.0000   1.0000   1.0000   1.0000
     1.0000   1.0000   1.0000   1.0000   1.0000   1.0000   1.0000   1.0000
     1.0000   1.0000   1.0000   1.0000   1.0000   1.0000   1.0000   1.0000
     1.0000   1.0000   1.0000   1.0000   1.0000   1.0000   1.0000   1.0000
     1.0000   1.0000   1.0000   1.0000   1.0000   1.0000   1.0000   1.0000
     1.0000   1.0000   1.0000   1.0000   1.0000   1.0000   1.0000   1.0000
     1.0000   1.0000   1.0000   1.0000   1.0000   1.0000   1.0000   1.0000
     1.0000   1.0000   1.0000   1.0000   1.0000   1.0000   1.0000   1.0000
     1.0000   1.0000   1.0000   1.0000   1.0000   1.0000   1.0000   1.0000
     1.0000   1.0000   1.0000   1.0000   1.0000   1.0000   1.0000   1.0000
     1.0000   1.0000   1.0000   1.0000   1.0000   1.0000   1.0000   1.0000
     1.0000   1.0000   1.0000   1.0000   1.0000   1.0000   1.0000   1.0000
     1.0000   1.0000   1.0000   1.0000   1.0000   1.0000   1.0000   1.0000
     1.0000   1.0000   1.0000   1.0000   1.0000   1.0000   1.0000   1.0000
     1.0000   1.0000   1.0000   1.0000   1.0000   1.0000   1.0000   1.0000
     1.0000   1.0000   1.0000   1.0000   1.0000   1.0000   1.0000   1.0000
     1.0000   1.0000   1.0000   1.0000   1.0000   1.0000   1.0000   1.0000
     1.0000   1.0000   1.0000   1.0000   1.0000   1.0000   1.0000   1.0000
     1.0000   1.0000   1.0000   1.0000   1.0000   1.0000   1.0000   1.0000
     1.0000   1.0000   1.0000   1.0000   1.0000   1.0000   1.0000   1.0000
     1.0000   1.0000   1.0000   1.0000   1.0000   1.0000   1.0000   1.0000
     1.0000   1.0000   1.0000   1.0000   1.0000   1.0000   1.0000   1.0000
     1.0000   1.0000   1.0000   1.0000   1.0000   1.0000   1.0000   1.0000
     1.0000   1.0000   1.0000   1.0000   1.0000   1.0000   1.0000   1.0000
     1.0000   1.0000   1.0000   1.0000   1.0000   1.0000   1.0000   1.0000
     1.0000   1.0000   1.0000   1.0000   1.0000   1.0000   1.0000   1.0000
     1.0000   1.0000   1.0000   1.0000   1.0000   1.0000   1.0000   1.0000
     1.0000   1.0000   1.0000   1.0000   1.0000   1.0000   1.0000   1.0000
     1.0000   1.0000   1.0000   1.0000   1.0000   1.0000   1.0000   1.0000
     1.0000   1.0000   1.0000   1.0000   1.0000   1.0000   1.0000   1.0000
     1.0000   1.0000   1.0000   1.0000   1.0000   1.0000   1.0000   1.0000
     1.0000   1.0000   1.0000   1.0000   1.0000   1.0000   1.0000   1.0000
     1.0000   1.0000   1.0000   1.0000   1.0000   1.0000   1.0000   1.0000
     1.0000   1.0000   1.0000   1.0000   1.0000   1.0000   1.0000   1.0000
     1.0000   1.0000   1.0000   1.0000   1.0000   1.0000   1.0000   1.0000
     1.0000   1.0000   1.0000   1.0000   1.0000   1.0000   1.0000   1.0000
     1.0000   1.0000   1.0000   1.0000   1.0000   1.0000   1.0000   1.0000
     1.0000   1.0000   1.0000   1.0000   1.0000   1.0000   1.0000   1.0000
     1.0000   1.0000   1.0000   1.0000   1.0000   1.0000   1.0000   1.0000
     1.0000   1.0000   1.0000   1.0000   1.0000   1.0000   1.0000   1.0000
     1.0000   1.0000   1.0000   1.0000   1.0000   1.0000   1.0000   1.0000
     1.0000   1.0000   1.0000   1.0000   1.0000   1.0000   1.0000   1.0000
     0.0000   0.0000   0.0000   0.0000   0.0000   0.0000   0.0000   0.0000
     0.0000   0.0000   0.0000   0.0000   0.0000   0.0000   0.0000   0.0000
     0.0000   0.0000   0.0000   0.0000   0.0000   0.0000   0.0000   0.0000
     0.0000   0.0000   0.0000   0.0000   0.0000   0.0000   0.0000   0.0000
     0.0000   0.0000   0.0000   0.0000   0.0000   0.0000   0.0000   0.0000
     0.0000   0.0000   0.0000   0.0000   0.0000   0.0000   0.0000   0.0000
     0.0000   0.0000   0.0000   0.0000   0.0000   0.0000   0.0000   0.0000
     0.0000   0.0000   0.0000   0.0000   0.0000   0.0000   0.0000   0.0000
     0.0000   0.0000   0.0000   0.0000   0.0000   0.0000   0.0000   0.0000
     0.0000   0.0000   0.0000   0.0000   0.0000   0.0000   0.0000   0.0000
     0.0000   0.0000

          k = 0.0000-0.0001 0.2975 ( 42838 PWs)   bands (ev):

  -114.7004-114.6951-114.6865-114.6836-114.6830-114.6826-114.6789-114.6747
  -114.6581-114.6564-114.6558-114.6540-114.6512-114.6427-114.6394-114.6363
  -114.6313-114.6296-114.6253-114.6230-114.6184-114.6147-114.6144-114.6082
   -69.0609 -69.0589 -69.0581 -69.0565 -69.0537 -69.0519 -69.0476 -69.0457
   -69.0453 -69.0442 -69.0442 -69.0434 -69.0430 -69.0414 -69.0412 -69.0406
   -69.0405 -69.0397 -69.0395 -69.0376 -69.0367 -69.0360 -69.0347 -69.0290
   -69.0217 -69.0192 -69.0178 -69.0170 -69.0164 -69.0154 -69.0151 -69.0148
   -69.0144 -69.0141 -69.0140 -69.0122 -69.0119 -69.0093 -69.0056 -69.0044
   -69.0033 -69.0006 -68.9999 -68.9994 -68.9990 -68.9968 -68.9957 -68.9945
   -68.9941 -68.9917 -68.9912 -68.9897 -68.9882 -68.9877 -68.9871 -68.9861
   -68.9857 -68.9824 -68.9823 -68.9805 -68.9798 -68.9789 -68.9785 -68.9781
   -68.9764 -68.9732 -68.9724 -68.9723 -68.9706 -68.9681 -68.9680 -68.9659
   -64.2789 -64.2760 -64.2680 -64.2613 -64.2574 -64.2543 -64.2452 -64.2444
   -64.2397 -64.2337 -64.2303 -64.2185 -31.2745 -31.2711 -31.2606 -31.2588
   -31.2578 -31.2563 -31.2558 -31.2554 -31.2496 -31.2476 -31.2467 -31.2452
   -31.2449 -31.2440 -31.2408 -31.2393 -31.2330 -31.2313 -31.2299 -31.2291
   -31.2277 -31.2260 -31.2236 -31.2235 -31.2227 -31.2219 -31.2193 -31.2184
   -31.2154 -31.2150 -31.2125 -31.2105 -31.2041 -31.2017 -31.1990 -31.1970
    -9.4435  -9.0912  -9.0240  -9.0049  -8.9701  -8.9272  -8.8990  -8.8490
    -8.7676  -8.7400  -8.7168  -8.6895  -8.6521  -8.6157  -8.5671  -8.5411
    -8.4991  -8.4748  -8.4632  -8.4391  -8.4341  -8.4207  -8.3995  -8.3722
    -8.3602  -8.3520  -8.3146  -8.3114  -8.2887  -8.2632  -8.2398  -8.2179
    -8.1722  -8.1418  -8.1339  -8.0859   2.2247   2.2568   2.2848   2.3181
     2.3657   2.3894   2.4650   2.4767   2.5130   2.5432   2.5582   2.5840
     2.6024   2.6253   2.6569   2.6851   2.6966   2.7512   2.7602   2.7689
     2.7831   2.7972   2.8345   2.8399   2.8573   2.8914   2.9001   2.9197
     2.9339   2.9574   2.9793   2.9833   2.9977   3.0135   3.0171   3.0273
     3.0398   3.0601   3.0659   3.0838   3.0964   3.1089   3.1164   3.1277
     3.1354   3.1407   3.1536   3.1700   3.1877   3.1931   3.2049   3.2222
     3.2327   3.2442   3.2554   3.2668   3.2768   3.2885   3.2961   3.3052
     3.3140   3.3276   3.3483   3.3691   3.3821   3.3965   3.4016   3.4233
     3.4424   3.4606   3.4714   3.4780   3.4919   3.5112   3.5212   3.5301
     3.5443   3.5661   3.5777   3.6092   3.6211   3.6264   3.6481   3.6652
     3.6805   3.7021   3.7169   3.7273   3.7445   3.7709   3.7840   3.7934
     3.8130   3.8240   3.8479   3.8669   3.8820   3.9041   3.9113   3.9292
     3.9470   3.9690   3.9802   3.9967   4.0187   4.0255   4.0343   4.0459
     4.0541   4.0766   4.0852   4.0999   4.1248   4.1288   4.1480   4.1734
     4.2030   4.2060   4.2143   4.2421   4.2629   4.2963   4.3739   4.4484
     4.4898   4.5515   4.5651   4.6123   4.6624   4.6951   4.7279   4.7870
     4.8038   4.8392   4.8595   4.8921   4.9324   4.9446   4.9918   5.0027
     5.0362   5.0562   5.0998   5.1581   5.1990   5.2262   5.2720   5.2958
     5.3441   5.3672   5.4135   5.5027   5.5254   5.5377   5.5620   5.6275
     5.6388   5.6906   5.7121   5.7568   5.7868   5.8272   5.8385   5.8802
     5.8823   5.9614   5.9874   6.0216   6.0561   6.0676   6.1314   6.1641
     6.2111   6.2439   6.2547   6.3372   6.4086   6.4201   6.4890   6.5067
     6.5412   6.5893   6.6087   6.6217   6.6510   6.6936   6.8017   6.8663
     6.9223   6.9466   6.9845   6.9984   7.0438   7.0729   7.0943   7.1111
     7.1446   7.1963   7.2225   7.2400   7.2608   7.2717   7.3021   7.3286
     7.3345   7.3499   7.3859   7.3990   7.4318   7.4653   7.4828   7.4915
     7.5226   7.5336   7.6707   7.7201   7.7648   7.7937   7.8841   7.9393
     7.9815   7.9906   8.1086   8.1271   8.1953   8.2361   8.2468   8.2895
    10.2567  12.1885  12.9141  12.9713  13.0089  13.0417  13.1525  13.3687
    13.5360  13.5612  13.6196  13.6715  13.7239  13.8530  13.9653  14.2931
    14.8294  14.8495  14.9086  14.9501  15.0101  15.0839  15.2929  15.3724
    15.5748  15.7139  15.7364  15.7676  15.8147  15.9938  16.0737  16.0901
    16.1446  16.2355  16.3001  16.4670  16.5591  16.6021  16.6568  16.6849
    16.6962  16.7290  16.8168  16.8477  16.9211  17.1306  17.1873  17.2555
    17.2863  17.3661  17.4025  17.4231  17.5236  17.5480  17.6419  17.7070
    17.7475  17.8089  17.8309  17.9087  18.0607  18.2027  18.2830  18.4112
    18.6061  18.8109  18.9999  19.1555  19.2201  19.3313  19.4152  19.5900
    19.6110  19.6449  19.7036  19.7416  19.8522  19.9055  19.9488  20.0641
    20.0816  20.1470

     occupation numbers 
     1.0000   1.0000   1.0000   1.0000   1.0000   1.0000   1.0000   1.0000
     1.0000   1.0000   1.0000   1.0000   1.0000   1.0000   1.0000   1.0000
     1.0000   1.0000   1.0000   1.0000   1.0000   1.0000   1.0000   1.0000
     1.0000   1.0000   1.0000   1.0000   1.0000   1.0000   1.0000   1.0000
     1.0000   1.0000   1.0000   1.0000   1.0000   1.0000   1.0000   1.0000
     1.0000   1.0000   1.0000   1.0000   1.0000   1.0000   1.0000   1.0000
     1.0000   1.0000   1.0000   1.0000   1.0000   1.0000   1.0000   1.0000
     1.0000   1.0000   1.0000   1.0000   1.0000   1.0000   1.0000   1.0000
     1.0000   1.0000   1.0000   1.0000   1.0000   1.0000   1.0000   1.0000
     1.0000   1.0000   1.0000   1.0000   1.0000   1.0000   1.0000   1.0000
     1.0000   1.0000   1.0000   1.0000   1.0000   1.0000   1.0000   1.0000
     1.0000   1.0000   1.0000   1.0000   1.0000   1.0000   1.0000   1.0000
     1.0000   1.0000   1.0000   1.0000   1.0000   1.0000   1.0000   1.0000
     1.0000   1.0000   1.0000   1.0000   1.0000   1.0000   1.0000   1.0000
     1.0000   1.0000   1.0000   1.0000   1.0000   1.0000   1.0000   1.0000
     1.0000   1.0000   1.0000   1.0000   1.0000   1.0000   1.0000   1.0000
     1.0000   1.0000   1.0000   1.0000   1.0000   1.0000   1.0000   1.0000
     1.0000   1.0000   1.0000   1.0000   1.0000   1.0000   1.0000   1.0000
     1.0000   1.0000   1.0000   1.0000   1.0000   1.0000   1.0000   1.0000
     1.0000   1.0000   1.0000   1.0000   1.0000   1.0000   1.0000   1.0000
     1.0000   1.0000   1.0000   1.0000   1.0000   1.0000   1.0000   1.0000
     1.0000   1.0000   1.0000   1.0000   1.0000   1.0000   1.0000   1.0000
     1.0000   1.0000   1.0000   1.0000   1.0000   1.0000   1.0000   1.0000
     1.0000   1.0000   1.0000   1.0000   1.0000   1.0000   1.0000   1.0000
     1.0000   1.0000   1.0000   1.0000   1.0000   1.0000   1.0000   1.0000
     1.0000   1.0000   1.0000   1.0000   1.0000   1.0000   1.0000   1.0000
     1.0000   1.0000   1.0000   1.0000   1.0000   1.0000   1.0000   1.0000
     1.0000   1.0000   1.0000   1.0000   1.0000   1.0000   1.0000   1.0000
     1.0000   1.0000   1.0000   1.0000   1.0000   1.0000   1.0000   1.0000
     1.0000   1.0000   1.0000   1.0000   1.0000   1.0000   1.0000   1.0000
     1.0000   1.0000   1.0000   1.0000   1.0000   1.0000   1.0000   1.0000
     1.0000   1.0000   1.0000   1.0000   1.0000   1.0000   1.0000   1.0000
     1.0000   1.0000   1.0000   1.0000   1.0000   1.0000   1.0000   1.0000
     1.0000   1.0000   1.0000   1.0000   1.0000   1.0000   1.0000   1.0000
     1.0000   1.0000   1.0000   1.0000   1.0000   1.0000   1.0000   1.0000
     1.0000   1.0000   1.0000   1.0000   1.0000   1.0000   1.0000   1.0000
     1.0000   1.0000   1.0000   1.0000   1.0000   1.0000   1.0000   1.0000
     1.0000   1.0000   1.0000   1.0000   1.0000   1.0000   1.0000   1.0000
     1.0000   1.0000   1.0000   1.0000   1.0000   1.0000   1.0000   1.0000
     1.0000   1.0000   1.0000   1.0000   1.0000   1.0000   1.0000   1.0000
     1.0000   1.0000   1.0000   1.0000   1.0000   1.0000   1.0000   1.0000
     1.0000   1.0000   1.0000   1.0000   1.0000   1.0000   1.0000   1.0000
     1.0000   1.0000   1.0000   1.0000   1.0000   1.0000   1.0000   1.0000
     1.0000   1.0000   1.0000   1.0000   1.0000   1.0000   1.0000   1.0000
     1.0000   1.0000   1.0000   1.0000   1.0000   1.0000   1.0000   1.0000
     1.0000   1.0000   1.0000   1.0000   1.0000   1.0000   1.0000   1.0000
     1.0000   1.0000   1.0000   1.0000   1.0000   1.0000   1.0000   1.0000
     1.0000   1.0000   1.0000   1.0000   1.0000   1.0000   1.0000   1.0000
     1.0000   1.0000   1.0000   1.0000   1.0000   1.0000   1.0000   1.0000
     1.0000   1.0000   1.0000   1.0000   1.0000   1.0000   1.0000   1.0000
     1.0000   1.0000   1.0000   1.0000   1.0000   1.0000   1.0000   1.0000
     0.0000   0.0000   0.0000   0.0000   0.0000   0.0000   0.0000   0.0000
     0.0000   0.0000   0.0000   0.0000   0.0000   0.0000   0.0000   0.0000
     0.0000   0.0000   0.0000   0.0000   0.0000   0.0000   0.0000   0.0000
     0.0000   0.0000   0.0000   0.0000   0.0000   0.0000   0.0000   0.0000
     0.0000   0.0000   0.0000   0.0000   0.0000   0.0000   0.0000   0.0000
     0.0000   0.0000   0.0000   0.0000   0.0000   0.0000   0.0000   0.0000
     0.0000   0.0000   0.0000   0.0000   0.0000   0.0000   0.0000   0.0000
     0.0000   0.0000   0.0000   0.0000   0.0000   0.0000   0.0000   0.0000
     0.0000   0.0000   0.0000   0.0000   0.0000   0.0000   0.0000   0.0000
     0.0000   0.0000   0.0000   0.0000   0.0000   0.0000   0.0000   0.0000
     0.0000   0.0000

          k =-0.0000 0.0001-0.5950 ( 42754 PWs)   bands (ev):

  -114.7004-114.6951-114.6865-114.6836-114.6830-114.6826-114.6789-114.6747
  -114.6581-114.6564-114.6558-114.6540-114.6512-114.6427-114.6394-114.6363
  -114.6313-114.6296-114.6253-114.6230-114.6184-114.6147-114.6144-114.6082
   -69.0609 -69.0589 -69.0581 -69.0565 -69.0537 -69.0519 -69.0476 -69.0457
   -69.0453 -69.0442 -69.0442 -69.0434 -69.0430 -69.0414 -69.0412 -69.0406
   -69.0405 -69.0397 -69.0395 -69.0376 -69.0367 -69.0360 -69.0347 -69.0290
   -69.0217 -69.0192 -69.0178 -69.0170 -69.0164 -69.0154 -69.0151 -69.0148
   -69.0144 -69.0141 -69.0140 -69.0122 -69.0119 -69.0093 -69.0056 -69.0044
   -69.0033 -69.0006 -68.9999 -68.9994 -68.9990 -68.9968 -68.9957 -68.9945
   -68.9941 -68.9917 -68.9912 -68.9897 -68.9882 -68.9877 -68.9871 -68.9861
   -68.9857 -68.9824 -68.9823 -68.9805 -68.9798 -68.9789 -68.9785 -68.9781
   -68.9764 -68.9732 -68.9724 -68.9723 -68.9706 -68.9681 -68.9680 -68.9659
   -64.2789 -64.2760 -64.2680 -64.2613 -64.2574 -64.2543 -64.2452 -64.2444
   -64.2397 -64.2337 -64.2303 -64.2185 -31.2744 -31.2710 -31.2608 -31.2588
   -31.2578 -31.2564 -31.2557 -31.2554 -31.2494 -31.2479 -31.2468 -31.2455
   -31.2448 -31.2437 -31.2410 -31.2393 -31.2330 -31.2311 -31.2299 -31.2291
   -31.2277 -31.2260 -31.2236 -31.2235 -31.2226 -31.2221 -31.2193 -31.2184
   -31.2154 -31.2150 -31.2125 -31.2105 -31.2041 -31.2017 -31.1990 -31.1970
    -9.3295  -9.2652  -8.9569  -8.9431  -8.9111  -8.8930  -8.8633  -8.8362
    -8.8183  -8.8126  -8.7988  -8.7666  -8.7551  -8.7394  -8.5296  -8.4886
    -8.4639  -8.4522  -8.4319  -8.4246  -8.4126  -8.4065  -8.3750  -8.3483
    -8.3299  -8.3144  -8.2916  -8.2859  -8.2558  -8.2384  -8.2332  -8.2181
    -8.2085  -8.1948  -8.1826  -8.1091   2.3816   2.4008   2.4128   2.4183
     2.4402   2.4653   2.4770   2.5050   2.5109   2.5427   2.5871   2.6440
     2.6700   2.6950   2.6969   2.7234   2.7449   2.7691   2.7782   2.7801
     2.8117   2.8173   2.8505   2.8690   2.8821   2.8961   2.9152   2.9214
     2.9326   2.9484   2.9564   2.9678   2.9751   2.9998   3.0040   3.0312
     3.0445   3.0618   3.0629   3.0716   3.0798   3.0858   3.0967   3.1163
     3.1202   3.1278   3.1298   3.1411   3.1500   3.1619   3.1652   3.1734
     3.2016   3.2119   3.2225   3.2374   3.2453   3.2548   3.2677   3.2728
     3.2824   3.2907   3.2969   3.3025   3.3155   3.3382   3.3423   3.3789
     3.3898   3.4018   3.4164   3.4249   3.4373   3.4512   3.4601   3.4833
     3.4864   3.5173   3.5499   3.5532   3.5736   3.5896   3.6041   3.6401
     3.6430   3.6678   3.6870   3.7329   3.7412   3.7708   3.7886   3.7917
     3.8046   3.8381   3.8476   3.8641   3.9032   3.9141   3.9280   3.9391
     3.9528   3.9677   3.9903   3.9931   4.0115   4.0193   4.0453   4.0573
     4.0636   4.0695   4.0910   4.1046   4.1119   4.1285   4.1350   4.1635
     4.2014   4.2129   4.2185   4.2361   4.3093   4.3860   4.3900   4.4362
     4.4657   4.5092   4.5906   4.6228   4.6376   4.6574   4.7133   4.7308
     4.7904   4.7940   4.8254   4.8348   4.8773   4.9035   4.9397   4.9627
     4.9698   5.0588   5.0827   5.1034   5.1227   5.1442   5.2155   5.2947
     5.3261   5.3333   5.3776   5.4284   5.4950   5.5390   5.5790   5.6343
     5.6867   5.7239   5.9200   5.9349   5.9734   5.9789   5.9982   6.0332
     6.0439   6.0650   6.0869   6.1037   6.1078   6.1531   6.1851   6.2051
     6.2387   6.2846   6.2935   6.3022   6.3177   6.3505   6.3655   6.3949
     6.4971   6.5967   6.6287   6.6598   6.7454   6.8596   6.8726   6.9236
     6.9352   7.0110   7.0160   7.0939   7.1060   7.1211   7.1487   7.1575
     7.1626   7.1855   7.2206   7.2369   7.2598   7.2803   7.3056   7.3270
     7.3474   7.3621   7.4057   7.4263   7.4684   7.5116   7.5475   7.5918
     7.6606   7.7278   7.7325   7.7699   7.7970   7.8127   7.8622   7.8689
     7.8743   7.8850   7.9253   7.9574   7.9826   7.9954   8.0182   8.0292
    11.1314  11.2125  13.0622  13.1034  13.1304  13.1476  13.1711  13.2074
    13.2425  13.3399  13.3785  13.4455  13.5252  13.5845  14.0749  14.3671
    15.2517  15.2704  15.3369  15.3428  15.3952  15.4351  15.4890  15.5242
    15.6567  15.6822  15.7253  15.8178  15.8443  15.8875  15.9279  15.9406
    16.2164  16.2678  16.2875  16.3328  16.3660  16.5093  16.5848  16.6067
    16.7019  16.7838  16.8082  16.8855  16.9075  16.9719  16.9816  17.0284
    17.0479  17.0844  17.1088  17.1164  17.1699  17.2013  17.2205  17.3045
    17.8131  17.9092  17.9195  18.1194  18.1957  18.2774  18.3357  18.3512
    18.4091  18.9424  18.9632  19.0645  19.1343  19.2088  19.3718  19.5144
    19.5684  19.5981  19.6493  19.6734  19.7159  19.8298  20.0046  20.0184
    20.0529  20.1245

     occupation numbers 
     1.0000   1.0000   1.0000   1.0000   1.0000   1.0000   1.0000   1.0000
     1.0000   1.0000   1.0000   1.0000   1.0000   1.0000   1.0000   1.0000
     1.0000   1.0000   1.0000   1.0000   1.0000   1.0000   1.0000   1.0000
     1.0000   1.0000   1.0000   1.0000   1.0000   1.0000   1.0000   1.0000
     1.0000   1.0000   1.0000   1.0000   1.0000   1.0000   1.0000   1.0000
     1.0000   1.0000   1.0000   1.0000   1.0000   1.0000   1.0000   1.0000
     1.0000   1.0000   1.0000   1.0000   1.0000   1.0000   1.0000   1.0000
     1.0000   1.0000   1.0000   1.0000   1.0000   1.0000   1.0000   1.0000
     1.0000   1.0000   1.0000   1.0000   1.0000   1.0000   1.0000   1.0000
     1.0000   1.0000   1.0000   1.0000   1.0000   1.0000   1.0000   1.0000
     1.0000   1.0000   1.0000   1.0000   1.0000   1.0000   1.0000   1.0000
     1.0000   1.0000   1.0000   1.0000   1.0000   1.0000   1.0000   1.0000
     1.0000   1.0000   1.0000   1.0000   1.0000   1.0000   1.0000   1.0000
     1.0000   1.0000   1.0000   1.0000   1.0000   1.0000   1.0000   1.0000
     1.0000   1.0000   1.0000   1.0000   1.0000   1.0000   1.0000   1.0000
     1.0000   1.0000   1.0000   1.0000   1.0000   1.0000   1.0000   1.0000
     1.0000   1.0000   1.0000   1.0000   1.0000   1.0000   1.0000   1.0000
     1.0000   1.0000   1.0000   1.0000   1.0000   1.0000   1.0000   1.0000
     1.0000   1.0000   1.0000   1.0000   1.0000   1.0000   1.0000   1.0000
     1.0000   1.0000   1.0000   1.0000   1.0000   1.0000   1.0000   1.0000
     1.0000   1.0000   1.0000   1.0000   1.0000   1.0000   1.0000   1.0000
     1.0000   1.0000   1.0000   1.0000   1.0000   1.0000   1.0000   1.0000
     1.0000   1.0000   1.0000   1.0000   1.0000   1.0000   1.0000   1.0000
     1.0000   1.0000   1.0000   1.0000   1.0000   1.0000   1.0000   1.0000
     1.0000   1.0000   1.0000   1.0000   1.0000   1.0000   1.0000   1.0000
     1.0000   1.0000   1.0000   1.0000   1.0000   1.0000   1.0000   1.0000
     1.0000   1.0000   1.0000   1.0000   1.0000   1.0000   1.0000   1.0000
     1.0000   1.0000   1.0000   1.0000   1.0000   1.0000   1.0000   1.0000
     1.0000   1.0000   1.0000   1.0000   1.0000   1.0000   1.0000   1.0000
     1.0000   1.0000   1.0000   1.0000   1.0000   1.0000   1.0000   1.0000
     1.0000   1.0000   1.0000   1.0000   1.0000   1.0000   1.0000   1.0000
     1.0000   1.0000   1.0000   1.0000   1.0000   1.0000   1.0000   1.0000
     1.0000   1.0000   1.0000   1.0000   1.0000   1.0000   1.0000   1.0000
     1.0000   1.0000   1.0000   1.0000   1.0000   1.0000   1.0000   1.0000
     1.0000   1.0000   1.0000   1.0000   1.0000   1.0000   1.0000   1.0000
     1.0000   1.0000   1.0000   1.0000   1.0000   1.0000   1.0000   1.0000
     1.0000   1.0000   1.0000   1.0000   1.0000   1.0000   1.0000   1.0000
     1.0000   1.0000   1.0000   1.0000   1.0000   1.0000   1.0000   1.0000
     1.0000   1.0000   1.0000   1.0000   1.0000   1.0000   1.0000   1.0000
     1.0000   1.0000   1.0000   1.0000   1.0000   1.0000   1.0000   1.0000
     1.0000   1.0000   1.0000   1.0000   1.0000   1.0000   1.0000   1.0000
     1.0000   1.0000   1.0000   1.0000   1.0000   1.0000   1.0000   1.0000
     1.0000   1.0000   1.0000   1.0000   1.0000   1.0000   1.0000   1.0000
     1.0000   1.0000   1.0000   1.0000   1.0000   1.0000   1.0000   1.0000
     1.0000   1.0000   1.0000   1.0000   1.0000   1.0000   1.0000   1.0000
     1.0000   1.0000   1.0000   1.0000   1.0000   1.0000   1.0000   1.0000
     1.0000   1.0000   1.0000   1.0000   1.0000   1.0000   1.0000   1.0000
     1.0000   1.0000   1.0000   1.0000   1.0000   1.0000   1.0000   1.0000
     1.0000   1.0000   1.0000   1.0000   1.0000   1.0000   1.0000   1.0000
     1.0000   1.0000   1.0000   1.0000   1.0000   1.0000   1.0000   1.0000
     1.0000   1.0000   1.0000   1.0000   1.0000   1.0000   1.0000   1.0000
     0.0000   0.0000   0.0000   0.0000   0.0000   0.0000   0.0000   0.0000
     0.0000   0.0000   0.0000   0.0000   0.0000   0.0000   0.0000   0.0000
     0.0000   0.0000   0.0000   0.0000   0.0000   0.0000   0.0000   0.0000
     0.0000   0.0000   0.0000   0.0000   0.0000   0.0000   0.0000   0.0000
     0.0000   0.0000   0.0000   0.0000   0.0000   0.0000   0.0000   0.0000
     0.0000   0.0000   0.0000   0.0000   0.0000   0.0000   0.0000   0.0000
     0.0000   0.0000   0.0000   0.0000   0.0000   0.0000   0.0000   0.0000
     0.0000   0.0000   0.0000   0.0000   0.0000   0.0000   0.0000   0.0000
     0.0000   0.0000   0.0000   0.0000   0.0000   0.0000   0.0000   0.0000
     0.0000   0.0000   0.0000   0.0000   0.0000   0.0000   0.0000   0.0000
     0.0000   0.0000

          k = 0.0002 0.2889-0.0001 ( 42863 PWs)   bands (ev):

  -114.7004-114.6951-114.6865-114.6836-114.6830-114.6826-114.6789-114.6747
  -114.6581-114.6564-114.6558-114.6540-114.6512-114.6427-114.6394-114.6363
  -114.6313-114.6296-114.6253-114.6230-114.6184-114.6147-114.6144-114.6082
   -69.0609 -69.0589 -69.0581 -69.0565 -69.0537 -69.0519 -69.0476 -69.0457
   -69.0453 -69.0442 -69.0442 -69.0434 -69.0430 -69.0414 -69.0412 -69.0406
   -69.0405 -69.0397 -69.0395 -69.0376 -69.0367 -69.0360 -69.0347 -69.0290
   -69.0217 -69.0192 -69.0178 -69.0170 -69.0164 -69.0154 -69.0151 -69.0148
   -69.0144 -69.0141 -69.0140 -69.0122 -69.0119 -69.0093 -69.0056 -69.0044
   -69.0033 -69.0006 -68.9999 -68.9994 -68.9990 -68.9968 -68.9957 -68.9945
   -68.9941 -68.9917 -68.9912 -68.9897 -68.9882 -68.9877 -68.9871 -68.9861
   -68.9857 -68.9824 -68.9823 -68.9805 -68.9798 -68.9789 -68.9785 -68.9781
   -68.9764 -68.9732 -68.9724 -68.9723 -68.9706 -68.9681 -68.9680 -68.9659
   -64.2789 -64.2760 -64.2680 -64.2613 -64.2574 -64.2543 -64.2452 -64.2444
   -64.2397 -64.2337 -64.2303 -64.2185 -31.2746 -31.2712 -31.2605 -31.2589
   -31.2578 -31.2563 -31.2559 -31.2553 -31.2498 -31.2474 -31.2467 -31.2450
   -31.2448 -31.2443 -31.2407 -31.2394 -31.2330 -31.2316 -31.2299 -31.2291
   -31.2279 -31.2259 -31.2236 -31.2235 -31.2228 -31.2217 -31.2193 -31.2184
   -31.2154 -31.2150 -31.2125 -31.2102 -31.2041 -31.2017 -31.1990 -31.1972
    -9.4597  -9.1694  -9.0902  -9.0629  -8.8915  -8.8571  -8.8182  -8.7952
    -8.7727  -8.6791  -8.6411  -8.6309  -8.6153  -8.6112  -8.5830  -8.5763
    -8.5448  -8.5039  -8.4860  -8.4722  -8.4686  -8.4376  -8.4282  -8.3938
    -8.3724  -8.3651  -8.3414  -8.3354  -8.3188  -8.2644  -8.2347  -8.2144
    -8.1510  -8.1229  -8.1133  -8.0590   2.1536   2.1796   2.2269   2.2326
     2.2811   2.3252   2.4083   2.4338   2.4609   2.4791   2.4966   2.5142
     2.5815   2.6428   2.6673   2.6693   2.6925   2.7156   2.7357   2.7496
     2.7747   2.7998   2.8081   2.8265   2.8543   2.8738   2.8947   2.9082
     2.9375   2.9561   2.9624   2.9842   2.9930   3.0026   3.0051   3.0219
     3.0250   3.0493   3.0639   3.0719   3.0771   3.0876   3.0988   3.1107
     3.1339   3.1478   3.1611   3.1835   3.2098   3.2249   3.2470   3.2589
     3.2769   3.2897   3.3052   3.3072   3.3267   3.3363   3.3527   3.3590
     3.3697   3.3827   3.3983   3.4070   3.4182   3.4337   3.4551   3.4608
     3.4766   3.4815   3.4900   3.5070   3.5103   3.5288   3.5345   3.5422
     3.5663   3.5887   3.5999   3.6184   3.6296   3.6370   3.6626   3.6792
     3.7055   3.7301   3.7377   3.7576   3.7767   3.7886   3.7905   3.8026
     3.8263   3.8467   3.8508   3.8729   3.8773   3.8872   3.9222   3.9434
     3.9642   3.9836   4.0078   4.0158   4.0285   4.0472   4.0616   4.0727
     4.0809   4.0905   4.1095   4.1167   4.1397   4.1526   4.1649   4.1840
     4.1972   4.2136   4.2301   4.2501   4.2955   4.2990   4.3479   4.3569
     4.4710   4.5259   4.5600   4.6492   4.7149   4.7404   4.7640   4.7972
     4.8392   4.8800   4.9076   4.9615   4.9776   5.0356   5.0674   5.0859
     5.1531   5.1975   5.2280   5.2346   5.2942   5.3306   5.3380   5.3760
     5.3840   5.3996   5.4224   5.4500   5.4651   5.4893   5.5356   5.5476
     5.5716   5.5850   5.6113   5.6375   5.6825   5.7183   5.7637   5.7838
     5.8357   5.8727   5.8997   5.9306   5.9667   5.9978   6.0359   6.1619
     6.1900   6.3413   6.3570   6.3750   6.4033   6.4268   6.4500   6.4670
     6.4998   6.5057   6.5257   6.5656   6.5899   6.6580   6.7181   6.7602
     6.7894   6.8206   6.8513   6.8932   6.9135   6.9281   6.9645   7.0322
     7.0603   7.0943   7.1210   7.1746   7.1859   7.2027   7.2345   7.2507
     7.3402   7.3720   7.4412   7.4732   7.4876   7.5069   7.5435   7.5824
     7.5970   7.6157   7.6634   7.6906   7.7163   7.7854   7.8560   7.9726
     8.0339   8.1172   8.1471   8.2144   8.3296   8.3448   8.3927   8.4487
    10.2405  12.0687  12.6202  12.7335  13.1964  13.2424  13.5128  13.6502
    13.8390  13.8812  13.9869  14.1147  14.1676  14.2050  14.2210  14.3862
    14.4969  14.5169  14.5255  14.5948  14.6421  14.6624  15.0182  15.1052
    15.3983  15.5037  15.5623  15.6747  15.6975  15.7706  15.7938  15.8164
    15.8287  15.9636  16.0804  16.2152  16.3566  16.5358  16.6584  16.7928
    16.9124  17.2215  17.2379  17.3292  17.3440  17.3787  17.5091  17.5653
    17.6011  17.6265  17.6721  17.7423  17.7772  17.8162  17.8714  17.8940
    18.0480  18.0783  18.1325  18.2069  18.2644  18.3240  18.3698  18.4233
    18.5075  18.7584  18.9080  19.1022  19.1797  19.2422  19.3635  19.3898
    19.5131  19.5484  19.6340  19.6556  19.7184  19.7981  19.8284  19.8905
    19.9396  19.9677

     occupation numbers 
     1.0000   1.0000   1.0000   1.0000   1.0000   1.0000   1.0000   1.0000
     1.0000   1.0000   1.0000   1.0000   1.0000   1.0000   1.0000   1.0000
     1.0000   1.0000   1.0000   1.0000   1.0000   1.0000   1.0000   1.0000
     1.0000   1.0000   1.0000   1.0000   1.0000   1.0000   1.0000   1.0000
     1.0000   1.0000   1.0000   1.0000   1.0000   1.0000   1.0000   1.0000
     1.0000   1.0000   1.0000   1.0000   1.0000   1.0000   1.0000   1.0000
     1.0000   1.0000   1.0000   1.0000   1.0000   1.0000   1.0000   1.0000
     1.0000   1.0000   1.0000   1.0000   1.0000   1.0000   1.0000   1.0000
     1.0000   1.0000   1.0000   1.0000   1.0000   1.0000   1.0000   1.0000
     1.0000   1.0000   1.0000   1.0000   1.0000   1.0000   1.0000   1.0000
     1.0000   1.0000   1.0000   1.0000   1.0000   1.0000   1.0000   1.0000
     1.0000   1.0000   1.0000   1.0000   1.0000   1.0000   1.0000   1.0000
     1.0000   1.0000   1.0000   1.0000   1.0000   1.0000   1.0000   1.0000
     1.0000   1.0000   1.0000   1.0000   1.0000   1.0000   1.0000   1.0000
     1.0000   1.0000   1.0000   1.0000   1.0000   1.0000   1.0000   1.0000
     1.0000   1.0000   1.0000   1.0000   1.0000   1.0000   1.0000   1.0000
     1.0000   1.0000   1.0000   1.0000   1.0000   1.0000   1.0000   1.0000
     1.0000   1.0000   1.0000   1.0000   1.0000   1.0000   1.0000   1.0000
     1.0000   1.0000   1.0000   1.0000   1.0000   1.0000   1.0000   1.0000
     1.0000   1.0000   1.0000   1.0000   1.0000   1.0000   1.0000   1.0000
     1.0000   1.0000   1.0000   1.0000   1.0000   1.0000   1.0000   1.0000
     1.0000   1.0000   1.0000   1.0000   1.0000   1.0000   1.0000   1.0000
     1.0000   1.0000   1.0000   1.0000   1.0000   1.0000   1.0000   1.0000
     1.0000   1.0000   1.0000   1.0000   1.0000   1.0000   1.0000   1.0000
     1.0000   1.0000   1.0000   1.0000   1.0000   1.0000   1.0000   1.0000
     1.0000   1.0000   1.0000   1.0000   1.0000   1.0000   1.0000   1.0000
     1.0000   1.0000   1.0000   1.0000   1.0000   1.0000   1.0000   1.0000
     1.0000   1.0000   1.0000   1.0000   1.0000   1.0000   1.0000   1.0000
     1.0000   1.0000   1.0000   1.0000   1.0000   1.0000   1.0000   1.0000
     1.0000   1.0000   1.0000   1.0000   1.0000   1.0000   1.0000   1.0000
     1.0000   1.0000   1.0000   1.0000   1.0000   1.0000   1.0000   1.0000
     1.0000   1.0000   1.0000   1.0000   1.0000   1.0000   1.0000   1.0000
     1.0000   1.0000   1.0000   1.0000   1.0000   1.0000   1.0000   1.0000
     1.0000   1.0000   1.0000   1.0000   1.0000   1.0000   1.0000   1.0000
     1.0000   1.0000   1.0000   1.0000   1.0000   1.0000   1.0000   1.0000
     1.0000   1.0000   1.0000   1.0000   1.0000   1.0000   1.0000   1.0000
     1.0000   1.0000   1.0000   1.0000   1.0000   1.0000   1.0000   1.0000
     1.0000   1.0000   1.0000   1.0000   1.0000   1.0000   1.0000   1.0000
     1.0000   1.0000   1.0000   1.0000   1.0000   1.0000   1.0000   1.0000
     1.0000   1.0000   1.0000   1.0000   1.0000   1.0000   1.0000   1.0000
     1.0000   1.0000   1.0000   1.0000   1.0000   1.0000   1.0000   1.0000
     1.0000   1.0000   1.0000   1.0000   1.0000   1.0000   1.0000   1.0000
     1.0000   1.0000   1.0000   1.0000   1.0000   1.0000   1.0000   1.0000
     1.0000   1.0000   1.0000   1.0000   1.0000   1.0000   1.0000   1.0000
     1.0000   1.0000   1.0000   1.0000   1.0000   1.0000   1.0000   1.0000
     1.0000   1.0000   1.0000   1.0000   1.0000   1.0000   1.0000   1.0000
     1.0000   1.0000   1.0000   1.0000   1.0000   1.0000   1.0000   1.0000
     1.0000   1.0000   1.0000   1.0000   1.0000   1.0000   1.0000   1.0000
     1.0000   1.0000   1.0000   1.0000   1.0000   1.0000   1.0000   1.0000
     1.0000   1.0000   1.0000   1.0000   1.0000   1.0000   1.0000   1.0000
     1.0000   1.0000   1.0000   1.0000   1.0000   1.0000   1.0000   1.0000
     0.0000   0.0000   0.0000   0.0000   0.0000   0.0000   0.0000   0.0000
     0.0000   0.0000   0.0000   0.0000   0.0000   0.0000   0.0000   0.0000
     0.0000   0.0000   0.0000   0.0000   0.0000   0.0000   0.0000   0.0000
     0.0000   0.0000   0.0000   0.0000   0.0000   0.0000   0.0000   0.0000
     0.0000   0.0000   0.0000   0.0000   0.0000   0.0000   0.0000   0.0000
     0.0000   0.0000   0.0000   0.0000   0.0000   0.0000   0.0000   0.0000
     0.0000   0.0000   0.0000   0.0000   0.0000   0.0000   0.0000   0.0000
     0.0000   0.0000   0.0000   0.0000   0.0000   0.0000   0.0000   0.0000
     0.0000   0.0000   0.0000   0.0000   0.0000   0.0000   0.0000   0.0000
     0.0000   0.0000   0.0000   0.0000   0.0000   0.0000   0.0000   0.0000
     0.0000   0.0000

          k = 0.0002 0.2889 0.2974 ( 42834 PWs)   bands (ev):

  -114.7004-114.6951-114.6865-114.6836-114.6830-114.6826-114.6789-114.6747
  -114.6581-114.6564-114.6558-114.6540-114.6512-114.6427-114.6394-114.6363
  -114.6313-114.6296-114.6253-114.6230-114.6184-114.6147-114.6144-114.6082
   -69.0609 -69.0589 -69.0581 -69.0565 -69.0537 -69.0519 -69.0476 -69.0457
   -69.0453 -69.0442 -69.0442 -69.0434 -69.0430 -69.0414 -69.0412 -69.0406
   -69.0405 -69.0397 -69.0395 -69.0376 -69.0367 -69.0360 -69.0347 -69.0290
   -69.0217 -69.0192 -69.0178 -69.0170 -69.0164 -69.0154 -69.0151 -69.0148
   -69.0144 -69.0141 -69.0140 -69.0122 -69.0119 -69.0093 -69.0056 -69.0044
   -69.0033 -69.0006 -68.9999 -68.9994 -68.9990 -68.9968 -68.9957 -68.9945
   -68.9941 -68.9917 -68.9912 -68.9897 -68.9882 -68.9877 -68.9871 -68.9861
   -68.9857 -68.9824 -68.9823 -68.9805 -68.9798 -68.9789 -68.9785 -68.9781
   -68.9764 -68.9732 -68.9724 -68.9723 -68.9706 -68.9681 -68.9680 -68.9659
   -64.2789 -64.2760 -64.2680 -64.2613 -64.2574 -64.2543 -64.2452 -64.2444
   -64.2397 -64.2337 -64.2303 -64.2185 -31.2745 -31.2711 -31.2606 -31.2588
   -31.2578 -31.2563 -31.2558 -31.2554 -31.2496 -31.2476 -31.2467 -31.2452
   -31.2449 -31.2440 -31.2408 -31.2393 -31.2330 -31.2313 -31.2299 -31.2291
   -31.2279 -31.2259 -31.2236 -31.2235 -31.2227 -31.2219 -31.2193 -31.2184
   -31.2154 -31.2150 -31.2125 -31.2102 -31.2041 -31.2017 -31.1990 -31.1972
    -9.4110  -9.1390  -9.0581  -9.0385  -9.0187  -8.8565  -8.8435  -8.8065
    -8.7769  -8.7649  -8.7478  -8.6435  -8.6121  -8.5908  -8.5719  -8.5569
    -8.5464  -8.5062  -8.4810  -8.4539  -8.4358  -8.4024  -8.3823  -8.3651
    -8.3498  -8.3320  -8.3161  -8.3070  -8.2854  -8.2741  -8.2472  -8.2246
    -8.1757  -8.1438  -8.1338  -8.0839   2.2272   2.2611   2.2789   2.3186
     2.3708   2.4034   2.4731   2.4935   2.5224   2.5432   2.5615   2.5880
     2.6158   2.6380   2.6699   2.6884   2.7061   2.7393   2.7615   2.7710
     2.7884   2.8030   2.8166   2.8419   2.8584   2.8874   2.8938   2.9039
     2.9313   2.9556   2.9782   2.9843   2.9904   3.0037   3.0115   3.0285
     3.0313   3.0495   3.0676   3.0725   3.0847   3.0939   3.1067   3.1104
     3.1236   3.1385   3.1518   3.1628   3.1771   3.1798   3.1983   3.2072
     3.2151   3.2308   3.2353   3.2461   3.2689   3.2778   3.2860   3.3006
     3.3046   3.3242   3.3415   3.3571   3.3719   3.3875   3.4018   3.4146
     3.4480   3.4541   3.4615   3.4733   3.4850   3.5083   3.5246   3.5323
     3.5431   3.5553   3.5836   3.6014   3.6139   3.6416   3.6564   3.6743
     3.6806   3.6925   3.7140   3.7262   3.7441   3.7594   3.7788   3.8025
     3.8144   3.8456   3.8621   3.8701   3.8826   3.9036   3.9206   3.9306
     3.9614   3.9767   3.9794   3.9959   4.0087   4.0291   4.0427   4.0510
     4.0720   4.0863   4.0969   4.1131   4.1291   4.1472   4.1542   4.1875
     4.1991   4.2108   4.2280   4.2531   4.3037   4.3636   4.4032   4.4658
     4.4940   4.5177   4.5589   4.6236   4.6705   4.6985   4.7291   4.7733
     4.8096   4.8197   4.8804   4.8946   4.9275   4.9572   4.9892   5.0085
     5.0377   5.0771   5.1318   5.1801   5.2086   5.2446   5.2890   5.3048
     5.3545   5.4000   5.4137   5.4448   5.5128   5.5291   5.5595   5.6244
     5.6667   5.7002   5.7257   5.7667   5.8230   5.8358   5.8696   5.9076
     5.9348   5.9644   5.9866   6.0305   6.0881   6.1102   6.1787   6.2034
     6.2345   6.2774   6.2980   6.3517   6.3668   6.3966   6.4165   6.4506
     6.4706   6.5137   6.6030   6.6447   6.7096   6.7534   6.7937   6.8474
     6.8648   6.8843   6.9244   6.9843   7.0087   7.0273   7.0507   7.0804
     7.0958   7.1380   7.1527   7.1782   7.2093   7.2353   7.2659   7.2782
     7.3082   7.3561   7.3952   7.4110   7.4284   7.4441   7.4949   7.5056
     7.5385   7.5817   7.6981   7.7321   7.7658   7.8057   7.8795   7.9192
     7.9589   7.9874   8.1087   8.1516   8.1724   8.2367   8.2740   8.3173
    10.5639  12.1535  12.3471  12.7068  12.8135  13.1339  13.4542  13.5133
    13.5354  13.6841  13.8332  13.9885  14.0483  14.1634  14.2582  14.4772
    14.6446  14.8920  14.9070  14.9780  15.0590  15.0899  15.1383  15.1758
    15.4293  15.5003  15.5512  15.5719  15.6402  15.7274  15.7920  15.9599
    15.9960  16.0436  16.1454  16.2411  16.4152  16.5864  16.6813  16.7962
    16.8942  16.9320  16.9739  17.0650  17.1373  17.2168  17.2857  17.2987
    17.3371  17.3724  17.4558  17.4878  17.5583  17.6070  17.6781  17.7489
    17.9063  17.9862  18.0448  18.0812  18.1714  18.2972  18.3551  18.4808
    18.6281  18.8170  18.9959  19.0680  19.1970  19.2153  19.3052  19.4283
    19.4851  19.5741  19.6345  19.7385  19.8019  19.8323  19.8688  19.9658
    20.0196  20.0556

     occupation numbers 
     1.0000   1.0000   1.0000   1.0000   1.0000   1.0000   1.0000   1.0000
     1.0000   1.0000   1.0000   1.0000   1.0000   1.0000   1.0000   1.0000
     1.0000   1.0000   1.0000   1.0000   1.0000   1.0000   1.0000   1.0000
     1.0000   1.0000   1.0000   1.0000   1.0000   1.0000   1.0000   1.0000
     1.0000   1.0000   1.0000   1.0000   1.0000   1.0000   1.0000   1.0000
     1.0000   1.0000   1.0000   1.0000   1.0000   1.0000   1.0000   1.0000
     1.0000   1.0000   1.0000   1.0000   1.0000   1.0000   1.0000   1.0000
     1.0000   1.0000   1.0000   1.0000   1.0000   1.0000   1.0000   1.0000
     1.0000   1.0000   1.0000   1.0000   1.0000   1.0000   1.0000   1.0000
     1.0000   1.0000   1.0000   1.0000   1.0000   1.0000   1.0000   1.0000
     1.0000   1.0000   1.0000   1.0000   1.0000   1.0000   1.0000   1.0000
     1.0000   1.0000   1.0000   1.0000   1.0000   1.0000   1.0000   1.0000
     1.0000   1.0000   1.0000   1.0000   1.0000   1.0000   1.0000   1.0000
     1.0000   1.0000   1.0000   1.0000   1.0000   1.0000   1.0000   1.0000
     1.0000   1.0000   1.0000   1.0000   1.0000   1.0000   1.0000   1.0000
     1.0000   1.0000   1.0000   1.0000   1.0000   1.0000   1.0000   1.0000
     1.0000   1.0000   1.0000   1.0000   1.0000   1.0000   1.0000   1.0000
     1.0000   1.0000   1.0000   1.0000   1.0000   1.0000   1.0000   1.0000
     1.0000   1.0000   1.0000   1.0000   1.0000   1.0000   1.0000   1.0000
     1.0000   1.0000   1.0000   1.0000   1.0000   1.0000   1.0000   1.0000
     1.0000   1.0000   1.0000   1.0000   1.0000   1.0000   1.0000   1.0000
     1.0000   1.0000   1.0000   1.0000   1.0000   1.0000   1.0000   1.0000
     1.0000   1.0000   1.0000   1.0000   1.0000   1.0000   1.0000   1.0000
     1.0000   1.0000   1.0000   1.0000   1.0000   1.0000   1.0000   1.0000
     1.0000   1.0000   1.0000   1.0000   1.0000   1.0000   1.0000   1.0000
     1.0000   1.0000   1.0000   1.0000   1.0000   1.0000   1.0000   1.0000
     1.0000   1.0000   1.0000   1.0000   1.0000   1.0000   1.0000   1.0000
     1.0000   1.0000   1.0000   1.0000   1.0000   1.0000   1.0000   1.0000
     1.0000   1.0000   1.0000   1.0000   1.0000   1.0000   1.0000   1.0000
     1.0000   1.0000   1.0000   1.0000   1.0000   1.0000   1.0000   1.0000
     1.0000   1.0000   1.0000   1.0000   1.0000   1.0000   1.0000   1.0000
     1.0000   1.0000   1.0000   1.0000   1.0000   1.0000   1.0000   1.0000
     1.0000   1.0000   1.0000   1.0000   1.0000   1.0000   1.0000   1.0000
     1.0000   1.0000   1.0000   1.0000   1.0000   1.0000   1.0000   1.0000
     1.0000   1.0000   1.0000   1.0000   1.0000   1.0000   1.0000   1.0000
     1.0000   1.0000   1.0000   1.0000   1.0000   1.0000   1.0000   1.0000
     1.0000   1.0000   1.0000   1.0000   1.0000   1.0000   1.0000   1.0000
     1.0000   1.0000   1.0000   1.0000   1.0000   1.0000   1.0000   1.0000
     1.0000   1.0000   1.0000   1.0000   1.0000   1.0000   1.0000   1.0000
     1.0000   1.0000   1.0000   1.0000   1.0000   1.0000   1.0000   1.0000
     1.0000   1.0000   1.0000   1.0000   1.0000   1.0000   1.0000   1.0000
     1.0000   1.0000   1.0000   1.0000   1.0000   1.0000   1.0000   1.0000
     1.0000   1.0000   1.0000   1.0000   1.0000   1.0000   1.0000   1.0000
     1.0000   1.0000   1.0000   1.0000   1.0000   1.0000   1.0000   1.0000
     1.0000   1.0000   1.0000   1.0000   1.0000   1.0000   1.0000   1.0000
     1.0000   1.0000   1.0000   1.0000   1.0000   1.0000   1.0000   1.0000
     1.0000   1.0000   1.0000   1.0000   1.0000   1.0000   1.0000   1.0000
     1.0000   1.0000   1.0000   1.0000   1.0000   1.0000   1.0000   1.0000
     1.0000   1.0000   1.0000   1.0000   1.0000   1.0000   1.0000   1.0000
     1.0000   1.0000   1.0000   1.0000   1.0000   1.0000   1.0000   1.0000
     1.0000   1.0000   1.0000   1.0000   1.0000   1.0000   1.0000   1.0000
     0.0000   0.0000   0.0000   0.0000   0.0000   0.0000   0.0000   0.0000
     0.0000   0.0000   0.0000   0.0000   0.0000   0.0000   0.0000   0.0000
     0.0000   0.0000   0.0000   0.0000   0.0000   0.0000   0.0000   0.0000
     0.0000   0.0000   0.0000   0.0000   0.0000   0.0000   0.0000   0.0000
     0.0000   0.0000   0.0000   0.0000   0.0000   0.0000   0.0000   0.0000
     0.0000   0.0000   0.0000   0.0000   0.0000   0.0000   0.0000   0.0000
     0.0000   0.0000   0.0000   0.0000   0.0000   0.0000   0.0000   0.0000
     0.0000   0.0000   0.0000   0.0000   0.0000   0.0000   0.0000   0.0000
     0.0000   0.0000   0.0000   0.0000   0.0000   0.0000   0.0000   0.0000
     0.0000   0.0000   0.0000   0.0000   0.0000   0.0000   0.0000   0.0000
     0.0000   0.0000

          k = 0.0002 0.2890-0.5951 ( 42825 PWs)   bands (ev):

  -114.7004-114.6951-114.6865-114.6836-114.6830-114.6826-114.6789-114.6747
  -114.6581-114.6564-114.6558-114.6540-114.6512-114.6427-114.6394-114.6363
  -114.6313-114.6296-114.6253-114.6230-114.6184-114.6147-114.6144-114.6082
   -69.0609 -69.0589 -69.0581 -69.0565 -69.0537 -69.0519 -69.0476 -69.0457
   -69.0453 -69.0442 -69.0442 -69.0434 -69.0430 -69.0414 -69.0412 -69.0406
   -69.0405 -69.0397 -69.0395 -69.0376 -69.0367 -69.0360 -69.0347 -69.0290
   -69.0217 -69.0192 -69.0178 -69.0170 -69.0164 -69.0154 -69.0151 -69.0148
   -69.0144 -69.0141 -69.0140 -69.0122 -69.0119 -69.0093 -69.0056 -69.0044
   -69.0033 -69.0006 -68.9999 -68.9994 -68.9990 -68.9968 -68.9957 -68.9945
   -68.9941 -68.9917 -68.9912 -68.9897 -68.9882 -68.9877 -68.9871 -68.9861
   -68.9857 -68.9824 -68.9823 -68.9805 -68.9798 -68.9789 -68.9785 -68.9781
   -68.9764 -68.9732 -68.9724 -68.9723 -68.9706 -68.9681 -68.9680 -68.9659
   -64.2789 -64.2760 -64.2680 -64.2613 -64.2574 -64.2543 -64.2452 -64.2444
   -64.2397 -64.2337 -64.2303 -64.2185 -31.2744 -31.2710 -31.2608 -31.2588
   -31.2578 -31.2564 -31.2557 -31.2554 -31.2494 -31.2479 -31.2468 -31.2455
   -31.2448 -31.2437 -31.2410 -31.2393 -31.2330 -31.2311 -31.2299 -31.2291
   -31.2279 -31.2259 -31.2236 -31.2235 -31.2226 -31.2221 -31.2193 -31.2184
   -31.2154 -31.2150 -31.2125 -31.2102 -31.2041 -31.2017 -31.1989 -31.1972
    -9.3016  -9.2346  -9.0250  -8.9944  -8.9738  -8.9461  -8.8995  -8.8736
    -8.7801  -8.7426  -8.7324  -8.7057  -8.6873  -8.6566  -8.5786  -8.5419
    -8.5190  -8.4963  -8.4314  -8.4175  -8.4023  -8.3703  -8.3563  -8.3419
    -8.3316  -8.3003  -8.2937  -8.2857  -8.2557  -8.2425  -8.2356  -8.2243
    -8.2118  -8.2000  -8.1839  -8.1101   2.3846   2.3943   2.4236   2.4418
     2.4526   2.4773   2.4965   2.5240   2.5306   2.5710   2.5887   2.6374
     2.6702   2.6764   2.6990   2.7229   2.7322   2.7499   2.7731   2.7841
     2.8034   2.8126   2.8346   2.8742   2.8830   2.9043   2.9117   2.9158
     2.9312   2.9442   2.9521   2.9657   2.9794   2.9898   3.0078   3.0163
     3.0225   3.0353   3.0542   3.0675   3.0734   3.0807   3.0932   3.1043
     3.1099   3.1159   3.1236   3.1376   3.1411   3.1526   3.1659   3.1757
     3.1893   3.1980   3.2088   3.2142   3.2303   3.2344   3.2469   3.2559
     3.2686   3.2813   3.2849   3.3069   3.3192   3.3293   3.3334   3.3717
     3.3807   3.4073   3.4169   3.4234   3.4406   3.4562   3.4743   3.4774
     3.4954   3.5345   3.5495   3.5588   3.5858   3.5903   3.6188   3.6384
     3.6486   3.6634   3.6848   3.7040   3.7500   3.7670   3.7908   3.8034
     3.8173   3.8349   3.8496   3.8698   3.8981   3.9136   3.9272   3.9391
     3.9481   3.9720   3.9868   3.9994   4.0108   4.0209   4.0517   4.0544
     4.0646   4.0736   4.0921   4.1135   4.1287   4.1384   4.1608   4.1760
     4.1855   4.2140   4.2257   4.2366   4.2836   4.3965   4.4200   4.4729
     4.5081   4.5326   4.5960   4.6364   4.6638   4.6900   4.7263   4.7374
     4.7809   4.8265   4.8603   4.8814   4.9026   4.9262   4.9426   4.9701
     4.9968   5.0575   5.0891   5.1167   5.1421   5.1728   5.2307   5.2440
     5.2912   5.3404   5.3676   5.4207   5.4817   5.5192   5.6217   5.6430
     5.7314   5.7708   5.7932   5.8289   5.8686   5.9069   5.9249   5.9620
     6.0620   6.1077   6.1232   6.1390   6.1730   6.1826   6.2155   6.2474
     6.2855   6.2975   6.3040   6.3391   6.4006   6.4254   6.4630   6.5059
     6.5581   6.6257   6.6817   6.6887   6.7638   6.7955   6.8697   6.8842
     6.9189   6.9289   6.9511   6.9775   6.9970   7.0291   7.0492   7.0750
     7.1027   7.1335   7.1498   7.1920   7.2025   7.2156   7.2686   7.3064
     7.3402   7.3600   7.3882   7.4304   7.4551   7.4849   7.5547   7.6328
     7.6779   7.7402   7.7447   7.7812   7.8016   7.8217   7.8541   7.8801
     7.8969   7.9176   7.9424   7.9683   8.0007   8.0266   8.0407   8.0536
    11.3095  11.3986  12.4990  12.5829  12.9217  13.0111  13.0344  13.1223
    13.6343  13.6680  13.8196  13.8366  13.9417  14.1129  14.2720  14.5178
    15.0149  15.1053  15.1537  15.1772  15.3179  15.3831  15.4294  15.4826
    15.5183  15.5720  15.5883  15.6069  15.6369  15.6978  15.7715  15.8985
    16.0408  16.0720  16.1623  16.2573  16.5600  16.6192  16.7147  16.7683
    16.8161  16.8553  16.8962  16.9394  16.9648  16.9847  17.0194  17.0489
    17.0805  17.1137  17.1456  17.1666  17.1952  17.2381  17.2896  17.3314
    17.8490  17.9696  17.9973  18.1916  18.3287  18.3672  18.5264  18.5593
    18.6964  18.9031  18.9664  19.0486  19.1225  19.2094  19.2755  19.4379
    19.5378  19.5714  19.6979  19.7370  19.7916  19.8171  19.8747  19.9768
    20.0342  20.0759

     occupation numbers 
     1.0000   1.0000   1.0000   1.0000   1.0000   1.0000   1.0000   1.0000
     1.0000   1.0000   1.0000   1.0000   1.0000   1.0000   1.0000   1.0000
     1.0000   1.0000   1.0000   1.0000   1.0000   1.0000   1.0000   1.0000
[...]
     atom   35 type  1   force =     0.00000000    0.00000000    0.00000000
     atom   36 type  1   force =     0.00000000    0.00000000    0.00000000
     atom   37 type  2   force =     0.00000267   -0.00133361   -0.00000899
     atom   38 type  2   force =    -0.00006028   -0.00129722    0.00003118
     atom   39 type  2   force =    -0.00002568    0.00134930   -0.00001530
     atom   40 type  2   force =     0.00121066    0.00064539    0.00002149
     atom   41 type  2   force =    -0.00121101   -0.00072345   -0.00005183
     atom   42 type  2   force =     0.00000225    0.00136442   -0.00002306
     atom   43 type  2   force =    -0.00001962    0.00001640    0.00009747
     atom   44 type  2   force =    -0.00000766   -0.00139033    0.00006177
     atom   45 type  2   force =    -0.00125673    0.00069261   -0.00012091
     atom   46 type  2   force =    -0.00125372    0.00073726    0.00009871
     atom   47 type  2   force =     0.00002142   -0.00146705    0.00008613
     atom   48 type  2   force =    -0.00124306   -0.00070203   -0.00018953
     atom   49 type  2   force =     0.00000570    0.00000506   -0.00007556
     atom   50 type  2   force =     0.00005854    0.00004407    0.00015754
     atom   51 type  2   force =     0.00130526    0.00071499   -0.00012860
     atom   52 type  2   force =     0.00000445    0.00002004    0.00008391
     atom   53 type  2   force =     0.00125181    0.00076208   -0.00008706
     atom   54 type  2   force =     0.00130585    0.00072350    0.00002904
     atom   55 type  2   force =     0.00000084   -0.00002974    0.00001561
     atom   56 type  2   force =    -0.00120903   -0.00070217   -0.00004517
     atom   57 type  2   force =    -0.00002502   -0.00002473   -0.00009693
     atom   58 type  2   force =    -0.00123977   -0.00071199    0.00015179
     atom   59 type  2   force =    -0.00129383   -0.00069268    0.00003401
     atom   60 type  2   force =    -0.00128786   -0.00074984    0.00000550
     atom   61 type  2   force =    -0.00000352   -0.00006537    0.00000124
     atom   62 type  2   force =     0.00001040    0.00130748   -0.00006588
     atom   63 type  2   force =    -0.00001037    0.00147436    0.00002768
     atom   64 type  2   force =     0.00128533   -0.00076093    0.00004043
     atom   65 type  2   force =     0.00124132   -0.00067362    0.00008103
     atom   66 type  2   force =    -0.00002824    0.00000073   -0.00014901
     atom   67 type  2   force =     0.00000132   -0.00002257    0.00001875
     atom   68 type  2   force =     0.00119062    0.00066920    0.00000539
     atom   69 type  2   force =     0.00004148    0.00137227   -0.00001012
     atom   70 type  2   force =     0.00001684    0.00001322    0.00003962
     atom   71 type  2   force =     0.00002862   -0.00133728   -0.00000856
     atom   72 type  2   force =     0.00123191    0.00072870    0.00002614
     The Hubbard contrib.    to forces
     atom    1 type  1   force =     0.00000000    0.00000000    0.00000000
     atom    2 type  1   force =     0.00000000    0.00000000    0.00000000
     atom    3 type  1   force =     0.00000000    0.00000000    0.00000000
     atom    4 type  1   force =     0.00000000    0.00000000    0.00000000
     atom    5 type  1   force =     0.00000000    0.00000000    0.00000000
     atom    6 type  1   force =     0.00000000    0.00000000    0.00000000
     atom    7 type  1   force =     0.00000000    0.00000000    0.00000000
     atom    8 type  1   force =     0.00000000    0.00000000    0.00000000
     atom    9 type  1   force =     0.00000000    0.00000000    0.00000000
     atom   10 type  3   force =     0.00000000    0.00000000    0.00000000
     atom   11 type  3   force =     0.00000000    0.00000000    0.00000000
     atom   12 type  1   force =     0.00000000    0.00000000    0.00000000
     atom   13 type  1   force =     0.00000000    0.00000000    0.00000000
     atom   14 type  3   force =     0.00000000    0.00000000    0.00000000
     atom   15 type  1   force =     0.00000000    0.00000000    0.00000000
     atom   16 type  3   force =     0.00000000    0.00000000    0.00000000
     atom   17 type  3   force =     0.00000000    0.00000000    0.00000000
     atom   18 type  3   force =     0.00000000    0.00000000    0.00000000
     atom   19 type  1   force =     0.00000000    0.00000000    0.00000000
     atom   20 type  1   force =     0.00000000    0.00000000    0.00000000
     atom   21 type  1   force =     0.00000000    0.00000000    0.00000000
     atom   22 type  3   force =     0.00000000    0.00000000    0.00000000
     atom   23 type  3   force =     0.00000000    0.00000000    0.00000000
     atom   24 type  3   force =     0.00000000    0.00000000    0.00000000
     atom   25 type  1   force =     0.00000000    0.00000000    0.00000000
     atom   26 type  1   force =     0.00000000    0.00000000    0.00000000
     atom   27 type  3   force =     0.00000000    0.00000000    0.00000000
     atom   28 type  3   force =     0.00000000    0.00000000    0.00000000
     atom   29 type  3   force =     0.00000000    0.00000000    0.00000000
     atom   30 type  1   force =     0.00000000    0.00000000    0.00000000
     atom   31 type  1   force =     0.00000000    0.00000000    0.00000000
     atom   32 type  1   force =     0.00000000    0.00000000    0.00000000
     atom   33 type  1   force =     0.00000000    0.00000000    0.00000000
     atom   34 type  1   force =     0.00000000    0.00000000    0.00000000
     atom   35 type  1   force =     0.00000000    0.00000000    0.00000000
     atom   36 type  1   force =     0.00000000    0.00000000    0.00000000
     atom   37 type  2   force =     0.00000000    0.00000000    0.00000000
     atom   38 type  2   force =     0.00000000    0.00000000    0.00000000
     atom   39 type  2   force =     0.00000000    0.00000000    0.00000000
     atom   40 type  2   force =     0.00000000    0.00000000    0.00000000
     atom   41 type  2   force =     0.00000000    0.00000000    0.00000000
     atom   42 type  2   force =     0.00000000    0.00000000    0.00000000
     atom   43 type  2   force =     0.00000000    0.00000000    0.00000000
     atom   44 type  2   force =     0.00000000    0.00000000    0.00000000
     atom   45 type  2   force =     0.00000000    0.00000000    0.00000000
     atom   46 type  2   force =     0.00000000    0.00000000    0.00000000
     atom   47 type  2   force =     0.00000000    0.00000000    0.00000000
     atom   48 type  2   force =     0.00000000    0.00000000    0.00000000
     atom   49 type  2   force =     0.00000000    0.00000000    0.00000000
     atom   50 type  2   force =     0.00000000    0.00000000    0.00000000
     atom   51 type  2   force =     0.00000000    0.00000000    0.00000000
     atom   52 type  2   force =     0.00000000    0.00000000    0.00000000
     atom   53 type  2   force =     0.00000000    0.00000000    0.00000000
     atom   54 type  2   force =     0.00000000    0.00000000    0.00000000
     atom   55 type  2   force =     0.00000000    0.00000000    0.00000000
     atom   56 type  2   force =     0.00000000    0.00000000    0.00000000
     atom   57 type  2   force =     0.00000000    0.00000000    0.00000000
     atom   58 type  2   force =     0.00000000    0.00000000    0.00000000
     atom   59 type  2   force =     0.00000000    0.00000000    0.00000000
     atom   60 type  2   force =     0.00000000    0.00000000    0.00000000
     atom   61 type  2   force =     0.00000000    0.00000000    0.00000000
     atom   62 type  2   force =     0.00000000    0.00000000    0.00000000
     atom   63 type  2   force =     0.00000000    0.00000000    0.00000000
     atom   64 type  2   force =     0.00000000    0.00000000    0.00000000
     atom   65 type  2   force =     0.00000000    0.00000000    0.00000000
     atom   66 type  2   force =     0.00000000    0.00000000    0.00000000
     atom   67 type  2   force =     0.00000000    0.00000000    0.00000000
     atom   68 type  2   force =     0.00000000    0.00000000    0.00000000
     atom   69 type  2   force =     0.00000000    0.00000000    0.00000000
     atom   70 type  2   force =     0.00000000    0.00000000    0.00000000
     atom   71 type  2   force =     0.00000000    0.00000000    0.00000000
     atom   72 type  2   force =     0.00000000    0.00000000    0.00000000
     The SCF correction term to forces
     atom    1 type  1   force =    -0.00000379   -0.00007403    0.00000000
     atom    2 type  1   force =    -0.00001288   -0.00009032    0.00000000
     atom    3 type  1   force =     0.00002398    0.00005430    0.00000000
     atom    4 type  1   force =    -0.00000499    0.00003492    0.00000000
     atom    5 type  1   force =    -0.00003960   -0.00000172    0.00000000
     atom    6 type  1   force =    -0.00006443    0.00001362    0.00000000
     atom    7 type  1   force =    -0.00002424   -0.00003444    0.00000000
     atom    8 type  1   force =     0.00000472   -0.00004881    0.00000000
     atom    9 type  1   force =    -0.00001972    0.00004781    0.00000000
     atom   10 type  3   force =    -0.00003197    0.00000926    0.00000000
     atom   11 type  3   force =    -0.00001096   -0.00004592    0.00000000
     atom   12 type  1   force =    -0.00003568   -0.00002470    0.00000000
     atom   13 type  1   force =     0.00001969   -0.00002763    0.00000000
     atom   14 type  3   force =     0.00000588    0.00001029    0.00000000
     atom   15 type  1   force =    -0.00000493    0.00005847    0.00000000
     atom   16 type  3   force =     0.00003175    0.00001142    0.00000000
     atom   17 type  3   force =     0.00002611   -0.00001460    0.00000000
     atom   18 type  3   force =     0.00005612    0.00003091    0.00000000
     atom   19 type  1   force =    -0.00000955   -0.00001933    0.00000000
     atom   20 type  1   force =    -0.00002531   -0.00003738    0.00000000
     atom   21 type  1   force =     0.00000228    0.00001330    0.00000000
     atom   22 type  3   force =    -0.00002346    0.00001001    0.00000000
     atom   23 type  3   force =    -0.00001730   -0.00000135    0.00000000
     atom   24 type  3   force =    -0.00002740   -0.00002607    0.00000000
     atom   25 type  1   force =     0.00000933   -0.00003197    0.00000000
     atom   26 type  1   force =     0.00006062   -0.00005384    0.00000000
     atom   27 type  3   force =    -0.00000388   -0.00000902    0.00000000
     atom   28 type  3   force =     0.00000979    0.00001903    0.00000000
     atom   29 type  3   force =    -0.00002155    0.00001982    0.00000000
     atom   30 type  1   force =    -0.00000290    0.00007320    0.00000000
     atom   31 type  1   force =    -0.00000289   -0.00002638    0.00000000
     atom   32 type  1   force =    -0.00003853   -0.00004020    0.00000000
     atom   33 type  1   force =     0.00001395    0.00005053    0.00000000
     atom   34 type  1   force =     0.00003069    0.00005123    0.00000000
     atom   35 type  1   force =     0.00006150    0.00001591    0.00000000
     atom   36 type  1   force =     0.00004273    0.00000282    0.00000000
     atom   37 type  2   force =     0.00001524   -0.00001416    0.00000000
     atom   38 type  2   force =     0.00001102   -0.00001479    0.00000000
     atom   39 type  2   force =     0.00000738    0.00000837    0.00000000
     atom   40 type  2   force =     0.00000706    0.00000569    0.00000000
     atom   41 type  2   force =    -0.00000617    0.00001497    0.00000000
     atom   42 type  2   force =    -0.00000723    0.00001502    0.00000000
     atom   43 type  2   force =    -0.00000761   -0.00000768    0.00000000
     atom   44 type  2   force =    -0.00001041   -0.00000321    0.00000000
     atom   45 type  2   force =    -0.00000005   -0.00000279    0.00000000
     atom   46 type  2   force =    -0.00000466   -0.00000398    0.00000000
     atom   47 type  2   force =    -0.00000808   -0.00000121    0.00000000
     atom   48 type  2   force =    -0.00000798   -0.00000923    0.00000000
     atom   49 type  2   force =    -0.00000874   -0.00000555    0.00000000
     atom   50 type  2   force =    -0.00000074   -0.00000059    0.00000000
     atom   51 type  2   force =    -0.00000556    0.00000160    0.00000000
     atom   52 type  2   force =    -0.00000239    0.00000240    0.00000000
     atom   53 type  2   force =     0.00001849    0.00000821    0.00000000
     atom   54 type  2   force =     0.00001804    0.00000597    0.00000000
     atom   55 type  2   force =     0.00000130    0.00000377    0.00000000
     atom   56 type  2   force =    -0.00000326    0.00000063    0.00000000
     atom   57 type  2   force =    -0.00000779   -0.00000684    0.00000000
     atom   58 type  2   force =    -0.00000499    0.00000064    0.00000000
     atom   59 type  2   force =    -0.00000611   -0.00000656    0.00000000
     atom   60 type  2   force =    -0.00000333   -0.00000834    0.00000000
     atom   61 type  2   force =     0.00000486    0.00000724    0.00000000
     atom   62 type  2   force =     0.00000763   -0.00000266    0.00000000
     atom   63 type  2   force =     0.00000746    0.00000267    0.00000000
     atom   64 type  2   force =     0.00000443   -0.00000113    0.00000000
     atom   65 type  2   force =    -0.00000103    0.00000236    0.00000000
     atom   66 type  2   force =    -0.00000182    0.00001064    0.00000000
     atom   67 type  2   force =    -0.00000573    0.00000853    0.00000000
     atom   68 type  2   force =    -0.00000983   -0.00000158    0.00000000
     atom   69 type  2   force =     0.00000041    0.00000027    0.00000000
     atom   70 type  2   force =     0.00000146    0.00000481    0.00000000
     atom   71 type  2   force =     0.00000694   -0.00000809    0.00000000
     atom   72 type  2   force =     0.00000408   -0.00000433    0.00000000

     Total force =     0.000149     Total SCF correction =     0.000295
     SCF correction compared to forces is large: reduce conv_thr to get better values


     Computing stress (Cartesian axis) and pressure

          total   stress  (Ry/bohr**3)                   (kbar)     P=    1.48
   0.00001162   0.00000005  -0.00000000          1.71      0.01     -0.00
   0.00000005   0.00001158  -0.00000000          0.01      1.70     -0.00
  -0.00000000  -0.00000000   0.00000697         -0.00     -0.00      1.02

     kinetic stress (kbar)  30392.76     -0.17     -0.00
                               -0.17  30394.24     -0.15
                               -0.00     -0.15  30558.77

     local   stress (kbar)  -4682.95    553.31   -360.88
                              553.31   3098.51  -1219.69
                             -360.88  -1219.69 -27334.57

     nonloc. stress (kbar)    644.68     -0.31     -0.04
                               -0.31    642.86      0.13
                               -0.04      0.13    592.64

     hartree stress (kbar)  51224.76   -265.07    177.27
                             -265.07  47404.25    594.04
                              177.27    594.04  61627.68

     exc-cor stress (kbar) -12298.13     -0.03     -0.00
                               -0.03 -12298.17      0.00
                               -0.00      0.00 -12298.10

     corecor stress (kbar)   -261.99      0.00     -0.00
                                0.00   -262.00      0.00
                               -0.00      0.00   -262.28

     ewald   stress (kbar) -65017.41   -287.72    183.66
                             -287.72 -68977.99    625.66
                              183.66    625.66 -52883.12

     hubbard stress (kbar)      0.00      0.00      0.00
                                0.00      0.00      0.00
                                0.00      0.00      0.00

     london  stress (kbar)      0.00      0.00      0.00
                                0.00      0.00      0.00
                                0.00      0.00      0.00

     DFT-D3  stress (kbar)      0.00      0.00      0.00
                                0.00      0.00      0.00
                                0.00      0.00      0.00

     XDM     stress (kbar)      0.00      0.00      0.00
                                0.00      0.00      0.00
                                0.00      0.00      0.00

     dft-nl  stress (kbar)      0.00      0.00      0.00
                                0.00      0.00      0.00
                                0.00      0.00      0.00

     TS-vdW  stress (kbar)      0.00      0.00      0.00
                                0.00      0.00      0.00
                                0.00      0.00      0.00



     Writing output data file ZnO.save/
 
     init_run     :     13.63s CPU     14.33s WALL (       1 calls)
     electrons    :    708.98s CPU    723.38s WALL (       1 calls)
     forces       :      9.24s CPU      9.46s WALL (       1 calls)
     stress       :    134.88s CPU    135.15s WALL (       1 calls)

     Called by init_run:
     wfcinit      :     11.39s CPU     11.85s WALL (       1 calls)
     wfcinit:atom :      0.08s CPU      0.09s WALL (       5 calls)
     wfcinit:wfcr :     10.91s CPU     11.31s WALL (       5 calls)
     potinit      :      1.00s CPU      1.04s WALL (       1 calls)
     hinit0       :      0.74s CPU      0.87s WALL (       1 calls)

     Called by electrons:
     c_bands      :    658.80s CPU    671.92s WALL (      12 calls)
     sum_band     :     43.16s CPU     43.87s WALL (      12 calls)
     v_of_rho     :      5.45s CPU      5.73s WALL (      13 calls)
     v_h          :      0.13s CPU      0.18s WALL (      13 calls)
     v_xc         :      6.16s CPU      6.42s WALL (      15 calls)
     newd         :      1.42s CPU      1.49s WALL (      13 calls)
     mix_rho      :      0.29s CPU      0.38s WALL (      12 calls)

     Called by c_bands:
     init_us_2    :      4.11s CPU      4.13s WALL (     135 calls)
     cegterg      :    595.19s CPU    607.95s WALL (      60 calls)

     Called by sum_band:
     sum_band:bec :      0.23s CPU      0.23s WALL (      60 calls)
     addusdens    :      1.11s CPU      1.15s WALL (      12 calls)

     Called by *egterg:
     h_psi        :    189.75s CPU    192.62s WALL (     273 calls)
     s_psi        :     47.76s CPU     47.78s WALL (     273 calls)
     g_psi        :      0.70s CPU      0.70s WALL (     208 calls)
     cdiaghg      :    241.08s CPU    247.62s WALL (     268 calls)
     cegterg:over :     54.08s CPU     55.42s WALL (     208 calls)
     cegterg:upda :     34.69s CPU     35.10s WALL (     208 calls)
     cegterg:last :     19.30s CPU     19.37s WALL (      60 calls)
     cdiaghg:chol :     11.15s CPU     11.19s WALL (     268 calls)
     cdiaghg:inve :      3.52s CPU      3.53s WALL (     268 calls)
     cdiaghg:para :     57.76s CPU     62.95s WALL (     536 calls)

     Called by h_psi:
     h_psi:pot    :    188.33s CPU    190.30s WALL (     273 calls)
     h_psi:calbec :     49.48s CPU     50.80s WALL (     273 calls)
     vloc_psi     :     91.22s CPU     91.72s WALL (     273 calls)
     add_vuspsi   :     47.63s CPU     47.77s WALL (     273 calls)

     General routines
     calbec       :     77.34s CPU     79.30s WALL (     358 calls)
     fft          :      1.35s CPU      1.87s WALL (     192 calls)
     ffts         :      0.07s CPU      0.08s WALL (      25 calls)
     fftw         :    104.80s CPU    105.39s WALL (  175432 calls)
     interpolate  :      0.14s CPU      0.17s WALL (      13 calls)
 
     Parallel routines
     fft_scatt_xy :     13.19s CPU     13.26s WALL (  175649 calls)
     fft_scatt_yz :     28.88s CPU     29.53s WALL (  175649 calls)
 
     PWSCF        :  14m31.90s CPU  14m50.87s WALL

 
   This run was terminated on:  21:59:24   8Nov2021            

=------------------------------------------------------------------------------=
   JOB DONE.
=------------------------------------------------------------------------------=
