
     Program PWSCF v.6.4.1 starts on 16Jun2022 at 14:58:27 

     This program is part of the open-source Quantum ESPRESSO suite
     for quantum simulation of materials; please cite
         "P. Giannozzi et al., J. Phys.:Condens. Matter 21 395502 (2009);
         "P. Giannozzi et al., J. Phys.:Condens. Matter 29 465901 (2017);
          URL http://www.quantum-espresso.org", 
     in publications or presentations arising from this work. More details at
     http://www.quantum-espresso.org/quote

     Parallel version (MPI), running on    64 processors

     MPI processes distributed on     1 nodes
     K-points division:     npool     =       4
     R & G space division:  proc/nbgrp/npool/nimage =      16
     Waiting for input...
     Reading input from standard input

     Current dimensions of program PWSCF are:
     Max number of different atomic species (ntypx) = 10
     Max number of k-points (npk) =  40000
     Max angular momentum in pseudopotentials (lmaxx) =  3

     Subspace diagonalization in iterative solution of the eigenvalue problem:
     one sub-group per band group will be used
     scalapack distributed-memory algorithm (size of sub-group:  2*  2 procs)

 
     Parallelization info
     --------------------
     sticks:   dense  smooth     PW     G-vecs:    dense   smooth      PW
     Min          94      50     15                 4940     1918     333
     Max          95      51     16                 4945     1923     340
     Sum        1507     805    253                79057    30717    5409
 


     bravais-lattice index     =            0
     lattice parameter (alat)  =       6.0289  a.u.
     unit-cell volume          =     317.6808 (a.u.)^3
     number of atoms/cell      =            4
     number of atomic types    =            2
     number of electrons       =        52.00
     number of Kohn-Sham states=           26
     kinetic-energy cutoff     =      80.0000  Ry
     charge density cutoff     =     600.0000  Ry
     convergence threshold     =      1.0E-06
     mixing beta               =       0.5000
     number of iterations used =            8  plain     mixing
     Exchange-correlation      = SLA  PW   PSX  PSC ( 1  4 10  8 0 0)
     Using LIBXC version       =    4   3   4
     nstep                     =          200


     celldm(1)=   6.028923  celldm(2)=   0.000000  celldm(3)=   0.000000
     celldm(4)=   0.000000  celldm(5)=   0.000000  celldm(6)=   0.000000

     crystal axes: (cart. coord. in units of alat)
               a(1) = (   1.000000  -0.000000   0.000000 )  
               a(2) = (  -0.500000   0.866025  -0.000000 )  
               a(3) = (   0.000000  -0.000000   1.673945 )  

     reciprocal axes: (cart. coord. in units 2 pi/alat)
               b(1) = (  1.000000  0.577350  0.000000 )  
               b(2) = (  0.000000  1.154701  0.000000 )  
               b(3) = ( -0.000000  0.000000  0.597391 )  


     PseudoPot. # 1 for Zn read from file:
     ./GBRV_PBEsol/zn_pbesol_v1.uspp.F.UPF
     MD5 check sum: 7d8615e52efe7c1e2b1899de8658bae2
     Pseudo is Ultrasoft, Zval = 20.0
     Generated by new atomic code, or converted to UPF format
     Using radial grid of  943 points,  6 beta functions with: 
                l(1) =   0
                l(2) =   0
                l(3) =   1
                l(4) =   1
                l(5) =   2
                l(6) =   2
     Q(r) pseudized with  8 coefficients,  rinner =    1.100   1.100   1.100
                                                       1.100   1.100

     PseudoPot. # 2 for O  read from file:
     ./GBRV_PBEsol/o_pbesol_v1.2.uspp.F.UPF
     MD5 check sum: 501638753501ef6325af9037351f7734
     Pseudo is Ultrasoft + core correction, Zval =  6.0
     Generated by new atomic code, or converted to UPF format
     Using radial grid of  737 points,  5 beta functions with: 
                l(1) =   0
                l(2) =   0
                l(3) =   1
                l(4) =   1
                l(5) =   2
     Q(r) pseudized with  8 coefficients,  rinner =    0.900   0.900   0.900
                                                       0.900   0.900

     atomic species   valence    mass     pseudopotential
        Zn            20.00    65.38000     Zn( 1.00)
        O              6.00    15.99900     O ( 1.00)

     No symmetry found


                                    s                        frac. trans.

      isym =  1     identity                                     

 cryst.   s( 1) = (     1          0          0      )
                  (     0          1          0      )
                  (     0          0          1      )

 cart.    s( 1) = (  1.0000000  0.0000000  0.0000000 )
                  (  0.0000000  1.0000000 -0.0000000 )
                  ( -0.0000000 -0.0000000  1.0000000 )


   Cartesian axes

     site n.     atom                  positions (alat units)
         1           O   tau(   1) = (   0.5000003   0.2886754   0.0122966  )
         2           O   tau(   2) = (   0.0000003   0.5773494   0.8492689  )
         3           Zn  tau(   3) = (   0.5000001   0.2886748   1.0819614  )
         4           Zn  tau(   4) = (   0.0000000   0.5773511   1.9189339  )

   Crystallographic axes

     site n.     atom                  positions (cryst. coord.)
         1           O   tau(   1) = (  0.6666670  0.3333337  0.0073459  )
         2           O   tau(   2) = (  0.3333329  0.6666657  0.5073458  )
         3           Zn  tau(   3) = (  0.6666664  0.3333329  0.6463542  )
         4           Zn  tau(   4) = (  0.3333337  0.6666677  1.1463542  )

     number of k points=   260
                       cart. coord. in units 2pi/alat
        k(    1) = (   0.0000000   0.0000000   0.0000000), wk =   0.0039062
        k(    2) = (  -0.0000000   0.0000000   0.0746739), wk =   0.0078125
        k(    3) = (  -0.0000000   0.0000000   0.1493478), wk =   0.0078125
        k(    4) = (  -0.0000000   0.0000000   0.2240217), wk =   0.0078125
        k(    5) = (   0.0000000  -0.0000000  -0.2986956), wk =   0.0039062
        k(    6) = (   0.0000000   0.1443376   0.0000000), wk =   0.0078125
        k(    7) = (   0.0000000   0.1443376   0.0746739), wk =   0.0078125
        k(    8) = (   0.0000000   0.1443376   0.1493478), wk =   0.0078125
        k(    9) = (   0.0000000   0.1443376   0.2240217), wk =   0.0078125
        k(   10) = (   0.0000000   0.1443376  -0.2986956), wk =   0.0078125
        k(   11) = (   0.0000000   0.1443376  -0.2240217), wk =   0.0078125
        k(   12) = (   0.0000000   0.1443376  -0.1493478), wk =   0.0078125
        k(   13) = (   0.0000000   0.1443376  -0.0746739), wk =   0.0078125
        k(   14) = (   0.0000000   0.2886752   0.0000000), wk =   0.0078125
        k(   15) = (   0.0000000   0.2886752   0.0746739), wk =   0.0078125
        k(   16) = (   0.0000000   0.2886752   0.1493478), wk =   0.0078125
        k(   17) = (   0.0000000   0.2886752   0.2240217), wk =   0.0078125
        k(   18) = (   0.0000000   0.2886752  -0.2986956), wk =   0.0078125
        k(   19) = (   0.0000000   0.2886752  -0.2240217), wk =   0.0078125
        k(   20) = (   0.0000000   0.2886752  -0.1493478), wk =   0.0078125
        k(   21) = (   0.0000000   0.2886752  -0.0746739), wk =   0.0078125
        k(   22) = (   0.0000000   0.4330127   0.0000000), wk =   0.0078125
        k(   23) = (   0.0000000   0.4330127   0.0746739), wk =   0.0078125
        k(   24) = (   0.0000000   0.4330127   0.1493478), wk =   0.0078125
        k(   25) = (   0.0000000   0.4330127   0.2240217), wk =   0.0078125
        k(   26) = (   0.0000000   0.4330127  -0.2986956), wk =   0.0078125
        k(   27) = (   0.0000000   0.4330127  -0.2240217), wk =   0.0078125
        k(   28) = (   0.0000000   0.4330127  -0.1493478), wk =   0.0078125
        k(   29) = (   0.0000000   0.4330127  -0.0746739), wk =   0.0078125
        k(   30) = (  -0.0000000  -0.5773503  -0.0000000), wk =   0.0039062
        k(   31) = (  -0.0000000  -0.5773503   0.0746739), wk =   0.0078125
        k(   32) = (  -0.0000000  -0.5773503   0.1493478), wk =   0.0078125
        k(   33) = (  -0.0000000  -0.5773503   0.2240217), wk =   0.0078125
        k(   34) = (  -0.0000000  -0.5773503  -0.2986956), wk =   0.0039062
        k(   35) = (   0.1250000   0.0721687   0.0000000), wk =   0.0078125
        k(   36) = (   0.1250000   0.0721687   0.0746739), wk =   0.0078125
        k(   37) = (   0.1250000   0.0721687   0.1493478), wk =   0.0078125
        k(   38) = (   0.1250000   0.0721687   0.2240217), wk =   0.0078125
        k(   39) = (   0.1250000   0.0721687  -0.2986956), wk =   0.0078125
        k(   40) = (   0.1250000   0.0721687  -0.2240217), wk =   0.0078125
        k(   41) = (   0.1250000   0.0721687  -0.1493478), wk =   0.0078125
        k(   42) = (   0.1250000   0.0721687  -0.0746739), wk =   0.0078125
        k(   43) = (   0.1250000   0.2165063   0.0000000), wk =   0.0078125
        k(   44) = (   0.1250000   0.2165063   0.0746739), wk =   0.0078125
        k(   45) = (   0.1250000   0.2165063   0.1493478), wk =   0.0078125
        k(   46) = (   0.1250000   0.2165063   0.2240217), wk =   0.0078125
        k(   47) = (   0.1250000   0.2165063  -0.2986956), wk =   0.0078125
        k(   48) = (   0.1250000   0.2165063  -0.2240217), wk =   0.0078125
        k(   49) = (   0.1250000   0.2165063  -0.1493478), wk =   0.0078125
        k(   50) = (   0.1250000   0.2165063  -0.0746739), wk =   0.0078125
        k(   51) = (   0.1250000   0.3608439   0.0000000), wk =   0.0078125
        k(   52) = (   0.1250000   0.3608439   0.0746739), wk =   0.0078125
        k(   53) = (   0.1250000   0.3608439   0.1493478), wk =   0.0078125
        k(   54) = (   0.1250000   0.3608439   0.2240217), wk =   0.0078125
        k(   55) = (   0.1250000   0.3608439  -0.2986956), wk =   0.0078125
        k(   56) = (   0.1250000   0.3608439  -0.2240217), wk =   0.0078125
        k(   57) = (   0.1250000   0.3608439  -0.1493478), wk =   0.0078125
        k(   58) = (   0.1250000   0.3608439  -0.0746739), wk =   0.0078125
        k(   59) = (   0.1250000   0.5051815   0.0000000), wk =   0.0078125
        k(   60) = (   0.1250000   0.5051815   0.0746739), wk =   0.0078125
        k(   61) = (   0.1250000   0.5051815   0.1493478), wk =   0.0078125
        k(   62) = (   0.1250000   0.5051815   0.2240217), wk =   0.0078125
        k(   63) = (   0.1250000   0.5051815  -0.2986956), wk =   0.0078125
        k(   64) = (   0.1250000   0.5051815  -0.2240217), wk =   0.0078125
        k(   65) = (   0.1250000   0.5051815  -0.1493478), wk =   0.0078125
        k(   66) = (   0.1250000   0.5051815  -0.0746739), wk =   0.0078125
        k(   67) = (   0.1250000  -0.5051816  -0.0000000), wk =   0.0078125
        k(   68) = (   0.1250000  -0.5051816   0.0746739), wk =   0.0078125
        k(   69) = (   0.1250000  -0.5051816   0.1493478), wk =   0.0078125
        k(   70) = (   0.1250000  -0.5051816   0.2240217), wk =   0.0078125
        k(   71) = (   0.1250000  -0.5051816  -0.2986956), wk =   0.0078125
        k(   72) = (   0.1250000  -0.5051816  -0.2240217), wk =   0.0078125
        k(   73) = (   0.1250000  -0.5051816  -0.1493478), wk =   0.0078125
        k(   74) = (   0.1250000  -0.5051816  -0.0746739), wk =   0.0078125
        k(   75) = (   0.1250000  -0.3608440  -0.0000000), wk =   0.0078125
        k(   76) = (   0.1250000  -0.3608440   0.0746739), wk =   0.0078125
        k(   77) = (   0.1250000  -0.3608440   0.1493478), wk =   0.0078125
        k(   78) = (   0.1250000  -0.3608440   0.2240217), wk =   0.0078125
        k(   79) = (   0.1250000  -0.3608440  -0.2986956), wk =   0.0078125
        k(   80) = (   0.1250000  -0.3608440  -0.2240217), wk =   0.0078125
        k(   81) = (   0.1250000  -0.3608440  -0.1493478), wk =   0.0078125
        k(   82) = (   0.1250000  -0.3608440  -0.0746739), wk =   0.0078125
        k(   83) = (   0.1250000  -0.2165064  -0.0000000), wk =   0.0078125
        k(   84) = (   0.1250000  -0.2165064   0.0746739), wk =   0.0078125
        k(   85) = (   0.1250000  -0.2165064   0.1493478), wk =   0.0078125
        k(   86) = (   0.1250000  -0.2165064   0.2240217), wk =   0.0078125
        k(   87) = (   0.1250000  -0.2165064  -0.2986956), wk =   0.0078125
        k(   88) = (   0.1250000  -0.2165064  -0.2240217), wk =   0.0078125
        k(   89) = (   0.1250000  -0.2165064  -0.1493478), wk =   0.0078125
        k(   90) = (   0.1250000  -0.2165064  -0.0746739), wk =   0.0078125
        k(   91) = (   0.1250000  -0.0721688  -0.0000000), wk =   0.0078125
        k(   92) = (   0.1250000  -0.0721688   0.0746739), wk =   0.0078125
        k(   93) = (   0.1250000  -0.0721688   0.1493478), wk =   0.0078125
        k(   94) = (   0.1250000  -0.0721688   0.2240217), wk =   0.0078125
        k(   95) = (   0.1250000  -0.0721688  -0.2986956), wk =   0.0078125
        k(   96) = (   0.1250000  -0.0721688  -0.2240217), wk =   0.0078125
        k(   97) = (   0.1250000  -0.0721688  -0.1493478), wk =   0.0078125
        k(   98) = (   0.1250000  -0.0721688  -0.0746739), wk =   0.0078125
        k(   99) = (   0.2500000   0.1443375   0.0000000), wk =   0.0078125
        k(  100) = (   0.2500000   0.1443375   0.0746739), wk =   0.0078125
        k(  101) = (   0.2500000   0.1443375   0.1493478), wk =   0.0078125
        k(  102) = (   0.2500000   0.1443375   0.2240217), wk =   0.0078125
        k(  103) = (   0.2500000   0.1443375  -0.2986956), wk =   0.0078125
        k(  104) = (   0.2500000   0.1443375  -0.2240217), wk =   0.0078125
        k(  105) = (   0.2500000   0.1443375  -0.1493478), wk =   0.0078125
        k(  106) = (   0.2500000   0.1443375  -0.0746739), wk =   0.0078125
        k(  107) = (   0.2500000   0.2886751   0.0000000), wk =   0.0078125
        k(  108) = (   0.2500000   0.2886751   0.0746739), wk =   0.0078125
        k(  109) = (   0.2500000   0.2886751   0.1493478), wk =   0.0078125
        k(  110) = (   0.2500000   0.2886751   0.2240217), wk =   0.0078125
        k(  111) = (   0.2500000   0.2886750  -0.2986956), wk =   0.0078125
        k(  112) = (   0.2500000   0.2886751  -0.2240217), wk =   0.0078125
        k(  113) = (   0.2500000   0.2886751  -0.1493478), wk =   0.0078125
        k(  114) = (   0.2500000   0.2886751  -0.0746739), wk =   0.0078125
        k(  115) = (   0.2500000   0.4330126   0.0000000), wk =   0.0078125
        k(  116) = (   0.2500000   0.4330126   0.0746739), wk =   0.0078125
        k(  117) = (   0.2500000   0.4330126   0.1493478), wk =   0.0078125
        k(  118) = (   0.2500000   0.4330126   0.2240217), wk =   0.0078125
        k(  119) = (   0.2500000   0.4330126  -0.2986956), wk =   0.0078125
        k(  120) = (   0.2500000   0.4330126  -0.2240217), wk =   0.0078125
        k(  121) = (   0.2500000   0.4330126  -0.1493478), wk =   0.0078125
        k(  122) = (   0.2500000   0.4330126  -0.0746739), wk =   0.0078125
        k(  123) = (   0.2500000   0.5773502   0.0000000), wk =   0.0078125
        k(  124) = (   0.2500000   0.5773502   0.0746739), wk =   0.0078125
        k(  125) = (   0.2500000   0.5773502   0.1493478), wk =   0.0078125
        k(  126) = (   0.2500000   0.5773502   0.2240217), wk =   0.0078125
        k(  127) = (   0.2500000   0.5773502  -0.2986956), wk =   0.0078125
        k(  128) = (   0.2500000   0.5773502  -0.2240217), wk =   0.0078125
        k(  129) = (   0.2500000   0.5773502  -0.1493478), wk =   0.0078125
        k(  130) = (   0.2500000   0.5773502  -0.0746739), wk =   0.0078125
        k(  131) = (   0.2500000  -0.4330128  -0.0000000), wk =   0.0078125
        k(  132) = (   0.2500000  -0.4330128   0.0746739), wk =   0.0078125
        k(  133) = (   0.2500000  -0.4330128   0.1493478), wk =   0.0078125
        k(  134) = (   0.2500000  -0.4330128   0.2240217), wk =   0.0078125
        k(  135) = (   0.2500000  -0.4330128  -0.2986956), wk =   0.0078125
        k(  136) = (   0.2500000  -0.4330128  -0.2240217), wk =   0.0078125
        k(  137) = (   0.2500000  -0.4330128  -0.1493478), wk =   0.0078125
        k(  138) = (   0.2500000  -0.4330128  -0.0746739), wk =   0.0078125
        k(  139) = (   0.2500000  -0.2886753  -0.0000000), wk =   0.0078125
        k(  140) = (   0.2500000  -0.2886753   0.0746739), wk =   0.0078125
        k(  141) = (   0.2500000  -0.2886753   0.1493478), wk =   0.0078125
        k(  142) = (   0.2500000  -0.2886753   0.2240217), wk =   0.0078125
        k(  143) = (   0.2500000  -0.2886753  -0.2986956), wk =   0.0078125
        k(  144) = (   0.2500000  -0.2886753  -0.2240217), wk =   0.0078125
        k(  145) = (   0.2500000  -0.2886753  -0.1493478), wk =   0.0078125
        k(  146) = (   0.2500000  -0.2886753  -0.0746739), wk =   0.0078125
        k(  147) = (   0.2500000  -0.1443377  -0.0000000), wk =   0.0078125
        k(  148) = (   0.2500000  -0.1443377   0.0746739), wk =   0.0078125
        k(  149) = (   0.2500000  -0.1443377   0.1493478), wk =   0.0078125
        k(  150) = (   0.2500000  -0.1443377   0.2240217), wk =   0.0078125
        k(  151) = (   0.2500000  -0.1443377  -0.2986956), wk =   0.0078125
        k(  152) = (   0.2500000  -0.1443377  -0.2240217), wk =   0.0078125
        k(  153) = (   0.2500000  -0.1443377  -0.1493478), wk =   0.0078125
        k(  154) = (   0.2500000  -0.1443377  -0.0746739), wk =   0.0078125
        k(  155) = (   0.2500000  -0.0000001  -0.0000000), wk =   0.0078125
        k(  156) = (   0.2500000  -0.0000001   0.0746739), wk =   0.0078125
        k(  157) = (   0.2500000  -0.0000001   0.1493478), wk =   0.0078125
        k(  158) = (   0.2500000  -0.0000001   0.2240217), wk =   0.0078125
        k(  159) = (   0.2500000  -0.0000001  -0.2986956), wk =   0.0078125
        k(  160) = (   0.2500000  -0.0000001  -0.2240217), wk =   0.0078125
        k(  161) = (   0.2500000  -0.0000001  -0.1493478), wk =   0.0078125
        k(  162) = (   0.2500000  -0.0000001  -0.0746739), wk =   0.0078125
        k(  163) = (   0.3750000   0.2165062   0.0000000), wk =   0.0078125
        k(  164) = (   0.3750000   0.2165062   0.0746739), wk =   0.0078125
        k(  165) = (   0.3750000   0.2165062   0.1493478), wk =   0.0078125
        k(  166) = (   0.3750000   0.2165062   0.2240217), wk =   0.0078125
        k(  167) = (   0.3750000   0.2165062  -0.2986956), wk =   0.0078125
        k(  168) = (   0.3750000   0.2165062  -0.2240217), wk =   0.0078125
        k(  169) = (   0.3750000   0.2165062  -0.1493478), wk =   0.0078125
        k(  170) = (   0.3750000   0.2165062  -0.0746739), wk =   0.0078125
        k(  171) = (   0.3750000   0.3608438   0.0000000), wk =   0.0078125
        k(  172) = (   0.3750000   0.3608438   0.0746739), wk =   0.0078125
        k(  173) = (   0.3750000   0.3608438   0.1493478), wk =   0.0078125
        k(  174) = (   0.3750000   0.3608438   0.2240217), wk =   0.0078125
        k(  175) = (   0.3750000   0.3608438  -0.2986956), wk =   0.0078125
        k(  176) = (   0.3750000   0.3608438  -0.2240217), wk =   0.0078125
        k(  177) = (   0.3750000   0.3608438  -0.1493478), wk =   0.0078125
        k(  178) = (   0.3750000   0.3608438  -0.0746739), wk =   0.0078125
        k(  179) = (   0.3750000   0.5051814   0.0000000), wk =   0.0078125
        k(  180) = (   0.3750000   0.5051814   0.0746739), wk =   0.0078125
        k(  181) = (   0.3750000   0.5051814   0.1493478), wk =   0.0078125
        k(  182) = (   0.3750000   0.5051814   0.2240217), wk =   0.0078125
        k(  183) = (   0.3750000   0.5051814  -0.2986956), wk =   0.0078125
        k(  184) = (   0.3750000   0.5051814  -0.2240217), wk =   0.0078125
        k(  185) = (   0.3750000   0.5051814  -0.1493478), wk =   0.0078125
        k(  186) = (   0.3750000   0.5051814  -0.0746739), wk =   0.0078125
        k(  187) = (   0.3750000   0.6495189   0.0000000), wk =   0.0078125
        k(  188) = (   0.3750000   0.6495189   0.0746739), wk =   0.0078125
        k(  189) = (   0.3750000   0.6495189   0.1493478), wk =   0.0078125
        k(  190) = (   0.3750000   0.6495189   0.2240217), wk =   0.0078125
        k(  191) = (   0.3750000   0.6495189  -0.2986956), wk =   0.0078125
        k(  192) = (   0.3750000   0.6495189  -0.2240217), wk =   0.0078125
        k(  193) = (   0.3750000   0.6495189  -0.1493478), wk =   0.0078125
        k(  194) = (   0.3750000   0.6495189  -0.0746739), wk =   0.0078125
        k(  195) = (   0.3750000  -0.3608441  -0.0000000), wk =   0.0078125
        k(  196) = (   0.3750000  -0.3608441   0.0746739), wk =   0.0078125
        k(  197) = (   0.3750000  -0.3608441   0.1493478), wk =   0.0078125
        k(  198) = (   0.3750000  -0.3608441   0.2240217), wk =   0.0078125
        k(  199) = (   0.3750000  -0.3608441  -0.2986956), wk =   0.0078125
        k(  200) = (   0.3750000  -0.3608441  -0.2240217), wk =   0.0078125
        k(  201) = (   0.3750000  -0.3608441  -0.1493478), wk =   0.0078125
        k(  202) = (   0.3750000  -0.3608441  -0.0746739), wk =   0.0078125
        k(  203) = (   0.3750000  -0.2165065  -0.0000000), wk =   0.0078125
        k(  204) = (   0.3750000  -0.2165065   0.0746739), wk =   0.0078125
        k(  205) = (   0.3750000  -0.2165065   0.1493478), wk =   0.0078125
        k(  206) = (   0.3750000  -0.2165065   0.2240217), wk =   0.0078125
        k(  207) = (   0.3750000  -0.2165065  -0.2986956), wk =   0.0078125
        k(  208) = (   0.3750000  -0.2165065  -0.2240217), wk =   0.0078125
        k(  209) = (   0.3750000  -0.2165065  -0.1493478), wk =   0.0078125
        k(  210) = (   0.3750000  -0.2165065  -0.0746739), wk =   0.0078125
        k(  211) = (   0.3750000  -0.0721689  -0.0000000), wk =   0.0078125
        k(  212) = (   0.3750000  -0.0721689   0.0746739), wk =   0.0078125
        k(  213) = (   0.3750000  -0.0721689   0.1493478), wk =   0.0078125
        k(  214) = (   0.3750000  -0.0721689   0.2240217), wk =   0.0078125
        k(  215) = (   0.3750000  -0.0721689  -0.2986956), wk =   0.0078125
        k(  216) = (   0.3750000  -0.0721689  -0.2240217), wk =   0.0078125
        k(  217) = (   0.3750000  -0.0721689  -0.1493478), wk =   0.0078125
        k(  218) = (   0.3750000  -0.0721689  -0.0746739), wk =   0.0078125
        k(  219) = (   0.3750000   0.0721686  -0.0000000), wk =   0.0078125
        k(  220) = (   0.3750000   0.0721686   0.0746739), wk =   0.0078125
        k(  221) = (   0.3750000   0.0721686   0.1493478), wk =   0.0078125
        k(  222) = (   0.3750000   0.0721686   0.2240217), wk =   0.0078125
        k(  223) = (   0.3750000   0.0721686  -0.2986956), wk =   0.0078125
        k(  224) = (   0.3750000   0.0721686  -0.2240217), wk =   0.0078125
        k(  225) = (   0.3750000   0.0721686  -0.1493478), wk =   0.0078125
        k(  226) = (   0.3750000   0.0721686  -0.0746739), wk =   0.0078125
        k(  227) = (  -0.5000000  -0.2886749  -0.0000000), wk =   0.0039062
        k(  228) = (  -0.5000000  -0.2886749   0.0746739), wk =   0.0078125
        k(  229) = (  -0.5000000  -0.2886749   0.1493478), wk =   0.0078125
        k(  230) = (  -0.5000000  -0.2886749   0.2240217), wk =   0.0078125
        k(  231) = (  -0.5000000  -0.2886750  -0.2986956), wk =   0.0039062
        k(  232) = (  -0.5000000  -0.1443374  -0.0000000), wk =   0.0078125
        k(  233) = (  -0.5000000  -0.1443374   0.0746739), wk =   0.0078125
        k(  234) = (  -0.5000000  -0.1443374   0.1493478), wk =   0.0078125
        k(  235) = (  -0.5000000  -0.1443374   0.2240217), wk =   0.0078125
        k(  236) = (  -0.5000000  -0.1443374  -0.2986956), wk =   0.0078125
        k(  237) = (  -0.5000000  -0.1443374  -0.2240217), wk =   0.0078125
        k(  238) = (  -0.5000000  -0.1443374  -0.1493478), wk =   0.0078125
        k(  239) = (  -0.5000000  -0.1443374  -0.0746739), wk =   0.0078125
        k(  240) = (  -0.5000000   0.0000002   0.0000000), wk =   0.0078125
        k(  241) = (  -0.5000000   0.0000002   0.0746739), wk =   0.0078125
        k(  242) = (  -0.5000000   0.0000002   0.1493478), wk =   0.0078125
        k(  243) = (  -0.5000000   0.0000002   0.2240217), wk =   0.0078125
        k(  244) = (  -0.5000000   0.0000002  -0.2986956), wk =   0.0078125
        k(  245) = (  -0.5000000   0.0000002  -0.2240217), wk =   0.0078125
        k(  246) = (  -0.5000000   0.0000002  -0.1493478), wk =   0.0078125
        k(  247) = (  -0.5000000   0.0000002  -0.0746739), wk =   0.0078125
        k(  248) = (  -0.5000000   0.1443378   0.0000000), wk =   0.0078125
        k(  249) = (  -0.5000000   0.1443378   0.0746739), wk =   0.0078125
        k(  250) = (  -0.5000000   0.1443378   0.1493478), wk =   0.0078125
        k(  251) = (  -0.5000000   0.1443378   0.2240217), wk =   0.0078125
        k(  252) = (  -0.5000000   0.1443378  -0.2986956), wk =   0.0078125
        k(  253) = (  -0.5000000   0.1443378  -0.2240217), wk =   0.0078125
        k(  254) = (  -0.5000000   0.1443378  -0.1493478), wk =   0.0078125
        k(  255) = (  -0.5000000   0.1443378  -0.0746739), wk =   0.0078125
        k(  256) = (  -0.5000000  -0.8660253  -0.0000000), wk =   0.0039062
        k(  257) = (  -0.5000000  -0.8660253   0.0746739), wk =   0.0078125
        k(  258) = (  -0.5000000  -0.8660253   0.1493478), wk =   0.0078125
        k(  259) = (  -0.5000000  -0.8660253   0.2240217), wk =   0.0078125
        k(  260) = (  -0.5000000  -0.8660253  -0.2986956), wk =   0.0039062

                       cryst. coord.
        k(    1) = (   0.0000000   0.0000000   0.0000000), wk =   0.0039062
        k(    2) = (   0.0000000  -0.0000000   0.1250000), wk =   0.0078125
        k(    3) = (   0.0000000  -0.0000000   0.2500000), wk =   0.0078125
        k(    4) = (  -0.0000000  -0.0000000   0.3750000), wk =   0.0078125
        k(    5) = (  -0.0000000   0.0000000  -0.5000000), wk =   0.0039062
        k(    6) = (   0.0000000   0.1250000   0.0000000), wk =   0.0078125
        k(    7) = (   0.0000000   0.1250000   0.1250000), wk =   0.0078125
        k(    8) = (   0.0000000   0.1250000   0.2500000), wk =   0.0078125
        k(    9) = (   0.0000000   0.1250000   0.3750000), wk =   0.0078125
        k(   10) = (   0.0000000   0.1250000  -0.5000000), wk =   0.0078125
        k(   11) = (  -0.0000000   0.1250000  -0.3750000), wk =   0.0078125
        k(   12) = (   0.0000000   0.1250000  -0.2500000), wk =   0.0078125
        k(   13) = (  -0.0000000   0.1250000  -0.1250000), wk =   0.0078125
        k(   14) = (   0.0000000   0.2500000   0.0000000), wk =   0.0078125
        k(   15) = (   0.0000000   0.2500000   0.1250000), wk =   0.0078125
        k(   16) = (   0.0000000   0.2500000   0.2500000), wk =   0.0078125
        k(   17) = (   0.0000000   0.2500000   0.3750000), wk =   0.0078125
        k(   18) = (   0.0000000   0.2500000  -0.5000000), wk =   0.0078125
        k(   19) = (   0.0000000   0.2500000  -0.3750000), wk =   0.0078125
        k(   20) = (  -0.0000000   0.2500000  -0.2500000), wk =   0.0078125
        k(   21) = (   0.0000000   0.2500000  -0.1250000), wk =   0.0078125
        k(   22) = (   0.0000000   0.3750000  -0.0000000), wk =   0.0078125
        k(   23) = (   0.0000000   0.3750000   0.1250000), wk =   0.0078125
        k(   24) = (   0.0000000   0.3750000   0.2500000), wk =   0.0078125
        k(   25) = (   0.0000000   0.3750000   0.3750000), wk =   0.0078125
        k(   26) = (   0.0000000   0.3750000  -0.5000000), wk =   0.0078125
        k(   27) = (   0.0000000   0.3750000  -0.3750000), wk =   0.0078125
        k(   28) = (   0.0000000   0.3750000  -0.2500000), wk =   0.0078125
        k(   29) = (   0.0000000   0.3750000  -0.1250000), wk =   0.0078125
        k(   30) = (  -0.0000000  -0.5000000  -0.0000000), wk =   0.0039062
        k(   31) = (  -0.0000000  -0.5000000   0.1250000), wk =   0.0078125
        k(   32) = (  -0.0000000  -0.5000000   0.2500000), wk =   0.0078125
        k(   33) = (  -0.0000000  -0.5000000   0.3750000), wk =   0.0078125
        k(   34) = (  -0.0000000  -0.5000000  -0.5000000), wk =   0.0039062
        k(   35) = (   0.1250000   0.0000000  -0.0000000), wk =   0.0078125
        k(   36) = (   0.1250000   0.0000000   0.1250000), wk =   0.0078125
        k(   37) = (   0.1250000   0.0000000   0.2500000), wk =   0.0078125
        k(   38) = (   0.1250000   0.0000000   0.3750000), wk =   0.0078125
        k(   39) = (   0.1250000   0.0000000  -0.5000000), wk =   0.0078125
        k(   40) = (   0.1250000   0.0000000  -0.3750000), wk =   0.0078125
        k(   41) = (   0.1250000   0.0000000  -0.2500000), wk =   0.0078125
        k(   42) = (   0.1250000   0.0000000  -0.1250000), wk =   0.0078125
        k(   43) = (   0.1250000   0.1250000  -0.0000000), wk =   0.0078125
        k(   44) = (   0.1250000   0.1250000   0.1250000), wk =   0.0078125
        k(   45) = (   0.1250000   0.1250000   0.2500000), wk =   0.0078125
        k(   46) = (   0.1250000   0.1250000   0.3750000), wk =   0.0078125
        k(   47) = (   0.1250000   0.1250000  -0.5000000), wk =   0.0078125
        k(   48) = (   0.1250000   0.1250000  -0.3750000), wk =   0.0078125
        k(   49) = (   0.1250000   0.1250000  -0.2500000), wk =   0.0078125
        k(   50) = (   0.1250000   0.1250000  -0.1250000), wk =   0.0078125
        k(   51) = (   0.1250000   0.2500000   0.0000000), wk =   0.0078125
        k(   52) = (   0.1250000   0.2500000   0.1250000), wk =   0.0078125
        k(   53) = (   0.1250000   0.2500000   0.2500000), wk =   0.0078125
        k(   54) = (   0.1250000   0.2500000   0.3750000), wk =   0.0078125
        k(   55) = (   0.1250000   0.2500000  -0.5000000), wk =   0.0078125
        k(   56) = (   0.1250000   0.2500000  -0.3750000), wk =   0.0078125
        k(   57) = (   0.1250000   0.2500000  -0.2500000), wk =   0.0078125
        k(   58) = (   0.1250000   0.2500000  -0.1250000), wk =   0.0078125
        k(   59) = (   0.1250000   0.3750000  -0.0000000), wk =   0.0078125
        k(   60) = (   0.1250000   0.3750000   0.1250000), wk =   0.0078125
        k(   61) = (   0.1250000   0.3750000   0.2500000), wk =   0.0078125
        k(   62) = (   0.1250000   0.3750000   0.3750000), wk =   0.0078125
        k(   63) = (   0.1250000   0.3750000  -0.5000000), wk =   0.0078125
        k(   64) = (   0.1250000   0.3750000  -0.3750000), wk =   0.0078125
        k(   65) = (   0.1250000   0.3750000  -0.2500000), wk =   0.0078125
        k(   66) = (   0.1250000   0.3750000  -0.1250000), wk =   0.0078125
        k(   67) = (   0.1250000  -0.5000000  -0.0000000), wk =   0.0078125
        k(   68) = (   0.1250000  -0.5000000   0.1250000), wk =   0.0078125
        k(   69) = (   0.1250000  -0.5000000   0.2500000), wk =   0.0078125
        k(   70) = (   0.1250000  -0.5000000   0.3750000), wk =   0.0078125
        k(   71) = (   0.1250000  -0.5000000  -0.5000000), wk =   0.0078125
        k(   72) = (   0.1250000  -0.5000000  -0.3750000), wk =   0.0078125
        k(   73) = (   0.1250000  -0.5000000  -0.2500000), wk =   0.0078125
        k(   74) = (   0.1250000  -0.5000000  -0.1250000), wk =   0.0078125
        k(   75) = (   0.1250000  -0.3750000  -0.0000000), wk =   0.0078125
        k(   76) = (   0.1250000  -0.3750000   0.1250000), wk =   0.0078125
        k(   77) = (   0.1250000  -0.3750000   0.2500000), wk =   0.0078125
        k(   78) = (   0.1250000  -0.3750000   0.3750000), wk =   0.0078125
        k(   79) = (   0.1250000  -0.3750000  -0.5000000), wk =   0.0078125
        k(   80) = (   0.1250000  -0.3750000  -0.3750000), wk =   0.0078125
        k(   81) = (   0.1250000  -0.3750000  -0.2500000), wk =   0.0078125
        k(   82) = (   0.1250000  -0.3750000  -0.1250000), wk =   0.0078125
        k(   83) = (   0.1250000  -0.2500000  -0.0000000), wk =   0.0078125
        k(   84) = (   0.1250000  -0.2500000   0.1250000), wk =   0.0078125
        k(   85) = (   0.1250000  -0.2500000   0.2500000), wk =   0.0078125
        k(   86) = (   0.1250000  -0.2500000   0.3750000), wk =   0.0078125
        k(   87) = (   0.1250000  -0.2500000  -0.5000000), wk =   0.0078125
        k(   88) = (   0.1250000  -0.2500000  -0.3750000), wk =   0.0078125
        k(   89) = (   0.1250000  -0.2500000  -0.2500000), wk =   0.0078125
        k(   90) = (   0.1250000  -0.2500000  -0.1250000), wk =   0.0078125
        k(   91) = (   0.1250000  -0.1250000  -0.0000000), wk =   0.0078125
        k(   92) = (   0.1250000  -0.1250000   0.1250000), wk =   0.0078125
        k(   93) = (   0.1250000  -0.1250000   0.2500000), wk =   0.0078125
        k(   94) = (   0.1250000  -0.1250000   0.3750000), wk =   0.0078125
        k(   95) = (   0.1250000  -0.1250000  -0.5000000), wk =   0.0078125
        k(   96) = (   0.1250000  -0.1250000  -0.3750000), wk =   0.0078125
        k(   97) = (   0.1250000  -0.1250000  -0.2500000), wk =   0.0078125
        k(   98) = (   0.1250000  -0.1250000  -0.1250000), wk =   0.0078125
        k(   99) = (   0.2500000   0.0000000  -0.0000000), wk =   0.0078125
        k(  100) = (   0.2500000   0.0000000   0.1250000), wk =   0.0078125
        k(  101) = (   0.2500000   0.0000000   0.2500000), wk =   0.0078125
        k(  102) = (   0.2500000   0.0000000   0.3750000), wk =   0.0078125
        k(  103) = (   0.2500000   0.0000000  -0.5000000), wk =   0.0078125
        k(  104) = (   0.2500000   0.0000000  -0.3750000), wk =   0.0078125
        k(  105) = (   0.2500000   0.0000000  -0.2500000), wk =   0.0078125
        k(  106) = (   0.2500000   0.0000000  -0.1250000), wk =   0.0078125
        k(  107) = (   0.2500000   0.1250000  -0.0000000), wk =   0.0078125
        k(  108) = (   0.2500000   0.1250000   0.1250000), wk =   0.0078125
        k(  109) = (   0.2500000   0.1250000   0.2500000), wk =   0.0078125
        k(  110) = (   0.2500000   0.1250000   0.3750000), wk =   0.0078125
        k(  111) = (   0.2500000   0.1250000  -0.5000000), wk =   0.0078125
        k(  112) = (   0.2500000   0.1250000  -0.3750000), wk =   0.0078125
        k(  113) = (   0.2500000   0.1250000  -0.2500000), wk =   0.0078125
        k(  114) = (   0.2500000   0.1250000  -0.1250000), wk =   0.0078125
        k(  115) = (   0.2500000   0.2500000  -0.0000000), wk =   0.0078125
        k(  116) = (   0.2500000   0.2500000   0.1250000), wk =   0.0078125
        k(  117) = (   0.2500000   0.2500000   0.2500000), wk =   0.0078125
        k(  118) = (   0.2500000   0.2500000   0.3750000), wk =   0.0078125
        k(  119) = (   0.2500000   0.2500000  -0.5000000), wk =   0.0078125
        k(  120) = (   0.2500000   0.2500000  -0.3750000), wk =   0.0078125
        k(  121) = (   0.2500000   0.2500000  -0.2500000), wk =   0.0078125
        k(  122) = (   0.2500000   0.2500000  -0.1250000), wk =   0.0078125
        k(  123) = (   0.2500000   0.3750000  -0.0000000), wk =   0.0078125
        k(  124) = (   0.2500000   0.3750000   0.1250000), wk =   0.0078125
        k(  125) = (   0.2500000   0.3750000   0.2500000), wk =   0.0078125
        k(  126) = (   0.2500000   0.3750000   0.3750000), wk =   0.0078125
        k(  127) = (   0.2500000   0.3750000  -0.5000000), wk =   0.0078125
        k(  128) = (   0.2500000   0.3750000  -0.3750000), wk =   0.0078125
        k(  129) = (   0.2500000   0.3750000  -0.2500000), wk =   0.0078125
        k(  130) = (   0.2500000   0.3750000  -0.1250000), wk =   0.0078125
        k(  131) = (   0.2500000  -0.5000000  -0.0000000), wk =   0.0078125
        k(  132) = (   0.2500000  -0.5000000   0.1250000), wk =   0.0078125
        k(  133) = (   0.2500000  -0.5000000   0.2500000), wk =   0.0078125
        k(  134) = (   0.2500000  -0.5000000   0.3750000), wk =   0.0078125
        k(  135) = (   0.2500000  -0.5000000  -0.5000000), wk =   0.0078125
        k(  136) = (   0.2500000  -0.5000000  -0.3750000), wk =   0.0078125
        k(  137) = (   0.2500000  -0.5000000  -0.2500000), wk =   0.0078125
        k(  138) = (   0.2500000  -0.5000000  -0.1250000), wk =   0.0078125
        k(  139) = (   0.2500000  -0.3750000   0.0000000), wk =   0.0078125
        k(  140) = (   0.2500000  -0.3750000   0.1250000), wk =   0.0078125
        k(  141) = (   0.2500000  -0.3750000   0.2500000), wk =   0.0078125
        k(  142) = (   0.2500000  -0.3750000   0.3750000), wk =   0.0078125
        k(  143) = (   0.2500000  -0.3750000  -0.5000000), wk =   0.0078125
        k(  144) = (   0.2500000  -0.3750000  -0.3750000), wk =   0.0078125
        k(  145) = (   0.2500000  -0.3750000  -0.2500000), wk =   0.0078125
        k(  146) = (   0.2500000  -0.3750000  -0.1250000), wk =   0.0078125
        k(  147) = (   0.2500000  -0.2500000  -0.0000000), wk =   0.0078125
        k(  148) = (   0.2500000  -0.2500000   0.1250000), wk =   0.0078125
        k(  149) = (   0.2500000  -0.2500000   0.2500000), wk =   0.0078125
        k(  150) = (   0.2500000  -0.2500000   0.3750000), wk =   0.0078125
        k(  151) = (   0.2500000  -0.2500000  -0.5000000), wk =   0.0078125
        k(  152) = (   0.2500000  -0.2500000  -0.3750000), wk =   0.0078125
        k(  153) = (   0.2500000  -0.2500000  -0.2500000), wk =   0.0078125
        k(  154) = (   0.2500000  -0.2500000  -0.1250000), wk =   0.0078125
        k(  155) = (   0.2500000  -0.1250000  -0.0000000), wk =   0.0078125
        k(  156) = (   0.2500000  -0.1250000   0.1250000), wk =   0.0078125
        k(  157) = (   0.2500000  -0.1250000   0.2500000), wk =   0.0078125
        k(  158) = (   0.2500000  -0.1250000   0.3750000), wk =   0.0078125
        k(  159) = (   0.2500000  -0.1250000  -0.5000000), wk =   0.0078125
        k(  160) = (   0.2500000  -0.1250000  -0.3750000), wk =   0.0078125
        k(  161) = (   0.2500000  -0.1250000  -0.2500000), wk =   0.0078125
        k(  162) = (   0.2500000  -0.1250000  -0.1250000), wk =   0.0078125
        k(  163) = (   0.3750000  -0.0000000  -0.0000000), wk =   0.0078125
        k(  164) = (   0.3750000   0.0000000   0.1250000), wk =   0.0078125
        k(  165) = (   0.3750000   0.0000000   0.2500000), wk =   0.0078125
        k(  166) = (   0.3750000   0.0000000   0.3750000), wk =   0.0078125
        k(  167) = (   0.3750000   0.0000000  -0.5000000), wk =   0.0078125
        k(  168) = (   0.3750000   0.0000000  -0.3750000), wk =   0.0078125
        k(  169) = (   0.3750000   0.0000000  -0.2500000), wk =   0.0078125
        k(  170) = (   0.3750000  -0.0000000  -0.1250000), wk =   0.0078125
        k(  171) = (   0.3750000   0.1250000  -0.0000000), wk =   0.0078125
        k(  172) = (   0.3750000   0.1250000   0.1250000), wk =   0.0078125
        k(  173) = (   0.3750000   0.1250000   0.2500000), wk =   0.0078125
        k(  174) = (   0.3750000   0.1250000   0.3750000), wk =   0.0078125
        k(  175) = (   0.3750000   0.1250000  -0.5000000), wk =   0.0078125
        k(  176) = (   0.3750000   0.1250000  -0.3750000), wk =   0.0078125
        k(  177) = (   0.3750000   0.1250000  -0.2500000), wk =   0.0078125
        k(  178) = (   0.3750000   0.1250000  -0.1250000), wk =   0.0078125
        k(  179) = (   0.3750000   0.2500000  -0.0000000), wk =   0.0078125
        k(  180) = (   0.3750000   0.2500000   0.1250000), wk =   0.0078125
        k(  181) = (   0.3750000   0.2500000   0.2500000), wk =   0.0078125
        k(  182) = (   0.3750000   0.2500000   0.3750000), wk =   0.0078125
        k(  183) = (   0.3750000   0.2500000  -0.5000000), wk =   0.0078125
        k(  184) = (   0.3750000   0.2500000  -0.3750000), wk =   0.0078125
        k(  185) = (   0.3750000   0.2500000  -0.2500000), wk =   0.0078125
        k(  186) = (   0.3750000   0.2500000  -0.1250000), wk =   0.0078125
        k(  187) = (   0.3750000   0.3750000  -0.0000000), wk =   0.0078125
        k(  188) = (   0.3750000   0.3750000   0.1250000), wk =   0.0078125
        k(  189) = (   0.3750000   0.3750000   0.2500000), wk =   0.0078125
        k(  190) = (   0.3750000   0.3750000   0.3750000), wk =   0.0078125
        k(  191) = (   0.3750000   0.3750000  -0.5000000), wk =   0.0078125
        k(  192) = (   0.3750000   0.3750000  -0.3750000), wk =   0.0078125
        k(  193) = (   0.3750000   0.3750000  -0.2500000), wk =   0.0078125
        k(  194) = (   0.3750000   0.3750000  -0.1250000), wk =   0.0078125
        k(  195) = (   0.3750000  -0.5000000   0.0000000), wk =   0.0078125
        k(  196) = (   0.3750000  -0.5000000   0.1250000), wk =   0.0078125
        k(  197) = (   0.3750000  -0.5000000   0.2500000), wk =   0.0078125
        k(  198) = (   0.3750000  -0.5000000   0.3750000), wk =   0.0078125
        k(  199) = (   0.3750000  -0.5000000  -0.5000000), wk =   0.0078125
        k(  200) = (   0.3750000  -0.5000000  -0.3750000), wk =   0.0078125
        k(  201) = (   0.3750000  -0.5000000  -0.2500000), wk =   0.0078125
        k(  202) = (   0.3750000  -0.5000000  -0.1250000), wk =   0.0078125
        k(  203) = (   0.3750000  -0.3750000   0.0000000), wk =   0.0078125
        k(  204) = (   0.3750000  -0.3750000   0.1250000), wk =   0.0078125
        k(  205) = (   0.3750000  -0.3750000   0.2500000), wk =   0.0078125
        k(  206) = (   0.3750000  -0.3750000   0.3750000), wk =   0.0078125
        k(  207) = (   0.3750000  -0.3750000  -0.5000000), wk =   0.0078125
        k(  208) = (   0.3750000  -0.3750000  -0.3750000), wk =   0.0078125
        k(  209) = (   0.3750000  -0.3750000  -0.2500000), wk =   0.0078125
        k(  210) = (   0.3750000  -0.3750000  -0.1250000), wk =   0.0078125
        k(  211) = (   0.3750000  -0.2500000  -0.0000000), wk =   0.0078125
        k(  212) = (   0.3750000  -0.2500000   0.1250000), wk =   0.0078125
        k(  213) = (   0.3750000  -0.2500000   0.2500000), wk =   0.0078125
        k(  214) = (   0.3750000  -0.2500000   0.3750000), wk =   0.0078125
        k(  215) = (   0.3750000  -0.2500000  -0.5000000), wk =   0.0078125
        k(  216) = (   0.3750000  -0.2500000  -0.3750000), wk =   0.0078125
        k(  217) = (   0.3750000  -0.2500000  -0.2500000), wk =   0.0078125
        k(  218) = (   0.3750000  -0.2500000  -0.1250000), wk =   0.0078125
        k(  219) = (   0.3750000  -0.1250000  -0.0000000), wk =   0.0078125
        k(  220) = (   0.3750000  -0.1250000   0.1250000), wk =   0.0078125
        k(  221) = (   0.3750000  -0.1250000   0.2500000), wk =   0.0078125
        k(  222) = (   0.3750000  -0.1250000   0.3750000), wk =   0.0078125
        k(  223) = (   0.3750000  -0.1250000  -0.5000000), wk =   0.0078125
        k(  224) = (   0.3750000  -0.1250000  -0.3750000), wk =   0.0078125
        k(  225) = (   0.3750000  -0.1250000  -0.2500000), wk =   0.0078125
        k(  226) = (   0.3750000  -0.1250000  -0.1250000), wk =   0.0078125
        k(  227) = (  -0.5000000  -0.0000000   0.0000000), wk =   0.0039062
        k(  228) = (  -0.5000000  -0.0000000   0.1250000), wk =   0.0078125
        k(  229) = (  -0.5000000  -0.0000000   0.2500000), wk =   0.0078125
        k(  230) = (  -0.5000000  -0.0000000   0.3750000), wk =   0.0078125
        k(  231) = (  -0.5000000  -0.0000000  -0.5000000), wk =   0.0039062
        k(  232) = (  -0.5000000   0.1250000   0.0000000), wk =   0.0078125
        k(  233) = (  -0.5000000   0.1250000   0.1250000), wk =   0.0078125
        k(  234) = (  -0.5000000   0.1250000   0.2500000), wk =   0.0078125
        k(  235) = (  -0.5000000   0.1250000   0.3750000), wk =   0.0078125
        k(  236) = (  -0.5000000   0.1250000  -0.5000000), wk =   0.0078125
        k(  237) = (  -0.5000000   0.1250000  -0.3750000), wk =   0.0078125
        k(  238) = (  -0.5000000   0.1250000  -0.2500000), wk =   0.0078125
        k(  239) = (  -0.5000000   0.1250000  -0.1250000), wk =   0.0078125
        k(  240) = (  -0.5000000   0.2500000   0.0000000), wk =   0.0078125
        k(  241) = (  -0.5000000   0.2500000   0.1250000), wk =   0.0078125
        k(  242) = (  -0.5000000   0.2500000   0.2500000), wk =   0.0078125
        k(  243) = (  -0.5000000   0.2500000   0.3750000), wk =   0.0078125
        k(  244) = (  -0.5000000   0.2500000  -0.5000000), wk =   0.0078125
        k(  245) = (  -0.5000000   0.2500000  -0.3750000), wk =   0.0078125
        k(  246) = (  -0.5000000   0.2500000  -0.2500000), wk =   0.0078125
        k(  247) = (  -0.5000000   0.2500000  -0.1250000), wk =   0.0078125
        k(  248) = (  -0.5000000   0.3750000   0.0000000), wk =   0.0078125
        k(  249) = (  -0.5000000   0.3750000   0.1250000), wk =   0.0078125
        k(  250) = (  -0.5000000   0.3750000   0.2500000), wk =   0.0078125
        k(  251) = (  -0.5000000   0.3750000   0.3750000), wk =   0.0078125
        k(  252) = (  -0.5000000   0.3750000  -0.5000000), wk =   0.0078125
        k(  253) = (  -0.5000000   0.3750000  -0.3750000), wk =   0.0078125
        k(  254) = (  -0.5000000   0.3750000  -0.2500000), wk =   0.0078125
        k(  255) = (  -0.5000000   0.3750000  -0.1250000), wk =   0.0078125
        k(  256) = (  -0.5000000  -0.5000000   0.0000000), wk =   0.0039062
        k(  257) = (  -0.5000000  -0.5000000   0.1250000), wk =   0.0078125
        k(  258) = (  -0.5000000  -0.5000000   0.2500000), wk =   0.0078125
        k(  259) = (  -0.5000000  -0.5000000   0.3750000), wk =   0.0078125
        k(  260) = (  -0.5000000  -0.5000000  -0.5000000), wk =   0.0039062

     Dense  grid:    79057 G-vectors     FFT dimensions: (  48,  48,  80)

     Smooth grid:    30717 G-vectors     FFT dimensions: (  36,  36,  60)

     Dynamical RAM for                 wfc:       0.09 MB

     Dynamical RAM for     wfc (w. buffer):       6.26 MB

     Dynamical RAM for           str. fact:       0.15 MB

     Dynamical RAM for           local pot:       0.00 MB

     Dynamical RAM for          nlocal pot:       0.23 MB

     Dynamical RAM for                qrad:       7.54 MB

     Dynamical RAM for          rho,v,vnew:       0.49 MB

     Dynamical RAM for               rhoin:       0.16 MB

     Dynamical RAM for            rho*nmix:       1.21 MB

     Dynamical RAM for           G-vectors:       0.30 MB

     Dynamical RAM for          h,s,v(r/c):       0.12 MB

     Dynamical RAM for          <psi|beta>:       0.02 MB

     Dynamical RAM for                 psi:       0.38 MB

     Dynamical RAM for                hpsi:       0.38 MB

     Dynamical RAM for                spsi:       0.38 MB

     Dynamical RAM for      wfcinit/wfcrot:       0.27 MB

     Dynamical RAM for           addusdens:       3.60 MB

     Dynamical RAM for          addusforce:       3.75 MB

     Dynamical RAM for         addusstress:       3.82 MB

     Estimated static dynamical RAM per process >      17.00 MB

     Estimated max dynamical RAM per process >      20.82 MB

     Estimated total dynamical RAM >       1.30 GB

     Check: negative core charge=   -0.000003

     Initial potential from superposition of free atoms

     starting charge   51.99974, renormalised to   52.00000
     Starting wfcs are   34 randomized atomic wfcs

     total cpu time spent up to now is        2.8 secs

     Self-consistent Calculation

     iteration #  1     ecut=    80.00 Ry     beta= 0.50
     Davidson diagonalization with overlap
     ethr =  1.00E-02,  avg # of iterations =  1.0

     total cpu time spent up to now is        3.8 secs

     total energy              =    -986.76449876 Ry
     Harris-Foulkes estimate   =    -987.28811254 Ry
     estimated scf accuracy    <       0.82330259 Ry

     iteration #  2     ecut=    80.00 Ry     beta= 0.50
     Davidson diagonalization with overlap
     ethr =  1.58E-03,  avg # of iterations =  3.0

     total cpu time spent up to now is        5.2 secs

     total energy              =    -987.00640479 Ry
     Harris-Foulkes estimate   =    -987.17675745 Ry
     estimated scf accuracy    <       0.39390944 Ry

     iteration #  3     ecut=    80.00 Ry     beta= 0.50
     Davidson diagonalization with overlap
     ethr =  7.58E-04,  avg # of iterations =  2.0

     total cpu time spent up to now is        6.4 secs

     total energy              =    -987.07728138 Ry
     Harris-Foulkes estimate   =    -987.07960391 Ry
     estimated scf accuracy    <       0.00684354 Ry

     iteration #  4     ecut=    80.00 Ry     beta= 0.50
     Davidson diagonalization with overlap
     ethr =  1.32E-05,  avg # of iterations =  2.0

     total cpu time spent up to now is        7.5 secs

     total energy              =    -987.07786349 Ry
     Harris-Foulkes estimate   =    -987.07833160 Ry
     estimated scf accuracy    <       0.00155207 Ry

     iteration #  5     ecut=    80.00 Ry     beta= 0.50
     Davidson diagonalization with overlap
     ethr =  2.98E-06,  avg # of iterations =  2.0

     total cpu time spent up to now is        8.7 secs

     total energy              =    -987.07802758 Ry
     Harris-Foulkes estimate   =    -987.07803829 Ry
     estimated scf accuracy    <       0.00002049 Ry

     iteration #  6     ecut=    80.00 Ry     beta= 0.50
     Davidson diagonalization with overlap
     ethr =  3.94E-08,  avg # of iterations =  2.0

     total cpu time spent up to now is        9.9 secs

     total energy              =    -987.07803079 Ry
     Harris-Foulkes estimate   =    -987.07803018 Ry
     estimated scf accuracy    <       0.00000409 Ry

     iteration #  7     ecut=    80.00 Ry     beta= 0.50
     Davidson diagonalization with overlap
     ethr =  7.86E-09,  avg # of iterations =  1.4

     total cpu time spent up to now is       10.8 secs

     End of self-consistent calculation

          k = 0.0000 0.0000 0.0000 (  3851 PWs)   bands (ev):

  -114.2986-114.2985 -68.6627 -68.6627 -68.6621 -68.6621 -68.6449 -68.6418
    -9.2347  -8.5030   2.8436   2.8948   3.1296   3.1296   3.3863   3.3863
     4.2592   4.2592   4.4644   4.4644   4.6405   7.9647   7.9647   8.7369
     8.8467   8.8467

     occupation numbers 
     1.0000   1.0000   1.0000   1.0000   1.0000   1.0000   1.0000   1.0000
     1.0000   1.0000   1.0000   1.0000   1.0000   1.0000   1.0000   1.0000
     1.0000   1.0000   1.0000   1.0000   1.0000   1.0000   1.0000   1.0000
     1.0000   1.0000

          k =-0.0000 0.0000 0.0747 (  3839 PWs)   bands (ev):

  -114.2986-114.2985 -68.6627 -68.6627 -68.6622 -68.6622 -68.6448 -68.6419
    -9.2086  -8.5327   2.7930   2.8682   3.1360   3.1360   3.3726   3.3726
     4.2693   4.2693   4.4595   4.4595   4.8072   7.9989   7.9989   8.3418
     8.8137   8.8137

     occupation numbers 
     1.0000   1.0000   1.0000   1.0000   1.0000   1.0000   1.0000   1.0000
     1.0000   1.0000   1.0000   1.0000   1.0000   1.0000   1.0000   1.0000
     1.0000   1.0000   1.0000   1.0000   1.0000   1.0000   1.0000   1.0000
     1.0000   1.0000

          k =-0.0000 0.0000 0.1493 (  3869 PWs)   bands (ev):

  -114.2986-114.2985 -68.6626 -68.6626 -68.6623 -68.6623 -68.6444 -68.6423
    -9.1337  -8.6167   2.7011   2.7995   3.1557   3.1557   3.3355   3.3355
     4.2973   4.2973   4.4440   4.4440   5.2334   7.7238   8.0960   8.0960
     8.7194   8.7194

     occupation numbers 
     1.0000   1.0000   1.0000   1.0000   1.0000   1.0000   1.0000   1.0000
     1.0000   1.0000   1.0000   1.0000   1.0000   1.0000   1.0000   1.0000
     1.0000   1.0000   1.0000   1.0000   1.0000   1.0000   1.0000   1.0000
     1.0000   1.0000

          k =-0.0000 0.0000 0.2240 (  3862 PWs)   bands (ev):

  -114.2986-114.2985 -68.6625 -68.6625 -68.6624 -68.6624 -68.6439 -68.6428
    -9.0195  -8.7398   2.6470   2.7170   3.1888   3.1888   3.2855   3.2855
     4.3368   4.3368   4.4167   4.4167   5.8020   7.0814   8.2405   8.2405
     8.5779   8.5779

     occupation numbers 
     1.0000   1.0000   1.0000   1.0000   1.0000   1.0000   1.0000   1.0000
     1.0000   1.0000   1.0000   1.0000   1.0000   1.0000   1.0000   1.0000
     1.0000   1.0000   1.0000   1.0000   1.0000   1.0000   1.0000   1.0000
     1.0000   1.0000

          k = 0.0000-0.0000-0.2987 (  3856 PWs)   bands (ev):

  -114.2985-114.2985 -68.6624 -68.6624 -68.6624 -68.6624 -68.6433 -68.6433
    -8.8816  -8.8814   2.6561   2.6562   3.2337   3.2337   3.2337   3.2337
     4.3792   4.3792   4.3792   4.3792   6.4334   6.4334   8.4097   8.4097
     8.4099   8.4099

     occupation numbers 
     1.0000   1.0000   1.0000   1.0000   1.0000   1.0000   1.0000   1.0000
     1.0000   1.0000   1.0000   1.0000   1.0000   1.0000   1.0000   1.0000
     1.0000   1.0000   1.0000   1.0000   1.0000   1.0000   1.0000   1.0000
     1.0000   1.0000

          k = 0.0000 0.1443 0.0000 (  3865 PWs)   bands (ev):

  -114.2986-114.2984 -68.6631 -68.6628 -68.6626 -68.6623 -68.6447 -68.6419
    -9.1420  -8.4586   2.9445   2.9619   3.0726   3.1652   3.3786   3.4532
     4.2198   4.2594   4.4706   4.4737   4.6442   7.4081   7.7731   8.0267
     8.6382   8.7576

     occupation numbers 
     1.0000   1.0000   1.0000   1.0000   1.0000   1.0000   1.0000   1.0000
     1.0000   1.0000   1.0000   1.0000   1.0000   1.0000   1.0000   1.0000
     1.0000   1.0000   1.0000   1.0000   1.0000   1.0000   1.0000   1.0000
     1.0000   1.0000

          k = 0.0000 0.1443 0.0747 (  3863 PWs)   bands (ev):

  -114.2986-114.2984 -68.6631 -68.6628 -68.6626 -68.6623 -68.6446 -68.6420
    -9.1174  -8.4861   2.8830   2.9158   3.0844   3.1729   3.3701   3.4382
     4.2335   4.2691   4.4647   4.4717   4.8213   7.4409   7.8118   7.8931
     8.5698   8.7210

     occupation numbers 
     1.0000   1.0000   1.0000   1.0000   1.0000   1.0000   1.0000   1.0000
     1.0000   1.0000   1.0000   1.0000   1.0000   1.0000   1.0000   1.0000
     1.0000   1.0000   1.0000   1.0000   1.0000   1.0000   1.0000   1.0000
     1.0000   1.0000

          k = 0.0000 0.1443 0.1493 (  3849 PWs)   bands (ev):

  -114.2986-114.2985 -68.6630 -68.6627 -68.6627 -68.6623 -68.6443 -68.6423
    -9.0467  -8.5638   2.7703   2.8070   3.1262   3.1961   3.3376   3.3977
     4.2690   4.2962   4.4465   4.4526   5.2678   7.4389   7.6453   7.9212
     8.4061   8.6165

     occupation numbers 
     1.0000   1.0000   1.0000   1.0000   1.0000   1.0000   1.0000   1.0000
     1.0000   1.0000   1.0000   1.0000   1.0000   1.0000   1.0000   1.0000
     1.0000   1.0000   1.0000   1.0000   1.0000   1.0000   1.0000   1.0000
     1.0000   1.0000

          k = 0.0000 0.1443 0.2240 (  3842 PWs)   bands (ev):

  -114.2985-114.2985 -68.6629 -68.6627 -68.6626 -68.6624 -68.6438 -68.6427
    -8.9394  -8.6781   2.6830   2.7175   3.1755   3.2343   3.2867   3.3426
     4.3179   4.3348   4.4165   4.4175   5.8389   7.0020   7.7614   8.0832
     8.1943   8.4592

     occupation numbers 
     1.0000   1.0000   1.0000   1.0000   1.0000   1.0000   1.0000   1.0000
     1.0000   1.0000   1.0000   1.0000   1.0000   1.0000   1.0000   1.0000
     1.0000   1.0000   1.0000   1.0000   1.0000   1.0000   1.0000   1.0000
     1.0000   1.0000

          k = 0.0000 0.1443-0.2987 (  3834 PWs)   bands (ev):

  -114.2985-114.2985 -68.6628 -68.6628 -68.6625 -68.6625 -68.6433 -68.6433
    -8.8103  -8.8101   2.6677   2.6678   3.2300   3.2300   3.2850   3.2850
     4.3704   4.3704   4.3774   4.3774   6.4385   6.4385   7.9681   7.9682
     8.2721   8.2723

     occupation numbers 
     1.0000   1.0000   1.0000   1.0000   1.0000   1.0000   1.0000   1.0000
     1.0000   1.0000   1.0000   1.0000   1.0000   1.0000   1.0000   1.0000
     1.0000   1.0000   1.0000   1.0000   1.0000   1.0000   1.0000   1.0000
     1.0000   1.0000

          k = 0.0000 0.1443-0.2240 (  3842 PWs)   bands (ev):

  -114.2985-114.2985 -68.6629 -68.6627 -68.6626 -68.6624 -68.6438 -68.6427
    -8.9394  -8.6781   2.6830   2.7175   3.1755   3.2343   3.2867   3.3426
     4.3179   4.3348   4.4165   4.4175   5.8389   7.0020   7.7614   8.0832
     8.1943   8.4592

     occupation numbers 
     1.0000   1.0000   1.0000   1.0000   1.0000   1.0000   1.0000   1.0000
     1.0000   1.0000   1.0000   1.0000   1.0000   1.0000   1.0000   1.0000
     1.0000   1.0000   1.0000   1.0000   1.0000   1.0000   1.0000   1.0000
     1.0000   1.0000

          k = 0.0000 0.1443-0.1493 (  3849 PWs)   bands (ev):

  -114.2986-114.2985 -68.6630 -68.6627 -68.6627 -68.6623 -68.6443 -68.6423
    -9.0467  -8.5638   2.7702   2.8070   3.1262   3.1961   3.3376   3.3977
     4.2690   4.2962   4.4465   4.4526   5.2678   7.4389   7.6453   7.9212
     8.4061   8.6165

     occupation numbers 
     1.0000   1.0000   1.0000   1.0000   1.0000   1.0000   1.0000   1.0000
     1.0000   1.0000   1.0000   1.0000   1.0000   1.0000   1.0000   1.0000
     1.0000   1.0000   1.0000   1.0000   1.0000   1.0000   1.0000   1.0000
     1.0000   1.0000

          k = 0.0000 0.1443-0.0747 (  3863 PWs)   bands (ev):

  -114.2986-114.2984 -68.6631 -68.6628 -68.6626 -68.6623 -68.6446 -68.6420
    -9.1174  -8.4861   2.8829   2.9159   3.0844   3.1729   3.3701   3.4382
     4.2335   4.2691   4.4647   4.4717   4.8213   7.4409   7.8118   7.8931
     8.5698   8.7210

     occupation numbers 
     1.0000   1.0000   1.0000   1.0000   1.0000   1.0000   1.0000   1.0000
     1.0000   1.0000   1.0000   1.0000   1.0000   1.0000   1.0000   1.0000
     1.0000   1.0000   1.0000   1.0000   1.0000   1.0000   1.0000   1.0000
     1.0000   1.0000

          k = 0.0000 0.2887 0.0000 (  3837 PWs)   bands (ev):

  -114.2985-114.2984 -68.6640 -68.6636 -68.6631 -68.6625 -68.6443 -68.6421
    -8.9029  -8.3573   2.8027   3.0535   3.2328   3.2867   3.5491   3.6343
     4.1480   4.2975   4.4515   4.4831   4.7412   6.2429   7.1529   7.3070
     8.3014   8.5265

     occupation numbers 
     1.0000   1.0000   1.0000   1.0000   1.0000   1.0000   1.0000   1.0000
     1.0000   1.0000   1.0000   1.0000   1.0000   1.0000   1.0000   1.0000
     1.0000   1.0000   1.0000   1.0000   1.0000   1.0000   1.0000   1.0000
     1.0000   1.0000

          k = 0.0000 0.2887 0.0747 (  3852 PWs)   bands (ev):

  -114.2985-114.2984 -68.6640 -68.6636 -68.6631 -68.6625 -68.6443 -68.6422
    -8.8826  -8.3785   2.7723   3.0201   3.2381   3.2446   3.4958   3.6144
     4.1716   4.3047   4.4758   4.4881   4.9113   6.2919   7.0911   7.3567
     8.2582   8.4819

     occupation numbers 
     1.0000   1.0000   1.0000   1.0000   1.0000   1.0000   1.0000   1.0000
     1.0000   1.0000   1.0000   1.0000   1.0000   1.0000   1.0000   1.0000
     1.0000   1.0000   1.0000   1.0000   1.0000   1.0000   1.0000   1.0000
     1.0000   1.0000

          k = 0.0000 0.2887 0.1493 (  3851 PWs)   bands (ev):

  -114.2985-114.2984 -68.6639 -68.6637 -68.6630 -68.6626 -68.6440 -68.6424
    -8.8246  -8.4386   2.7067   2.8766   3.2172   3.2794   3.4265   3.5605
     4.2234   4.3249   4.4552   4.4779   5.3511   6.4175   6.9616   7.4960
     8.0919   8.3546

     occupation numbers 
     1.0000   1.0000   1.0000   1.0000   1.0000   1.0000   1.0000   1.0000
     1.0000   1.0000   1.0000   1.0000   1.0000   1.0000   1.0000   1.0000
     1.0000   1.0000   1.0000   1.0000   1.0000   1.0000   1.0000   1.0000
     1.0000   1.0000

          k = 0.0000 0.2887 0.2240 (  3841 PWs)   bands (ev):

  -114.2985-114.2984 -68.6639 -68.6637 -68.6629 -68.6627 -68.6436 -68.6428
    -8.7372  -8.5282   2.6527   2.7273   3.2502   3.3351   3.3624   3.4861
     4.2907   4.3549   4.4251   4.4289   5.8270   6.4428   6.9982   7.6994
     7.7709   8.1626

     occupation numbers 
     1.0000   1.0000   1.0000   1.0000   1.0000   1.0000   1.0000   1.0000
     1.0000   1.0000   1.0000   1.0000   1.0000   1.0000   1.0000   1.0000
     1.0000   1.0000   1.0000   1.0000   1.0000   1.0000   1.0000   1.0000
     1.0000   1.0000

          k = 0.0000 0.2887-0.2987 (  3846 PWs)   bands (ev):

  -114.2985-114.2985 -68.6638 -68.6638 -68.6628 -68.6628 -68.6432 -68.6432
    -8.6332  -8.6331   2.6514   2.6514   3.3018   3.3018   3.4067   3.4068
     4.3627   4.3627   4.3899   4.3899   6.2061   6.2062   7.3522   7.3523
     7.9332   7.9334

     occupation numbers 
     1.0000   1.0000   1.0000   1.0000   1.0000   1.0000   1.0000   1.0000
     1.0000   1.0000   1.0000   1.0000   1.0000   1.0000   1.0000   1.0000
     1.0000   1.0000   1.0000   1.0000   1.0000   1.0000   1.0000   1.0000
     1.0000   1.0000

          k = 0.0000 0.2887-0.2240 (  3841 PWs)   bands (ev):

  -114.2985-114.2984 -68.6639 -68.6637 -68.6629 -68.6627 -68.6436 -68.6428
    -8.7372  -8.5282   2.6527   2.7274   3.2501   3.3351   3.3624   3.4861
     4.2907   4.3549   4.4251   4.4289   5.8270   6.4429   6.9982   7.6994
     7.7709   8.1626

     occupation numbers 
     1.0000   1.0000   1.0000   1.0000   1.0000   1.0000   1.0000   1.0000
     1.0000   1.0000   1.0000   1.0000   1.0000   1.0000   1.0000   1.0000
     1.0000   1.0000   1.0000   1.0000   1.0000   1.0000   1.0000   1.0000
     1.0000   1.0000

          k = 0.0000 0.2887-0.1493 (  3851 PWs)   bands (ev):

  -114.2985-114.2984 -68.6639 -68.6637 -68.6630 -68.6626 -68.6440 -68.6424
    -8.8246  -8.4386   2.7067   2.8766   3.2171   3.2794   3.4265   3.5605
     4.2234   4.3249   4.4552   4.4779   5.3511   6.4175   6.9615   7.4960
     8.0919   8.3546

     occupation numbers 
     1.0000   1.0000   1.0000   1.0000   1.0000   1.0000   1.0000   1.0000
     1.0000   1.0000   1.0000   1.0000   1.0000   1.0000   1.0000   1.0000
     1.0000   1.0000   1.0000   1.0000   1.0000   1.0000   1.0000   1.0000
     1.0000   1.0000

          k = 0.0000 0.2887-0.0747 (  3852 PWs)   bands (ev):

  -114.2985-114.2984 -68.6640 -68.6636 -68.6631 -68.6625 -68.6443 -68.6422
    -8.8826  -8.3785   2.7723   3.0202   3.2380   3.2446   3.4958   3.6144
     4.1716   4.3047   4.4758   4.4881   4.9113   6.2919   7.0911   7.3567
     8.2582   8.4819

     occupation numbers 
     1.0000   1.0000   1.0000   1.0000   1.0000   1.0000   1.0000   1.0000
     1.0000   1.0000   1.0000   1.0000   1.0000   1.0000   1.0000   1.0000
     1.0000   1.0000   1.0000   1.0000   1.0000   1.0000   1.0000   1.0000
     1.0000   1.0000

          k = 0.0000 0.4330 0.0000 (  3849 PWs)   bands (ev):

  -114.2985-114.2984 -68.6649 -68.6646 -68.6634 -68.6627 -68.6439 -68.6424
    -8.6278  -8.2771   2.7255   3.0531   3.2694   3.4791   3.6125   3.8505
     4.2305   4.3981   4.5023   4.6540   4.9149   5.3093   6.3965   6.8100
     7.7384   8.2737

     occupation numbers 
     1.0000   1.0000   1.0000   1.0000   1.0000   1.0000   1.0000   1.0000
     1.0000   1.0000   1.0000   1.0000   1.0000   1.0000   1.0000   1.0000
     1.0000   1.0000   1.0000   1.0000   1.0000   1.0000   1.0000   1.0000
     1.0000   1.0000

          k = 0.0000 0.4330 0.0747 (  3850 PWs)   bands (ev):

  -114.2984-114.2984 -68.6649 -68.6646 -68.6634 -68.6628 -68.6438 -68.6424
    -8.6140  -8.2898   2.7009   2.9978   3.2863   3.4506   3.5845   3.8212
     4.2454   4.4010   4.4957   4.6215   5.0068   5.4343   6.3725   6.8734
     7.7604   8.2215

     occupation numbers 
     1.0000   1.0000   1.0000   1.0000   1.0000   1.0000   1.0000   1.0000
     1.0000   1.0000   1.0000   1.0000   1.0000   1.0000   1.0000   1.0000
     1.0000   1.0000   1.0000   1.0000   1.0000   1.0000   1.0000   1.0000
     1.0000   1.0000

          k = 0.0000 0.4330 0.1493 (  3831 PWs)   bands (ev):

  -114.2984-114.2984 -68.6649 -68.6646 -68.6633 -68.6628 -68.6436 -68.6426
    -8.5747  -8.3263   2.6462   2.8524   3.3362   3.4182   3.5393   3.7418
     4.2881   4.4094   4.4793   4.5586   5.1705   5.6574   6.4314   7.0480
     7.7532   8.0727

     occupation numbers 
     1.0000   1.0000   1.0000   1.0000   1.0000   1.0000   1.0000   1.0000
     1.0000   1.0000   1.0000   1.0000   1.0000   1.0000   1.0000   1.0000
     1.0000   1.0000   1.0000   1.0000   1.0000   1.0000   1.0000   1.0000
     1.0000   1.0000

          k = 0.0000 0.4330 0.2240 (  3829 PWs)   bands (ev):

  -114.2984-114.2984 -68.6648 -68.6647 -68.6632 -68.6629 -68.6434 -68.6428
    -8.5164  -8.3819   2.6043   2.7028   3.4158   3.4221   3.4929   3.6333
     4.3492   4.4228   4.4595   4.4891   5.3441   5.6591   6.7874   7.2968
     7.5946   7.8477

     occupation numbers 
     1.0000   1.0000   1.0000   1.0000   1.0000   1.0000   1.0000   1.0000
     1.0000   1.0000   1.0000   1.0000   1.0000   1.0000   1.0000   1.0000
     1.0000   1.0000   1.0000   1.0000   1.0000   1.0000   1.0000   1.0000
     1.0000   1.0000

          k = 0.0000 0.4330-0.2987 (  3834 PWs)   bands (ev):

  -114.2984-114.2984 -68.6648 -68.6648 -68.6630 -68.6630 -68.6431 -68.6431
    -8.4487  -8.4485   2.6159   2.6159   3.4509   3.4509   3.5187   3.5187
     4.4183   4.4183   4.4399   4.4399   5.5172   5.5172   7.2458   7.2458
     7.5768   7.5769

     occupation numbers 
     1.0000   1.0000   1.0000   1.0000   1.0000   1.0000   1.0000   1.0000
     1.0000   1.0000   1.0000   1.0000   1.0000   1.0000   1.0000   1.0000
     1.0000   1.0000   1.0000   1.0000   1.0000   1.0000   1.0000   1.0000
     1.0000   1.0000

          k = 0.0000 0.4330-0.2240 (  3829 PWs)   bands (ev):

  -114.2984-114.2984 -68.6648 -68.6647 -68.6632 -68.6629 -68.6434 -68.6428
    -8.5164  -8.3819   2.6042   2.7028   3.4158   3.4221   3.4930   3.6333
     4.3492   4.4228   4.4595   4.4891   5.3441   5.6592   6.7874   7.2968
     7.5946   7.8477

     occupation numbers 
     1.0000   1.0000   1.0000   1.0000   1.0000   1.0000   1.0000   1.0000
     1.0000   1.0000   1.0000   1.0000   1.0000   1.0000   1.0000   1.0000
     1.0000   1.0000   1.0000   1.0000   1.0000   1.0000   1.0000   1.0000
     1.0000   1.0000

          k = 0.0000 0.4330-0.1493 (  3831 PWs)   bands (ev):

  -114.2984-114.2984 -68.6649 -68.6646 -68.6633 -68.6628 -68.6436 -68.6426
    -8.5747  -8.3263   2.6462   2.8525   3.3362   3.4182   3.5393   3.7418
     4.2881   4.4094   4.4793   4.5586   5.1705   5.6574   6.4314   7.0480
     7.7532   8.0727

     occupation numbers 
     1.0000   1.0000   1.0000   1.0000   1.0000   1.0000   1.0000   1.0000
     1.0000   1.0000   1.0000   1.0000   1.0000   1.0000   1.0000   1.0000
     1.0000   1.0000   1.0000   1.0000   1.0000   1.0000   1.0000   1.0000
     1.0000   1.0000

          k = 0.0000 0.4330-0.0747 (  3850 PWs)   bands (ev):

  -114.2984-114.2984 -68.6649 -68.6646 -68.6634 -68.6628 -68.6438 -68.6424
    -8.6140  -8.2898   2.7009   2.9978   3.2863   3.4505   3.5845   3.8212
     4.2454   4.4010   4.4957   4.6215   5.0068   5.4343   6.3724   6.8734
     7.7604   8.2215

     occupation numbers 
     1.0000   1.0000   1.0000   1.0000   1.0000   1.0000   1.0000   1.0000
     1.0000   1.0000   1.0000   1.0000   1.0000   1.0000   1.0000   1.0000
     1.0000   1.0000   1.0000   1.0000   1.0000   1.0000   1.0000   1.0000
     1.0000   1.0000

          k =-0.0000-0.5774-0.0000 (  3846 PWs)   bands (ev):

  -114.2984-114.2984 -68.6653 -68.6649 -68.6635 -68.6628 -68.6436 -68.6426
    -8.4875  -8.2656   2.7905   2.9918   3.2755   3.4310   3.6933   3.9506
     4.2252   4.4653   4.5170   4.6147   4.9945   5.4909   5.9003   6.5829
     7.3658   8.1617

     occupation numbers 
     1.0000   1.0000   1.0000   1.0000   1.0000   1.0000   1.0000   1.0000
     1.0000   1.0000   1.0000   1.0000   1.0000   1.0000   1.0000   1.0000
     1.0000   1.0000   1.0000   1.0000   1.0000   1.0000   1.0000   1.0000
     1.0000   1.0000

          k =-0.0000-0.5774 0.0747 (  3838 PWs)   bands (ev):

  -114.2984-114.2984 -68.6653 -68.6649 -68.6635 -68.6628 -68.6435 -68.6426
    -8.4781  -8.2730   2.7592   2.9289   3.2946   3.4392   3.6686   3.9153
     4.2705   4.4660   4.5108   4.6133   4.9838   5.4403   6.0528   6.6542
     7.4206   8.1065

     occupation numbers 
     1.0000   1.0000   1.0000   1.0000   1.0000   1.0000   1.0000   1.0000
     1.0000   1.0000   1.0000   1.0000   1.0000   1.0000   1.0000   1.0000
     1.0000   1.0000   1.0000   1.0000   1.0000   1.0000   1.0000   1.0000
     1.0000   1.0000

          k =-0.0000-0.5774 0.1493 (  3834 PWs)   bands (ev):

  -114.2984-114.2984 -68.6653 -68.6650 -68.6634 -68.6629 -68.6434 -68.6427
    -8.4517  -8.2946   2.6875   2.7917   3.3510   3.4598   3.6184   3.8204
     4.3674   4.4681   4.4979   4.6064   4.9792   5.3219   6.4275   6.8480
     7.5091   7.9486

     occupation numbers 
     1.0000   1.0000   1.0000   1.0000   1.0000   1.0000   1.0000   1.0000
     1.0000   1.0000   1.0000   1.0000   1.0000   1.0000   1.0000   1.0000
     1.0000   1.0000   1.0000   1.0000   1.0000   1.0000   1.0000   1.0000
     1.0000   1.0000

          k =-0.0000-0.5774 0.2240 (  3826 PWs)   bands (ev):

  -114.2984-114.2984 -68.6652 -68.6650 -68.6633 -68.6630 -68.6432 -68.6429
    -8.4134  -8.3282   2.6226   2.6678   3.4415   3.4880   3.5673   3.6925
     4.4664   4.4717   4.4860   4.5860   5.0082   5.1901   6.8769   7.1193
     7.4856   7.7096

     occupation numbers 
     1.0000   1.0000   1.0000   1.0000   1.0000   1.0000   1.0000   1.0000
     1.0000   1.0000   1.0000   1.0000   1.0000   1.0000   1.0000   1.0000
     1.0000   1.0000   1.0000   1.0000   1.0000   1.0000   1.0000   1.0000
     1.0000   1.0000

          k =-0.0000-0.5774-0.2987 (  3824 PWs)   bands (ev):

  -114.2984-114.2984 -68.6651 -68.6651 -68.6631 -68.6631 -68.6430 -68.6430
    -8.3699  -8.3697   2.6084   2.6084   3.5234   3.5235   3.5594   3.5594
     4.4775   4.4775   4.5416   4.5416   5.0796   5.0797   7.2651   7.2651
     7.4207   7.4208

     occupation numbers 
     1.0000   1.0000   1.0000   1.0000   1.0000   1.0000   1.0000   1.0000
     1.0000   1.0000   1.0000   1.0000   1.0000   1.0000   1.0000   1.0000
     1.0000   1.0000   1.0000   1.0000   1.0000   1.0000   1.0000   1.0000
     1.0000   1.0000

          k = 0.1250 0.0722 0.0000 (  3865 PWs)   bands (ev):

  -114.2986-114.2984 -68.6631 -68.6628 -68.6626 -68.6623 -68.6447 -68.6419
    -9.1420  -8.4586   2.9445   2.9619   3.0726   3.1652   3.3786   3.4532
     4.2198   4.2594   4.4706   4.4737   4.6442   7.4081   7.7731   8.0267
     8.6382   8.7576

     occupation numbers 
     1.0000   1.0000   1.0000   1.0000   1.0000   1.0000   1.0000   1.0000
     1.0000   1.0000   1.0000   1.0000   1.0000   1.0000   1.0000   1.0000
     1.0000   1.0000   1.0000   1.0000   1.0000   1.0000   1.0000   1.0000
     1.0000   1.0000

          k = 0.1250 0.0722 0.0747 (  3863 PWs)   bands (ev):

  -114.2986-114.2984 -68.6631 -68.6628 -68.6626 -68.6623 -68.6446 -68.6420
    -9.1174  -8.4861   2.8829   2.9159   3.0844   3.1729   3.3701   3.4382
     4.2335   4.2691   4.4647   4.4717   4.8213   7.4409   7.8118   7.8931
     8.5698   8.7210

     occupation numbers 
     1.0000   1.0000   1.0000   1.0000   1.0000   1.0000   1.0000   1.0000
     1.0000   1.0000   1.0000   1.0000   1.0000   1.0000   1.0000   1.0000
     1.0000   1.0000   1.0000   1.0000   1.0000   1.0000   1.0000   1.0000
     1.0000   1.0000

          k = 0.1250 0.0722 0.1493 (  3849 PWs)   bands (ev):

  -114.2986-114.2985 -68.6630 -68.6627 -68.6627 -68.6623 -68.6443 -68.6423
    -9.0467  -8.5638   2.7702   2.8070   3.1262   3.1961   3.3376   3.3977
     4.2691   4.2962   4.4465   4.4526   5.2678   7.4389   7.6453   7.9212
     8.4061   8.6165

     occupation numbers 
     1.0000   1.0000   1.0000   1.0000   1.0000   1.0000   1.0000   1.0000
     1.0000   1.0000   1.0000   1.0000   1.0000   1.0000   1.0000   1.0000
     1.0000   1.0000   1.0000   1.0000   1.0000   1.0000   1.0000   1.0000
     1.0000   1.0000

          k = 0.1250 0.0722 0.2240 (  3842 PWs)   bands (ev):

  -114.2985-114.2985 -68.6629 -68.6627 -68.6626 -68.6624 -68.6438 -68.6427
    -8.9394  -8.6781   2.6830   2.7175   3.1755   3.2343   3.2867   3.3426
     4.3179   4.3348   4.4165   4.4175   5.8389   7.0020   7.7614   8.0832
     8.1943   8.4592

     occupation numbers 
     1.0000   1.0000   1.0000   1.0000   1.0000   1.0000   1.0000   1.0000
     1.0000   1.0000   1.0000   1.0000   1.0000   1.0000   1.0000   1.0000
     1.0000   1.0000   1.0000   1.0000   1.0000   1.0000   1.0000   1.0000
     1.0000   1.0000

          k = 0.1250 0.0722-0.2987 (  3834 PWs)   bands (ev):

  -114.2985-114.2985 -68.6628 -68.6628 -68.6625 -68.6625 -68.6433 -68.6433
    -8.8103  -8.8101   2.6677   2.6678   3.2300   3.2300   3.2850   3.2850
     4.3704   4.3704   4.3774   4.3774   6.4385   6.4385   7.9681   7.9682
     8.2721   8.2723

     occupation numbers 
     1.0000   1.0000   1.0000   1.0000   1.0000   1.0000   1.0000   1.0000
     1.0000   1.0000   1.0000   1.0000   1.0000   1.0000   1.0000   1.0000
     1.0000   1.0000   1.0000   1.0000   1.0000   1.0000   1.0000   1.0000
     1.0000   1.0000

          k = 0.1250 0.0722-0.2240 (  3842 PWs)   bands (ev):

  -114.2985-114.2985 -68.6629 -68.6627 -68.6626 -68.6624 -68.6438 -68.6427
    -8.9394  -8.6781   2.6830   2.7175   3.1755   3.2343   3.2867   3.3426
     4.3179   4.3348   4.4165   4.4175   5.8389   7.0020   7.7614   8.0832
     8.1943   8.4592

     occupation numbers 
     1.0000   1.0000   1.0000   1.0000   1.0000   1.0000   1.0000   1.0000
     1.0000   1.0000   1.0000   1.0000   1.0000   1.0000   1.0000   1.0000
     1.0000   1.0000   1.0000   1.0000   1.0000   1.0000   1.0000   1.0000
     1.0000   1.0000

          k = 0.1250 0.0722-0.1493 (  3849 PWs)   bands (ev):

  -114.2986-114.2985 -68.6630 -68.6627 -68.6627 -68.6623 -68.6443 -68.6423
    -9.0467  -8.5638   2.7703   2.8070   3.1262   3.1961   3.3375   3.3977
     4.2691   4.2962   4.4465   4.4526   5.2678   7.4389   7.6453   7.9212
     8.4061   8.6165

     occupation numbers 
     1.0000   1.0000   1.0000   1.0000   1.0000   1.0000   1.0000   1.0000
     1.0000   1.0000   1.0000   1.0000   1.0000   1.0000   1.0000   1.0000
     1.0000   1.0000   1.0000   1.0000   1.0000   1.0000   1.0000   1.0000
     1.0000   1.0000

          k = 0.1250 0.0722-0.0747 (  3863 PWs)   bands (ev):

  -114.2986-114.2984 -68.6631 -68.6628 -68.6626 -68.6623 -68.6446 -68.6420
    -9.1174  -8.4861   2.8830   2.9158   3.0844   3.1729   3.3701   3.4382
     4.2335   4.2691   4.4647   4.4717   4.8213   7.4409   7.8118   7.8931
     8.5698   8.7210

     occupation numbers 
     1.0000   1.0000   1.0000   1.0000   1.0000   1.0000   1.0000   1.0000
     1.0000   1.0000   1.0000   1.0000   1.0000   1.0000   1.0000   1.0000
     1.0000   1.0000   1.0000   1.0000   1.0000   1.0000   1.0000   1.0000
     1.0000   1.0000

          k = 0.1250 0.2165 0.0000 (  3833 PWs)   bands (ev):

  -114.2985-114.2984 -68.6636 -68.6634 -68.6629 -68.6625 -68.6444 -68.6420
    -8.9758  -8.3858   2.9200   3.0408   3.0584   3.3222   3.4684   3.5715
     4.1707   4.2603   4.4720   4.4769   4.7042   6.7393   7.0322   7.6181
     8.4260   8.5299

     occupation numbers 
     1.0000   1.0000   1.0000   1.0000   1.0000   1.0000   1.0000   1.0000
     1.0000   1.0000   1.0000   1.0000   1.0000   1.0000   1.0000   1.0000
     1.0000   1.0000   1.0000   1.0000   1.0000   1.0000   1.0000   1.0000
     1.0000   1.0000

          k = 0.1250 0.2165 0.0747 (  3844 PWs)   bands (ev):

  -114.2985-114.2984 -68.6636 -68.6634 -68.6629 -68.6625 -68.6444 -68.6421
    -8.9541  -8.4090   2.8654   3.0028   3.0797   3.2820   3.4416   3.5538
     4.1874   4.2803   4.4700   4.4907   4.8785   6.7879   7.0240   7.5960
     8.3713   8.4854

     occupation numbers 
     1.0000   1.0000   1.0000   1.0000   1.0000   1.0000   1.0000   1.0000
     1.0000   1.0000   1.0000   1.0000   1.0000   1.0000   1.0000   1.0000
     1.0000   1.0000   1.0000   1.0000   1.0000   1.0000   1.0000   1.0000
     1.0000   1.0000

          k = 0.1250 0.2165 0.1493 (  3859 PWs)   bands (ev):

  -114.2985-114.2984 -68.6636 -68.6634 -68.6629 -68.6626 -68.6441 -68.6424
    -8.8920  -8.4747   2.7732   2.8528   3.1382   3.2635   3.3966   3.5062
     4.2327   4.3105   4.4501   4.4739   5.3325   6.9333   6.9370   7.6105
     8.1889   8.3590

     occupation numbers 
     1.0000   1.0000   1.0000   1.0000   1.0000   1.0000   1.0000   1.0000
     1.0000   1.0000   1.0000   1.0000   1.0000   1.0000   1.0000   1.0000
     1.0000   1.0000   1.0000   1.0000   1.0000   1.0000   1.0000   1.0000
     1.0000   1.0000

          k = 0.1250 0.2165 0.2240 (  3849 PWs)   bands (ev):

  -114.2985-114.2984 -68.6636 -68.6634 -68.6628 -68.6627 -68.6437 -68.6427
    -8.7981  -8.5722   2.6969   2.7227   3.1957   3.2786   3.3567   3.4422
     4.2956   4.3451   4.4201   4.4273   5.8633   6.7041   7.1751   7.7326
     7.8899   8.1717

     occupation numbers 
     1.0000   1.0000   1.0000   1.0000   1.0000   1.0000   1.0000   1.0000
     1.0000   1.0000   1.0000   1.0000   1.0000   1.0000   1.0000   1.0000
     1.0000   1.0000   1.0000   1.0000   1.0000   1.0000   1.0000   1.0000
     1.0000   1.0000

          k = 0.1250 0.2165-0.2987 (  3848 PWs)   bands (ev):

  -114.2985-114.2985 -68.6635 -68.6635 -68.6628 -68.6628 -68.6432 -68.6432
    -8.6860  -8.6858   2.6714   2.6715   3.2508   3.2508   3.3799   3.3799
     4.3630   4.3630   4.3847   4.3847   6.3402   6.3403   7.5033   7.5034
     7.9564   7.9566

     occupation numbers 
     1.0000   1.0000   1.0000   1.0000   1.0000   1.0000   1.0000   1.0000
     1.0000   1.0000   1.0000   1.0000   1.0000   1.0000   1.0000   1.0000
     1.0000   1.0000   1.0000   1.0000   1.0000   1.0000   1.0000   1.0000
     1.0000   1.0000

          k = 0.1250 0.2165-0.2240 (  3849 PWs)   bands (ev):

  -114.2985-114.2984 -68.6636 -68.6634 -68.6628 -68.6627 -68.6437 -68.6427
    -8.7981  -8.5722   2.6969   2.7227   3.1957   3.2785   3.3567   3.4422
     4.2956   4.3451   4.4201   4.4273   5.8633   6.7041   7.1751   7.7326
     7.8899   8.1717

     occupation numbers 
     1.0000   1.0000   1.0000   1.0000   1.0000   1.0000   1.0000   1.0000
     1.0000   1.0000   1.0000   1.0000   1.0000   1.0000   1.0000   1.0000
     1.0000   1.0000   1.0000   1.0000   1.0000   1.0000   1.0000   1.0000
     1.0000   1.0000

          k = 0.1250 0.2165-0.1493 (  3859 PWs)   bands (ev):

  -114.2985-114.2984 -68.6636 -68.6634 -68.6629 -68.6626 -68.6441 -68.6424
    -8.8920  -8.4747   2.7732   2.8528   3.1382   3.2635   3.3966   3.5062
     4.2327   4.3105   4.4501   4.4739   5.3325   6.9333   6.9370   7.6105
     8.1889   8.3590

     occupation numbers 
     1.0000   1.0000   1.0000   1.0000   1.0000   1.0000   1.0000   1.0000
     1.0000   1.0000   1.0000   1.0000   1.0000   1.0000   1.0000   1.0000
     1.0000   1.0000   1.0000   1.0000   1.0000   1.0000   1.0000   1.0000
     1.0000   1.0000

          k = 0.1250 0.2165-0.0747 (  3844 PWs)   bands (ev):

  -114.2985-114.2984 -68.6636 -68.6634 -68.6629 -68.6625 -68.6444 -68.6421
    -8.9541  -8.4090   2.8654   3.0028   3.0797   3.2820   3.4416   3.5538
     4.1874   4.2803   4.4700   4.4907   4.8785   6.7879   7.0240   7.5960
     8.3713   8.4854

     occupation numbers 
     1.0000   1.0000   1.0000   1.0000   1.0000   1.0000   1.0000   1.0000
     1.0000   1.0000   1.0000   1.0000   1.0000   1.0000   1.0000   1.0000
     1.0000   1.0000   1.0000   1.0000   1.0000   1.0000   1.0000   1.0000
     1.0000   1.0000

          k = 0.1250 0.3608 0.0000 (  3846 PWs)   bands (ev):

  -114.2985-114.2984 -68.6645 -68.6642 -68.6633 -68.6628 -68.6440 -68.6423
    -8.7161  -8.2959   2.8233   3.0617   3.1779   3.4344   3.6937   3.7839
     4.1649   4.2635   4.4961   4.5886   4.8790   5.7722   6.4394   6.8760
     7.9823   8.1905

     occupation numbers 
     1.0000   1.0000   1.0000   1.0000   1.0000   1.0000   1.0000   1.0000
     1.0000   1.0000   1.0000   1.0000   1.0000   1.0000   1.0000   1.0000
     1.0000   1.0000   1.0000   1.0000   1.0000   1.0000   1.0000   1.0000
     1.0000   1.0000

          k = 0.1250 0.3608 0.0747 (  3840 PWs)   bands (ev):

  -114.2985-114.2984 -68.6645 -68.6642 -68.6633 -68.6628 -68.6439 -68.6423
    -8.6999  -8.3116   2.7928   3.0170   3.2049   3.3968   3.6260   3.7389
     4.1676   4.3281   4.4907   4.5857   5.0221   5.8489   6.4477   6.8837
     7.9776   8.1359

     occupation numbers 
     1.0000   1.0000   1.0000   1.0000   1.0000   1.0000   1.0000   1.0000
     1.0000   1.0000   1.0000   1.0000   1.0000   1.0000   1.0000   1.0000
     1.0000   1.0000   1.0000   1.0000   1.0000   1.0000   1.0000   1.0000
     1.0000   1.0000

          k = 0.1250 0.3608 0.1493 (  3839 PWs)   bands (ev):

  -114.2985-114.2984 -68.6644 -68.6643 -68.6633 -68.6629 -68.6437 -68.6425
    -8.6539  -8.3564   2.7257   2.8927   3.2542   3.3420   3.5408   3.6649
     4.2150   4.3763   4.4772   4.5451   5.3361   6.0276   6.4854   6.9761
[...]
    -8.4795  -8.3113   2.8878   2.8938   3.2649   3.3515   3.7012   3.7193
     4.1765   4.3451   4.5241   4.7125   5.0276   5.6429   6.1097   6.4402
     7.3947   7.5784

     occupation numbers 
     1.0000   1.0000   1.0000   1.0000   1.0000   1.0000   1.0000   1.0000
     1.0000   1.0000   1.0000   1.0000   1.0000   1.0000   1.0000   1.0000
     1.0000   1.0000   1.0000   1.0000   1.0000   1.0000   1.0000   1.0000
     1.0000   1.0000

          k =-0.5000 0.0000 0.2236 (  3847 PWs)   bands (ev):

  -114.3306-114.3306 -68.6967 -68.6967 -68.6958 -68.6956 -68.6752 -68.6748
    -8.4388  -8.3476   2.8016   2.8235   3.2344   3.3442   3.6379   3.6637
     4.2511   4.3534   4.5426   4.6367   5.2058   5.5386   6.3577   6.7965
     7.1783   7.5394

     occupation numbers 
     1.0000   1.0000   1.0000   1.0000   1.0000   1.0000   1.0000   1.0000
     1.0000   1.0000   1.0000   1.0000   1.0000   1.0000   1.0000   1.0000
     1.0000   1.0000   1.0000   1.0000   1.0000   1.0000   1.0000   1.0000
     1.0000   1.0000

          k =-0.5000 0.0000-0.2981 (  3844 PWs)   bands (ev):

  -114.3306-114.3306 -68.6967 -68.6967 -68.6957 -68.6957 -68.6750 -68.6750
    -8.3923  -8.3923   2.7770   2.7770   3.2856   3.2856   3.6313   3.6313
     4.3173   4.3173   4.5781   4.5781   5.3809   5.3809   6.6702   6.6702
     7.3404   7.3404

     occupation numbers 
     1.0000   1.0000   1.0000   1.0000   1.0000   1.0000   1.0000   1.0000
     1.0000   1.0000   1.0000   1.0000   1.0000   1.0000   1.0000   1.0000
     1.0000   1.0000   1.0000   1.0000   1.0000   1.0000   1.0000   1.0000
     1.0000   1.0000

          k =-0.5000 0.0000-0.2236 (  3847 PWs)   bands (ev):

  -114.3306-114.3306 -68.6967 -68.6967 -68.6958 -68.6956 -68.6752 -68.6748
    -8.4388  -8.3476   2.8016   2.8235   3.2344   3.3442   3.6379   3.6637
     4.2511   4.3533   4.5426   4.6367   5.2058   5.5386   6.3577   6.7965
     7.1783   7.5394

     occupation numbers 
     1.0000   1.0000   1.0000   1.0000   1.0000   1.0000   1.0000   1.0000
     1.0000   1.0000   1.0000   1.0000   1.0000   1.0000   1.0000   1.0000
     1.0000   1.0000   1.0000   1.0000   1.0000   1.0000   1.0000   1.0000
     1.0000   1.0000

          k =-0.5000 0.0000-0.1490 (  3843 PWs)   bands (ev):

  -114.3306-114.3305 -68.6967 -68.6967 -68.6958 -68.6955 -68.6753 -68.6747
    -8.4795  -8.3113   2.8878   2.8938   3.2649   3.3515   3.7012   3.7193
     4.1765   4.3451   4.5241   4.7125   5.0276   5.6429   6.1097   6.4402
     7.3947   7.5784

     occupation numbers 
     1.0000   1.0000   1.0000   1.0000   1.0000   1.0000   1.0000   1.0000
     1.0000   1.0000   1.0000   1.0000   1.0000   1.0000   1.0000   1.0000
     1.0000   1.0000   1.0000   1.0000   1.0000   1.0000   1.0000   1.0000
     1.0000   1.0000

          k =-0.5000 0.0000-0.0745 (  3842 PWs)   bands (ev):

  -114.3306-114.3305 -68.6967 -68.6967 -68.6959 -68.6954 -68.6755 -68.6746
    -8.5073  -8.2878   2.9071   3.0191   3.3050   3.3857   3.7782   3.8111
     4.1205   4.2725   4.5164   4.7748   4.8888   5.6197   6.0403   6.0931
     7.5181   7.5872

     occupation numbers 
     1.0000   1.0000   1.0000   1.0000   1.0000   1.0000   1.0000   1.0000
     1.0000   1.0000   1.0000   1.0000   1.0000   1.0000   1.0000   1.0000
     1.0000   1.0000   1.0000   1.0000   1.0000   1.0000   1.0000   1.0000
     1.0000   1.0000

          k =-0.5000 0.1443-0.0000 (  3841 PWs)   bands (ev):

  -114.3306-114.3305 -68.6971 -68.6968 -68.6957 -68.6951 -68.6755 -68.6745
    -8.5114  -8.2825   2.8103   3.0929   3.2290   3.5249   3.5666   3.9147
     4.1839   4.3354   4.5056   4.6836   4.9308   5.4145   5.9889   6.3237
     7.3615   7.9204

     occupation numbers 
     1.0000   1.0000   1.0000   1.0000   1.0000   1.0000   1.0000   1.0000
     1.0000   1.0000   1.0000   1.0000   1.0000   1.0000   1.0000   1.0000
     1.0000   1.0000   1.0000   1.0000   1.0000   1.0000   1.0000   1.0000
     1.0000   1.0000

          k =-0.5000 0.1443 0.0745 (  3829 PWs)   bands (ev):

  -114.3306-114.3305 -68.6971 -68.6968 -68.6957 -68.6951 -68.6755 -68.6746
    -8.5018  -8.2903   2.7875   3.0277   3.2343   3.4899   3.5849   3.8728
     4.2121   4.3499   4.5053   4.6799   4.9176   5.4716   6.0389   6.4088
     7.4079   7.8609

     occupation numbers 
     1.0000   1.0000   1.0000   1.0000   1.0000   1.0000   1.0000   1.0000
     1.0000   1.0000   1.0000   1.0000   1.0000   1.0000   1.0000   1.0000
     1.0000   1.0000   1.0000   1.0000   1.0000   1.0000   1.0000   1.0000
     1.0000   1.0000

          k =-0.5000 0.1443 0.1490 (  3836 PWs)   bands (ev):

  -114.3306-114.3305 -68.6971 -68.6968 -68.6956 -68.6952 -68.6753 -68.6747
    -8.4748  -8.3127   2.7295   2.8838   3.2498   3.4755   3.5785   3.7767
     4.2682   4.3735   4.5094   4.6506   4.9529   5.4581   6.2818   6.6462
     7.4615   7.7078

     occupation numbers 
     1.0000   1.0000   1.0000   1.0000   1.0000   1.0000   1.0000   1.0000
     1.0000   1.0000   1.0000   1.0000   1.0000   1.0000   1.0000   1.0000
     1.0000   1.0000   1.0000   1.0000   1.0000   1.0000   1.0000   1.0000
     1.0000   1.0000

          k =-0.5000 0.1443 0.2236 (  3832 PWs)   bands (ev):

  -114.3306-114.3306 -68.6970 -68.6969 -68.6955 -68.6953 -68.6752 -68.6748
    -8.4354  -8.3476   2.6761   2.7466   3.3010   3.4514   3.5734   3.6776
     4.3223   4.3798   4.5258   4.6025   5.0569   5.3392   6.6409   6.9783
     7.3309   7.5551

     occupation numbers 
     1.0000   1.0000   1.0000   1.0000   1.0000   1.0000   1.0000   1.0000
     1.0000   1.0000   1.0000   1.0000   1.0000   1.0000   1.0000   1.0000
     1.0000   1.0000   1.0000   1.0000   1.0000   1.0000   1.0000   1.0000
     1.0000   1.0000

          k =-0.5000 0.1443-0.2981 (  3840 PWs)   bands (ev):

  -114.3306-114.3306 -68.6970 -68.6970 -68.6954 -68.6954 -68.6750 -68.6750
    -8.3906  -8.3906   2.6737   2.6737   3.3797   3.3797   3.6080   3.6081
     4.3617   4.3617   4.5578   4.5578   5.1942   5.1943   6.9902   6.9902
     7.3453   7.3453

     occupation numbers 
     1.0000   1.0000   1.0000   1.0000   1.0000   1.0000   1.0000   1.0000
     1.0000   1.0000   1.0000   1.0000   1.0000   1.0000   1.0000   1.0000
     1.0000   1.0000   1.0000   1.0000   1.0000   1.0000   1.0000   1.0000
     1.0000   1.0000

          k =-0.5000 0.1443-0.2236 (  3832 PWs)   bands (ev):

  -114.3306-114.3306 -68.6970 -68.6969 -68.6955 -68.6953 -68.6752 -68.6748
    -8.4354  -8.3476   2.6761   2.7466   3.3010   3.4514   3.5734   3.6776
     4.3223   4.3798   4.5258   4.6025   5.0569   5.3392   6.6409   6.9783
     7.3310   7.5551

     occupation numbers 
     1.0000   1.0000   1.0000   1.0000   1.0000   1.0000   1.0000   1.0000
     1.0000   1.0000   1.0000   1.0000   1.0000   1.0000   1.0000   1.0000
     1.0000   1.0000   1.0000   1.0000   1.0000   1.0000   1.0000   1.0000
     1.0000   1.0000

          k =-0.5000 0.1443-0.1490 (  3836 PWs)   bands (ev):

  -114.3306-114.3305 -68.6971 -68.6968 -68.6956 -68.6952 -68.6754 -68.6747
    -8.4748  -8.3127   2.7295   2.8838   3.2498   3.4755   3.5785   3.7767
     4.2682   4.3735   4.5094   4.6506   4.9529   5.4581   6.2818   6.6462
     7.4615   7.7078

     occupation numbers 
     1.0000   1.0000   1.0000   1.0000   1.0000   1.0000   1.0000   1.0000
     1.0000   1.0000   1.0000   1.0000   1.0000   1.0000   1.0000   1.0000
     1.0000   1.0000   1.0000   1.0000   1.0000   1.0000   1.0000   1.0000
     1.0000   1.0000

          k =-0.5000 0.1443-0.0745 (  3829 PWs)   bands (ev):

  -114.3306-114.3305 -68.6971 -68.6968 -68.6957 -68.6951 -68.6755 -68.6746
    -8.5018  -8.2903   2.7875   3.0277   3.2343   3.4899   3.5849   3.8728
     4.2121   4.3498   4.5053   4.6799   4.9176   5.4716   6.0389   6.4088
     7.4079   7.8609

     occupation numbers 
     1.0000   1.0000   1.0000   1.0000   1.0000   1.0000   1.0000   1.0000
     1.0000   1.0000   1.0000   1.0000   1.0000   1.0000   1.0000   1.0000
     1.0000   1.0000   1.0000   1.0000   1.0000   1.0000   1.0000   1.0000
     1.0000   1.0000

          k =-0.5000-0.8661-0.0000 (  3854 PWs)   bands (ev):

  -114.3306-114.3305 -68.6973 -68.6970 -68.6955 -68.6949 -68.6755 -68.6745
    -8.5054  -8.2855   2.7689   2.9685   3.2518   3.4067   3.6753   3.9204
     4.1958   4.4342   4.4850   4.5826   4.9586   5.4596   5.8723   6.5647
     7.3320   8.1292

     occupation numbers 
     1.0000   1.0000   1.0000   1.0000   1.0000   1.0000   1.0000   1.0000
     1.0000   1.0000   1.0000   1.0000   1.0000   1.0000   1.0000   1.0000
     1.0000   1.0000   1.0000   1.0000   1.0000   1.0000   1.0000   1.0000
     1.0000   1.0000

          k =-0.5000-0.8661 0.0745 (  3842 PWs)   bands (ev):

  -114.3306-114.3305 -68.6973 -68.6970 -68.6955 -68.6949 -68.6755 -68.6746
    -8.4961  -8.2929   2.7382   2.9068   3.2707   3.4151   3.6500   3.8856
     4.2405   4.4348   4.4789   4.5812   4.9488   5.4089   6.0234   6.6351
     7.3861   8.0744

     occupation numbers 
     1.0000   1.0000   1.0000   1.0000   1.0000   1.0000   1.0000   1.0000
     1.0000   1.0000   1.0000   1.0000   1.0000   1.0000   1.0000   1.0000
     1.0000   1.0000   1.0000   1.0000   1.0000   1.0000   1.0000   1.0000
     1.0000   1.0000

          k =-0.5000-0.8661 0.1490 (  3842 PWs)   bands (ev):

  -114.3306-114.3305 -68.6973 -68.6970 -68.6954 -68.6950 -68.6753 -68.6747
    -8.4700  -8.3143   2.6676   2.7716   3.3268   3.4362   3.5985   3.7919
     4.3365   4.4369   4.4663   4.5742   4.9455   5.2903   6.3955   6.8267
     7.4732   7.9178

     occupation numbers 
     1.0000   1.0000   1.0000   1.0000   1.0000   1.0000   1.0000   1.0000
     1.0000   1.0000   1.0000   1.0000   1.0000   1.0000   1.0000   1.0000
     1.0000   1.0000   1.0000   1.0000   1.0000   1.0000   1.0000   1.0000
     1.0000   1.0000

          k =-0.5000-0.8661 0.2236 (  3830 PWs)   bands (ev):

  -114.3306-114.3306 -68.6972 -68.6971 -68.6953 -68.6951 -68.6752 -68.6748
    -8.4321  -8.3477   2.6039   2.6491   3.4166   3.4650   3.5462   3.6653
     4.4348   4.4405   4.4546   4.5538   4.9753   5.1582   6.8423   7.0954
     7.4488   7.6807

     occupation numbers 
     1.0000   1.0000   1.0000   1.0000   1.0000   1.0000   1.0000   1.0000
     1.0000   1.0000   1.0000   1.0000   1.0000   1.0000   1.0000   1.0000
     1.0000   1.0000   1.0000   1.0000   1.0000   1.0000   1.0000   1.0000
     1.0000   1.0000

          k =-0.5000-0.8661-0.2981 (  3832 PWs)   bands (ev):

  -114.3306-114.3306 -68.6972 -68.6972 -68.6952 -68.6952 -68.6750 -68.6750
    -8.3889  -8.3889   2.5902   2.5902   3.5013   3.5013   3.5335   3.5335
     4.4462   4.4462   4.5096   4.5096   5.0473   5.0473   7.2287   7.2287
     7.3941   7.3942

     occupation numbers 
     1.0000   1.0000   1.0000   1.0000   1.0000   1.0000   1.0000   1.0000
     1.0000   1.0000   1.0000   1.0000   1.0000   1.0000   1.0000   1.0000
     1.0000   1.0000   1.0000   1.0000   1.0000   1.0000   1.0000   1.0000
     1.0000   1.0000

     highest occupied level (ev):     8.8147

!    total energy              =    -987.07806312 Ry
     Harris-Foulkes estimate   =    -987.07806311 Ry
     estimated scf accuracy    <          2.6E-09 Ry

     The total energy is the sum of the following terms:

     one-electron contribution =    -802.36250549 Ry
     hartree contribution      =     422.60837273 Ry
     xc contribution           =     -98.07398438 Ry
     ewald contribution        =    -509.24994597 Ry

     convergence has been achieved in   8 iterations

     Forces acting on atoms (cartesian axes, Ry/au):

     atom    1 type  2   force =    -0.00000026    0.00000035    0.01369756
     atom    2 type  2   force =    -0.00000007    0.00000045    0.01369671
     atom    3 type  1   force =     0.00000011   -0.00000031   -0.01371026
     atom    4 type  1   force =     0.00000022   -0.00000049   -0.01368401
     The non-local contrib.  to forces
     atom    1 type  2   force =     0.00000119   -0.00000277    0.00240918
     atom    2 type  2   force =     0.00000033    0.00000087    0.00241023
     atom    3 type  1   force =     0.00000064   -0.00000393    0.00113415
     atom    4 type  1   force =     0.00000238   -0.00000062    0.00114360
     The ionic contribution  to forces
     atom    1 type  2   force =    -0.00001722    0.00003242   -0.21179982
     atom    2 type  2   force =    -0.00000344   -0.00000333   -0.21179126
     atom    3 type  1   force =     0.00000356   -0.00002181    0.21179660
     atom    4 type  1   force =     0.00001710   -0.00000728    0.21179448
     The local contribution  to forces
     atom    1 type  2   force =     0.00001578   -0.00002933    0.22315910
     atom    2 type  2   force =     0.00000303    0.00000291    0.22315436
     atom    3 type  1   force =    -0.00000411    0.00002543   -0.22667141
     atom    4 type  1   force =    -0.00001924    0.00000743   -0.22671189
     The core correction contribution to forces
     atom    1 type  2   force =    -0.00000001    0.00000002   -0.00005004
     atom    2 type  2   force =    -0.00000001   -0.00000001   -0.00005006
     atom    3 type  1   force =     0.00000000    0.00000000    0.00000000
     atom    4 type  1   force =     0.00000000    0.00000000    0.00000000
     The Hubbard contrib.    to forces
     atom    1 type  2   force =     0.00000000    0.00000000    0.00000000
     atom    2 type  2   force =     0.00000000    0.00000000    0.00000000
     atom    3 type  1   force =     0.00000000    0.00000000    0.00000000
     atom    4 type  1   force =     0.00000000    0.00000000    0.00000000
     The SCF correction term to forces
     atom    1 type  2   force =     0.00000000    0.00000000    0.00000000
     atom    2 type  2   force =     0.00000000    0.00000000    0.00000000
     atom    3 type  1   force =     0.00000000    0.00000000    0.00000000
     atom    4 type  1   force =     0.00000000    0.00000000    0.00000000

     Total force =     0.000000     Total SCF correction =     0.000000


     Computing stress (Cartesian axis) and pressure

          total   stress  (Ry/bohr**3)                   (kbar)     P=    0.97
   0.00000650   0.00000000   0.00000001          0.96      0.00      0.00
   0.00000000   0.00000649   0.00000001          0.00      0.96      0.00
   0.00000001   0.00000001   0.00000685          0.00      0.00      1.01

     kinetic stress (kbar)  33996.77     -0.00     -0.00
                               -0.00  33996.77      0.00
                               -0.00      0.00  33839.91

     local   stress (kbar)  -1597.20     -0.03     -0.03
                               -0.03  -1597.29      0.10
                               -0.03      0.10 -10276.22

     nonloc. stress (kbar)  -1703.38     -0.00     -0.00
                               -0.00  -1703.38     -0.00
                               -0.00     -0.00  -1640.71

     hartree stress (kbar)  63953.40      0.01      0.01
                                0.01  63953.44     -0.04
                                0.01     -0.04  67389.77

     exc-cor stress (kbar) -14176.17      0.00     -0.00
                                0.00 -14176.17     -0.00
                               -0.00     -0.00 -14172.52

     corecor stress (kbar)   -249.63     -0.00     -0.00
                               -0.00   -249.63     -0.00
                               -0.00     -0.00   -249.26

     ewald   stress (kbar) -80222.83      0.02      0.02
                                0.02 -80222.78     -0.06
                                0.02     -0.06 -74889.97

     hubbard stress (kbar)      0.00      0.00      0.00
                                0.00      0.00      0.00
                                0.00      0.00      0.00

     london  stress (kbar)      0.00      0.00      0.00
                                0.00      0.00      0.00
                                0.00      0.00      0.00

     DFT-D3  stress (kbar)      0.00      0.00      0.00
                                0.00      0.00      0.00
                                0.00      0.00      0.00

     XDM     stress (kbar)      0.00      0.00      0.00
                                0.00      0.00      0.00
                                0.00      0.00      0.00

     dft-nl  stress (kbar)      0.00      0.00      0.00
                                0.00      0.00      0.00
                                0.00      0.00      0.00

     TS-vdW  stress (kbar)      0.00      0.00      0.00
                                0.00      0.00      0.00
                                0.00      0.00      0.00



     Writing output data file ZnO.save/
 
     init_run     :      1.13s CPU      2.44s WALL (       2 calls)
     electrons    :    281.72s CPU    301.56s WALL (      20 calls)
     update_pot   :      2.56s CPU      2.61s WALL (      18 calls)
     forces       :      3.26s CPU      3.46s WALL (      20 calls)
     stress       :      6.22s CPU      6.37s WALL (      20 calls)

     Called by init_run:
     wfcinit      :      0.77s CPU      1.63s WALL (       2 calls)
     wfcinit:atom :      0.01s CPU      0.01s WALL (     130 calls)
     wfcinit:wfcr :      0.73s CPU      1.57s WALL (     130 calls)
     potinit      :      0.12s CPU      0.15s WALL (       2 calls)
     hinit0       :      0.20s CPU      0.37s WALL (       2 calls)

     Called by electrons:
     c_bands      :    237.48s CPU    255.24s WALL (     266 calls)
     sum_band     :     34.47s CPU     35.70s WALL (     266 calls)
     v_of_rho     :      8.12s CPU      8.21s WALL (     286 calls)
     v_h          :      0.10s CPU      0.10s WALL (     286 calls)
     v_xc         :      9.14s CPU      9.24s WALL (     326 calls)
     newd         :      1.35s CPU      1.38s WALL (     286 calls)
     mix_rho      :      0.33s CPU      0.38s WALL (     266 calls)

     Called by c_bands:
     init_us_2    :      2.77s CPU      2.97s WALL (   37310 calls)
     cegterg      :    216.98s CPU    227.11s WALL (   17290 calls)

     Called by sum_band:
     sum_band:bec :      0.21s CPU      0.22s WALL (   17290 calls)
     addusdens    :      1.40s CPU      1.44s WALL (     266 calls)

     Called by *egterg:
     h_psi        :    127.32s CPU    132.30s WALL (   48691 calls)
     s_psi        :      4.17s CPU      4.31s WALL (   48691 calls)
     g_psi        :      0.30s CPU      0.31s WALL (   31271 calls)
     cdiaghg      :     55.42s CPU     58.77s WALL (   47391 calls)
     cegterg:over :     12.72s CPU     14.78s WALL (   31271 calls)
     cegterg:upda :      7.41s CPU      7.56s WALL (   31271 calls)
     cegterg:last :      4.77s CPU      4.86s WALL (   17355 calls)
     cdiaghg:chol :      2.48s CPU      3.16s WALL (   47391 calls)
     cdiaghg:inve :      0.91s CPU      1.04s WALL (   47391 calls)
     cdiaghg:para :      5.53s CPU      5.97s WALL (   94782 calls)

     Called by h_psi:
     h_psi:pot    :    127.00s CPU    131.96s WALL (   48691 calls)
     h_psi:calbec :      7.36s CPU      7.65s WALL (   48691 calls)
     vloc_psi     :    115.25s CPU    119.78s WALL (   48691 calls)
     add_vuspsi   :      4.21s CPU      4.39s WALL (   48691 calls)

     General routines
     calbec       :     11.06s CPU     11.48s WALL (   72481 calls)
     fft          :      1.45s CPU      1.52s WALL (    4196 calls)
     ffts         :      0.10s CPU      0.11s WALL (     552 calls)
     fftw         :    134.28s CPU    139.45s WALL ( 2605902 calls)
     interpolate  :      0.12s CPU      0.12s WALL (     286 calls)
 
     Parallel routines
     fft_scatt_xy :     19.81s CPU     20.56s WALL ( 2610650 calls)
     fft_scatt_yz :     67.03s CPU     69.70s WALL ( 2610650 calls)
 
     PWSCF        :   4m56.13s CPU   5m20.23s WALL

 
   This run was terminated on:  15: 3:48  16Jun2022            

=------------------------------------------------------------------------------=
   JOB DONE.
=------------------------------------------------------------------------------=
