
     Program PWSCF v.6.4.1 starts on  8Jun2022 at 16:26:56 

     This program is part of the open-source Quantum ESPRESSO suite
     for quantum simulation of materials; please cite
         "P. Giannozzi et al., J. Phys.:Condens. Matter 21 395502 (2009);
         "P. Giannozzi et al., J. Phys.:Condens. Matter 29 465901 (2017);
          URL http://www.quantum-espresso.org", 
     in publications or presentations arising from this work. More details at
     http://www.quantum-espresso.org/quote

     Parallel version (MPI), running on    64 processors

     MPI processes distributed on     1 nodes
     K-points division:     npool     =       4
     R & G space division:  proc/nbgrp/npool/nimage =      16
     Waiting for input...
     Reading input from standard input

     Current dimensions of program PWSCF are:
     Max number of different atomic species (ntypx) = 10
     Max number of k-points (npk) =  40000
     Max angular momentum in pseudopotentials (lmaxx) =  3

     Subspace diagonalization in iterative solution of the eigenvalue problem:
     one sub-group per band group will be used
     scalapack distributed-memory algorithm (size of sub-group:  2*  2 procs)

 
     Parallelization info
     --------------------
     sticks:   dense  smooth     PW     G-vecs:    dense   smooth      PW
     Min          95      51     15                 4937     1921     333
     Max          96      52     16                 4944     1926     340
     Sum        1531     823    253                79067    30771    5395
 


     bravais-lattice index     =            0
     lattice parameter (alat)  =       6.1103  a.u.
     unit-cell volume          =     318.8455 (a.u.)^3
     number of atoms/cell      =            4
     number of atomic types    =            2
     number of electrons       =        32.00
     number of Kohn-Sham states=           16
     kinetic-energy cutoff     =      80.0000  Ry
     charge density cutoff     =     600.0000  Ry
     convergence threshold     =      1.0E-06
     mixing beta               =       0.5000
     number of iterations used =            8  plain     mixing
     Exchange-correlation      = SLA  PW   PSX  PSC ( 1  4 10  8 0 0)
     Using LIBXC version       =    4   3   4
     nstep                     =          200


     celldm(1)=   6.110292  celldm(2)=   0.000000  celldm(3)=   0.000000
     celldm(4)=   0.000000  celldm(5)=   0.000000  celldm(6)=   0.000000

     crystal axes: (cart. coord. in units of alat)
               a(1) = (   1.000000  -0.000000  -0.000000 )  
               a(2) = (  -0.500000   0.866025  -0.000000 )  
               a(3) = (  -0.000000  -0.000000   1.613853 )  

     reciprocal axes: (cart. coord. in units 2 pi/alat)
               b(1) = (  1.000000  0.577350  0.000000 )  
               b(2) = (  0.000000  1.154701  0.000000 )  
               b(3) = (  0.000000  0.000000  0.619635 )  


     PseudoPot. # 1 for Mg read from file:
     ./GBRV_PBEsol/mg_pbesol_v1.4.uspp.F.UPF
     MD5 check sum: 4059f37963cf5867752dbf5ab2400678
     Pseudo is Ultrasoft, Zval = 10.0
     Generated by new atomic code, or converted to UPF format
     Using radial grid of  821 points,  7 beta functions with: 
                l(1) =   0
                l(2) =   0
                l(3) =   0
                l(4) =   1
                l(5) =   1
                l(6) =   2
                l(7) =   2
     Q(r) pseudized with  8 coefficients,  rinner =    1.200   1.200   1.200
                                                       1.200   1.200

     PseudoPot. # 2 for O  read from file:
     ./GBRV_PBEsol/o_pbesol_v1.2.uspp.F.UPF
     MD5 check sum: 501638753501ef6325af9037351f7734
     Pseudo is Ultrasoft + core correction, Zval =  6.0
     Generated by new atomic code, or converted to UPF format
     Using radial grid of  737 points,  5 beta functions with: 
                l(1) =   0
                l(2) =   0
                l(3) =   1
                l(4) =   1
                l(5) =   2
     Q(r) pseudized with  8 coefficients,  rinner =    0.900   0.900   0.900
                                                       0.900   0.900

     atomic species   valence    mass     pseudopotential
        Mg            10.00    24.30500     Mg( 1.00)
        O              6.00    15.99900     O ( 1.00)

     No symmetry found


                                    s                        frac. trans.

      isym =  1     identity                                     

 cryst.   s( 1) = (     1          0          0      )
                  (     0          1          0      )
                  (     0          0          1      )

 cart.    s( 1) = (  1.0000000  0.0000000 -0.0000000 )
                  ( -0.0000000  1.0000000  0.0000000 )
                  ( -0.0000000 -0.0000000  1.0000000 )


   Cartesian axes

     site n.     atom                  positions (alat units)
         1           O   tau(   1) = (   0.5000001   0.2886754   0.0118550  )
         2           O   tau(   2) = (  -0.0000000   0.5773492   0.8187812  )
         3           Mg  tau(   3) = (   0.4999999   0.2886746   0.6073798  )
         4           Mg  tau(   4) = (  -0.0000003   0.5773508   1.4143060  )

   Crystallographic axes

     site n.     atom                  positions (cryst. coord.)
         1           O   tau(   1) = (  0.6666670  0.3333337  0.0073459  )
         2           O   tau(   2) = (  0.3333329  0.6666657  0.5073458  )
         3           Mg  tau(   3) = (  0.6666664  0.3333329  0.3763540  )
         4           Mg  tau(   4) = (  0.3333336  0.6666677  0.8763539  )

     number of k points=   260
                       cart. coord. in units 2pi/alat
        k(    1) = (   0.0000000   0.0000000   0.0000000), wk =   0.0039062
        k(    2) = (   0.0000000   0.0000000   0.0774544), wk =   0.0078125
        k(    3) = (   0.0000000   0.0000000   0.1549088), wk =   0.0078125
        k(    4) = (   0.0000000   0.0000000   0.2323632), wk =   0.0078125
        k(    5) = (  -0.0000000  -0.0000000  -0.3098176), wk =   0.0039062
        k(    6) = (   0.0000000   0.1443376   0.0000000), wk =   0.0078125
        k(    7) = (   0.0000000   0.1443376   0.0774544), wk =   0.0078125
        k(    8) = (   0.0000000   0.1443376   0.1549088), wk =   0.0078125
        k(    9) = (   0.0000000   0.1443376   0.2323633), wk =   0.0078125
        k(   10) = (  -0.0000000   0.1443375  -0.3098176), wk =   0.0078125
        k(   11) = (  -0.0000000   0.1443376  -0.2323632), wk =   0.0078125
        k(   12) = (  -0.0000000   0.1443376  -0.1549088), wk =   0.0078125
        k(   13) = (  -0.0000000   0.1443376  -0.0774544), wk =   0.0078125
        k(   14) = (   0.0000000   0.2886752   0.0000000), wk =   0.0078125
        k(   15) = (   0.0000000   0.2886752   0.0774545), wk =   0.0078125
        k(   16) = (   0.0000000   0.2886752   0.1549089), wk =   0.0078125
        k(   17) = (   0.0000000   0.2886752   0.2323633), wk =   0.0078125
        k(   18) = (  -0.0000000   0.2886751  -0.3098176), wk =   0.0078125
        k(   19) = (  -0.0000000   0.2886752  -0.2323632), wk =   0.0078125
        k(   20) = (  -0.0000000   0.2886752  -0.1549088), wk =   0.0078125
        k(   21) = (  -0.0000000   0.2886752  -0.0774544), wk =   0.0078125
        k(   22) = (   0.0000000   0.4330128   0.0000001), wk =   0.0078125
        k(   23) = (   0.0000000   0.4330128   0.0774545), wk =   0.0078125
        k(   24) = (   0.0000000   0.4330128   0.1549089), wk =   0.0078125
        k(   25) = (   0.0000000   0.4330128   0.2323633), wk =   0.0078125
        k(   26) = (  -0.0000000   0.4330127  -0.3098176), wk =   0.0078125
        k(   27) = (  -0.0000000   0.4330127  -0.2323632), wk =   0.0078125
        k(   28) = (  -0.0000000   0.4330128  -0.1549088), wk =   0.0078125
        k(   29) = (  -0.0000000   0.4330128  -0.0774543), wk =   0.0078125
        k(   30) = (  -0.0000000  -0.5773504  -0.0000001), wk =   0.0039062
        k(   31) = (  -0.0000000  -0.5773504   0.0774543), wk =   0.0078125
        k(   32) = (   0.0000000  -0.5773503   0.1549087), wk =   0.0078125
        k(   33) = (   0.0000000  -0.5773503   0.2323631), wk =   0.0078125
        k(   34) = (  -0.0000000  -0.5773504  -0.3098177), wk =   0.0039062
        k(   35) = (   0.1250000   0.0721688   0.0000000), wk =   0.0078125
        k(   36) = (   0.1250000   0.0721688   0.0774544), wk =   0.0078125
        k(   37) = (   0.1250000   0.0721688   0.1549088), wk =   0.0078125
        k(   38) = (   0.1250000   0.0721688   0.2323633), wk =   0.0078125
        k(   39) = (   0.1250000   0.0721688  -0.3098176), wk =   0.0078125
        k(   40) = (   0.1250000   0.0721688  -0.2323632), wk =   0.0078125
        k(   41) = (   0.1250000   0.0721688  -0.1549088), wk =   0.0078125
        k(   42) = (   0.1250000   0.0721688  -0.0774544), wk =   0.0078125
        k(   43) = (   0.1250000   0.2165064   0.0000000), wk =   0.0078125
        k(   44) = (   0.1250000   0.2165064   0.0774545), wk =   0.0078125
        k(   45) = (   0.1250000   0.2165064   0.1549089), wk =   0.0078125
        k(   46) = (   0.1250000   0.2165064   0.2323633), wk =   0.0078125
        k(   47) = (   0.1250000   0.2165063  -0.3098176), wk =   0.0078125
        k(   48) = (   0.1250000   0.2165064  -0.2323632), wk =   0.0078125
        k(   49) = (   0.1250000   0.2165064  -0.1549088), wk =   0.0078125
        k(   50) = (   0.1250000   0.2165064  -0.0774544), wk =   0.0078125
        k(   51) = (   0.1250000   0.3608440   0.0000001), wk =   0.0078125
        k(   52) = (   0.1250000   0.3608440   0.0774545), wk =   0.0078125
        k(   53) = (   0.1250000   0.3608440   0.1549089), wk =   0.0078125
        k(   54) = (   0.1250000   0.3608440   0.2323633), wk =   0.0078125
        k(   55) = (   0.1250000   0.3608439  -0.3098176), wk =   0.0078125
        k(   56) = (   0.1250000   0.3608440  -0.2323632), wk =   0.0078125
        k(   57) = (   0.1250000   0.3608440  -0.1549088), wk =   0.0078125
        k(   58) = (   0.1250000   0.3608440  -0.0774543), wk =   0.0078125
        k(   59) = (   0.1250000   0.5051816   0.0000001), wk =   0.0078125
        k(   60) = (   0.1250000   0.5051816   0.0774545), wk =   0.0078125
        k(   61) = (   0.1250000   0.5051816   0.1549089), wk =   0.0078125
        k(   62) = (   0.1250000   0.5051816   0.2323633), wk =   0.0078125
        k(   63) = (   0.1250000   0.5051815  -0.3098176), wk =   0.0078125
        k(   64) = (   0.1250000   0.5051815  -0.2323631), wk =   0.0078125
        k(   65) = (   0.1250000   0.5051816  -0.1549087), wk =   0.0078125
        k(   66) = (   0.1250000   0.5051816  -0.0774543), wk =   0.0078125
        k(   67) = (   0.1250000  -0.5051816  -0.0000001), wk =   0.0078125
        k(   68) = (   0.1250000  -0.5051816   0.0774543), wk =   0.0078125
        k(   69) = (   0.1250000  -0.5051816   0.1549088), wk =   0.0078125
        k(   70) = (   0.1250000  -0.5051815   0.2323632), wk =   0.0078125
        k(   71) = (   0.1250000  -0.5051816  -0.3098177), wk =   0.0078125
        k(   72) = (   0.1250000  -0.5051816  -0.2323633), wk =   0.0078125
        k(   73) = (   0.1250000  -0.5051816  -0.1549089), wk =   0.0078125
        k(   74) = (   0.1250000  -0.5051816  -0.0774545), wk =   0.0078125
        k(   75) = (   0.1250000  -0.3608440  -0.0000000), wk =   0.0078125
        k(   76) = (   0.1250000  -0.3608440   0.0774544), wk =   0.0078125
        k(   77) = (   0.1250000  -0.3608440   0.1549088), wk =   0.0078125
        k(   78) = (   0.1250000  -0.3608439   0.2323632), wk =   0.0078125
        k(   79) = (   0.1250000  -0.3608440  -0.3098177), wk =   0.0078125
        k(   80) = (   0.1250000  -0.3608440  -0.2323633), wk =   0.0078125
        k(   81) = (   0.1250000  -0.3608440  -0.1549089), wk =   0.0078125
        k(   82) = (   0.1250000  -0.3608440  -0.0774545), wk =   0.0078125
        k(   83) = (   0.1250000  -0.2165064  -0.0000000), wk =   0.0078125
        k(   84) = (   0.1250000  -0.2165064   0.0774544), wk =   0.0078125
        k(   85) = (   0.1250000  -0.2165064   0.1549088), wk =   0.0078125
        k(   86) = (   0.1250000  -0.2165064   0.2323632), wk =   0.0078125
        k(   87) = (   0.1250000  -0.2165064  -0.3098177), wk =   0.0078125
        k(   88) = (   0.1250000  -0.2165064  -0.2323633), wk =   0.0078125
        k(   89) = (   0.1250000  -0.2165064  -0.1549088), wk =   0.0078125
        k(   90) = (   0.1250000  -0.2165064  -0.0774544), wk =   0.0078125
        k(   91) = (   0.1250000  -0.0721688   0.0000000), wk =   0.0078125
        k(   92) = (   0.1250000  -0.0721688   0.0774544), wk =   0.0078125
        k(   93) = (   0.1250000  -0.0721688   0.1549088), wk =   0.0078125
        k(   94) = (   0.1250000  -0.0721688   0.2323632), wk =   0.0078125
        k(   95) = (   0.1250000  -0.0721688  -0.3098176), wk =   0.0078125
        k(   96) = (   0.1250000  -0.0721688  -0.2323632), wk =   0.0078125
        k(   97) = (   0.1250000  -0.0721688  -0.1549088), wk =   0.0078125
        k(   98) = (   0.1250000  -0.0721688  -0.0774544), wk =   0.0078125
        k(   99) = (   0.2500000   0.1443376   0.0000000), wk =   0.0078125
        k(  100) = (   0.2500000   0.1443376   0.0774545), wk =   0.0078125
        k(  101) = (   0.2500000   0.1443376   0.1549089), wk =   0.0078125
        k(  102) = (   0.2500000   0.1443376   0.2323633), wk =   0.0078125
        k(  103) = (   0.2500000   0.1443376  -0.3098176), wk =   0.0078125
        k(  104) = (   0.2500000   0.1443376  -0.2323632), wk =   0.0078125
        k(  105) = (   0.2500000   0.1443376  -0.1549088), wk =   0.0078125
        k(  106) = (   0.2500000   0.1443376  -0.0774544), wk =   0.0078125
        k(  107) = (   0.2500000   0.2886752   0.0000001), wk =   0.0078125
        k(  108) = (   0.2500000   0.2886752   0.0774545), wk =   0.0078125
        k(  109) = (   0.2500000   0.2886752   0.1549089), wk =   0.0078125
        k(  110) = (   0.2500000   0.2886752   0.2323633), wk =   0.0078125
        k(  111) = (   0.2500000   0.2886751  -0.3098176), wk =   0.0078125
        k(  112) = (   0.2500000   0.2886752  -0.2323632), wk =   0.0078125
        k(  113) = (   0.2500000   0.2886752  -0.1549088), wk =   0.0078125
        k(  114) = (   0.2500000   0.2886752  -0.0774543), wk =   0.0078125
        k(  115) = (   0.2500000   0.4330128   0.0000001), wk =   0.0078125
        k(  116) = (   0.2500000   0.4330128   0.0774545), wk =   0.0078125
        k(  117) = (   0.2500000   0.4330128   0.1549089), wk =   0.0078125
        k(  118) = (   0.2500000   0.4330128   0.2323633), wk =   0.0078125
        k(  119) = (   0.2500000   0.4330127  -0.3098176), wk =   0.0078125
        k(  120) = (   0.2500000   0.4330127  -0.2323631), wk =   0.0078125
        k(  121) = (   0.2500000   0.4330128  -0.1549087), wk =   0.0078125
        k(  122) = (   0.2500000   0.4330128  -0.0774543), wk =   0.0078125
        k(  123) = (   0.2500000   0.5773504   0.0000001), wk =   0.0078125
        k(  124) = (   0.2500000   0.5773504   0.0774545), wk =   0.0078125
        k(  125) = (   0.2500000   0.5773504   0.1549089), wk =   0.0078125
        k(  126) = (   0.2500000   0.5773504   0.2323633), wk =   0.0078125
        k(  127) = (   0.2500000   0.5773503  -0.3098175), wk =   0.0078125
        k(  128) = (   0.2500000   0.5773503  -0.2323631), wk =   0.0078125
        k(  129) = (   0.2500000   0.5773504  -0.1549087), wk =   0.0078125
        k(  130) = (   0.2500000   0.5773504  -0.0774543), wk =   0.0078125
        k(  131) = (   0.2500000  -0.4330128  -0.0000000), wk =   0.0078125
        k(  132) = (   0.2500000  -0.4330128   0.0774544), wk =   0.0078125
        k(  133) = (   0.2500000  -0.4330128   0.1549088), wk =   0.0078125
        k(  134) = (   0.2500000  -0.4330127   0.2323632), wk =   0.0078125
        k(  135) = (   0.2500000  -0.4330128  -0.3098177), wk =   0.0078125
        k(  136) = (   0.2500000  -0.4330128  -0.2323633), wk =   0.0078125
        k(  137) = (   0.2500000  -0.4330128  -0.1549089), wk =   0.0078125
        k(  138) = (   0.2500000  -0.4330128  -0.0774545), wk =   0.0078125
        k(  139) = (   0.2500000  -0.2886752  -0.0000000), wk =   0.0078125
        k(  140) = (   0.2500000  -0.2886752   0.0774544), wk =   0.0078125
        k(  141) = (   0.2500000  -0.2886752   0.1549088), wk =   0.0078125
        k(  142) = (   0.2500000  -0.2886751   0.2323632), wk =   0.0078125
        k(  143) = (   0.2500000  -0.2886752  -0.3098177), wk =   0.0078125
        k(  144) = (   0.2500000  -0.2886752  -0.2323633), wk =   0.0078125
        k(  145) = (   0.2500000  -0.2886752  -0.1549088), wk =   0.0078125
        k(  146) = (   0.2500000  -0.2886752  -0.0774544), wk =   0.0078125
        k(  147) = (   0.2500000  -0.1443376   0.0000000), wk =   0.0078125
        k(  148) = (   0.2500000  -0.1443376   0.0774544), wk =   0.0078125
        k(  149) = (   0.2500000  -0.1443376   0.1549088), wk =   0.0078125
        k(  150) = (   0.2500000  -0.1443376   0.2323632), wk =   0.0078125
        k(  151) = (   0.2500000  -0.1443376  -0.3098176), wk =   0.0078125
        k(  152) = (   0.2500000  -0.1443376  -0.2323632), wk =   0.0078125
        k(  153) = (   0.2500000  -0.1443376  -0.1549088), wk =   0.0078125
        k(  154) = (   0.2500000  -0.1443376  -0.0774544), wk =   0.0078125
        k(  155) = (   0.2500000   0.0000000   0.0000000), wk =   0.0078125
        k(  156) = (   0.2500000   0.0000000   0.0774544), wk =   0.0078125
        k(  157) = (   0.2500000   0.0000000   0.1549088), wk =   0.0078125
        k(  158) = (   0.2500000   0.0000000   0.2323633), wk =   0.0078125
        k(  159) = (   0.2500000  -0.0000000  -0.3098176), wk =   0.0078125
        k(  160) = (   0.2500000  -0.0000000  -0.2323632), wk =   0.0078125
        k(  161) = (   0.2500000  -0.0000000  -0.1549088), wk =   0.0078125
        k(  162) = (   0.2500000  -0.0000000  -0.0774544), wk =   0.0078125
        k(  163) = (   0.3750000   0.2165064   0.0000001), wk =   0.0078125
        k(  164) = (   0.3750000   0.2165064   0.0774545), wk =   0.0078125
        k(  165) = (   0.3750000   0.2165064   0.1549089), wk =   0.0078125
        k(  166) = (   0.3750000   0.2165064   0.2323633), wk =   0.0078125
        k(  167) = (   0.3750000   0.2165063  -0.3098176), wk =   0.0078125
        k(  168) = (   0.3750000   0.2165064  -0.2323632), wk =   0.0078125
        k(  169) = (   0.3750000   0.2165064  -0.1549088), wk =   0.0078125
        k(  170) = (   0.3750000   0.2165064  -0.0774543), wk =   0.0078125
        k(  171) = (   0.3750000   0.3608440   0.0000001), wk =   0.0078125
        k(  172) = (   0.3750000   0.3608440   0.0774545), wk =   0.0078125
        k(  173) = (   0.3750000   0.3608440   0.1549089), wk =   0.0078125
        k(  174) = (   0.3750000   0.3608440   0.2323633), wk =   0.0078125
        k(  175) = (   0.3750000   0.3608439  -0.3098176), wk =   0.0078125
        k(  176) = (   0.3750000   0.3608440  -0.2323631), wk =   0.0078125
        k(  177) = (   0.3750000   0.3608440  -0.1549087), wk =   0.0078125
        k(  178) = (   0.3750000   0.3608440  -0.0774543), wk =   0.0078125
        k(  179) = (   0.3750000   0.5051816   0.0000001), wk =   0.0078125
        k(  180) = (   0.3750000   0.5051816   0.0774545), wk =   0.0078125
        k(  181) = (   0.3750000   0.5051816   0.1549089), wk =   0.0078125
        k(  182) = (   0.3750000   0.5051816   0.2323633), wk =   0.0078125
        k(  183) = (   0.3750000   0.5051815  -0.3098175), wk =   0.0078125
        k(  184) = (   0.3750000   0.5051815  -0.2323631), wk =   0.0078125
        k(  185) = (   0.3750000   0.5051816  -0.1549087), wk =   0.0078125
        k(  186) = (   0.3750000   0.5051816  -0.0774543), wk =   0.0078125
        k(  187) = (   0.3750000   0.6495192   0.0000001), wk =   0.0078125
        k(  188) = (   0.3750000   0.6495192   0.0774545), wk =   0.0078125
        k(  189) = (   0.3750000   0.6495192   0.1549090), wk =   0.0078125
        k(  190) = (   0.3750000   0.6495192   0.2323634), wk =   0.0078125
        k(  191) = (   0.3750000   0.6495191  -0.3098175), wk =   0.0078125
        k(  192) = (   0.3750000   0.6495191  -0.2323631), wk =   0.0078125
        k(  193) = (   0.3750000   0.6495192  -0.1549087), wk =   0.0078125
        k(  194) = (   0.3750000   0.6495192  -0.0774543), wk =   0.0078125
        k(  195) = (   0.3750000  -0.3608440  -0.0000000), wk =   0.0078125
        k(  196) = (   0.3750000  -0.3608440   0.0774544), wk =   0.0078125
        k(  197) = (   0.3750000  -0.3608440   0.1549088), wk =   0.0078125
        k(  198) = (   0.3750000  -0.3608439   0.2323632), wk =   0.0078125
        k(  199) = (   0.3750000  -0.3608440  -0.3098177), wk =   0.0078125
        k(  200) = (   0.3750000  -0.3608440  -0.2323632), wk =   0.0078125
        k(  201) = (   0.3750000  -0.3608440  -0.1549088), wk =   0.0078125
        k(  202) = (   0.3750000  -0.3608440  -0.0774544), wk =   0.0078125
        k(  203) = (   0.3750000  -0.2165064   0.0000000), wk =   0.0078125
        k(  204) = (   0.3750000  -0.2165064   0.0774544), wk =   0.0078125
        k(  205) = (   0.3750000  -0.2165064   0.1549088), wk =   0.0078125
        k(  206) = (   0.3750000  -0.2165063   0.2323632), wk =   0.0078125
        k(  207) = (   0.3750000  -0.2165064  -0.3098176), wk =   0.0078125
        k(  208) = (   0.3750000  -0.2165064  -0.2323632), wk =   0.0078125
        k(  209) = (   0.3750000  -0.2165064  -0.1549088), wk =   0.0078125
        k(  210) = (   0.3750000  -0.2165064  -0.0774544), wk =   0.0078125
        k(  211) = (   0.3750000  -0.0721688   0.0000000), wk =   0.0078125
        k(  212) = (   0.3750000  -0.0721688   0.0774544), wk =   0.0078125
        k(  213) = (   0.3750000  -0.0721688   0.1549088), wk =   0.0078125
        k(  214) = (   0.3750000  -0.0721688   0.2323633), wk =   0.0078125
        k(  215) = (   0.3750000  -0.0721688  -0.3098176), wk =   0.0078125
        k(  216) = (   0.3750000  -0.0721688  -0.2323632), wk =   0.0078125
        k(  217) = (   0.3750000  -0.0721688  -0.1549088), wk =   0.0078125
        k(  218) = (   0.3750000  -0.0721688  -0.0774544), wk =   0.0078125
        k(  219) = (   0.3750000   0.0721688   0.0000000), wk =   0.0078125
        k(  220) = (   0.3750000   0.0721688   0.0774545), wk =   0.0078125
        k(  221) = (   0.3750000   0.0721688   0.1549089), wk =   0.0078125
        k(  222) = (   0.3750000   0.0721688   0.2323633), wk =   0.0078125
        k(  223) = (   0.3750000   0.0721688  -0.3098176), wk =   0.0078125
        k(  224) = (   0.3750000   0.0721688  -0.2323632), wk =   0.0078125
        k(  225) = (   0.3750000   0.0721688  -0.1549088), wk =   0.0078125
        k(  226) = (   0.3750000   0.0721688  -0.0774544), wk =   0.0078125
        k(  227) = (  -0.5000000  -0.2886752  -0.0000001), wk =   0.0039062
        k(  228) = (  -0.5000000  -0.2886752   0.0774543), wk =   0.0078125
        k(  229) = (  -0.5000000  -0.2886752   0.1549087), wk =   0.0078125
        k(  230) = (  -0.5000000  -0.2886752   0.2323631), wk =   0.0078125
        k(  231) = (  -0.5000000  -0.2886752  -0.3098177), wk =   0.0039062
        k(  232) = (  -0.5000000  -0.1443376  -0.0000001), wk =   0.0078125
        k(  233) = (  -0.5000000  -0.1443376   0.0774543), wk =   0.0078125
        k(  234) = (  -0.5000000  -0.1443376   0.1549088), wk =   0.0078125
        k(  235) = (  -0.5000000  -0.1443376   0.2323632), wk =   0.0078125
        k(  236) = (  -0.5000000  -0.1443376  -0.3098177), wk =   0.0078125
        k(  237) = (  -0.5000000  -0.1443376  -0.2323633), wk =   0.0078125
        k(  238) = (  -0.5000000  -0.1443376  -0.1549089), wk =   0.0078125
        k(  239) = (  -0.5000000  -0.1443376  -0.0774545), wk =   0.0078125
        k(  240) = (  -0.5000000  -0.0000000  -0.0000000), wk =   0.0078125
        k(  241) = (  -0.5000000   0.0000000   0.0774544), wk =   0.0078125
        k(  242) = (  -0.5000000   0.0000000   0.1549088), wk =   0.0078125
        k(  243) = (  -0.5000000   0.0000000   0.2323632), wk =   0.0078125
        k(  244) = (  -0.5000000  -0.0000001  -0.3098177), wk =   0.0078125
        k(  245) = (  -0.5000000  -0.0000000  -0.2323633), wk =   0.0078125
        k(  246) = (  -0.5000000  -0.0000000  -0.1549089), wk =   0.0078125
        k(  247) = (  -0.5000000  -0.0000000  -0.0774545), wk =   0.0078125
        k(  248) = (  -0.5000000   0.1443376  -0.0000000), wk =   0.0078125
        k(  249) = (  -0.5000000   0.1443376   0.0774544), wk =   0.0078125
        k(  250) = (  -0.5000000   0.1443376   0.1549088), wk =   0.0078125
        k(  251) = (  -0.5000000   0.1443376   0.2323632), wk =   0.0078125
        k(  252) = (  -0.5000000   0.1443375  -0.3098177), wk =   0.0078125
        k(  253) = (  -0.5000000   0.1443375  -0.2323633), wk =   0.0078125
        k(  254) = (  -0.5000000   0.1443376  -0.1549089), wk =   0.0078125
        k(  255) = (  -0.5000000   0.1443376  -0.0774544), wk =   0.0078125
        k(  256) = (  -0.5000000  -0.8660256  -0.0000002), wk =   0.0039062
        k(  257) = (  -0.5000000  -0.8660256   0.0774542), wk =   0.0078125
        k(  258) = (  -0.5000000  -0.8660255   0.1549086), wk =   0.0078125
        k(  259) = (  -0.5000000  -0.8660255   0.2323631), wk =   0.0078125
        k(  260) = (  -0.5000000  -0.8660256  -0.3098178), wk =   0.0039062

                       cryst. coord.
        k(    1) = (   0.0000000   0.0000000   0.0000000), wk =   0.0039062
        k(    2) = (  -0.0000000  -0.0000000   0.1250000), wk =   0.0078125
        k(    3) = (  -0.0000000  -0.0000000   0.2500000), wk =   0.0078125
        k(    4) = (  -0.0000000  -0.0000000   0.3750000), wk =   0.0078125
        k(    5) = (   0.0000000   0.0000000  -0.5000000), wk =   0.0039062
        k(    6) = (  -0.0000000   0.1250000   0.0000000), wk =   0.0078125
        k(    7) = (   0.0000000   0.1250000   0.1250000), wk =   0.0078125
        k(    8) = (   0.0000000   0.1250000   0.2500000), wk =   0.0078125
        k(    9) = (   0.0000000   0.1250000   0.3750000), wk =   0.0078125
        k(   10) = (  -0.0000000   0.1250000  -0.5000000), wk =   0.0078125
        k(   11) = (  -0.0000000   0.1250000  -0.3750000), wk =   0.0078125
        k(   12) = (   0.0000000   0.1250000  -0.2500000), wk =   0.0078125
        k(   13) = (  -0.0000000   0.1250000  -0.1250000), wk =   0.0078125
        k(   14) = (  -0.0000000   0.2500000   0.0000000), wk =   0.0078125
        k(   15) = (   0.0000000   0.2500000   0.1250000), wk =   0.0078125
        k(   16) = (   0.0000000   0.2500000   0.2500000), wk =   0.0078125
        k(   17) = (   0.0000000   0.2500000   0.3750000), wk =   0.0078125
        k(   18) = (   0.0000000   0.2500000  -0.5000000), wk =   0.0078125
        k(   19) = (  -0.0000000   0.2500000  -0.3750000), wk =   0.0078125
        k(   20) = (  -0.0000000   0.2500000  -0.2500000), wk =   0.0078125
        k(   21) = (  -0.0000000   0.2500000  -0.1250000), wk =   0.0078125
        k(   22) = (   0.0000000   0.3750000  -0.0000000), wk =   0.0078125
        k(   23) = (  -0.0000000   0.3750000   0.1250000), wk =   0.0078125
        k(   24) = (   0.0000000   0.3750000   0.2500000), wk =   0.0078125
        k(   25) = (   0.0000000   0.3750000   0.3750000), wk =   0.0078125
        k(   26) = (  -0.0000000   0.3750000  -0.5000000), wk =   0.0078125
        k(   27) = (   0.0000000   0.3750000  -0.3750000), wk =   0.0078125
        k(   28) = (   0.0000000   0.3750000  -0.2500000), wk =   0.0078125
        k(   29) = (   0.0000000   0.3750000  -0.1250000), wk =   0.0078125
        k(   30) = (   0.0000000  -0.5000000  -0.0000000), wk =   0.0039062
        k(   31) = (  -0.0000000  -0.5000000   0.1250000), wk =   0.0078125
        k(   32) = (   0.0000000  -0.5000000   0.2500000), wk =   0.0078125
        k(   33) = (  -0.0000000  -0.5000000   0.3750000), wk =   0.0078125
        k(   34) = (  -0.0000000  -0.5000000  -0.5000000), wk =   0.0039062
        k(   35) = (   0.1250000  -0.0000000  -0.0000000), wk =   0.0078125
        k(   36) = (   0.1250000  -0.0000000   0.1250000), wk =   0.0078125
        k(   37) = (   0.1250000   0.0000000   0.2500000), wk =   0.0078125
        k(   38) = (   0.1250000  -0.0000000   0.3750000), wk =   0.0078125
        k(   39) = (   0.1250000  -0.0000000  -0.5000000), wk =   0.0078125
        k(   40) = (   0.1250000   0.0000000  -0.3750000), wk =   0.0078125
        k(   41) = (   0.1250000  -0.0000000  -0.2500000), wk =   0.0078125
        k(   42) = (   0.1250000  -0.0000000  -0.1250000), wk =   0.0078125
        k(   43) = (   0.1250000   0.1250000  -0.0000000), wk =   0.0078125
        k(   44) = (   0.1250000   0.1250000   0.1250000), wk =   0.0078125
        k(   45) = (   0.1250000   0.1250000   0.2500000), wk =   0.0078125
        k(   46) = (   0.1250000   0.1250000   0.3750000), wk =   0.0078125
        k(   47) = (   0.1250000   0.1250000  -0.5000000), wk =   0.0078125
        k(   48) = (   0.1250000   0.1250000  -0.3750000), wk =   0.0078125
        k(   49) = (   0.1250000   0.1250000  -0.2500000), wk =   0.0078125
        k(   50) = (   0.1250000   0.1250000  -0.1250000), wk =   0.0078125
        k(   51) = (   0.1250000   0.2500000   0.0000000), wk =   0.0078125
        k(   52) = (   0.1250000   0.2500000   0.1250000), wk =   0.0078125
        k(   53) = (   0.1250000   0.2500000   0.2500000), wk =   0.0078125
        k(   54) = (   0.1250000   0.2500000   0.3750000), wk =   0.0078125
        k(   55) = (   0.1250000   0.2500000  -0.5000000), wk =   0.0078125
        k(   56) = (   0.1250000   0.2500000  -0.3750000), wk =   0.0078125
        k(   57) = (   0.1250000   0.2500000  -0.2500000), wk =   0.0078125
        k(   58) = (   0.1250000   0.2500000  -0.1250000), wk =   0.0078125
        k(   59) = (   0.1250000   0.3750000  -0.0000000), wk =   0.0078125
        k(   60) = (   0.1250000   0.3750000   0.1250000), wk =   0.0078125
        k(   61) = (   0.1250000   0.3750000   0.2500000), wk =   0.0078125
        k(   62) = (   0.1250000   0.3750000   0.3750000), wk =   0.0078125
        k(   63) = (   0.1250000   0.3750000  -0.5000000), wk =   0.0078125
        k(   64) = (   0.1250000   0.3750000  -0.3750000), wk =   0.0078125
        k(   65) = (   0.1250000   0.3750000  -0.2500000), wk =   0.0078125
        k(   66) = (   0.1250000   0.3750000  -0.1250000), wk =   0.0078125
        k(   67) = (   0.1250000  -0.5000000  -0.0000000), wk =   0.0078125
        k(   68) = (   0.1250000  -0.5000000   0.1250000), wk =   0.0078125
        k(   69) = (   0.1250000  -0.5000000   0.2500000), wk =   0.0078125
        k(   70) = (   0.1250000  -0.5000000   0.3750000), wk =   0.0078125
        k(   71) = (   0.1250000  -0.5000000  -0.5000000), wk =   0.0078125
        k(   72) = (   0.1250000  -0.5000000  -0.3750000), wk =   0.0078125
        k(   73) = (   0.1250000  -0.5000000  -0.2500000), wk =   0.0078125
        k(   74) = (   0.1250000  -0.5000000  -0.1250000), wk =   0.0078125
        k(   75) = (   0.1250000  -0.3750000   0.0000000), wk =   0.0078125
        k(   76) = (   0.1250000  -0.3750000   0.1250000), wk =   0.0078125
        k(   77) = (   0.1250000  -0.3750000   0.2500000), wk =   0.0078125
        k(   78) = (   0.1250000  -0.3750000   0.3750000), wk =   0.0078125
        k(   79) = (   0.1250000  -0.3750000  -0.5000000), wk =   0.0078125
        k(   80) = (   0.1250000  -0.3750000  -0.3750000), wk =   0.0078125
        k(   81) = (   0.1250000  -0.3750000  -0.2500000), wk =   0.0078125
        k(   82) = (   0.1250000  -0.3750000  -0.1250000), wk =   0.0078125
        k(   83) = (   0.1250000  -0.2500000  -0.0000000), wk =   0.0078125
        k(   84) = (   0.1250000  -0.2500000   0.1250000), wk =   0.0078125
        k(   85) = (   0.1250000  -0.2500000   0.2500000), wk =   0.0078125
        k(   86) = (   0.1250000  -0.2500000   0.3750000), wk =   0.0078125
        k(   87) = (   0.1250000  -0.2500000  -0.5000000), wk =   0.0078125
        k(   88) = (   0.1250000  -0.2500000  -0.3750000), wk =   0.0078125
        k(   89) = (   0.1250000  -0.2500000  -0.2500000), wk =   0.0078125
        k(   90) = (   0.1250000  -0.2500000  -0.1250000), wk =   0.0078125
        k(   91) = (   0.1250000  -0.1250000  -0.0000000), wk =   0.0078125
        k(   92) = (   0.1250000  -0.1250000   0.1250000), wk =   0.0078125
        k(   93) = (   0.1250000  -0.1250000   0.2500000), wk =   0.0078125
        k(   94) = (   0.1250000  -0.1250000   0.3750000), wk =   0.0078125
        k(   95) = (   0.1250000  -0.1250000  -0.5000000), wk =   0.0078125
        k(   96) = (   0.1250000  -0.1250000  -0.3750000), wk =   0.0078125
        k(   97) = (   0.1250000  -0.1250000  -0.2500000), wk =   0.0078125
        k(   98) = (   0.1250000  -0.1250000  -0.1250000), wk =   0.0078125
        k(   99) = (   0.2500000  -0.0000000  -0.0000000), wk =   0.0078125
        k(  100) = (   0.2500000  -0.0000000   0.1250000), wk =   0.0078125
        k(  101) = (   0.2500000  -0.0000000   0.2500000), wk =   0.0078125
        k(  102) = (   0.2500000   0.0000000   0.3750000), wk =   0.0078125
        k(  103) = (   0.2500000  -0.0000000  -0.5000000), wk =   0.0078125
        k(  104) = (   0.2500000  -0.0000000  -0.3750000), wk =   0.0078125
        k(  105) = (   0.2500000  -0.0000000  -0.2500000), wk =   0.0078125
        k(  106) = (   0.2500000   0.0000000  -0.1250000), wk =   0.0078125
        k(  107) = (   0.2500000   0.1250000  -0.0000000), wk =   0.0078125
        k(  108) = (   0.2500000   0.1250000   0.1250000), wk =   0.0078125
        k(  109) = (   0.2500000   0.1250000   0.2500000), wk =   0.0078125
        k(  110) = (   0.2500000   0.1250000   0.3750000), wk =   0.0078125
        k(  111) = (   0.2500000   0.1250000  -0.5000000), wk =   0.0078125
        k(  112) = (   0.2500000   0.1250000  -0.3750000), wk =   0.0078125
        k(  113) = (   0.2500000   0.1250000  -0.2500000), wk =   0.0078125
        k(  114) = (   0.2500000   0.1250000  -0.1250000), wk =   0.0078125
        k(  115) = (   0.2500000   0.2500000  -0.0000000), wk =   0.0078125
        k(  116) = (   0.2500000   0.2500000   0.1250000), wk =   0.0078125
        k(  117) = (   0.2500000   0.2500000   0.2500000), wk =   0.0078125
        k(  118) = (   0.2500000   0.2500000   0.3750000), wk =   0.0078125
        k(  119) = (   0.2500000   0.2500000  -0.5000000), wk =   0.0078125
        k(  120) = (   0.2500000   0.2500000  -0.3750000), wk =   0.0078125
        k(  121) = (   0.2500000   0.2500000  -0.2500000), wk =   0.0078125
        k(  122) = (   0.2500000   0.2500000  -0.1250000), wk =   0.0078125
        k(  123) = (   0.2500000   0.3750000  -0.0000000), wk =   0.0078125
        k(  124) = (   0.2500000   0.3750000   0.1250000), wk =   0.0078125
        k(  125) = (   0.2500000   0.3750000   0.2500000), wk =   0.0078125
        k(  126) = (   0.2500000   0.3750000   0.3750000), wk =   0.0078125
        k(  127) = (   0.2500000   0.3750000  -0.5000000), wk =   0.0078125
        k(  128) = (   0.2500000   0.3750000  -0.3750000), wk =   0.0078125
        k(  129) = (   0.2500000   0.3750000  -0.2500000), wk =   0.0078125
        k(  130) = (   0.2500000   0.3750000  -0.1250000), wk =   0.0078125
        k(  131) = (   0.2500000  -0.5000000  -0.0000000), wk =   0.0078125
        k(  132) = (   0.2500000  -0.5000000   0.1250000), wk =   0.0078125
        k(  133) = (   0.2500000  -0.5000000   0.2500000), wk =   0.0078125
        k(  134) = (   0.2500000  -0.5000000   0.3750000), wk =   0.0078125
        k(  135) = (   0.2500000  -0.5000000  -0.5000000), wk =   0.0078125
        k(  136) = (   0.2500000  -0.5000000  -0.3750000), wk =   0.0078125
        k(  137) = (   0.2500000  -0.5000000  -0.2500000), wk =   0.0078125
        k(  138) = (   0.2500000  -0.5000000  -0.1250000), wk =   0.0078125
        k(  139) = (   0.2500000  -0.3750000  -0.0000000), wk =   0.0078125
        k(  140) = (   0.2500000  -0.3750000   0.1250000), wk =   0.0078125
        k(  141) = (   0.2500000  -0.3750000   0.2500000), wk =   0.0078125
        k(  142) = (   0.2500000  -0.3750000   0.3750000), wk =   0.0078125
        k(  143) = (   0.2500000  -0.3750000  -0.5000000), wk =   0.0078125
        k(  144) = (   0.2500000  -0.3750000  -0.3750000), wk =   0.0078125
        k(  145) = (   0.2500000  -0.3750000  -0.2500000), wk =   0.0078125
        k(  146) = (   0.2500000  -0.3750000  -0.1250000), wk =   0.0078125
        k(  147) = (   0.2500000  -0.2500000  -0.0000000), wk =   0.0078125
        k(  148) = (   0.2500000  -0.2500000   0.1250000), wk =   0.0078125
        k(  149) = (   0.2500000  -0.2500000   0.2500000), wk =   0.0078125
        k(  150) = (   0.2500000  -0.2500000   0.3750000), wk =   0.0078125
        k(  151) = (   0.2500000  -0.2500000  -0.5000000), wk =   0.0078125
        k(  152) = (   0.2500000  -0.2500000  -0.3750000), wk =   0.0078125
        k(  153) = (   0.2500000  -0.2500000  -0.2500000), wk =   0.0078125
        k(  154) = (   0.2500000  -0.2500000  -0.1250000), wk =   0.0078125
        k(  155) = (   0.2500000  -0.1250000  -0.0000000), wk =   0.0078125
        k(  156) = (   0.2500000  -0.1250000   0.1250000), wk =   0.0078125
        k(  157) = (   0.2500000  -0.1250000   0.2500000), wk =   0.0078125
        k(  158) = (   0.2500000  -0.1250000   0.3750000), wk =   0.0078125
        k(  159) = (   0.2500000  -0.1250000  -0.5000000), wk =   0.0078125
        k(  160) = (   0.2500000  -0.1250000  -0.3750000), wk =   0.0078125
        k(  161) = (   0.2500000  -0.1250000  -0.2500000), wk =   0.0078125
        k(  162) = (   0.2500000  -0.1250000  -0.1250000), wk =   0.0078125
        k(  163) = (   0.3750000  -0.0000000  -0.0000000), wk =   0.0078125
        k(  164) = (   0.3750000  -0.0000000   0.1250000), wk =   0.0078125
        k(  165) = (   0.3750000  -0.0000000   0.2500000), wk =   0.0078125
        k(  166) = (   0.3750000   0.0000000   0.3750000), wk =   0.0078125
        k(  167) = (   0.3750000   0.0000000  -0.5000000), wk =   0.0078125
        k(  168) = (   0.3750000   0.0000000  -0.3750000), wk =   0.0078125
        k(  169) = (   0.3750000   0.0000000  -0.2500000), wk =   0.0078125
        k(  170) = (   0.3750000  -0.0000000  -0.1250000), wk =   0.0078125
        k(  171) = (   0.3750000   0.1250000  -0.0000000), wk =   0.0078125
        k(  172) = (   0.3750000   0.1250000   0.1250000), wk =   0.0078125
        k(  173) = (   0.3750000   0.1250000   0.2500000), wk =   0.0078125
        k(  174) = (   0.3750000   0.1250000   0.3750000), wk =   0.0078125
        k(  175) = (   0.3750000   0.1250000  -0.5000000), wk =   0.0078125
        k(  176) = (   0.3750000   0.1250000  -0.3750000), wk =   0.0078125
        k(  177) = (   0.3750000   0.1250000  -0.2500000), wk =   0.0078125
        k(  178) = (   0.3750000   0.1250000  -0.1250000), wk =   0.0078125
        k(  179) = (   0.3750000   0.2500000  -0.0000000), wk =   0.0078125
        k(  180) = (   0.3750000   0.2500000   0.1250000), wk =   0.0078125
        k(  181) = (   0.3750000   0.2500000   0.2500000), wk =   0.0078125
        k(  182) = (   0.3750000   0.2500000   0.3750000), wk =   0.0078125
        k(  183) = (   0.3750000   0.2500000  -0.5000000), wk =   0.0078125
        k(  184) = (   0.3750000   0.2500000  -0.3750000), wk =   0.0078125
        k(  185) = (   0.3750000   0.2500000  -0.2500000), wk =   0.0078125
        k(  186) = (   0.3750000   0.2500000  -0.1250000), wk =   0.0078125
        k(  187) = (   0.3750000   0.3750000  -0.0000000), wk =   0.0078125
        k(  188) = (   0.3750000   0.3750000   0.1250000), wk =   0.0078125
        k(  189) = (   0.3750000   0.3750000   0.2500000), wk =   0.0078125
        k(  190) = (   0.3750000   0.3750000   0.3750000), wk =   0.0078125
        k(  191) = (   0.3750000   0.3750000  -0.5000000), wk =   0.0078125
        k(  192) = (   0.3750000   0.3750000  -0.3750000), wk =   0.0078125
        k(  193) = (   0.3750000   0.3750000  -0.2500000), wk =   0.0078125
        k(  194) = (   0.3750000   0.3750000  -0.1250000), wk =   0.0078125
        k(  195) = (   0.3750000  -0.5000000  -0.0000000), wk =   0.0078125
        k(  196) = (   0.3750000  -0.5000000   0.1250000), wk =   0.0078125
        k(  197) = (   0.3750000  -0.5000000   0.2500000), wk =   0.0078125
        k(  198) = (   0.3750000  -0.5000000   0.3750000), wk =   0.0078125
        k(  199) = (   0.3750000  -0.5000000  -0.5000000), wk =   0.0078125
        k(  200) = (   0.3750000  -0.5000000  -0.3750000), wk =   0.0078125
        k(  201) = (   0.3750000  -0.5000000  -0.2500000), wk =   0.0078125
        k(  202) = (   0.3750000  -0.5000000  -0.1250000), wk =   0.0078125
        k(  203) = (   0.3750000  -0.3750000  -0.0000000), wk =   0.0078125
        k(  204) = (   0.3750000  -0.3750000   0.1250000), wk =   0.0078125
        k(  205) = (   0.3750000  -0.3750000   0.2500000), wk =   0.0078125
        k(  206) = (   0.3750000  -0.3750000   0.3750000), wk =   0.0078125
        k(  207) = (   0.3750000  -0.3750000  -0.5000000), wk =   0.0078125
        k(  208) = (   0.3750000  -0.3750000  -0.3750000), wk =   0.0078125
        k(  209) = (   0.3750000  -0.3750000  -0.2500000), wk =   0.0078125
        k(  210) = (   0.3750000  -0.3750000  -0.1250000), wk =   0.0078125
        k(  211) = (   0.3750000  -0.2500000  -0.0000000), wk =   0.0078125
        k(  212) = (   0.3750000  -0.2500000   0.1250000), wk =   0.0078125
        k(  213) = (   0.3750000  -0.2500000   0.2500000), wk =   0.0078125
        k(  214) = (   0.3750000  -0.2500000   0.3750000), wk =   0.0078125
        k(  215) = (   0.3750000  -0.2500000  -0.5000000), wk =   0.0078125
        k(  216) = (   0.3750000  -0.2500000  -0.3750000), wk =   0.0078125
        k(  217) = (   0.3750000  -0.2500000  -0.2500000), wk =   0.0078125
        k(  218) = (   0.3750000  -0.2500000  -0.1250000), wk =   0.0078125
        k(  219) = (   0.3750000  -0.1250000  -0.0000000), wk =   0.0078125
        k(  220) = (   0.3750000  -0.1250000   0.1250000), wk =   0.0078125
        k(  221) = (   0.3750000  -0.1250000   0.2500000), wk =   0.0078125
        k(  222) = (   0.3750000  -0.1250000   0.3750000), wk =   0.0078125
        k(  223) = (   0.3750000  -0.1250000  -0.5000000), wk =   0.0078125
        k(  224) = (   0.3750000  -0.1250000  -0.3750000), wk =   0.0078125
        k(  225) = (   0.3750000  -0.1250000  -0.2500000), wk =   0.0078125
        k(  226) = (   0.3750000  -0.1250000  -0.1250000), wk =   0.0078125
        k(  227) = (  -0.5000000   0.0000000   0.0000000), wk =   0.0039062
        k(  228) = (  -0.5000000  -0.0000000   0.1250000), wk =   0.0078125
        k(  229) = (  -0.5000000  -0.0000000   0.2500000), wk =   0.0078125
        k(  230) = (  -0.5000000   0.0000000   0.3750000), wk =   0.0078125
        k(  231) = (  -0.5000000   0.0000000  -0.5000000), wk =   0.0039062
        k(  232) = (  -0.5000000   0.1250000   0.0000000), wk =   0.0078125
        k(  233) = (  -0.5000000   0.1250000   0.1250000), wk =   0.0078125
        k(  234) = (  -0.5000000   0.1250000   0.2500000), wk =   0.0078125
        k(  235) = (  -0.5000000   0.1250000   0.3750000), wk =   0.0078125
        k(  236) = (  -0.5000000   0.1250000  -0.5000000), wk =   0.0078125
        k(  237) = (  -0.5000000   0.1250000  -0.3750000), wk =   0.0078125
        k(  238) = (  -0.5000000   0.1250000  -0.2500000), wk =   0.0078125
        k(  239) = (  -0.5000000   0.1250000  -0.1250000), wk =   0.0078125
        k(  240) = (  -0.5000000   0.2500000   0.0000000), wk =   0.0078125
        k(  241) = (  -0.5000000   0.2500000   0.1250000), wk =   0.0078125
        k(  242) = (  -0.5000000   0.2500000   0.2500000), wk =   0.0078125
        k(  243) = (  -0.5000000   0.2500000   0.3750000), wk =   0.0078125
        k(  244) = (  -0.5000000   0.2500000  -0.5000000), wk =   0.0078125
        k(  245) = (  -0.5000000   0.2500000  -0.3750000), wk =   0.0078125
        k(  246) = (  -0.5000000   0.2500000  -0.2500000), wk =   0.0078125
        k(  247) = (  -0.5000000   0.2500000  -0.1250000), wk =   0.0078125
        k(  248) = (  -0.5000000   0.3750000   0.0000000), wk =   0.0078125
        k(  249) = (  -0.5000000   0.3750000   0.1250000), wk =   0.0078125
        k(  250) = (  -0.5000000   0.3750000   0.2500000), wk =   0.0078125
        k(  251) = (  -0.5000000   0.3750000   0.3750000), wk =   0.0078125
        k(  252) = (  -0.5000000   0.3750000  -0.5000000), wk =   0.0078125
        k(  253) = (  -0.5000000   0.3750000  -0.3750000), wk =   0.0078125
        k(  254) = (  -0.5000000   0.3750000  -0.2500000), wk =   0.0078125
        k(  255) = (  -0.5000000   0.3750000  -0.1250000), wk =   0.0078125
        k(  256) = (  -0.5000000  -0.5000000   0.0000000), wk =   0.0039062
        k(  257) = (  -0.5000000  -0.5000000   0.1250000), wk =   0.0078125
        k(  258) = (  -0.5000000  -0.5000000   0.2500000), wk =   0.0078125
        k(  259) = (  -0.5000000  -0.5000000   0.3750000), wk =   0.0078125
        k(  260) = (  -0.5000000  -0.5000000  -0.5000000), wk =   0.0039062

     Dense  grid:    79067 G-vectors     FFT dimensions: (  48,  48,  80)

     Smooth grid:    30771 G-vectors     FFT dimensions: (  36,  36,  60)

     Dynamical RAM for                 wfc:       0.06 MB

     Dynamical RAM for     wfc (w. buffer):       3.87 MB

     Dynamical RAM for           str. fact:       0.15 MB

     Dynamical RAM for           local pot:       0.00 MB

     Dynamical RAM for          nlocal pot:       0.23 MB

     Dynamical RAM for                qrad:      10.19 MB

     Dynamical RAM for          rho,v,vnew:       0.49 MB

     Dynamical RAM for               rhoin:       0.16 MB

     Dynamical RAM for            rho*nmix:       1.21 MB

     Dynamical RAM for           G-vectors:       0.30 MB

     Dynamical RAM for          h,s,v(r/c):       0.05 MB

     Dynamical RAM for          <psi|beta>:       0.02 MB

     Dynamical RAM for                 psi:       0.23 MB

     Dynamical RAM for                hpsi:       0.23 MB

     Dynamical RAM for                spsi:       0.23 MB

     Dynamical RAM for      wfcinit/wfcrot:       0.14 MB

     Dynamical RAM for           addusdens:       3.95 MB

     Dynamical RAM for          addusforce:       4.10 MB

     Dynamical RAM for         addusstress:       4.17 MB

     Estimated static dynamical RAM per process >      17.27 MB

     Estimated max dynamical RAM per process >      21.44 MB

     Estimated total dynamical RAM >       1.34 GB

     Check: negative core charge=   -0.000003

     Initial potential from superposition of free atoms

     starting charge   31.39954, renormalised to   32.00000
     Starting wfcs are   18 randomized atomic wfcs

     total cpu time spent up to now is        1.5 secs

     Self-consistent Calculation

     iteration #  1     ecut=    80.00 Ry     beta= 0.50
     Davidson diagonalization with overlap
     ethr =  1.00E-02,  avg # of iterations =  2.0

     total cpu time spent up to now is        2.1 secs

     total energy              =    -314.88618490 Ry
     Harris-Foulkes estimate   =    -315.45880189 Ry
     estimated scf accuracy    <       0.90640039 Ry

     iteration #  2     ecut=    80.00 Ry     beta= 0.50
     Davidson diagonalization with overlap
     ethr =  2.83E-03,  avg # of iterations =  2.9

     total cpu time spent up to now is        2.9 secs

     total energy              =    -315.12921848 Ry
     Harris-Foulkes estimate   =    -315.24329813 Ry
     estimated scf accuracy    <       0.26338943 Ry

     iteration #  3     ecut=    80.00 Ry     beta= 0.50
     Davidson diagonalization with overlap
     ethr =  8.23E-04,  avg # of iterations =  2.0

     total cpu time spent up to now is        3.6 secs

     total energy              =    -315.17434863 Ry
     Harris-Foulkes estimate   =    -315.17720712 Ry
     estimated scf accuracy    <       0.00965865 Ry

     iteration #  4     ecut=    80.00 Ry     beta= 0.50
     Davidson diagonalization with overlap
     ethr =  3.02E-05,  avg # of iterations =  1.9

     total cpu time spent up to now is        4.3 secs

     total energy              =    -315.17495920 Ry
     Harris-Foulkes estimate   =    -315.17498402 Ry
     estimated scf accuracy    <       0.00050427 Ry

     iteration #  5     ecut=    80.00 Ry     beta= 0.50
     Davidson diagonalization with overlap
     ethr =  1.58E-06,  avg # of iterations =  2.0

     total cpu time spent up to now is        4.9 secs

     total energy              =    -315.17501499 Ry
     Harris-Foulkes estimate   =    -315.17501521 Ry
     estimated scf accuracy    <       0.00002067 Ry

     iteration #  6     ecut=    80.00 Ry     beta= 0.50
     Davidson diagonalization with overlap
     ethr =  6.46E-08,  avg # of iterations =  2.2

     total cpu time spent up to now is        5.6 secs

     End of self-consistent calculation

          k = 0.0000 0.0000 0.0000 (  3851 PWs)   bands (ev):

   -66.7470 -66.7434 -33.7545 -33.7229 -33.7229 -33.7161 -33.7161 -33.7070
   -11.4615 -10.7139   1.2320   4.1489   4.1489   4.3339   4.3707   4.3707

     occupation numbers 
     1.0000   1.0000   1.0000   1.0000   1.0000   1.0000   1.0000   1.0000
     1.0000   1.0000   1.0000   1.0000   1.0000   1.0000   1.0000   1.0000

          k = 0.0000 0.0000 0.0775 (  3880 PWs)   bands (ev):

   -66.7469 -66.7435 -33.7527 -33.7226 -33.7226 -33.7164 -33.7164 -33.7089
   -11.4350 -10.7445   1.3152   4.1263   4.1570   4.1570   4.3620   4.3620

     occupation numbers 
     1.0000   1.0000   1.0000   1.0000   1.0000   1.0000   1.0000   1.0000
     1.0000   1.0000   1.0000   1.0000   1.0000   1.0000   1.0000   1.0000

          k = 0.0000 0.0000 0.1549 (  3844 PWs)   bands (ev):

   -66.7465 -66.7439 -33.7476 -33.7219 -33.7219 -33.7171 -33.7171 -33.7140
   -11.3586 -10.8307   1.5591   3.6297   4.1804   4.1804   4.3372   4.3373

     occupation numbers 
     1.0000   1.0000   1.0000   1.0000   1.0000   1.0000   1.0000   1.0000
     1.0000   1.0000   1.0000   1.0000   1.0000   1.0000   1.0000   1.0000

          k = 0.0000 0.0000 0.2324 (  3826 PWs)   bands (ev):

   -66.7459 -66.7445 -33.7399 -33.7218 -33.7208 -33.7208 -33.7182 -33.7182
   -11.2423 -10.9568   1.9469   3.0334   4.2157   4.2157   4.3006   4.3006

     occupation numbers 
     1.0000   1.0000   1.0000   1.0000   1.0000   1.0000   1.0000   1.0000
     1.0000   1.0000   1.0000   1.0000   1.0000   1.0000   1.0000   1.0000

          k =-0.0000-0.0000-0.3098 (  3796 PWs)   bands (ev):

   -66.7452 -66.7452 -33.7309 -33.7308 -33.7195 -33.7195 -33.7195 -33.7195
   -11.1018 -11.1013   2.4514   2.4517   4.2576   4.2576   4.2581   4.2581

     occupation numbers 
     1.0000   1.0000   1.0000   1.0000   1.0000   1.0000   1.0000   1.0000
     1.0000   1.0000   1.0000   1.0000   1.0000   1.0000   1.0000   1.0000

          k = 0.0000 0.1443 0.0000 (  3869 PWs)   bands (ev):

   -66.7466 -66.7432 -33.7526 -33.7272 -33.7242 -33.7210 -33.7169 -33.7080
   -11.3752 -10.6764   1.3962   3.6776   3.8954   4.0438   4.3059   4.3599

     occupation numbers 
     1.0000   1.0000   1.0000   1.0000   1.0000   1.0000   1.0000   1.0000
     1.0000   1.0000   1.0000   1.0000   1.0000   1.0000   1.0000   1.0000

          k = 0.0000 0.1443 0.0775 (  3870 PWs)   bands (ev):

   -66.7464 -66.7433 -33.7511 -33.7268 -33.7240 -33.7216 -33.7172 -33.7093
   -11.3502 -10.7047   1.4661   3.6174   3.8454   4.0552   4.2765   4.3472

     occupation numbers 
     1.0000   1.0000   1.0000   1.0000   1.0000   1.0000   1.0000   1.0000
     1.0000   1.0000   1.0000   1.0000   1.0000   1.0000   1.0000   1.0000

          k = 0.0000 0.1443 0.1549 (  3857 PWs)   bands (ev):

   -66.7461 -66.7437 -33.7468 -33.7256 -33.7236 -33.7232 -33.7180 -33.7129
   -11.2782 -10.7846   1.6705   3.3193   3.8533   4.0881   4.2085   4.3115

     occupation numbers 
     1.0000   1.0000   1.0000   1.0000   1.0000   1.0000   1.0000   1.0000
     1.0000   1.0000   1.0000   1.0000   1.0000   1.0000   1.0000   1.0000

          k = 0.0000 0.1443 0.2324 (  3843 PWs)   bands (ev):

   -66.7455 -66.7442 -33.7406 -33.7275 -33.7236 -33.7220 -33.7192 -33.7173
   -11.1688 -10.9018   1.9939   2.8742   3.9259   4.1199   4.1379   4.2587

     occupation numbers 
     1.0000   1.0000   1.0000   1.0000   1.0000   1.0000   1.0000   1.0000
     1.0000   1.0000   1.0000   1.0000   1.0000   1.0000   1.0000   1.0000

          k =-0.0000 0.1443-0.3098 (  3856 PWs)   bands (ev):

   -66.7449 -66.7449 -33.7336 -33.7336 -33.7209 -33.7209 -33.7206 -33.7206
   -11.0371 -11.0367   2.4091   2.4094   4.0209   4.0212   4.1975   4.1979

     occupation numbers 
     1.0000   1.0000   1.0000   1.0000   1.0000   1.0000   1.0000   1.0000
     1.0000   1.0000   1.0000   1.0000   1.0000   1.0000   1.0000   1.0000

          k =-0.0000 0.1443-0.2324 (  3843 PWs)   bands (ev):

   -66.7455 -66.7442 -33.7406 -33.7275 -33.7236 -33.7220 -33.7192 -33.7173
   -11.1688 -10.9018   1.9939   2.8742   3.9259   4.1199   4.1379   4.2587

     occupation numbers 
     1.0000   1.0000   1.0000   1.0000   1.0000   1.0000   1.0000   1.0000
     1.0000   1.0000   1.0000   1.0000   1.0000   1.0000   1.0000   1.0000

          k =-0.0000 0.1443-0.1549 (  3857 PWs)   bands (ev):

   -66.7461 -66.7437 -33.7468 -33.7256 -33.7236 -33.7232 -33.7180 -33.7129
   -11.2782 -10.7846   1.6705   3.3193   3.8533   4.0881   4.2085   4.3115

     occupation numbers 
     1.0000   1.0000   1.0000   1.0000   1.0000   1.0000   1.0000   1.0000
     1.0000   1.0000   1.0000   1.0000   1.0000   1.0000   1.0000   1.0000

          k =-0.0000 0.1443-0.0775 (  3870 PWs)   bands (ev):

   -66.7464 -66.7433 -33.7511 -33.7268 -33.7240 -33.7216 -33.7172 -33.7093
   -11.3502 -10.7047   1.4661   3.6174   3.8454   4.0552   4.2765   4.3472

     occupation numbers 
     1.0000   1.0000   1.0000   1.0000   1.0000   1.0000   1.0000   1.0000
     1.0000   1.0000   1.0000   1.0000   1.0000   1.0000   1.0000   1.0000

          k = 0.0000 0.2887 0.0000 (  3871 PWs)   bands (ev):

   -66.7455 -66.7428 -33.7486 -33.7365 -33.7327 -33.7274 -33.7189 -33.7109
   -11.1518 -10.5926   1.8472   2.6503   3.1754   3.8363   4.1884   4.2963

     occupation numbers 
     1.0000   1.0000   1.0000   1.0000   1.0000   1.0000   1.0000   1.0000
     1.0000   1.0000   1.0000   1.0000   1.0000   1.0000   1.0000   1.0000

          k = 0.0000 0.2887 0.0775 (  3865 PWs)   bands (ev):

   -66.7454 -66.7429 -33.7485 -33.7354 -33.7332 -33.7271 -33.7192 -33.7116
   -11.1311 -10.6145   1.8527   2.6483   3.1735   3.8526   4.1740   4.2774

     occupation numbers 
     1.0000   1.0000   1.0000   1.0000   1.0000   1.0000   1.0000   1.0000
     1.0000   1.0000   1.0000   1.0000   1.0000   1.0000   1.0000   1.0000

          k = 0.0000 0.2887 0.1549 (  3856 PWs)   bands (ev):

   -66.7451 -66.7432 -33.7477 -33.7364 -33.7310 -33.7262 -33.7201 -33.7137
   -11.0720 -10.6767   1.8890   2.5554   3.2656   3.8994   4.1068   4.2243

     occupation numbers 
     1.0000   1.0000   1.0000   1.0000   1.0000   1.0000   1.0000   1.0000
     1.0000   1.0000   1.0000   1.0000   1.0000   1.0000   1.0000   1.0000

          k = 0.0000 0.2887 0.2324 (  3860 PWs)   bands (ev):

   -66.7447 -66.7436 -33.7458 -33.7395 -33.7264 -33.7248 -33.7215 -33.7171
   -10.9828 -10.7689   1.9852   2.3575   3.4829   3.9581   3.9708   4.1465

     occupation numbers 
     1.0000   1.0000   1.0000   1.0000   1.0000   1.0000   1.0000   1.0000
     1.0000   1.0000   1.0000   1.0000   1.0000   1.0000   1.0000   1.0000

          k =-0.0000 0.2887-0.3098 (  3850 PWs)   bands (ev):

   -66.7442 -66.7441 -33.7430 -33.7429 -33.7232 -33.7231 -33.7215 -33.7215
   -10.8767 -10.8762   2.1485   2.1485   3.7364   3.7365   4.0572   4.0576

     occupation numbers 
     1.0000   1.0000   1.0000   1.0000   1.0000   1.0000   1.0000   1.0000
     1.0000   1.0000   1.0000   1.0000   1.0000   1.0000   1.0000   1.0000

          k =-0.0000 0.2887-0.2324 (  3860 PWs)   bands (ev):

   -66.7447 -66.7436 -33.7458 -33.7395 -33.7264 -33.7248 -33.7215 -33.7171
   -10.9828 -10.7689   1.9852   2.3575   3.4829   3.9581   3.9708   4.1465

     occupation numbers 
     1.0000   1.0000   1.0000   1.0000   1.0000   1.0000   1.0000   1.0000
     1.0000   1.0000   1.0000   1.0000   1.0000   1.0000   1.0000   1.0000

          k =-0.0000 0.2887-0.1549 (  3856 PWs)   bands (ev):

   -66.7451 -66.7432 -33.7477 -33.7364 -33.7310 -33.7262 -33.7201 -33.7137
   -11.0720 -10.6767   1.8890   2.5554   3.2656   3.8994   4.1068   4.2243

     occupation numbers 
     1.0000   1.0000   1.0000   1.0000   1.0000   1.0000   1.0000   1.0000
     1.0000   1.0000   1.0000   1.0000   1.0000   1.0000   1.0000   1.0000

          k =-0.0000 0.2887-0.0775 (  3865 PWs)   bands (ev):

   -66.7454 -66.7429 -33.7485 -33.7354 -33.7332 -33.7271 -33.7192 -33.7116
   -11.1311 -10.6145   1.8527   2.6483   3.1735   3.8526   4.1740   4.2774

     occupation numbers 
     1.0000   1.0000   1.0000   1.0000   1.0000   1.0000   1.0000   1.0000
     1.0000   1.0000   1.0000   1.0000   1.0000   1.0000   1.0000   1.0000

          k = 0.0000 0.4330 0.0000 (  3859 PWs)   bands (ev):

   -66.7443 -66.7425 -33.7522 -33.7448 -33.7363 -33.7305 -33.7209 -33.7152
   -10.8918 -10.5325   1.8376   2.4370   2.5954   3.6580   3.9395   4.2149

     occupation numbers 
     1.0000   1.0000   1.0000   1.0000   1.0000   1.0000   1.0000   1.0000
     1.0000   1.0000   1.0000   1.0000   1.0000   1.0000   1.0000   1.0000

          k = 0.0000 0.4330 0.0775 (  3854 PWs)   bands (ev):

   -66.7442 -66.7426 -33.7531 -33.7458 -33.7343 -33.7301 -33.7213 -33.7153
   -10.8778 -10.5457   1.7739   2.3156   2.7673   3.6774   3.9698   4.1917

     occupation numbers 
     1.0000   1.0000   1.0000   1.0000   1.0000   1.0000   1.0000   1.0000
     1.0000   1.0000   1.0000   1.0000   1.0000   1.0000   1.0000   1.0000

          k = 0.0000 0.4330 0.1549 (  3860 PWs)   bands (ev):

   -66.7440 -66.7428 -33.7545 -33.7482 -33.7299 -33.7291 -33.7223 -33.7160
   -10.8379 -10.5835   1.6801   2.1013   3.0854   3.7333   3.9983   4.1264

     occupation numbers 
     1.0000   1.0000   1.0000   1.0000   1.0000   1.0000   1.0000   1.0000
     1.0000   1.0000   1.0000   1.0000   1.0000   1.0000   1.0000   1.0000

          k = 0.0000 0.4330 0.2324 (  3861 PWs)   bands (ev):

   -66.7438 -66.7431 -33.7548 -33.7512 -33.7275 -33.7250 -33.7239 -33.7177
   -10.7785 -10.6408   1.6541   1.8842   3.4312   3.8189   3.9302   4.0315

     occupation numbers 
     1.0000   1.0000   1.0000   1.0000   1.0000   1.0000   1.0000   1.0000
     1.0000   1.0000   1.0000   1.0000   1.0000   1.0000   1.0000   1.0000

          k =-0.0000 0.4330-0.3098 (  3854 PWs)   bands (ev):

   -66.7434 -66.7434 -33.7536 -33.7536 -33.7257 -33.7257 -33.7208 -33.7207
   -10.7095 -10.7090   1.7242   1.7244   3.7320   3.7322   3.9231   3.9235

     occupation numbers 
     1.0000   1.0000   1.0000   1.0000   1.0000   1.0000   1.0000   1.0000
     1.0000   1.0000   1.0000   1.0000   1.0000   1.0000   1.0000   1.0000

          k =-0.0000 0.4330-0.2324 (  3861 PWs)   bands (ev):

   -66.7438 -66.7431 -33.7548 -33.7512 -33.7275 -33.7250 -33.7239 -33.7177
   -10.7785 -10.6408   1.6541   1.8842   3.4312   3.8189   3.9302   4.0315

     occupation numbers 
     1.0000   1.0000   1.0000   1.0000   1.0000   1.0000   1.0000   1.0000
     1.0000   1.0000   1.0000   1.0000   1.0000   1.0000   1.0000   1.0000

          k =-0.0000 0.4330-0.1549 (  3860 PWs)   bands (ev):

   -66.7440 -66.7428 -33.7545 -33.7482 -33.7299 -33.7291 -33.7223 -33.7160
   -10.8379 -10.5835   1.6801   2.1013   3.0854   3.7333   3.9983   4.1264

     occupation numbers 
     1.0000   1.0000   1.0000   1.0000   1.0000   1.0000   1.0000   1.0000
     1.0000   1.0000   1.0000   1.0000   1.0000   1.0000   1.0000   1.0000

          k =-0.0000 0.4330-0.0775 (  3854 PWs)   bands (ev):

   -66.7442 -66.7426 -33.7531 -33.7458 -33.7343 -33.7301 -33.7213 -33.7153
   -10.8778 -10.5457   1.7739   2.3156   2.7673   3.6774   3.9698   4.1917

     occupation numbers 
     1.0000   1.0000   1.0000   1.0000   1.0000   1.0000   1.0000   1.0000
     1.0000   1.0000   1.0000   1.0000   1.0000   1.0000   1.0000   1.0000

          k =-0.0000-0.5774-0.0000 (  3852 PWs)   bands (ev):

   -66.7437 -66.7425 -33.7561 -33.7495 -33.7330 -33.7318 -33.7218 -33.7182
   -10.7562 -10.5313   1.5427   2.3278   2.8607   3.5894   3.7068   4.1791

     occupation numbers 
     1.0000   1.0000   1.0000   1.0000   1.0000   1.0000   1.0000   1.0000
     1.0000   1.0000   1.0000   1.0000   1.0000   1.0000   1.0000   1.0000

          k =-0.0000-0.5774 0.0775 (  3838 PWs)   bands (ev):

   -66.7437 -66.7426 -33.7569 -33.7505 -33.7314 -33.7314 -33.7222 -33.7179
   -10.7468 -10.5390   1.5065   2.2108   2.9656   3.6098   3.7817   4.1543

     occupation numbers 
     1.0000   1.0000   1.0000   1.0000   1.0000   1.0000   1.0000   1.0000
     1.0000   1.0000   1.0000   1.0000   1.0000   1.0000   1.0000   1.0000

          k = 0.0000-0.5774 0.1549 (  3864 PWs)   bands (ev):

   -66.7435 -66.7427 -33.7583 -33.7531 -33.7303 -33.7277 -33.7232 -33.7177
   -10.7204 -10.5612   1.4486   1.9602   3.2202   3.6687   3.8971   4.0849

     occupation numbers 
     1.0000   1.0000   1.0000   1.0000   1.0000   1.0000   1.0000   1.0000
     1.0000   1.0000   1.0000   1.0000   1.0000   1.0000   1.0000   1.0000

          k = 0.0000-0.5774 0.2324 (  3866 PWs)   bands (ev):

   -66.7433 -66.7429 -33.7589 -33.7560 -33.7287 -33.7249 -33.7236 -33.7183
   -10.6818 -10.5955   1.4436   1.7101   3.5197   3.7591   3.9102   3.9840

     occupation numbers 
     1.0000   1.0000   1.0000   1.0000   1.0000   1.0000   1.0000   1.0000
     1.0000   1.0000   1.0000   1.0000   1.0000   1.0000   1.0000   1.0000

          k =-0.0000-0.5774-0.3098 (  3856 PWs)   bands (ev):

   -66.7431 -66.7431 -33.7581 -33.7581 -33.7268 -33.7268 -33.7203 -33.7203
   -10.6380 -10.6376   1.5292   1.5294   3.7736   3.7738   3.8692   3.8697

     occupation numbers 
     1.0000   1.0000   1.0000   1.0000   1.0000   1.0000   1.0000   1.0000
     1.0000   1.0000   1.0000   1.0000   1.0000   1.0000   1.0000   1.0000

          k = 0.1250 0.0722 0.0000 (  3869 PWs)   bands (ev):

   -66.7466 -66.7432 -33.7526 -33.7272 -33.7242 -33.7210 -33.7169 -33.7080
   -11.3752 -10.6764   1.3962   3.6776   3.8954   4.0438   4.3059   4.3599

     occupation numbers 
     1.0000   1.0000   1.0000   1.0000   1.0000   1.0000   1.0000   1.0000
     1.0000   1.0000   1.0000   1.0000   1.0000   1.0000   1.0000   1.0000

          k = 0.1250 0.0722 0.0775 (  3870 PWs)   bands (ev):

   -66.7464 -66.7433 -33.7511 -33.7268 -33.7240 -33.7216 -33.7172 -33.7093
   -11.3502 -10.7047   1.4661   3.6174   3.8454   4.0552   4.2765   4.3472

     occupation numbers 
     1.0000   1.0000   1.0000   1.0000   1.0000   1.0000   1.0000   1.0000
     1.0000   1.0000   1.0000   1.0000   1.0000   1.0000   1.0000   1.0000

          k = 0.1250 0.0722 0.1549 (  3857 PWs)   bands (ev):

   -66.7461 -66.7437 -33.7468 -33.7256 -33.7236 -33.7232 -33.7180 -33.7129
   -11.2782 -10.7846   1.6705   3.3193   3.8533   4.0881   4.2085   4.3115

     occupation numbers 
     1.0000   1.0000   1.0000   1.0000   1.0000   1.0000   1.0000   1.0000
     1.0000   1.0000   1.0000   1.0000   1.0000   1.0000   1.0000   1.0000

          k = 0.1250 0.0722 0.2324 (  3843 PWs)   bands (ev):

   -66.7455 -66.7442 -33.7406 -33.7275 -33.7236 -33.7220 -33.7192 -33.7173
   -11.1688 -10.9018   1.9939   2.8742   3.9259   4.1199   4.1379   4.2587

     occupation numbers 
     1.0000   1.0000   1.0000   1.0000   1.0000   1.0000   1.0000   1.0000
     1.0000   1.0000   1.0000   1.0000   1.0000   1.0000   1.0000   1.0000

          k = 0.1250 0.0722-0.3098 (  3856 PWs)   bands (ev):

   -66.7449 -66.7449 -33.7336 -33.7336 -33.7209 -33.7209 -33.7206 -33.7206
   -11.0371 -11.0367   2.4091   2.4094   4.0209   4.0212   4.1975   4.1979

     occupation numbers 
     1.0000   1.0000   1.0000   1.0000   1.0000   1.0000   1.0000   1.0000
     1.0000   1.0000   1.0000   1.0000   1.0000   1.0000   1.0000   1.0000

          k = 0.1250 0.0722-0.2324 (  3843 PWs)   bands (ev):

   -66.7455 -66.7442 -33.7406 -33.7275 -33.7236 -33.7220 -33.7192 -33.7173
   -11.1688 -10.9018   1.9939   2.8742   3.9259   4.1199   4.1379   4.2587

     occupation numbers 
     1.0000   1.0000   1.0000   1.0000   1.0000   1.0000   1.0000   1.0000
     1.0000   1.0000   1.0000   1.0000   1.0000   1.0000   1.0000   1.0000

          k = 0.1250 0.0722-0.1549 (  3857 PWs)   bands (ev):

   -66.7461 -66.7437 -33.7468 -33.7256 -33.7236 -33.7232 -33.7180 -33.7129
   -11.2782 -10.7846   1.6705   3.3193   3.8533   4.0881   4.2085   4.3115

     occupation numbers 
     1.0000   1.0000   1.0000   1.0000   1.0000   1.0000   1.0000   1.0000
     1.0000   1.0000   1.0000   1.0000   1.0000   1.0000   1.0000   1.0000

          k = 0.1250 0.0722-0.0775 (  3870 PWs)   bands (ev):

   -66.7464 -66.7433 -33.7511 -33.7268 -33.7240 -33.7216 -33.7172 -33.7093
   -11.3502 -10.7047   1.4661   3.6174   3.8454   4.0552   4.2765   4.3472

     occupation numbers 
     1.0000   1.0000   1.0000   1.0000   1.0000   1.0000   1.0000   1.0000
     1.0000   1.0000   1.0000   1.0000   1.0000   1.0000   1.0000   1.0000

          k = 0.1250 0.2165 0.0000 (  3859 PWs)   bands (ev):

   -66.7458 -66.7429 -33.7495 -33.7331 -33.7306 -33.7255 -33.7190 -33.7099
   -11.2201 -10.6157   1.7046   3.0067   3.2958   3.9545   4.2206   4.2334

     occupation numbers 
     1.0000   1.0000   1.0000   1.0000   1.0000   1.0000   1.0000   1.0000
     1.0000   1.0000   1.0000   1.0000   1.0000   1.0000   1.0000   1.0000

          k = 0.1250 0.2165 0.0775 (  3856 PWs)   bands (ev):

   -66.7457 -66.7430 -33.7488 -33.7322 -33.7310 -33.7257 -33.7193 -33.7108
   -11.1980 -10.6397   1.7403   2.9497   3.3406   3.9172   4.2038   4.2368

     occupation numbers 
     1.0000   1.0000   1.0000   1.0000   1.0000   1.0000   1.0000   1.0000
     1.0000   1.0000   1.0000   1.0000   1.0000   1.0000   1.0000   1.0000

          k = 0.1250 0.2165 0.1549 (  3855 PWs)   bands (ev):

   -66.7454 -66.7433 -33.7467 -33.7327 -33.7296 -33.7255 -33.7202 -33.7132
   -11.1347 -10.7075   1.8479   2.7806   3.4632   3.8681   4.1584   4.2056

     occupation numbers 
     1.0000   1.0000   1.0000   1.0000   1.0000   1.0000   1.0000   1.0000
     1.0000   1.0000   1.0000   1.0000   1.0000   1.0000   1.0000   1.0000

          k = 0.1250 0.2165 0.2324 (  3849 PWs)   bands (ev):

   -66.7449 -66.7438 -33.7435 -33.7358 -33.7258 -33.7246 -33.7214 -33.7168
   -11.0389 -10.8077   2.0262   2.5319   3.6304   3.8466   4.1012   4.1247

     occupation numbers 
     1.0000   1.0000   1.0000   1.0000   1.0000   1.0000   1.0000   1.0000
     1.0000   1.0000   1.0000   1.0000   1.0000   1.0000   1.0000   1.0000

          k = 0.1250 0.2165-0.3098 (  3852 PWs)   bands (ev):

   -66.7444 -66.7443 -33.7396 -33.7396 -33.7234 -33.7234 -33.7209 -33.7209
   -10.9245 -10.9240   2.2637   2.2638   3.7834   3.7835   4.0702   4.0707

     occupation numbers 
     1.0000   1.0000   1.0000   1.0000   1.0000   1.0000   1.0000   1.0000
     1.0000   1.0000   1.0000   1.0000   1.0000   1.0000   1.0000   1.0000

          k = 0.1250 0.2165-0.2324 (  3849 PWs)   bands (ev):

   -66.7449 -66.7438 -33.7435 -33.7358 -33.7258 -33.7246 -33.7214 -33.7168
   -11.0389 -10.8077   2.0262   2.5319   3.6304   3.8466   4.1012   4.1247

     occupation numbers 
     1.0000   1.0000   1.0000   1.0000   1.0000   1.0000   1.0000   1.0000
     1.0000   1.0000   1.0000   1.0000   1.0000   1.0000   1.0000   1.0000

          k = 0.1250 0.2165-0.1549 (  3855 PWs)   bands (ev):

   -66.7454 -66.7433 -33.7467 -33.7327 -33.7296 -33.7255 -33.7202 -33.7132
   -11.1347 -10.7075   1.8479   2.7806   3.4632   3.8681   4.1584   4.2056

     occupation numbers 
     1.0000   1.0000   1.0000   1.0000   1.0000   1.0000   1.0000   1.0000
     1.0000   1.0000   1.0000   1.0000   1.0000   1.0000   1.0000   1.0000

          k = 0.1250 0.2165-0.0775 (  3856 PWs)   bands (ev):

   -66.7457 -66.7430 -33.7488 -33.7322 -33.7310 -33.7257 -33.7193 -33.7108
   -11.1980 -10.6397   1.7403   2.9497   3.3406   3.9172   4.2038   4.2368

     occupation numbers 
     1.0000   1.0000   1.0000   1.0000   1.0000   1.0000   1.0000   1.0000
     1.0000   1.0000   1.0000   1.0000   1.0000   1.0000   1.0000   1.0000

          k = 0.1250 0.3608 0.0000 (  3838 PWs)   bands (ev):

   -66.7447 -66.7426 -33.7485 -33.7412 -33.7368 -33.7304 -33.7221 -33.7137
   -10.9759 -10.5446   2.1803   2.2586   2.7827   3.6275   4.0415   4.0643

     occupation numbers 
     1.0000   1.0000   1.0000   1.0000   1.0000   1.0000   1.0000   1.0000
     1.0000   1.0000   1.0000   1.0000   1.0000   1.0000   1.0000   1.0000

          k = 0.1250 0.3608 0.0775 (  3843 PWs)   bands (ev):

   -66.7446 -66.7427 -33.7494 -33.7418 -33.7349 -33.7302 -33.7225 -33.7139
   -10.9594 -10.5608   2.0608   2.2812   2.8980   3.6034   4.0019   4.1140

     occupation numbers 
     1.0000   1.0000   1.0000   1.0000   1.0000   1.0000   1.0000   1.0000
     1.0000   1.0000   1.0000   1.0000   1.0000   1.0000   1.0000   1.0000

          k = 0.1250 0.3608 0.1549 (  3851 PWs)   bands (ev):

   -66.7444 -66.7429 -33.7505 -33.7438 -33.7310 -33.7291 -33.7234 -33.7148
   -10.9125 -10.6073   1.9397   2.1978   3.1542   3.5937   3.9304   4.1525

     occupation numbers 
     1.0000   1.0000   1.0000   1.0000   1.0000   1.0000   1.0000   1.0000
     1.0000   1.0000   1.0000   1.0000   1.0000   1.0000   1.0000   1.0000

          k = 0.1250 0.3608 0.2324 (  3855 PWs)   bands (ev):

   -66.7440 -66.7432 -33.7505 -33.7466 -33.7289 -33.7262 -33.7237 -33.7169
   -10.8423 -10.6771   1.8990   2.0619   3.4044   3.6284   3.8767   4.1047

     occupation numbers 
     1.0000   1.0000   1.0000   1.0000   1.0000   1.0000   1.0000   1.0000
     1.0000   1.0000   1.0000   1.0000   1.0000   1.0000   1.0000   1.0000

          k = 0.1250 0.3608-0.3098 (  3866 PWs)   bands (ev):

   -66.7437 -66.7436 -33.7491 -33.7490 -33.7272 -33.7272 -33.7201 -33.7201
   -10.7598 -10.7594   1.9466   1.9467   3.5697   3.5698   3.9722   3.9724

     occupation numbers 
     1.0000   1.0000   1.0000   1.0000   1.0000   1.0000   1.0000   1.0000
     1.0000   1.0000   1.0000   1.0000   1.0000   1.0000   1.0000   1.0000

          k = 0.1250 0.3608-0.2324 (  3855 PWs)   bands (ev):

   -66.7440 -66.7432 -33.7505 -33.7466 -33.7289 -33.7262 -33.7237 -33.7169
   -10.8423 -10.6771   1.8990   2.0619   3.4044   3.6284   3.8767   4.1047

     occupation numbers 
     1.0000   1.0000   1.0000   1.0000   1.0000   1.0000   1.0000   1.0000
     1.0000   1.0000   1.0000   1.0000   1.0000   1.0000   1.0000   1.0000

          k = 0.1250 0.3608-0.1549 (  3851 PWs)   bands (ev):

   -66.7444 -66.7429 -33.7505 -33.7438 -33.7310 -33.7291 -33.7234 -33.7148
   -10.9125 -10.6073   1.9397   2.1978   3.1542   3.5937   3.9304   4.1525

     occupation numbers 
     1.0000   1.0000   1.0000   1.0000   1.0000   1.0000   1.0000   1.0000
     1.0000   1.0000   1.0000   1.0000   1.0000   1.0000   1.0000   1.0000

          k = 0.1250 0.3608-0.0775 (  3843 PWs)   bands (ev):

   -66.7446 -66.7427 -33.7494 -33.7418 -33.7349 -33.7302 -33.7225 -33.7139
   -10.9594 -10.5608   2.0608   2.2813   2.8980   3.6034   4.0019   4.1140

     occupation numbers 
     1.0000   1.0000   1.0000   1.0000   1.0000   1.0000   1.0000   1.0000
     1.0000   1.0000   1.0000   1.0000   1.0000   1.0000   1.0000   1.0000

          k = 0.1250 0.5052 0.0000 (  3841 PWs)   bands (ev):

   -66.7437 -66.7425 -33.7535 -33.7476 -33.7348 -33.7319 -33.7243 -33.7181
   -10.7627 -10.5269   1.7114   2.4522   2.8221   3.3777   3.7559   3.9466

     occupation numbers 
     1.0000   1.0000   1.0000   1.0000   1.0000   1.0000   1.0000   1.0000
     1.0000   1.0000   1.0000   1.0000   1.0000   1.0000   1.0000   1.0000

          k = 0.1250 0.5052 0.0775 (  3848 PWs)   bands (ev):

   -66.7437 -66.7426 -33.7544 -33.7486 -33.7345 -33.7303 -33.7247 -33.7178
   -10.7530 -10.5350   1.6793   2.3159   2.9268   3.4158   3.7863   3.9602

     occupation numbers 
     1.0000   1.0000   1.0000   1.0000   1.0000   1.0000   1.0000   1.0000
     1.0000   1.0000   1.0000   1.0000   1.0000   1.0000   1.0000   1.0000

          k = 0.1250 0.5052 0.1549 (  3853 PWs)   bands (ev):

   -66.7435 -66.7427 -33.7558 -33.7511 -33.7335 -33.7270 -33.7256 -33.7173
   -10.7255 -10.5585   1.6238   2.0719   3.0864   3.5564   3.7440   4.0451

     occupation numbers 
     1.0000   1.0000   1.0000   1.0000   1.0000   1.0000   1.0000   1.0000
     1.0000   1.0000   1.0000   1.0000   1.0000   1.0000   1.0000   1.0000

          k = 0.1250 0.5052 0.2324 (  3861 PWs)   bands (ev):

   -66.7433 -66.7429 -33.7566 -33.7539 -33.7319 -33.7279 -33.7225 -33.7176
   -10.6852 -10.5947   1.6120   1.8431   3.2432   3.5640   3.8225   4.0845

     occupation numbers 
     1.0000   1.0000   1.0000   1.0000   1.0000   1.0000   1.0000   1.0000
     1.0000   1.0000   1.0000   1.0000   1.0000   1.0000   1.0000   1.0000

          k = 0.1250 0.5052-0.3098 (  3856 PWs)   bands (ev):

   -66.7431 -66.7431 -33.7559 -33.7559 -33.7299 -33.7299 -33.7194 -33.7194
   -10.6394 -10.6389   1.6827   1.6828   3.4078   3.4079   4.0025   4.0025

     occupation numbers 
     1.0000   1.0000   1.0000   1.0000   1.0000   1.0000   1.0000   1.0000
     1.0000   1.0000   1.0000   1.0000   1.0000   1.0000   1.0000   1.0000

          k = 0.1250 0.5052-0.2324 (  3861 PWs)   bands (ev):

   -66.7433 -66.7429 -33.7566 -33.7539 -33.7319 -33.7279 -33.7225 -33.7176
   -10.6852 -10.5947   1.6120   1.8431   3.2432   3.5640   3.8225   4.0845

     occupation numbers 
     1.0000   1.0000   1.0000   1.0000   1.0000   1.0000   1.0000   1.0000
     1.0000   1.0000   1.0000   1.0000   1.0000   1.0000   1.0000   1.0000

          k = 0.1250 0.5052-0.1549 (  3853 PWs)   bands (ev):

   -66.7435 -66.7427 -33.7558 -33.7511 -33.7335 -33.7270 -33.7256 -33.7173
   -10.7255 -10.5585   1.6238   2.0720   3.0864   3.5564   3.7440   4.0451

     occupation numbers 
     1.0000   1.0000   1.0000   1.0000   1.0000   1.0000   1.0000   1.0000
     1.0000   1.0000   1.0000   1.0000   1.0000   1.0000   1.0000   1.0000

          k = 0.1250 0.5052-0.0775 (  3848 PWs)   bands (ev):

   -66.7437 -66.7426 -33.7544 -33.7486 -33.7345 -33.7303 -33.7247 -33.7178
   -10.7530 -10.5350   1.6793   2.3159   2.9268   3.4159   3.7863   3.9602

     occupation numbers 
     1.0000   1.0000   1.0000   1.0000   1.0000   1.0000   1.0000   1.0000
     1.0000   1.0000   1.0000   1.0000   1.0000   1.0000   1.0000   1.0000

          k = 0.1250-0.5052-0.0000 (  3841 PWs)   bands (ev):

   -66.7437 -66.7425 -33.7535 -33.7476 -33.7348 -33.7319 -33.7243 -33.7181
   -10.7627 -10.5269   1.7114   2.4522   2.8221   3.3777   3.7559   3.9466

     occupation numbers 
     1.0000   1.0000   1.0000   1.0000   1.0000   1.0000   1.0000   1.0000
     1.0000   1.0000   1.0000   1.0000   1.0000   1.0000   1.0000   1.0000

          k = 0.1250-0.5052 0.0775 (  3848 PWs)   bands (ev):

   -66.7437 -66.7426 -33.7544 -33.7486 -33.7345 -33.7303 -33.7247 -33.7178
   -10.7530 -10.5350   1.6793   2.3159   2.9268   3.4159   3.7863   3.9602

     occupation numbers 
     1.0000   1.0000   1.0000   1.0000   1.0000   1.0000   1.0000   1.0000
     1.0000   1.0000   1.0000   1.0000   1.0000   1.0000   1.0000   1.0000

          k = 0.1250-0.5052 0.1549 (  3853 PWs)   bands (ev):

   -66.7435 -66.7427 -33.7558 -33.7511 -33.7335 -33.7270 -33.7256 -33.7173
   -10.7255 -10.5585   1.6238   2.0720   3.0864   3.5564   3.7440   4.0451

     occupation numbers 
     1.0000   1.0000   1.0000   1.0000   1.0000   1.0000   1.0000   1.0000
     1.0000   1.0000   1.0000   1.0000   1.0000   1.0000   1.0000   1.0000

          k = 0.1250-0.5052 0.2324 (  3861 PWs)   bands (ev):

   -66.7433 -66.7429 -33.7566 -33.7539 -33.7319 -33.7279 -33.7225 -33.7176
   -10.6852 -10.5947   1.6120   1.8431   3.2432   3.5640   3.8225   4.0845

     occupation numbers 
     1.0000   1.0000   1.0000   1.0000   1.0000   1.0000   1.0000   1.0000
     1.0000   1.0000   1.0000   1.0000   1.0000   1.0000   1.0000   1.0000

          k = 0.1250-0.5052-0.3098 (  3856 PWs)   bands (ev):

   -66.7431 -66.7431 -33.7559 -33.7559 -33.7299 -33.7299 -33.7194 -33.7194
   -10.6394 -10.6389   1.6827   1.6828   3.4078   3.4079   4.0025   4.0025

     occupation numbers 
     1.0000   1.0000   1.0000   1.0000   1.0000   1.0000   1.0000   1.0000
     1.0000   1.0000   1.0000   1.0000   1.0000   1.0000   1.0000   1.0000

          k = 0.1250-0.5052-0.2324 (  3861 PWs)   bands (ev):

   -66.7433 -66.7429 -33.7566 -33.7539 -33.7319 -33.7279 -33.7225 -33.7176
   -10.6852 -10.5947   1.6120   1.8431   3.2432   3.5640   3.8225   4.0845

     occupation numbers 
     1.0000   1.0000   1.0000   1.0000   1.0000   1.0000   1.0000   1.0000
     1.0000   1.0000   1.0000   1.0000   1.0000   1.0000   1.0000   1.0000

          k = 0.1250-0.5052-0.1549 (  3853 PWs)   bands (ev):

   -66.7435 -66.7427 -33.7558 -33.7511 -33.7335 -33.7270 -33.7256 -33.7173
   -10.7255 -10.5585   1.6238   2.0719   3.0864   3.5564   3.7440   4.0451

     occupation numbers 
     1.0000   1.0000   1.0000   1.0000   1.0000   1.0000   1.0000   1.0000
     1.0000   1.0000   1.0000   1.0000   1.0000   1.0000   1.0000   1.0000

          k = 0.1250-0.5052-0.0775 (  3848 PWs)   bands (ev):

   -66.7437 -66.7426 -33.7544 -33.7486 -33.7345 -33.7303 -33.7247 -33.7178
   -10.7530 -10.5350   1.6793   2.3159   2.9268   3.4158   3.7863   3.9602

     occupation numbers 
     1.0000   1.0000   1.0000   1.0000   1.0000   1.0000   1.0000   1.0000
     1.0000   1.0000   1.0000   1.0000   1.0000   1.0000   1.0000   1.0000

          k = 0.1250-0.3608-0.0000 (  3838 PWs)   bands (ev):

   -66.7447 -66.7426 -33.7485 -33.7412 -33.7368 -33.7304 -33.7221 -33.7137
   -10.9759 -10.5446   2.1803   2.2586   2.7827   3.6275   4.0415   4.0643

     occupation numbers 
     1.0000   1.0000   1.0000   1.0000   1.0000   1.0000   1.0000   1.0000
     1.0000   1.0000   1.0000   1.0000   1.0000   1.0000   1.0000   1.0000

          k = 0.1250-0.3608 0.0775 (  3843 PWs)   bands (ev):

   -66.7446 -66.7427 -33.7494 -33.7418 -33.7349 -33.7302 -33.7225 -33.7139
   -10.9594 -10.5608   2.0608   2.2813   2.8980   3.6034   4.0019   4.1140

     occupation numbers 
     1.0000   1.0000   1.0000   1.0000   1.0000   1.0000   1.0000   1.0000
     1.0000   1.0000   1.0000   1.0000   1.0000   1.0000   1.0000   1.0000

          k = 0.1250-0.3608 0.1549 (  3851 PWs)   bands (ev):

   -66.7444 -66.7429 -33.7505 -33.7438 -33.7310 -33.7291 -33.7234 -33.7148
   -10.9125 -10.6073   1.9397   2.1978   3.1542   3.5937   3.9304   4.1525

     occupation numbers 
     1.0000   1.0000   1.0000   1.0000   1.0000   1.0000   1.0000   1.0000
     1.0000   1.0000   1.0000   1.0000   1.0000   1.0000   1.0000   1.0000

          k = 0.1250-0.3608 0.2324 (  3855 PWs)   bands (ev):

   -66.7440 -66.7432 -33.7505 -33.7466 -33.7289 -33.7262 -33.7237 -33.7169
   -10.8423 -10.6771   1.8990   2.0619   3.4044   3.6284   3.8767   4.1047

     occupation numbers 
     1.0000   1.0000   1.0000   1.0000   1.0000   1.0000   1.0000   1.0000
     1.0000   1.0000   1.0000   1.0000   1.0000   1.0000   1.0000   1.0000

          k = 0.1250-0.3608-0.3098 (  3866 PWs)   bands (ev):

   -66.7437 -66.7436 -33.7491 -33.7490 -33.7272 -33.7272 -33.7201 -33.7201
   -10.7598 -10.7594   1.9466   1.9467   3.5697   3.5698   3.9722   3.9724

     occupation numbers 
     1.0000   1.0000   1.0000   1.0000   1.0000   1.0000   1.0000   1.0000
     1.0000   1.0000   1.0000   1.0000   1.0000   1.0000   1.0000   1.0000

          k = 0.1250-0.3608-0.2324 (  3855 PWs)   bands (ev):

[...]

          k =-0.4998-0.1443 0.0767 (  3898 PWs)   bands (ev):

   -66.8873 -66.8863 -33.8962 -33.8911 -33.8766 -33.8715 -33.8680 -33.8594
   -10.8257 -10.6177   1.6126   2.2316   2.8416   3.3429   3.6902   3.8652

     occupation numbers 
     1.0000   1.0000   1.0000   1.0000   1.0000   1.0000   1.0000   1.0000
     1.0000   1.0000   1.0000   1.0000   1.0000   1.0000   1.0000   1.0000

          k =-0.4998-0.1443 0.1533 (  3893 PWs)   bands (ev):

   -66.8872 -66.8865 -33.8974 -33.8932 -33.8758 -33.8694 -33.8679 -33.8592
   -10.7996 -10.6403   1.5599   1.9961   3.0059   3.4706   3.6539   3.9424

     occupation numbers 
     1.0000   1.0000   1.0000   1.0000   1.0000   1.0000   1.0000   1.0000
     1.0000   1.0000   1.0000   1.0000   1.0000   1.0000   1.0000   1.0000

          k =-0.4998-0.1443 0.2300 (  3892 PWs)   bands (ev):

   -66.8870 -66.8866 -33.8979 -33.8956 -33.8744 -33.8708 -33.8644 -33.8598
   -10.7614 -10.6751   1.5495   1.7747   3.1652   3.4778   3.7264   3.9783

     occupation numbers 
     1.0000   1.0000   1.0000   1.0000   1.0000   1.0000   1.0000   1.0000
     1.0000   1.0000   1.0000   1.0000   1.0000   1.0000   1.0000   1.0000

          k =-0.4998-0.1443-0.3066 (  3904 PWs)   bands (ev):

   -66.8868 -66.8868 -33.8973 -33.8973 -33.8726 -33.8726 -33.8615 -33.8615
   -10.7175 -10.7175   1.6189   1.6189   3.3272   3.3273   3.8984   3.8984

     occupation numbers 
     1.0000   1.0000   1.0000   1.0000   1.0000   1.0000   1.0000   1.0000
     1.0000   1.0000   1.0000   1.0000   1.0000   1.0000   1.0000   1.0000

          k =-0.4998-0.1443-0.2300 (  3892 PWs)   bands (ev):

   -66.8870 -66.8866 -33.8979 -33.8956 -33.8744 -33.8708 -33.8644 -33.8598
   -10.7614 -10.6751   1.5495   1.7747   3.1652   3.4778   3.7264   3.9783

     occupation numbers 
     1.0000   1.0000   1.0000   1.0000   1.0000   1.0000   1.0000   1.0000
     1.0000   1.0000   1.0000   1.0000   1.0000   1.0000   1.0000   1.0000

          k =-0.4998-0.1443-0.1533 (  3893 PWs)   bands (ev):

   -66.8872 -66.8865 -33.8974 -33.8932 -33.8758 -33.8694 -33.8679 -33.8592
   -10.7996 -10.6403   1.5599   1.9961   3.0059   3.4706   3.6539   3.9424

     occupation numbers 
     1.0000   1.0000   1.0000   1.0000   1.0000   1.0000   1.0000   1.0000
     1.0000   1.0000   1.0000   1.0000   1.0000   1.0000   1.0000   1.0000

          k =-0.4998-0.1443-0.0767 (  3898 PWs)   bands (ev):

   -66.8873 -66.8863 -33.8962 -33.8911 -33.8766 -33.8715 -33.8680 -33.8594
   -10.8257 -10.6177   1.6126   2.2316   2.8416   3.3429   3.6902   3.8652

     occupation numbers 
     1.0000   1.0000   1.0000   1.0000   1.0000   1.0000   1.0000   1.0000
     1.0000   1.0000   1.0000   1.0000   1.0000   1.0000   1.0000   1.0000

          k =-0.4998 0.0000 0.0000 (  3877 PWs)   bands (ev):

   -66.8874 -66.8863 -33.8911 -33.8894 -33.8788 -33.8731 -33.8706 -33.8596
   -10.8410 -10.6060   1.8913   2.4446   2.7334   3.1173   3.5300   3.7122

     occupation numbers 
     1.0000   1.0000   1.0000   1.0000   1.0000   1.0000   1.0000   1.0000
     1.0000   1.0000   1.0000   1.0000   1.0000   1.0000   1.0000   1.0000

          k =-0.4998 0.0000 0.0767 (  3891 PWs)   bands (ev):

   -66.8873 -66.8863 -33.8920 -33.8900 -33.8788 -33.8723 -33.8703 -33.8594
   -10.8314 -10.6142   1.8877   2.2461   2.9632   3.0384   3.5037   3.8047

     occupation numbers 
     1.0000   1.0000   1.0000   1.0000   1.0000   1.0000   1.0000   1.0000
     1.0000   1.0000   1.0000   1.0000   1.0000   1.0000   1.0000   1.0000

          k =-0.4998 0.0000 0.1533 (  3884 PWs)   bands (ev):

   -66.8872 -66.8865 -33.8937 -33.8914 -33.8785 -33.8727 -33.8674 -33.8590
   -10.8044 -10.6379   1.8696   2.0208   2.9360   3.1952   3.5124   3.9470

     occupation numbers 
     1.0000   1.0000   1.0000   1.0000   1.0000   1.0000   1.0000   1.0000
     1.0000   1.0000   1.0000   1.0000   1.0000   1.0000   1.0000   1.0000

          k =-0.4998-0.0000 0.2300 (  3894 PWs)   bands (ev):

   -66.8870 -66.8866 -33.8947 -33.8932 -33.8774 -33.8742 -33.8638 -33.8594
   -10.7646 -10.6744   1.8375   1.8789   2.9273   3.1413   3.7296   4.0043

     occupation numbers 
     1.0000   1.0000   1.0000   1.0000   1.0000   1.0000   1.0000   1.0000
     1.0000   1.0000   1.0000   1.0000   1.0000   1.0000   1.0000   1.0000

          k =-0.4998 0.0000-0.3066 (  3898 PWs)   bands (ev):

   -66.8868 -66.8868 -33.8946 -33.8946 -33.8759 -33.8759 -33.8610 -33.8610
   -10.7188 -10.7188   1.8257   1.8257   3.0133   3.0133   3.9283   3.9283

     occupation numbers 
     1.0000   1.0000   1.0000   1.0000   1.0000   1.0000   1.0000   1.0000
     1.0000   1.0000   1.0000   1.0000   1.0000   1.0000   1.0000   1.0000

          k =-0.4998 0.0000-0.2300 (  3894 PWs)   bands (ev):

   -66.8870 -66.8866 -33.8947 -33.8932 -33.8774 -33.8742 -33.8638 -33.8594
   -10.7646 -10.6744   1.8375   1.8789   2.9273   3.1413   3.7296   4.0043

     occupation numbers 
     1.0000   1.0000   1.0000   1.0000   1.0000   1.0000   1.0000   1.0000
     1.0000   1.0000   1.0000   1.0000   1.0000   1.0000   1.0000   1.0000

          k =-0.4998 0.0000-0.1533 (  3884 PWs)   bands (ev):

   -66.8872 -66.8865 -33.8937 -33.8914 -33.8785 -33.8727 -33.8674 -33.8590
   -10.8044 -10.6379   1.8696   2.0208   2.9360   3.1952   3.5124   3.9470

     occupation numbers 
     1.0000   1.0000   1.0000   1.0000   1.0000   1.0000   1.0000   1.0000
     1.0000   1.0000   1.0000   1.0000   1.0000   1.0000   1.0000   1.0000

          k =-0.4998 0.0000-0.0767 (  3891 PWs)   bands (ev):

   -66.8873 -66.8863 -33.8920 -33.8900 -33.8788 -33.8723 -33.8703 -33.8594
   -10.8314 -10.6142   1.8877   2.2461   2.9632   3.0384   3.5037   3.8047

     occupation numbers 
     1.0000   1.0000   1.0000   1.0000   1.0000   1.0000   1.0000   1.0000
     1.0000   1.0000   1.0000   1.0000   1.0000   1.0000   1.0000   1.0000

          k =-0.4998 0.1443 0.0000 (  3891 PWs)   bands (ev):

   -66.8874 -66.8863 -33.8956 -33.8902 -33.8768 -33.8729 -33.8676 -33.8596
   -10.8349 -10.6099   1.6433   2.3622   2.7374   3.3087   3.6604   3.8534

     occupation numbers 
     1.0000   1.0000   1.0000   1.0000   1.0000   1.0000   1.0000   1.0000
     1.0000   1.0000   1.0000   1.0000   1.0000   1.0000   1.0000   1.0000

          k =-0.4998 0.1443 0.0767 (  3898 PWs)   bands (ev):

   -66.8873 -66.8863 -33.8962 -33.8911 -33.8766 -33.8715 -33.8680 -33.8594
   -10.8257 -10.6177   1.6126   2.2316   2.8416   3.3429   3.6902   3.8652

     occupation numbers 
     1.0000   1.0000   1.0000   1.0000   1.0000   1.0000   1.0000   1.0000
     1.0000   1.0000   1.0000   1.0000   1.0000   1.0000   1.0000   1.0000

          k =-0.4998 0.1443 0.1533 (  3893 PWs)   bands (ev):

   -66.8872 -66.8865 -33.8974 -33.8932 -33.8758 -33.8694 -33.8679 -33.8592
   -10.7996 -10.6403   1.5599   1.9961   3.0059   3.4706   3.6539   3.9424

     occupation numbers 
     1.0000   1.0000   1.0000   1.0000   1.0000   1.0000   1.0000   1.0000
     1.0000   1.0000   1.0000   1.0000   1.0000   1.0000   1.0000   1.0000

          k =-0.4998 0.1443 0.2300 (  3892 PWs)   bands (ev):

   -66.8870 -66.8866 -33.8979 -33.8956 -33.8744 -33.8708 -33.8644 -33.8598
   -10.7614 -10.6751   1.5495   1.7747   3.1652   3.4778   3.7264   3.9783

     occupation numbers 
     1.0000   1.0000   1.0000   1.0000   1.0000   1.0000   1.0000   1.0000
     1.0000   1.0000   1.0000   1.0000   1.0000   1.0000   1.0000   1.0000

          k =-0.4998 0.1443-0.3066 (  3904 PWs)   bands (ev):

   -66.8868 -66.8868 -33.8973 -33.8973 -33.8726 -33.8726 -33.8615 -33.8615
   -10.7175 -10.7175   1.6189   1.6189   3.3272   3.3273   3.8984   3.8984

     occupation numbers 
     1.0000   1.0000   1.0000   1.0000   1.0000   1.0000   1.0000   1.0000
     1.0000   1.0000   1.0000   1.0000   1.0000   1.0000   1.0000   1.0000

          k =-0.4998 0.1443-0.2300 (  3892 PWs)   bands (ev):

   -66.8870 -66.8866 -33.8979 -33.8956 -33.8744 -33.8708 -33.8644 -33.8598
   -10.7614 -10.6751   1.5495   1.7747   3.1652   3.4778   3.7264   3.9783

     occupation numbers 
     1.0000   1.0000   1.0000   1.0000   1.0000   1.0000   1.0000   1.0000
     1.0000   1.0000   1.0000   1.0000   1.0000   1.0000   1.0000   1.0000

          k =-0.4998 0.1443-0.1533 (  3893 PWs)   bands (ev):

   -66.8872 -66.8865 -33.8974 -33.8932 -33.8758 -33.8694 -33.8679 -33.8592
   -10.7996 -10.6403   1.5599   1.9961   3.0059   3.4706   3.6539   3.9424

     occupation numbers 
     1.0000   1.0000   1.0000   1.0000   1.0000   1.0000   1.0000   1.0000
     1.0000   1.0000   1.0000   1.0000   1.0000   1.0000   1.0000   1.0000

          k =-0.4998 0.1443-0.0767 (  3898 PWs)   bands (ev):

   -66.8873 -66.8863 -33.8962 -33.8911 -33.8766 -33.8715 -33.8680 -33.8594
   -10.8257 -10.6177   1.6126   2.2316   2.8416   3.3429   3.6902   3.8652

     occupation numbers 
     1.0000   1.0000   1.0000   1.0000   1.0000   1.0000   1.0000   1.0000
     1.0000   1.0000   1.0000   1.0000   1.0000   1.0000   1.0000   1.0000

          k =-0.4998-0.8657 0.0000 (  3872 PWs)   bands (ev):

   -66.8874 -66.8863 -33.8981 -33.8922 -33.8742 -33.8735 -33.8651 -33.8597
   -10.8286 -10.6142   1.4742   2.2346   2.7771   3.5239   3.6107   4.0872

     occupation numbers 
     1.0000   1.0000   1.0000   1.0000   1.0000   1.0000   1.0000   1.0000
     1.0000   1.0000   1.0000   1.0000   1.0000   1.0000   1.0000   1.0000

          k =-0.4998-0.8657 0.0767 (  3916 PWs)   bands (ev):

   -66.8873 -66.8863 -33.8987 -33.8930 -33.8738 -33.8721 -33.8655 -33.8596
   -10.8197 -10.6215   1.4399   2.1230   2.8790   3.5434   3.6812   4.0636

     occupation numbers 
     1.0000   1.0000   1.0000   1.0000   1.0000   1.0000   1.0000   1.0000
     1.0000   1.0000   1.0000   1.0000   1.0000   1.0000   1.0000   1.0000

          k =-0.4998-0.8657 0.1533 (  3908 PWs)   bands (ev):

   -66.8872 -66.8865 -33.8998 -33.8952 -33.8728 -33.8689 -33.8665 -33.8596
   -10.7947 -10.6429   1.3852   1.8825   3.1269   3.5999   3.7905   3.9975

     occupation numbers 
     1.0000   1.0000   1.0000   1.0000   1.0000   1.0000   1.0000   1.0000
     1.0000   1.0000   1.0000   1.0000   1.0000   1.0000   1.0000   1.0000

          k =-0.4998-0.8657 0.2300 (  3906 PWs)   bands (ev):

   -66.8870 -66.8866 -33.9003 -33.8977 -33.8714 -33.8679 -33.8653 -33.8603
   -10.7581 -10.6758   1.3816   1.6409   3.4192   3.6864   3.8014   3.9013

     occupation numbers 
     1.0000   1.0000   1.0000   1.0000   1.0000   1.0000   1.0000   1.0000
     1.0000   1.0000   1.0000   1.0000   1.0000   1.0000   1.0000   1.0000

          k =-0.4998-0.8657-0.3066 (  3896 PWs)   bands (ev):

   -66.8868 -66.8868 -33.8995 -33.8995 -33.8696 -33.8696 -33.8622 -33.8622
   -10.7162 -10.7162   1.4655   1.4655   3.6674   3.6674   3.7919   3.7919

     occupation numbers 
     1.0000   1.0000   1.0000   1.0000   1.0000   1.0000   1.0000   1.0000
     1.0000   1.0000   1.0000   1.0000   1.0000   1.0000   1.0000   1.0000

     highest occupied level (ev):     4.2883

!    total energy              =    -315.17541632 Ry
     Harris-Foulkes estimate   =    -315.17541631 Ry
     estimated scf accuracy    <          1.5E-10 Ry

     The total energy is the sum of the following terms:

     one-electron contribution =    -213.71521822 Ry
     hartree contribution      =     112.99997941 Ry
     xc contribution           =     -48.05058629 Ry
     ewald contribution        =    -166.40959122 Ry

     convergence has been achieved in   9 iterations

     Forces acting on atoms (cartesian axes, Ry/au):

     atom    1 type  2   force =    -0.00000033    0.00000063   -0.01781197
     atom    2 type  2   force =    -0.00000012    0.00000051   -0.01781154
     atom    3 type  1   force =     0.00000015   -0.00000019    0.01781252
     atom    4 type  1   force =     0.00000029   -0.00000095    0.01781099
     The non-local contrib.  to forces
     atom    1 type  2   force =    -0.00000012   -0.00000075   -0.03174774
     atom    2 type  2   force =    -0.00000012    0.00000201   -0.03174651
     atom    3 type  1   force =     0.00000046   -0.00000168    0.02576559
     atom    4 type  1   force =     0.00000094   -0.00000052    0.02576440
     The ionic contribution  to forces
     atom    1 type  2   force =    -0.00000706    0.00001792   -0.11355306
     atom    2 type  2   force =    -0.00000240   -0.00000436   -0.11355157
     atom    3 type  1   force =     0.00000291   -0.00000968    0.11355107
     atom    4 type  1   force =     0.00000654   -0.00000388    0.11355355
     The local contribution  to forces
     atom    1 type  2   force =     0.00000684   -0.00001654    0.12711124
     atom    2 type  2   force =     0.00000239    0.00000288    0.12710865
     atom    3 type  1   force =    -0.00000322    0.00001118   -0.12150507
     atom    4 type  1   force =    -0.00000719    0.00000345   -0.12150166
     The core correction contribution to forces
     atom    1 type  2   force =     0.00000000   -0.00000000    0.00037653
     atom    2 type  2   force =     0.00000000   -0.00000002    0.00037652
     atom    3 type  1   force =     0.00000000    0.00000000    0.00000000
     atom    4 type  1   force =     0.00000000    0.00000000    0.00000000
     The Hubbard contrib.    to forces
     atom    1 type  2   force =     0.00000000    0.00000000    0.00000000
     atom    2 type  2   force =     0.00000000    0.00000000    0.00000000
     atom    3 type  1   force =     0.00000000    0.00000000    0.00000000
     atom    4 type  1   force =     0.00000000    0.00000000    0.00000000
     The SCF correction term to forces
     atom    1 type  2   force =     0.00000000    0.00000000    0.00000000
     atom    2 type  2   force =     0.00000000    0.00000000    0.00000000
     atom    3 type  1   force =     0.00000000    0.00000000    0.00000000
     atom    4 type  1   force =     0.00000000    0.00000000    0.00000000

     Total force =     0.000000     Total SCF correction =     0.000000


     Computing stress (Cartesian axis) and pressure

          total   stress  (Ry/bohr**3)                   (kbar)     P=    0.28
   0.00000246   0.00000000  -0.00000001          0.36      0.00     -0.00
   0.00000000   0.00000246  -0.00000001          0.00      0.36     -0.00
  -0.00000001  -0.00000001   0.00000078         -0.00     -0.00      0.12

     kinetic stress (kbar)  18863.36     -0.00     -0.00
                               -0.00  18863.36     -0.00
                               -0.00     -0.00  18836.74

     local   stress (kbar)  -7454.28     -0.01      0.02
                               -0.01  -7454.31     -0.05
                                0.02     -0.05 -11943.04

     nonloc. stress (kbar)   5160.19      0.00      0.00
                                0.00   5160.19      0.00
                                0.00      0.00   5176.06

     hartree stress (kbar)  16577.53      0.01     -0.01
                                0.01  16577.54      0.02
                               -0.01      0.02  18408.86

     exc-cor stress (kbar)  -6699.00      0.00      0.00
                                0.00  -6699.00      0.00
                                0.00      0.00  -6696.94

     corecor stress (kbar)   -246.91     -0.00      0.00
                               -0.00   -246.91     -0.00
                                0.00     -0.00   -246.89

     ewald   stress (kbar) -26200.52      0.01     -0.01
                                0.01 -26200.51      0.03
                               -0.01      0.03 -23534.67

     hubbard stress (kbar)      0.00      0.00      0.00
                                0.00      0.00      0.00
                                0.00      0.00      0.00

     london  stress (kbar)      0.00      0.00      0.00
                                0.00      0.00      0.00
                                0.00      0.00      0.00

     DFT-D3  stress (kbar)      0.00      0.00      0.00
                                0.00      0.00      0.00
                                0.00      0.00      0.00

     XDM     stress (kbar)      0.00      0.00      0.00
                                0.00      0.00      0.00
                                0.00      0.00      0.00

     dft-nl  stress (kbar)      0.00      0.00      0.00
                                0.00      0.00      0.00
                                0.00      0.00      0.00

     TS-vdW  stress (kbar)      0.00      0.00      0.00
                                0.00      0.00      0.00
                                0.00      0.00      0.00



     Writing output data file ZnO.save/
 
     init_run     :      0.87s CPU      1.21s WALL (       2 calls)
     electrons    :     45.63s CPU     49.45s WALL (      10 calls)
     update_pot   :      0.96s CPU      0.97s WALL (       8 calls)
     forces       :      1.29s CPU      1.31s WALL (      10 calls)
     stress       :      2.40s CPU      2.43s WALL (      10 calls)

     Called by init_run:
     wfcinit      :      0.53s CPU      0.64s WALL (       2 calls)
     wfcinit:atom :      0.00s CPU      0.01s WALL (     130 calls)
     wfcinit:wfcr :      0.51s CPU      0.60s WALL (     130 calls)
     potinit      :      0.10s CPU      0.13s WALL (       2 calls)
     hinit0       :      0.20s CPU      0.31s WALL (       2 calls)

     Called by electrons:
     c_bands      :     38.01s CPU     41.42s WALL (      68 calls)
     sum_band     :      5.49s CPU      5.65s WALL (      68 calls)
     v_of_rho     :      1.87s CPU      1.89s WALL (      74 calls)
     v_h          :      0.03s CPU      0.03s WALL (      74 calls)
     v_xc         :      2.34s CPU      2.36s WALL (      94 calls)
     newd         :      0.34s CPU      0.37s WALL (      74 calls)
     mix_rho      :      0.06s CPU      0.07s WALL (      68 calls)

     Called by c_bands:
     init_us_2    :      0.72s CPU      0.76s WALL (   10270 calls)
     cegterg      :     35.03s CPU     37.12s WALL (    4420 calls)

     Called by sum_band:
     sum_band:bec :      0.04s CPU      0.04s WALL (    4420 calls)
     addusdens    :      0.34s CPU      0.35s WALL (      68 calls)

     Called by *egterg:
     h_psi        :     21.22s CPU     21.99s WALL (   13879 calls)
     s_psi        :      0.75s CPU      0.78s WALL (   13879 calls)
     g_psi        :      0.05s CPU      0.05s WALL (    9329 calls)
     cdiaghg      :      7.86s CPU      8.71s WALL (   12969 calls)
     cegterg:over :      2.75s CPU      3.21s WALL (    9329 calls)
     cegterg:upda :      1.26s CPU      1.29s WALL (    9329 calls)
     cegterg:last :      0.70s CPU      0.72s WALL (    4550 calls)
     cdiaghg:chol :      0.54s CPU      0.62s WALL (   12969 calls)
     cdiaghg:inve :      0.16s CPU      0.19s WALL (   12969 calls)
     cdiaghg:para :      0.76s CPU      0.83s WALL (   25938 calls)

     Called by h_psi:
     h_psi:pot    :     21.16s CPU     21.93s WALL (   13879 calls)
     h_psi:calbec :      1.35s CPU      1.40s WALL (   13879 calls)
     vloc_psi     :     19.00s CPU     19.69s WALL (   13879 calls)
     add_vuspsi   :      0.77s CPU      0.81s WALL (   13879 calls)

     General routines
     calbec       :      2.19s CPU      2.26s WALL (   21549 calls)
     fft          :      0.38s CPU      0.41s WALL (    1204 calls)
     ffts         :      0.02s CPU      0.02s WALL (     142 calls)
     fftw         :     21.81s CPU     22.58s WALL (  444506 calls)
     interpolate  :      0.03s CPU      0.03s WALL (      74 calls)
 
     Parallel routines
     fft_scatt_xy :      2.96s CPU      3.06s WALL (  445852 calls)
     fft_scatt_yz :     11.18s CPU     11.59s WALL (  445852 calls)
 
     PWSCF        :     51.69s CPU     57.49s WALL

 
   This run was terminated on:  16:27:54   8Jun2022            

=------------------------------------------------------------------------------=
   JOB DONE.
=------------------------------------------------------------------------------=
