
     Program PWSCF v.6.4.1 starts on 15Jun2022 at 20:45:35 

     This program is part of the open-source Quantum ESPRESSO suite
     for quantum simulation of materials; please cite
         "P. Giannozzi et al., J. Phys.:Condens. Matter 21 395502 (2009);
         "P. Giannozzi et al., J. Phys.:Condens. Matter 29 465901 (2017);
          URL http://www.quantum-espresso.org", 
     in publications or presentations arising from this work. More details at
     http://www.quantum-espresso.org/quote

     Parallel version (MPI), running on    64 processors

     MPI processes distributed on     1 nodes
     K-points division:     npool     =       4
     R & G space division:  proc/nbgrp/npool/nimage =      16
     Waiting for input...
     Reading input from standard input
Warning: card &IONS ignored
Warning: card   UPSCALE           = 100.D0, ignored
Warning: card / ignored
Warning: card &CELL ignored
Warning: card   CELL_DYNAMICS     = 'BFGS' ignored
Warning: card   PRESS_CONV_THR    = 0.5D0 ignored
Warning: card   CELL_DOFREE = 'ALL' ignored
Warning: card / ignored

     Current dimensions of program PWSCF are:
     Max number of different atomic species (ntypx) = 10
     Max number of k-points (npk) =  40000
     Max angular momentum in pseudopotentials (lmaxx) =  3

     Subspace diagonalization in iterative solution of the eigenvalue problem:
     one sub-group per band group will be used
     scalapack distributed-memory algorithm (size of sub-group:  2*  2 procs)

 
     Parallelization info
     --------------------
     sticks:   dense  smooth     PW     G-vecs:    dense   smooth      PW
     Min         107      57     17                 4751     1849     319
     Max         108      58     18                 4756     1854     324
     Sum        1723     925    283                76045    29605    5133
 


     bravais-lattice index     =            0
     lattice parameter (alat)  =       6.4492  a.u.
     unit-cell volume          =     306.1181 (a.u.)^3
     number of atoms/cell      =            4
     number of atomic types    =            2
     number of electrons       =        52.00
     number of Kohn-Sham states=           26
     kinetic-energy cutoff     =      80.0000  Ry
     charge density cutoff     =     600.0000  Ry
     convergence threshold     =      1.0E-06
     mixing beta               =       0.5000
     number of iterations used =            8  plain     mixing
     Exchange-correlation      = SLA  PW   PSX  PSC ( 1  4 10  8 0 0)
     Using LIBXC version       =    4   3   4

     celldm(1)=   6.449210  celldm(2)=   0.000000  celldm(3)=   0.000000
     celldm(4)=   0.000000  celldm(5)=   0.000000  celldm(6)=   0.000000

     crystal axes: (cart. coord. in units of alat)
               a(1) = (   1.000000   0.000000   0.000000 )  
               a(2) = (  -0.500000   0.866025  -0.000000 )  
               a(3) = (   0.000000   0.000000   1.317768 )  

     reciprocal axes: (cart. coord. in units 2 pi/alat)
               b(1) = (  1.000000  0.577350 -0.000000 )  
               b(2) = ( -0.000000  1.154701 -0.000000 )  
               b(3) = ( -0.000000  0.000000  0.758859 )  


     PseudoPot. # 1 for Zn read from file:
     ./GBRV_PBEsol/zn_pbesol_v1.uspp.F.UPF
     MD5 check sum: 7d8615e52efe7c1e2b1899de8658bae2
     Pseudo is Ultrasoft, Zval = 20.0
     Generated by new atomic code, or converted to UPF format
     Using radial grid of  943 points,  6 beta functions with: 
                l(1) =   0
                l(2) =   0
                l(3) =   1
                l(4) =   1
                l(5) =   2
                l(6) =   2
     Q(r) pseudized with  8 coefficients,  rinner =    1.100   1.100   1.100
                                                       1.100   1.100

     PseudoPot. # 2 for O  read from file:
     ./GBRV_PBEsol/o_pbesol_v1.2.uspp.F.UPF
     MD5 check sum: 501638753501ef6325af9037351f7734
     Pseudo is Ultrasoft + core correction, Zval =  6.0
     Generated by new atomic code, or converted to UPF format
     Using radial grid of  737 points,  5 beta functions with: 
                l(1) =   0
                l(2) =   0
                l(3) =   1
                l(4) =   1
                l(5) =   2
     Q(r) pseudized with  8 coefficients,  rinner =    0.900   0.900   0.900
                                                       0.900   0.900

     atomic species   valence    mass     pseudopotential
        Zn            20.00    65.38000     Zn( 1.00)
        O              6.00    15.99900     O ( 1.00)

     No symmetry found


                                    s                        frac. trans.

      isym =  1     identity                                     

 cryst.   s( 1) = (     1          0          0      )
                  (     0          1          0      )
                  (     0          0          1      )

 cart.    s( 1) = (  1.0000000 -0.0000000 -0.0000000 )
                  (  0.0000000  1.0000000 -0.0000000 )
                  (  0.0000000  0.0000000  1.0000000 )


   Cartesian axes

     site n.     atom                  positions (alat units)
         1           O   tau(   1) = (   0.5000002   0.2886754   0.0096802  )
         2           O   tau(   2) = (   0.0000002   0.5773493   0.6685638  )
         3           Zn  tau(   3) = (   0.5000001   0.2886748   0.6672572  )
         4           Zn  tau(   4) = (  -0.0000000   0.5773511   1.3261409  )

   Crystallographic axes

     site n.     atom                  positions (cryst. coord.)
         1           O   tau(   1) = (  0.6666670  0.3333337  0.0073459  )
         2           O   tau(   2) = (  0.3333329  0.6666657  0.5073458  )
         3           Zn  tau(   3) = (  0.6666664  0.3333329  0.5063542  )
         4           Zn  tau(   4) = (  0.3333336  0.6666677  1.0063542  )

     number of k points=   260
                       cart. coord. in units 2pi/alat
        k(    1) = (   0.0000000   0.0000000   0.0000000), wk =   0.0039062
        k(    2) = (  -0.0000000   0.0000000   0.0948574), wk =   0.0078125
        k(    3) = (  -0.0000000   0.0000000   0.1897148), wk =   0.0078125
        k(    4) = (  -0.0000000   0.0000000   0.2845722), wk =   0.0078125
        k(    5) = (   0.0000000  -0.0000000  -0.3794296), wk =   0.0039062
        k(    6) = (  -0.0000000   0.1443376  -0.0000000), wk =   0.0078125
        k(    7) = (  -0.0000000   0.1443376   0.0948574), wk =   0.0078125
        k(    8) = (  -0.0000000   0.1443376   0.1897148), wk =   0.0078125
        k(    9) = (  -0.0000000   0.1443376   0.2845722), wk =   0.0078125
        k(   10) = (   0.0000000   0.1443376  -0.3794296), wk =   0.0078125
        k(   11) = (   0.0000000   0.1443376  -0.2845722), wk =   0.0078125
        k(   12) = (   0.0000000   0.1443376  -0.1897148), wk =   0.0078125
        k(   13) = (  -0.0000000   0.1443376  -0.0948574), wk =   0.0078125
        k(   14) = (  -0.0000000   0.2886752  -0.0000000), wk =   0.0078125
        k(   15) = (  -0.0000000   0.2886752   0.0948574), wk =   0.0078125
        k(   16) = (  -0.0000000   0.2886752   0.1897148), wk =   0.0078125
        k(   17) = (  -0.0000001   0.2886752   0.2845722), wk =   0.0078125
        k(   18) = (   0.0000000   0.2886752  -0.3794296), wk =   0.0078125
        k(   19) = (   0.0000000   0.2886752  -0.2845722), wk =   0.0078125
        k(   20) = (  -0.0000000   0.2886752  -0.1897148), wk =   0.0078125
        k(   21) = (  -0.0000000   0.2886752  -0.0948574), wk =   0.0078125
        k(   22) = (  -0.0000000   0.4330128  -0.0000000), wk =   0.0078125
        k(   23) = (  -0.0000000   0.4330128   0.0948574), wk =   0.0078125
        k(   24) = (  -0.0000001   0.4330128   0.1897148), wk =   0.0078125
        k(   25) = (  -0.0000001   0.4330128   0.2845721), wk =   0.0078125
        k(   26) = (   0.0000000   0.4330128  -0.3794296), wk =   0.0078125
        k(   27) = (  -0.0000000   0.4330128  -0.2845722), wk =   0.0078125
        k(   28) = (  -0.0000000   0.4330128  -0.1897148), wk =   0.0078125
        k(   29) = (  -0.0000000   0.4330128  -0.0948574), wk =   0.0078125
        k(   30) = (   0.0000001  -0.5773504   0.0000000), wk =   0.0039062
        k(   31) = (   0.0000000  -0.5773504   0.0948574), wk =   0.0078125
        k(   32) = (   0.0000000  -0.5773504   0.1897148), wk =   0.0078125
        k(   33) = (   0.0000000  -0.5773504   0.2845722), wk =   0.0078125
        k(   34) = (   0.0000001  -0.5773504  -0.3794295), wk =   0.0039062
        k(   35) = (   0.1250000   0.0721688  -0.0000000), wk =   0.0078125
        k(   36) = (   0.1250000   0.0721688   0.0948574), wk =   0.0078125
        k(   37) = (   0.1250000   0.0721688   0.1897148), wk =   0.0078125
        k(   38) = (   0.1250000   0.0721688   0.2845722), wk =   0.0078125
        k(   39) = (   0.1250000   0.0721688  -0.3794296), wk =   0.0078125
        k(   40) = (   0.1250000   0.0721688  -0.2845722), wk =   0.0078125
        k(   41) = (   0.1250000   0.0721688  -0.1897148), wk =   0.0078125
        k(   42) = (   0.1250000   0.0721688  -0.0948574), wk =   0.0078125
        k(   43) = (   0.1250000   0.2165064  -0.0000000), wk =   0.0078125
        k(   44) = (   0.1250000   0.2165064   0.0948574), wk =   0.0078125
        k(   45) = (   0.1250000   0.2165064   0.1897148), wk =   0.0078125
        k(   46) = (   0.1249999   0.2165064   0.2845721), wk =   0.0078125
        k(   47) = (   0.1250000   0.2165064  -0.3794296), wk =   0.0078125
        k(   48) = (   0.1250000   0.2165064  -0.2845722), wk =   0.0078125
        k(   49) = (   0.1250000   0.2165064  -0.1897148), wk =   0.0078125
        k(   50) = (   0.1250000   0.2165064  -0.0948574), wk =   0.0078125
        k(   51) = (   0.1250000   0.3608440  -0.0000000), wk =   0.0078125
        k(   52) = (   0.1250000   0.3608440   0.0948574), wk =   0.0078125
        k(   53) = (   0.1249999   0.3608440   0.1897147), wk =   0.0078125
        k(   54) = (   0.1249999   0.3608440   0.2845721), wk =   0.0078125
        k(   55) = (   0.1250000   0.3608440  -0.3794296), wk =   0.0078125
        k(   56) = (   0.1250000   0.3608440  -0.2845722), wk =   0.0078125
        k(   57) = (   0.1250000   0.3608440  -0.1897148), wk =   0.0078125
        k(   58) = (   0.1250000   0.3608440  -0.0948574), wk =   0.0078125
        k(   59) = (   0.1250000   0.5051816  -0.0000000), wk =   0.0078125
        k(   60) = (   0.1249999   0.5051816   0.0948574), wk =   0.0078125
        k(   61) = (   0.1249999   0.5051816   0.1897147), wk =   0.0078125
        k(   62) = (   0.1249999   0.5051816   0.2845721), wk =   0.0078125
        k(   63) = (   0.1250000   0.5051816  -0.3794296), wk =   0.0078125
        k(   64) = (   0.1250000   0.5051816  -0.2845722), wk =   0.0078125
        k(   65) = (   0.1250000   0.5051816  -0.1897148), wk =   0.0078125
        k(   66) = (   0.1250000   0.5051816  -0.0948574), wk =   0.0078125
        k(   67) = (   0.1250000  -0.5051816   0.0000000), wk =   0.0078125
        k(   68) = (   0.1250000  -0.5051816   0.0948574), wk =   0.0078125
        k(   69) = (   0.1250000  -0.5051816   0.1897148), wk =   0.0078125
        k(   70) = (   0.1250000  -0.5051816   0.2845722), wk =   0.0078125
        k(   71) = (   0.1250001  -0.5051816  -0.3794295), wk =   0.0078125
        k(   72) = (   0.1250001  -0.5051816  -0.2845721), wk =   0.0078125
        k(   73) = (   0.1250001  -0.5051816  -0.1897148), wk =   0.0078125
        k(   74) = (   0.1250001  -0.5051816  -0.0948574), wk =   0.0078125
        k(   75) = (   0.1250000  -0.3608440   0.0000000), wk =   0.0078125
        k(   76) = (   0.1250000  -0.3608440   0.0948574), wk =   0.0078125
        k(   77) = (   0.1250000  -0.3608440   0.1897148), wk =   0.0078125
        k(   78) = (   0.1250000  -0.3608440   0.2845722), wk =   0.0078125
        k(   79) = (   0.1250001  -0.3608440  -0.3794295), wk =   0.0078125
        k(   80) = (   0.1250001  -0.3608440  -0.2845722), wk =   0.0078125
        k(   81) = (   0.1250001  -0.3608440  -0.1897148), wk =   0.0078125
        k(   82) = (   0.1250000  -0.3608440  -0.0948574), wk =   0.0078125
        k(   83) = (   0.1250000  -0.2165064   0.0000000), wk =   0.0078125
        k(   84) = (   0.1250000  -0.2165064   0.0948574), wk =   0.0078125
        k(   85) = (   0.1250000  -0.2165064   0.1897148), wk =   0.0078125
        k(   86) = (   0.1250000  -0.2165064   0.2845722), wk =   0.0078125
        k(   87) = (   0.1250001  -0.2165064  -0.3794296), wk =   0.0078125
        k(   88) = (   0.1250001  -0.2165064  -0.2845722), wk =   0.0078125
        k(   89) = (   0.1250000  -0.2165064  -0.1897148), wk =   0.0078125
        k(   90) = (   0.1250000  -0.2165064  -0.0948574), wk =   0.0078125
        k(   91) = (   0.1250000  -0.0721688  -0.0000000), wk =   0.0078125
        k(   92) = (   0.1250000  -0.0721688   0.0948574), wk =   0.0078125
        k(   93) = (   0.1250000  -0.0721688   0.1897148), wk =   0.0078125
        k(   94) = (   0.1250000  -0.0721688   0.2845722), wk =   0.0078125
        k(   95) = (   0.1250001  -0.0721688  -0.3794296), wk =   0.0078125
        k(   96) = (   0.1250000  -0.0721688  -0.2845722), wk =   0.0078125
        k(   97) = (   0.1250000  -0.0721688  -0.1897148), wk =   0.0078125
        k(   98) = (   0.1250000  -0.0721688  -0.0948574), wk =   0.0078125
        k(   99) = (   0.2500000   0.1443376  -0.0000000), wk =   0.0078125
        k(  100) = (   0.2500000   0.1443376   0.0948574), wk =   0.0078125
        k(  101) = (   0.2500000   0.1443376   0.1897148), wk =   0.0078125
        k(  102) = (   0.2500000   0.1443376   0.2845721), wk =   0.0078125
        k(  103) = (   0.2500000   0.1443375  -0.3794296), wk =   0.0078125
        k(  104) = (   0.2500000   0.1443376  -0.2845722), wk =   0.0078125
        k(  105) = (   0.2500000   0.1443376  -0.1897148), wk =   0.0078125
        k(  106) = (   0.2500000   0.1443376  -0.0948574), wk =   0.0078125
        k(  107) = (   0.2500000   0.2886752  -0.0000000), wk =   0.0078125
        k(  108) = (   0.2500000   0.2886752   0.0948574), wk =   0.0078125
        k(  109) = (   0.2500000   0.2886752   0.1897147), wk =   0.0078125
        k(  110) = (   0.2499999   0.2886752   0.2845721), wk =   0.0078125
        k(  111) = (   0.2500000   0.2886751  -0.3794296), wk =   0.0078125
        k(  112) = (   0.2500000   0.2886752  -0.2845722), wk =   0.0078125
        k(  113) = (   0.2500000   0.2886752  -0.1897148), wk =   0.0078125
        k(  114) = (   0.2500000   0.2886752  -0.0948574), wk =   0.0078125
        k(  115) = (   0.2500000   0.4330128  -0.0000000), wk =   0.0078125
        k(  116) = (   0.2500000   0.4330128   0.0948573), wk =   0.0078125
        k(  117) = (   0.2499999   0.4330128   0.1897147), wk =   0.0078125
        k(  118) = (   0.2499999   0.4330128   0.2845721), wk =   0.0078125
        k(  119) = (   0.2500000   0.4330127  -0.3794296), wk =   0.0078125
        k(  120) = (   0.2500000   0.4330128  -0.2845722), wk =   0.0078125
        k(  121) = (   0.2500000   0.4330128  -0.1897148), wk =   0.0078125
        k(  122) = (   0.2500000   0.4330128  -0.0948574), wk =   0.0078125
        k(  123) = (   0.2499999   0.5773504  -0.0000001), wk =   0.0078125
        k(  124) = (   0.2499999   0.5773504   0.0948573), wk =   0.0078125
        k(  125) = (   0.2499999   0.5773504   0.1897147), wk =   0.0078125
        k(  126) = (   0.2499999   0.5773504   0.2845721), wk =   0.0078125
        k(  127) = (   0.2500000   0.5773503  -0.3794296), wk =   0.0078125
        k(  128) = (   0.2500000   0.5773504  -0.2845722), wk =   0.0078125
        k(  129) = (   0.2500000   0.5773504  -0.1897148), wk =   0.0078125
        k(  130) = (   0.2500000   0.5773504  -0.0948574), wk =   0.0078125
        k(  131) = (   0.2500000  -0.4330128   0.0000000), wk =   0.0078125
        k(  132) = (   0.2500000  -0.4330128   0.0948574), wk =   0.0078125
        k(  133) = (   0.2500000  -0.4330128   0.1897148), wk =   0.0078125
        k(  134) = (   0.2500000  -0.4330128   0.2845722), wk =   0.0078125
        k(  135) = (   0.2500001  -0.4330128  -0.3794296), wk =   0.0078125
        k(  136) = (   0.2500001  -0.4330128  -0.2845722), wk =   0.0078125
        k(  137) = (   0.2500001  -0.4330128  -0.1897148), wk =   0.0078125
        k(  138) = (   0.2500000  -0.4330128  -0.0948574), wk =   0.0078125
        k(  139) = (   0.2500000  -0.2886752  -0.0000000), wk =   0.0078125
        k(  140) = (   0.2500000  -0.2886752   0.0948574), wk =   0.0078125
        k(  141) = (   0.2500000  -0.2886752   0.1897148), wk =   0.0078125
        k(  142) = (   0.2500000  -0.2886752   0.2845722), wk =   0.0078125
        k(  143) = (   0.2500001  -0.2886752  -0.3794296), wk =   0.0078125
        k(  144) = (   0.2500001  -0.2886752  -0.2845722), wk =   0.0078125
        k(  145) = (   0.2500000  -0.2886752  -0.1897148), wk =   0.0078125
        k(  146) = (   0.2500000  -0.2886752  -0.0948574), wk =   0.0078125
        k(  147) = (   0.2500000  -0.1443376  -0.0000000), wk =   0.0078125
        k(  148) = (   0.2500000  -0.1443376   0.0948574), wk =   0.0078125
        k(  149) = (   0.2500000  -0.1443376   0.1897148), wk =   0.0078125
        k(  150) = (   0.2500000  -0.1443376   0.2845722), wk =   0.0078125
        k(  151) = (   0.2500001  -0.1443376  -0.3794296), wk =   0.0078125
        k(  152) = (   0.2500000  -0.1443376  -0.2845722), wk =   0.0078125
        k(  153) = (   0.2500000  -0.1443376  -0.1897148), wk =   0.0078125
        k(  154) = (   0.2500000  -0.1443376  -0.0948574), wk =   0.0078125
        k(  155) = (   0.2500000  -0.0000000  -0.0000000), wk =   0.0078125
        k(  156) = (   0.2500000  -0.0000000   0.0948574), wk =   0.0078125
        k(  157) = (   0.2500000  -0.0000000   0.1897148), wk =   0.0078125
        k(  158) = (   0.2500000  -0.0000000   0.2845721), wk =   0.0078125
        k(  159) = (   0.2500000  -0.0000001  -0.3794296), wk =   0.0078125
        k(  160) = (   0.2500000  -0.0000000  -0.2845722), wk =   0.0078125
        k(  161) = (   0.2500000  -0.0000000  -0.1897148), wk =   0.0078125
        k(  162) = (   0.2500000  -0.0000000  -0.0948574), wk =   0.0078125
        k(  163) = (   0.3750000   0.2165064  -0.0000000), wk =   0.0078125
        k(  164) = (   0.3750000   0.2165064   0.0948573), wk =   0.0078125
        k(  165) = (   0.3750000   0.2165064   0.1897147), wk =   0.0078125
        k(  166) = (   0.3749999   0.2165064   0.2845721), wk =   0.0078125
        k(  167) = (   0.3750000   0.2165063  -0.3794296), wk =   0.0078125
        k(  168) = (   0.3750000   0.2165063  -0.2845722), wk =   0.0078125
        k(  169) = (   0.3750000   0.2165064  -0.1897148), wk =   0.0078125
        k(  170) = (   0.3750000   0.2165064  -0.0948574), wk =   0.0078125
        k(  171) = (   0.3750000   0.3608440  -0.0000000), wk =   0.0078125
        k(  172) = (   0.3750000   0.3608440   0.0948573), wk =   0.0078125
        k(  173) = (   0.3749999   0.3608440   0.1897147), wk =   0.0078125
        k(  174) = (   0.3749999   0.3608440   0.2845721), wk =   0.0078125
        k(  175) = (   0.3750000   0.3608439  -0.3794296), wk =   0.0078125
        k(  176) = (   0.3750000   0.3608439  -0.2845722), wk =   0.0078125
        k(  177) = (   0.3750000   0.3608440  -0.1897148), wk =   0.0078125
        k(  178) = (   0.3750000   0.3608440  -0.0948574), wk =   0.0078125
        k(  179) = (   0.3750000   0.5051816  -0.0000001), wk =   0.0078125
        k(  180) = (   0.3749999   0.5051816   0.0948573), wk =   0.0078125
        k(  181) = (   0.3749999   0.5051816   0.1897147), wk =   0.0078125
        k(  182) = (   0.3749999   0.5051816   0.2845721), wk =   0.0078125
        k(  183) = (   0.3750000   0.5051815  -0.3794296), wk =   0.0078125
        k(  184) = (   0.3750000   0.5051815  -0.2845722), wk =   0.0078125
        k(  185) = (   0.3750000   0.5051816  -0.1897148), wk =   0.0078125
        k(  186) = (   0.3750000   0.5051816  -0.0948574), wk =   0.0078125
        k(  187) = (   0.3749999   0.6495192  -0.0000001), wk =   0.0078125
        k(  188) = (   0.3749999   0.6495192   0.0948573), wk =   0.0078125
        k(  189) = (   0.3749999   0.6495192   0.1897147), wk =   0.0078125
        k(  190) = (   0.3749999   0.6495192   0.2845721), wk =   0.0078125
        k(  191) = (   0.3750000   0.6495191  -0.3794296), wk =   0.0078125
        k(  192) = (   0.3750000   0.6495191  -0.2845722), wk =   0.0078125
        k(  193) = (   0.3750000   0.6495191  -0.1897148), wk =   0.0078125
        k(  194) = (   0.3750000   0.6495192  -0.0948575), wk =   0.0078125
        k(  195) = (   0.3750000  -0.3608440  -0.0000000), wk =   0.0078125
        k(  196) = (   0.3750000  -0.3608440   0.0948574), wk =   0.0078125
        k(  197) = (   0.3750000  -0.3608440   0.1897148), wk =   0.0078125
        k(  198) = (   0.3750000  -0.3608440   0.2845722), wk =   0.0078125
        k(  199) = (   0.3750001  -0.3608441  -0.3794296), wk =   0.0078125
        k(  200) = (   0.3750001  -0.3608441  -0.2845722), wk =   0.0078125
        k(  201) = (   0.3750001  -0.3608440  -0.1897148), wk =   0.0078125
        k(  202) = (   0.3750000  -0.3608440  -0.0948574), wk =   0.0078125
        k(  203) = (   0.3750000  -0.2165064  -0.0000000), wk =   0.0078125
        k(  204) = (   0.3750000  -0.2165064   0.0948574), wk =   0.0078125
        k(  205) = (   0.3750000  -0.2165064   0.1897148), wk =   0.0078125
        k(  206) = (   0.3750000  -0.2165064   0.2845722), wk =   0.0078125
        k(  207) = (   0.3750001  -0.2165065  -0.3794296), wk =   0.0078125
        k(  208) = (   0.3750001  -0.2165065  -0.2845722), wk =   0.0078125
        k(  209) = (   0.3750000  -0.2165064  -0.1897148), wk =   0.0078125
        k(  210) = (   0.3750000  -0.2165064  -0.0948574), wk =   0.0078125
        k(  211) = (   0.3750000  -0.0721688  -0.0000000), wk =   0.0078125
        k(  212) = (   0.3750000  -0.0721688   0.0948574), wk =   0.0078125
        k(  213) = (   0.3750000  -0.0721688   0.1897148), wk =   0.0078125
        k(  214) = (   0.3750000  -0.0721688   0.2845721), wk =   0.0078125
        k(  215) = (   0.3750001  -0.0721689  -0.3794296), wk =   0.0078125
        k(  216) = (   0.3750000  -0.0721689  -0.2845722), wk =   0.0078125
        k(  217) = (   0.3750000  -0.0721688  -0.1897148), wk =   0.0078125
        k(  218) = (   0.3750000  -0.0721688  -0.0948574), wk =   0.0078125
        k(  219) = (   0.3750000   0.0721688  -0.0000000), wk =   0.0078125
        k(  220) = (   0.3750000   0.0721688   0.0948574), wk =   0.0078125
        k(  221) = (   0.3750000   0.0721688   0.1897147), wk =   0.0078125
        k(  222) = (   0.3750000   0.0721688   0.2845721), wk =   0.0078125
        k(  223) = (   0.3750000   0.0721687  -0.3794296), wk =   0.0078125
        k(  224) = (   0.3750000   0.0721687  -0.2845722), wk =   0.0078125
        k(  225) = (   0.3750000   0.0721688  -0.1897148), wk =   0.0078125
        k(  226) = (   0.3750000   0.0721688  -0.0948574), wk =   0.0078125
        k(  227) = (  -0.5000000  -0.2886752   0.0000001), wk =   0.0039062
        k(  228) = (  -0.5000000  -0.2886751   0.0948574), wk =   0.0078125
        k(  229) = (  -0.5000000  -0.2886751   0.1897148), wk =   0.0078125
        k(  230) = (  -0.5000000  -0.2886751   0.2845722), wk =   0.0078125
        k(  231) = (  -0.4999999  -0.2886752  -0.3794295), wk =   0.0039062
        k(  232) = (  -0.5000000  -0.1443376   0.0000000), wk =   0.0078125
        k(  233) = (  -0.5000000  -0.1443375   0.0948574), wk =   0.0078125
        k(  234) = (  -0.5000000  -0.1443375   0.1897148), wk =   0.0078125
        k(  235) = (  -0.5000000  -0.1443375   0.2845722), wk =   0.0078125
        k(  236) = (  -0.4999999  -0.1443376  -0.3794295), wk =   0.0078125
        k(  237) = (  -0.5000000  -0.1443376  -0.2845721), wk =   0.0078125
        k(  238) = (  -0.5000000  -0.1443376  -0.1897147), wk =   0.0078125
        k(  239) = (  -0.5000000  -0.1443376  -0.0948573), wk =   0.0078125
        k(  240) = (  -0.5000000   0.0000000   0.0000000), wk =   0.0078125
        k(  241) = (  -0.5000000   0.0000001   0.0948574), wk =   0.0078125
        k(  242) = (  -0.5000000   0.0000001   0.1897148), wk =   0.0078125
        k(  243) = (  -0.5000000   0.0000001   0.2845722), wk =   0.0078125
        k(  244) = (  -0.5000000   0.0000000  -0.3794295), wk =   0.0078125
        k(  245) = (  -0.5000000   0.0000000  -0.2845721), wk =   0.0078125
        k(  246) = (  -0.5000000   0.0000000  -0.1897147), wk =   0.0078125
        k(  247) = (  -0.5000000   0.0000000  -0.0948574), wk =   0.0078125
        k(  248) = (  -0.5000000   0.1443376   0.0000000), wk =   0.0078125
        k(  249) = (  -0.5000000   0.1443376   0.0948574), wk =   0.0078125
        k(  250) = (  -0.5000000   0.1443377   0.1897148), wk =   0.0078125
        k(  251) = (  -0.5000000   0.1443377   0.2845722), wk =   0.0078125
        k(  252) = (  -0.5000000   0.1443376  -0.3794295), wk =   0.0078125
        k(  253) = (  -0.5000000   0.1443376  -0.2845721), wk =   0.0078125
        k(  254) = (  -0.5000000   0.1443376  -0.1897147), wk =   0.0078125
        k(  255) = (  -0.5000000   0.1443376  -0.0948574), wk =   0.0078125
        k(  256) = (  -0.4999999  -0.8660256   0.0000001), wk =   0.0039062
        k(  257) = (  -0.4999999  -0.8660255   0.0948575), wk =   0.0078125
        k(  258) = (  -0.4999999  -0.8660255   0.1897149), wk =   0.0078125
        k(  259) = (  -0.5000000  -0.8660255   0.2845723), wk =   0.0078125
        k(  260) = (  -0.4999999  -0.8660256  -0.3794295), wk =   0.0039062

                       cryst. coord.
        k(    1) = (   0.0000000   0.0000000   0.0000000), wk =   0.0039062
        k(    2) = (  -0.0000000  -0.0000000   0.1250000), wk =   0.0078125
        k(    3) = (  -0.0000000  -0.0000000   0.2500000), wk =   0.0078125
        k(    4) = (   0.0000000  -0.0000000   0.3750000), wk =   0.0078125
        k(    5) = (   0.0000000   0.0000000  -0.5000000), wk =   0.0039062
        k(    6) = (   0.0000000   0.1250000   0.0000000), wk =   0.0078125
        k(    7) = (   0.0000000   0.1250000   0.1250000), wk =   0.0078125
        k(    8) = (  -0.0000000   0.1250000   0.2500000), wk =   0.0078125
        k(    9) = (   0.0000000   0.1250000   0.3750000), wk =   0.0078125
        k(   10) = (  -0.0000000   0.1250000  -0.5000000), wk =   0.0078125
        k(   11) = (   0.0000000   0.1250000  -0.3750000), wk =   0.0078125
        k(   12) = (   0.0000000   0.1250000  -0.2500000), wk =   0.0078125
        k(   13) = (   0.0000000   0.1250000  -0.1250000), wk =   0.0078125
        k(   14) = (   0.0000000   0.2500000   0.0000000), wk =   0.0078125
        k(   15) = (  -0.0000000   0.2500000   0.1250000), wk =   0.0078125
        k(   16) = (   0.0000000   0.2500000   0.2500000), wk =   0.0078125
        k(   17) = (   0.0000000   0.2500000   0.3750000), wk =   0.0078125
        k(   18) = (   0.0000000   0.2500000  -0.5000000), wk =   0.0078125
        k(   19) = (   0.0000000   0.2500000  -0.3750000), wk =   0.0078125
        k(   20) = (   0.0000000   0.2500000  -0.2500000), wk =   0.0078125
        k(   21) = (   0.0000000   0.2500000  -0.1250000), wk =   0.0078125
        k(   22) = (  -0.0000000   0.3750000   0.0000000), wk =   0.0078125
        k(   23) = (  -0.0000000   0.3750000   0.1250000), wk =   0.0078125
        k(   24) = (   0.0000000   0.3750000   0.2500000), wk =   0.0078125
        k(   25) = (  -0.0000000   0.3750000   0.3750000), wk =   0.0078125
        k(   26) = (   0.0000000   0.3750000  -0.5000000), wk =   0.0078125
        k(   27) = (   0.0000000   0.3750000  -0.3750000), wk =   0.0078125
        k(   28) = (   0.0000000   0.3750000  -0.2500000), wk =   0.0078125
        k(   29) = (   0.0000000   0.3750000  -0.1250000), wk =   0.0078125
        k(   30) = (  -0.0000000  -0.5000000  -0.0000000), wk =   0.0039062
        k(   31) = (  -0.0000000  -0.5000000   0.1250000), wk =   0.0078125
        k(   32) = (  -0.0000000  -0.5000000   0.2500000), wk =   0.0078125
        k(   33) = (  -0.0000000  -0.5000000   0.3750000), wk =   0.0078125
        k(   34) = (  -0.0000000  -0.5000000  -0.5000000), wk =   0.0039062
        k(   35) = (   0.1250000  -0.0000000   0.0000000), wk =   0.0078125
        k(   36) = (   0.1250000  -0.0000000   0.1250000), wk =   0.0078125
        k(   37) = (   0.1250000  -0.0000000   0.2500000), wk =   0.0078125
        k(   38) = (   0.1250000  -0.0000000   0.3750000), wk =   0.0078125
        k(   39) = (   0.1250000  -0.0000000  -0.5000000), wk =   0.0078125
        k(   40) = (   0.1250000  -0.0000000  -0.3750000), wk =   0.0078125
        k(   41) = (   0.1250000  -0.0000000  -0.2500000), wk =   0.0078125
        k(   42) = (   0.1250000  -0.0000000  -0.1250000), wk =   0.0078125
        k(   43) = (   0.1250000   0.1250000   0.0000000), wk =   0.0078125
        k(   44) = (   0.1250000   0.1250000   0.1250000), wk =   0.0078125
        k(   45) = (   0.1250000   0.1250000   0.2500000), wk =   0.0078125
        k(   46) = (   0.1250000   0.1250000   0.3750000), wk =   0.0078125
        k(   47) = (   0.1250000   0.1250000  -0.5000000), wk =   0.0078125
        k(   48) = (   0.1250000   0.1250000  -0.3750000), wk =   0.0078125
        k(   49) = (   0.1250000   0.1250000  -0.2500000), wk =   0.0078125
        k(   50) = (   0.1250000   0.1250000  -0.1250000), wk =   0.0078125
        k(   51) = (   0.1250000   0.2500000   0.0000000), wk =   0.0078125
        k(   52) = (   0.1250000   0.2500000   0.1250000), wk =   0.0078125
        k(   53) = (   0.1250000   0.2500000   0.2500000), wk =   0.0078125
        k(   54) = (   0.1250000   0.2500000   0.3750000), wk =   0.0078125
        k(   55) = (   0.1250000   0.2500000  -0.5000000), wk =   0.0078125
        k(   56) = (   0.1250000   0.2500000  -0.3750000), wk =   0.0078125
        k(   57) = (   0.1250000   0.2500000  -0.2500000), wk =   0.0078125
        k(   58) = (   0.1250000   0.2500000  -0.1250000), wk =   0.0078125
        k(   59) = (   0.1250000   0.3750000   0.0000000), wk =   0.0078125
        k(   60) = (   0.1250000   0.3750000   0.1250000), wk =   0.0078125
        k(   61) = (   0.1250000   0.3750000   0.2500000), wk =   0.0078125
        k(   62) = (   0.1250000   0.3750000   0.3750000), wk =   0.0078125
        k(   63) = (   0.1250000   0.3750000  -0.5000000), wk =   0.0078125
        k(   64) = (   0.1250000   0.3750000  -0.3750000), wk =   0.0078125
        k(   65) = (   0.1250000   0.3750000  -0.2500000), wk =   0.0078125
        k(   66) = (   0.1250000   0.3750000  -0.1250000), wk =   0.0078125
        k(   67) = (   0.1250000  -0.5000000   0.0000000), wk =   0.0078125
        k(   68) = (   0.1250000  -0.5000000   0.1250000), wk =   0.0078125
        k(   69) = (   0.1250000  -0.5000000   0.2500000), wk =   0.0078125
        k(   70) = (   0.1250000  -0.5000000   0.3750000), wk =   0.0078125
        k(   71) = (   0.1250000  -0.5000000  -0.5000000), wk =   0.0078125
        k(   72) = (   0.1250000  -0.5000000  -0.3750000), wk =   0.0078125
        k(   73) = (   0.1250000  -0.5000000  -0.2500000), wk =   0.0078125
        k(   74) = (   0.1250000  -0.5000000  -0.1250000), wk =   0.0078125
        k(   75) = (   0.1250000  -0.3750000  -0.0000000), wk =   0.0078125
        k(   76) = (   0.1250000  -0.3750000   0.1250000), wk =   0.0078125
        k(   77) = (   0.1250000  -0.3750000   0.2500000), wk =   0.0078125
        k(   78) = (   0.1250000  -0.3750000   0.3750000), wk =   0.0078125
        k(   79) = (   0.1250000  -0.3750000  -0.5000000), wk =   0.0078125
        k(   80) = (   0.1250000  -0.3750000  -0.3750000), wk =   0.0078125
        k(   81) = (   0.1250000  -0.3750000  -0.2500000), wk =   0.0078125
        k(   82) = (   0.1250000  -0.3750000  -0.1250000), wk =   0.0078125
        k(   83) = (   0.1250000  -0.2500000   0.0000000), wk =   0.0078125
        k(   84) = (   0.1250000  -0.2500000   0.1250000), wk =   0.0078125
        k(   85) = (   0.1250000  -0.2500000   0.2500000), wk =   0.0078125
        k(   86) = (   0.1250000  -0.2500000   0.3750000), wk =   0.0078125
        k(   87) = (   0.1250000  -0.2500000  -0.5000000), wk =   0.0078125
        k(   88) = (   0.1250000  -0.2500000  -0.3750000), wk =   0.0078125
        k(   89) = (   0.1250000  -0.2500000  -0.2500000), wk =   0.0078125
        k(   90) = (   0.1250000  -0.2500000  -0.1250000), wk =   0.0078125
        k(   91) = (   0.1250000  -0.1250000  -0.0000000), wk =   0.0078125
        k(   92) = (   0.1250000  -0.1250000   0.1250000), wk =   0.0078125
        k(   93) = (   0.1250000  -0.1250000   0.2500000), wk =   0.0078125
        k(   94) = (   0.1250000  -0.1250000   0.3750000), wk =   0.0078125
        k(   95) = (   0.1250000  -0.1250000  -0.5000000), wk =   0.0078125
        k(   96) = (   0.1250000  -0.1250000  -0.3750000), wk =   0.0078125
        k(   97) = (   0.1250000  -0.1250000  -0.2500000), wk =   0.0078125
        k(   98) = (   0.1250000  -0.1250000  -0.1250000), wk =   0.0078125
        k(   99) = (   0.2500000  -0.0000000   0.0000000), wk =   0.0078125
        k(  100) = (   0.2500000  -0.0000000   0.1250000), wk =   0.0078125
        k(  101) = (   0.2500000  -0.0000000   0.2500000), wk =   0.0078125
        k(  102) = (   0.2500000  -0.0000000   0.3750000), wk =   0.0078125
        k(  103) = (   0.2500000  -0.0000000  -0.5000000), wk =   0.0078125
        k(  104) = (   0.2500000  -0.0000000  -0.3750000), wk =   0.0078125
        k(  105) = (   0.2500000  -0.0000000  -0.2500000), wk =   0.0078125
        k(  106) = (   0.2500000  -0.0000000  -0.1250000), wk =   0.0078125
        k(  107) = (   0.2500000   0.1250000   0.0000000), wk =   0.0078125
        k(  108) = (   0.2500000   0.1250000   0.1250000), wk =   0.0078125
        k(  109) = (   0.2500000   0.1250000   0.2500000), wk =   0.0078125
        k(  110) = (   0.2500000   0.1250000   0.3750000), wk =   0.0078125
        k(  111) = (   0.2500000   0.1250000  -0.5000000), wk =   0.0078125
        k(  112) = (   0.2500000   0.1250000  -0.3750000), wk =   0.0078125
        k(  113) = (   0.2500000   0.1250000  -0.2500000), wk =   0.0078125
        k(  114) = (   0.2500000   0.1250000  -0.1250000), wk =   0.0078125
        k(  115) = (   0.2500000   0.2500000   0.0000000), wk =   0.0078125
        k(  116) = (   0.2500000   0.2500000   0.1250000), wk =   0.0078125
        k(  117) = (   0.2500000   0.2500000   0.2500000), wk =   0.0078125
        k(  118) = (   0.2500000   0.2500000   0.3750000), wk =   0.0078125
        k(  119) = (   0.2500000   0.2500000  -0.5000000), wk =   0.0078125
        k(  120) = (   0.2500000   0.2500000  -0.3750000), wk =   0.0078125
        k(  121) = (   0.2500000   0.2500000  -0.2500000), wk =   0.0078125
        k(  122) = (   0.2500000   0.2500000  -0.1250000), wk =   0.0078125
        k(  123) = (   0.2500000   0.3750000   0.0000000), wk =   0.0078125
        k(  124) = (   0.2500000   0.3750000   0.1250000), wk =   0.0078125
        k(  125) = (   0.2500000   0.3750000   0.2500000), wk =   0.0078125
        k(  126) = (   0.2500000   0.3750000   0.3750000), wk =   0.0078125
        k(  127) = (   0.2500000   0.3750000  -0.5000000), wk =   0.0078125
        k(  128) = (   0.2500000   0.3750000  -0.3750000), wk =   0.0078125
        k(  129) = (   0.2500000   0.3750000  -0.2500000), wk =   0.0078125
        k(  130) = (   0.2500000   0.3750000  -0.1250000), wk =   0.0078125
        k(  131) = (   0.2500000  -0.5000000   0.0000000), wk =   0.0078125
        k(  132) = (   0.2500000  -0.5000000   0.1250000), wk =   0.0078125
        k(  133) = (   0.2500000  -0.5000000   0.2500000), wk =   0.0078125
        k(  134) = (   0.2500000  -0.5000000   0.3750000), wk =   0.0078125
        k(  135) = (   0.2500000  -0.5000000  -0.5000000), wk =   0.0078125
        k(  136) = (   0.2500000  -0.5000000  -0.3750000), wk =   0.0078125
        k(  137) = (   0.2500000  -0.5000000  -0.2500000), wk =   0.0078125
        k(  138) = (   0.2500000  -0.5000000  -0.1250000), wk =   0.0078125
        k(  139) = (   0.2500000  -0.3750000   0.0000000), wk =   0.0078125
        k(  140) = (   0.2500000  -0.3750000   0.1250000), wk =   0.0078125
        k(  141) = (   0.2500000  -0.3750000   0.2500000), wk =   0.0078125
        k(  142) = (   0.2500000  -0.3750000   0.3750000), wk =   0.0078125
        k(  143) = (   0.2500000  -0.3750000  -0.5000000), wk =   0.0078125
        k(  144) = (   0.2500000  -0.3750000  -0.3750000), wk =   0.0078125
        k(  145) = (   0.2500000  -0.3750000  -0.2500000), wk =   0.0078125
        k(  146) = (   0.2500000  -0.3750000  -0.1250000), wk =   0.0078125
        k(  147) = (   0.2500000  -0.2500000  -0.0000000), wk =   0.0078125
        k(  148) = (   0.2500000  -0.2500000   0.1250000), wk =   0.0078125
        k(  149) = (   0.2500000  -0.2500000   0.2500000), wk =   0.0078125
        k(  150) = (   0.2500000  -0.2500000   0.3750000), wk =   0.0078125
        k(  151) = (   0.2500000  -0.2500000  -0.5000000), wk =   0.0078125
        k(  152) = (   0.2500000  -0.2500000  -0.3750000), wk =   0.0078125
        k(  153) = (   0.2500000  -0.2500000  -0.2500000), wk =   0.0078125
        k(  154) = (   0.2500000  -0.2500000  -0.1250000), wk =   0.0078125
        k(  155) = (   0.2500000  -0.1250000  -0.0000000), wk =   0.0078125
        k(  156) = (   0.2500000  -0.1250000   0.1250000), wk =   0.0078125
        k(  157) = (   0.2500000  -0.1250000   0.2500000), wk =   0.0078125
        k(  158) = (   0.2500000  -0.1250000   0.3750000), wk =   0.0078125
        k(  159) = (   0.2500000  -0.1250000  -0.5000000), wk =   0.0078125
        k(  160) = (   0.2500000  -0.1250000  -0.3750000), wk =   0.0078125
        k(  161) = (   0.2500000  -0.1250000  -0.2500000), wk =   0.0078125
        k(  162) = (   0.2500000  -0.1250000  -0.1250000), wk =   0.0078125
        k(  163) = (   0.3750000  -0.0000000   0.0000000), wk =   0.0078125
        k(  164) = (   0.3750000  -0.0000000   0.1250000), wk =   0.0078125
        k(  165) = (   0.3750000  -0.0000000   0.2500000), wk =   0.0078125
        k(  166) = (   0.3750000  -0.0000000   0.3750000), wk =   0.0078125
        k(  167) = (   0.3750000  -0.0000000  -0.5000000), wk =   0.0078125
        k(  168) = (   0.3750000  -0.0000000  -0.3750000), wk =   0.0078125
        k(  169) = (   0.3750000  -0.0000000  -0.2500000), wk =   0.0078125
        k(  170) = (   0.3750000  -0.0000000  -0.1250000), wk =   0.0078125
        k(  171) = (   0.3750000   0.1250000   0.0000000), wk =   0.0078125
        k(  172) = (   0.3750000   0.1250000   0.1250000), wk =   0.0078125
        k(  173) = (   0.3750000   0.1250000   0.2500000), wk =   0.0078125
        k(  174) = (   0.3750000   0.1250000   0.3750000), wk =   0.0078125
        k(  175) = (   0.3750000   0.1250000  -0.5000000), wk =   0.0078125
        k(  176) = (   0.3750000   0.1250000  -0.3750000), wk =   0.0078125
        k(  177) = (   0.3750000   0.1250000  -0.2500000), wk =   0.0078125
        k(  178) = (   0.3750000   0.1250000  -0.1250000), wk =   0.0078125
        k(  179) = (   0.3750000   0.2500000  -0.0000000), wk =   0.0078125
        k(  180) = (   0.3750000   0.2500000   0.1250000), wk =   0.0078125
        k(  181) = (   0.3750000   0.2500000   0.2500000), wk =   0.0078125
        k(  182) = (   0.3750000   0.2500000   0.3750000), wk =   0.0078125
        k(  183) = (   0.3750000   0.2500000  -0.5000000), wk =   0.0078125
        k(  184) = (   0.3750000   0.2500000  -0.3750000), wk =   0.0078125
        k(  185) = (   0.3750000   0.2500000  -0.2500000), wk =   0.0078125
        k(  186) = (   0.3750000   0.2500000  -0.1250000), wk =   0.0078125
        k(  187) = (   0.3750000   0.3750000   0.0000000), wk =   0.0078125
        k(  188) = (   0.3750000   0.3750000   0.1250000), wk =   0.0078125
        k(  189) = (   0.3750000   0.3750000   0.2500000), wk =   0.0078125
        k(  190) = (   0.3750000   0.3750000   0.3750000), wk =   0.0078125
        k(  191) = (   0.3750000   0.3750000  -0.5000000), wk =   0.0078125
        k(  192) = (   0.3750000   0.3750000  -0.3750000), wk =   0.0078125
        k(  193) = (   0.3750000   0.3750000  -0.2500000), wk =   0.0078125
        k(  194) = (   0.3750000   0.3750000  -0.1250000), wk =   0.0078125
        k(  195) = (   0.3750000  -0.5000000  -0.0000000), wk =   0.0078125
        k(  196) = (   0.3750000  -0.5000000   0.1250000), wk =   0.0078125
        k(  197) = (   0.3750000  -0.5000000   0.2500000), wk =   0.0078125
        k(  198) = (   0.3750000  -0.5000000   0.3750000), wk =   0.0078125
        k(  199) = (   0.3750000  -0.5000000  -0.5000000), wk =   0.0078125
        k(  200) = (   0.3750000  -0.5000000  -0.3750000), wk =   0.0078125
        k(  201) = (   0.3750000  -0.5000000  -0.2500000), wk =   0.0078125
        k(  202) = (   0.3750000  -0.5000000  -0.1250000), wk =   0.0078125
        k(  203) = (   0.3750000  -0.3750000  -0.0000000), wk =   0.0078125
        k(  204) = (   0.3750000  -0.3750000   0.1250000), wk =   0.0078125
        k(  205) = (   0.3750000  -0.3750000   0.2500000), wk =   0.0078125
        k(  206) = (   0.3750000  -0.3750000   0.3750000), wk =   0.0078125
        k(  207) = (   0.3750000  -0.3750000  -0.5000000), wk =   0.0078125
        k(  208) = (   0.3750000  -0.3750000  -0.3750000), wk =   0.0078125
        k(  209) = (   0.3750000  -0.3750000  -0.2500000), wk =   0.0078125
        k(  210) = (   0.3750000  -0.3750000  -0.1250000), wk =   0.0078125
        k(  211) = (   0.3750000  -0.2500000  -0.0000000), wk =   0.0078125
        k(  212) = (   0.3750000  -0.2500000   0.1250000), wk =   0.0078125
        k(  213) = (   0.3750000  -0.2500000   0.2500000), wk =   0.0078125
        k(  214) = (   0.3750000  -0.2500000   0.3750000), wk =   0.0078125
        k(  215) = (   0.3750000  -0.2500000  -0.5000000), wk =   0.0078125
        k(  216) = (   0.3750000  -0.2500000  -0.3750000), wk =   0.0078125
        k(  217) = (   0.3750000  -0.2500000  -0.2500000), wk =   0.0078125
        k(  218) = (   0.3750000  -0.2500000  -0.1250000), wk =   0.0078125
        k(  219) = (   0.3750000  -0.1250000  -0.0000000), wk =   0.0078125
        k(  220) = (   0.3750000  -0.1250000   0.1250000), wk =   0.0078125
        k(  221) = (   0.3750000  -0.1250000   0.2500000), wk =   0.0078125
        k(  222) = (   0.3750000  -0.1250000   0.3750000), wk =   0.0078125
        k(  223) = (   0.3750000  -0.1250000  -0.5000000), wk =   0.0078125
        k(  224) = (   0.3750000  -0.1250000  -0.3750000), wk =   0.0078125
        k(  225) = (   0.3750000  -0.1250000  -0.2500000), wk =   0.0078125
        k(  226) = (   0.3750000  -0.1250000  -0.1250000), wk =   0.0078125
        k(  227) = (  -0.5000000   0.0000000  -0.0000000), wk =   0.0039062
        k(  228) = (  -0.5000000   0.0000000   0.1250000), wk =   0.0078125
        k(  229) = (  -0.5000000   0.0000000   0.2500000), wk =   0.0078125
        k(  230) = (  -0.5000000   0.0000000   0.3750000), wk =   0.0078125
        k(  231) = (  -0.5000000   0.0000000  -0.5000000), wk =   0.0039062
        k(  232) = (  -0.5000000   0.1250000  -0.0000000), wk =   0.0078125
        k(  233) = (  -0.5000000   0.1250000   0.1250000), wk =   0.0078125
        k(  234) = (  -0.5000000   0.1250000   0.2500000), wk =   0.0078125
        k(  235) = (  -0.5000000   0.1250000   0.3750000), wk =   0.0078125
        k(  236) = (  -0.5000000   0.1250000  -0.5000000), wk =   0.0078125
        k(  237) = (  -0.5000000   0.1250000  -0.3750000), wk =   0.0078125
        k(  238) = (  -0.5000000   0.1250000  -0.2500000), wk =   0.0078125
        k(  239) = (  -0.5000000   0.1250000  -0.1250000), wk =   0.0078125
        k(  240) = (  -0.5000000   0.2500000   0.0000000), wk =   0.0078125
        k(  241) = (  -0.5000000   0.2500000   0.1250000), wk =   0.0078125
        k(  242) = (  -0.5000000   0.2500000   0.2500000), wk =   0.0078125
        k(  243) = (  -0.5000000   0.2500000   0.3750000), wk =   0.0078125
        k(  244) = (  -0.5000000   0.2500000  -0.5000000), wk =   0.0078125
        k(  245) = (  -0.5000000   0.2500000  -0.3750000), wk =   0.0078125
        k(  246) = (  -0.5000000   0.2500000  -0.2500000), wk =   0.0078125
        k(  247) = (  -0.5000000   0.2500000  -0.1250000), wk =   0.0078125
        k(  248) = (  -0.5000000   0.3750000   0.0000000), wk =   0.0078125
        k(  249) = (  -0.5000000   0.3750000   0.1250000), wk =   0.0078125
        k(  250) = (  -0.5000000   0.3750000   0.2500000), wk =   0.0078125
        k(  251) = (  -0.5000000   0.3750000   0.3750000), wk =   0.0078125
        k(  252) = (  -0.5000000   0.3750000  -0.5000000), wk =   0.0078125
        k(  253) = (  -0.5000000   0.3750000  -0.3750000), wk =   0.0078125
        k(  254) = (  -0.5000000   0.3750000  -0.2500000), wk =   0.0078125
        k(  255) = (  -0.5000000   0.3750000  -0.1250000), wk =   0.0078125
        k(  256) = (  -0.5000000  -0.5000000  -0.0000000), wk =   0.0039062
        k(  257) = (  -0.5000000  -0.5000000   0.1250000), wk =   0.0078125
        k(  258) = (  -0.5000000  -0.5000000   0.2500000), wk =   0.0078125
        k(  259) = (  -0.5000000  -0.5000000   0.3750000), wk =   0.0078125
        k(  260) = (  -0.5000000  -0.5000000  -0.5000000), wk =   0.0039062

     Dense  grid:    76045 G-vectors     FFT dimensions: (  54,  54,  72)

     Smooth grid:    29605 G-vectors     FFT dimensions: (  40,  40,  50)

     Dynamical RAM for                 wfc:       0.09 MB

     Dynamical RAM for     wfc (w. buffer):       6.05 MB

     Dynamical RAM for           str. fact:       0.15 MB

     Dynamical RAM for           local pot:       0.00 MB

     Dynamical RAM for          nlocal pot:       0.22 MB

     Dynamical RAM for                qrad:       4.03 MB

     Dynamical RAM for          rho,v,vnew:       0.55 MB

     Dynamical RAM for               rhoin:       0.18 MB

     Dynamical RAM for            rho*nmix:       1.16 MB

     Dynamical RAM for           G-vectors:       0.29 MB

     Dynamical RAM for          h,s,v(r/c):       0.12 MB

     Dynamical RAM for          <psi|beta>:       0.02 MB

     Dynamical RAM for                 psi:       0.37 MB

     Dynamical RAM for                hpsi:       0.37 MB

     Dynamical RAM for                spsi:       0.37 MB

     Dynamical RAM for      wfcinit/wfcrot:       0.27 MB

     Dynamical RAM for           addusdens:       3.47 MB

     Dynamical RAM for          addusforce:       3.61 MB

     Dynamical RAM for         addusstress:       3.67 MB

     Estimated static dynamical RAM per process >      13.40 MB

     Estimated max dynamical RAM per process >      17.08 MB

     Estimated total dynamical RAM >       1.07 GB

     Check: negative core charge=   -0.000003

     Initial potential from superposition of free atoms

     starting charge   51.99974, renormalised to   52.00000
     Starting wfcs are   34 randomized atomic wfcs

     total cpu time spent up to now is        1.3 secs

     Self-consistent Calculation

     iteration #  1     ecut=    80.00 Ry     beta= 0.50
     Davidson diagonalization with overlap
     ethr =  1.00E-02,  avg # of iterations =  1.0

     total cpu time spent up to now is        2.2 secs

     total energy              =    -986.75718359 Ry
     Harris-Foulkes estimate   =    -987.27007773 Ry
     estimated scf accuracy    <       0.80630875 Ry

     iteration #  2     ecut=    80.00 Ry     beta= 0.50
     Davidson diagonalization with overlap
     ethr =  1.55E-03,  avg # of iterations =  3.0

     total cpu time spent up to now is        3.7 secs

     total energy              =    -986.99553406 Ry
     Harris-Foulkes estimate   =    -987.15623333 Ry
     estimated scf accuracy    <       0.36898344 Ry

     iteration #  3     ecut=    80.00 Ry     beta= 0.50
     Davidson diagonalization with overlap
     ethr =  7.10E-04,  avg # of iterations =  2.1

     total cpu time spent up to now is        4.8 secs

     total energy              =    -987.06196461 Ry
     Harris-Foulkes estimate   =    -987.06422434 Ry
     estimated scf accuracy    <       0.00672354 Ry

     iteration #  4     ecut=    80.00 Ry     beta= 0.50
     Davidson diagonalization with overlap
     ethr =  1.29E-05,  avg # of iterations =  2.0

     total cpu time spent up to now is        5.9 secs

     total energy              =    -987.06254007 Ry
     Harris-Foulkes estimate   =    -987.06297216 Ry
     estimated scf accuracy    <       0.00147385 Ry

     iteration #  5     ecut=    80.00 Ry     beta= 0.50
     Davidson diagonalization with overlap
     ethr =  2.83E-06,  avg # of iterations =  2.0

     total cpu time spent up to now is        7.0 secs

     total energy              =    -987.06268745 Ry
     Harris-Foulkes estimate   =    -987.06269479 Ry
     estimated scf accuracy    <       0.00001548 Ry

     iteration #  6     ecut=    80.00 Ry     beta= 0.50
     Davidson diagonalization with overlap
     ethr =  2.98E-08,  avg # of iterations =  2.5

     total cpu time spent up to now is        8.3 secs

     total energy              =    -987.06269037 Ry
     Harris-Foulkes estimate   =    -987.06269018 Ry
     estimated scf accuracy    <       0.00000396 Ry

     iteration #  7     ecut=    80.00 Ry     beta= 0.50
     Davidson diagonalization with overlap
     ethr =  7.62E-09,  avg # of iterations =  2.1

     total cpu time spent up to now is        9.3 secs

     End of self-consistent calculation

          k = 0.0000 0.0000 0.0000 (  3667 PWs)   bands (ev):

  -113.7580-113.7574 -68.1390 -68.1318 -68.1099 -68.1099 -68.1077 -68.1077
    -8.7399  -7.5138   3.4616   3.4616   3.5801   3.5801   4.2465   4.6804
     4.6804   4.8108   5.0826   5.0826   5.4869   8.3757   8.5113   8.5113
     9.2521   9.2521

     occupation numbers 
     1.0000   1.0000   1.0000   1.0000   1.0000   1.0000   1.0000   1.0000
     1.0000   1.0000   1.0000   1.0000   1.0000   1.0000   1.0000   1.0000
     1.0000   1.0000   1.0000   1.0000   1.0000   1.0000   1.0000   1.0000
     1.0000   1.0000

          k =-0.0000 0.0000 0.0949 (  3654 PWs)   bands (ev):

  -113.7580-113.7574 -68.1387 -68.1321 -68.1098 -68.1098 -68.1077 -68.1077
    -8.6934  -7.5591   3.4542   3.4542   3.5600   3.5600   4.0626   4.7029
     4.7109   4.7109   5.0787   5.0787   5.7508   8.1095   8.5478   8.5478
     9.2338   9.2338

     occupation numbers 
     1.0000   1.0000   1.0000   1.0000   1.0000   1.0000   1.0000   1.0000
     1.0000   1.0000   1.0000   1.0000   1.0000   1.0000   1.0000   1.0000
     1.0000   1.0000   1.0000   1.0000   1.0000   1.0000   1.0000   1.0000
     1.0000   1.0000

          k =-0.0000 0.0000 0.1897 (  3696 PWs)   bands (ev):

  -113.7579-113.7575 -68.1379 -68.1330 -68.1096 -68.1096 -68.1080 -68.1080
    -8.5605  -7.6896   3.4382   3.4382   3.5131   3.5131   3.8039   4.4207
     4.7874   4.7874   5.0628   5.0628   6.2367   7.6978   8.6489   8.6489
     9.1769   9.1769

     occupation numbers 
     1.0000   1.0000   1.0000   1.0000   1.0000   1.0000   1.0000   1.0000
     1.0000   1.0000   1.0000   1.0000   1.0000   1.0000   1.0000   1.0000
     1.0000   1.0000   1.0000   1.0000   1.0000   1.0000   1.0000   1.0000
     1.0000   1.0000

          k =-0.0000 0.0000 0.2846 (  3732 PWs)   bands (ev):

  -113.7578-113.7576 -68.1368 -68.1342 -68.1093 -68.1093 -68.1084 -68.1084
    -8.3605  -7.8876   3.4272   3.4272   3.4650   3.4650   3.7034   4.0779
     4.8802   4.8803   5.0265   5.0265   6.6880   7.3598   8.7915   8.7915
     9.0788   9.0788

     occupation numbers 
     1.0000   1.0000   1.0000   1.0000   1.0000   1.0000   1.0000   1.0000
     1.0000   1.0000   1.0000   1.0000   1.0000   1.0000   1.0000   1.0000
     1.0000   1.0000   1.0000   1.0000   1.0000   1.0000   1.0000   1.0000
     1.0000   1.0000

          k = 0.0000-0.0000-0.3794 (  3696 PWs)   bands (ev):

  -113.7578-113.7576 -68.1355 -68.1354 -68.1089 -68.1089 -68.1087 -68.1087
    -8.1239  -8.1236   3.4343   3.4343   3.4343   3.4343   3.8070   3.8071
     4.9646   4.9646   4.9647   4.9647   7.0496   7.0497   8.9444   8.9444
     8.9445   8.9445

     occupation numbers 
     1.0000   1.0000   1.0000   1.0000   1.0000   1.0000   1.0000   1.0000
     1.0000   1.0000   1.0000   1.0000   1.0000   1.0000   1.0000   1.0000
     1.0000   1.0000   1.0000   1.0000   1.0000   1.0000   1.0000   1.0000
     1.0000   1.0000

          k =-0.0000 0.1443-0.0000 (  3692 PWs)   bands (ev):

  -113.7580-113.7574 -68.1387 -68.1321 -68.1101 -68.1100 -68.1080 -68.1077
    -8.6523  -7.5023   3.4419   3.5299   3.5466   3.6870   4.1473   4.6226
     4.6557   4.8331   5.0972   5.3420   5.4769   8.0037   8.2438   8.3468
     8.4608   9.0840

     occupation numbers 
     1.0000   1.0000   1.0000   1.0000   1.0000   1.0000   1.0000   1.0000
     1.0000   1.0000   1.0000   1.0000   1.0000   1.0000   1.0000   1.0000
     1.0000   1.0000   1.0000   1.0000   1.0000   1.0000   1.0000   1.0000
     1.0000   1.0000

          k =-0.0000 0.1443 0.0949 (  3687 PWs)   bands (ev):

  -113.7580-113.7574 -68.1385 -68.1323 -68.1100 -68.1099 -68.1080 -68.1078
    -8.6078  -7.5436   3.4200   3.5199   3.5236   3.6638   4.0123   4.5695
     4.6885   4.8072   5.0913   5.2031   5.8276   7.8618   8.1044   8.2840
     8.8572   9.0617

     occupation numbers 
     1.0000   1.0000   1.0000   1.0000   1.0000   1.0000   1.0000   1.0000
     1.0000   1.0000   1.0000   1.0000   1.0000   1.0000   1.0000   1.0000
     1.0000   1.0000   1.0000   1.0000   1.0000   1.0000   1.0000   1.0000
     1.0000   1.0000

          k =-0.0000 0.1443 0.1897 (  3692 PWs)   bands (ev):

  -113.7579-113.7575 -68.1378 -68.1331 -68.1097 -68.1097 -68.1082 -68.1080
    -8.4808  -7.6630   3.3563   3.4537   3.5104   3.6099   3.8198   4.3374
     4.7702   4.8412   5.0703   5.1316   6.2958   7.4737   8.2892   8.3956
     8.9935   9.0683

     occupation numbers 
     1.0000   1.0000   1.0000   1.0000   1.0000   1.0000   1.0000   1.0000
     1.0000   1.0000   1.0000   1.0000   1.0000   1.0000   1.0000   1.0000
     1.0000   1.0000   1.0000   1.0000   1.0000   1.0000   1.0000   1.0000
     1.0000   1.0000

          k =-0.0000 0.1443 0.2846 (  3702 PWs)   bands (ev):

  -113.7578-113.7575 -68.1367 -68.1342 -68.1094 -68.1093 -68.1086 -68.1084
    -8.2905  -7.8462   3.2980   3.3785   3.5040   3.5543   3.7529   4.0375
     4.8686   4.9242   5.0273   5.0770   6.6776   7.1935   8.5539   8.5687
     8.8790   9.0388

     occupation numbers 
     1.0000   1.0000   1.0000   1.0000   1.0000   1.0000   1.0000   1.0000
     1.0000   1.0000   1.0000   1.0000   1.0000   1.0000   1.0000   1.0000
     1.0000   1.0000   1.0000   1.0000   1.0000   1.0000   1.0000   1.0000
     1.0000   1.0000

          k = 0.0000 0.1443-0.3794 (  3698 PWs)   bands (ev):

  -113.7578-113.7576 -68.1356 -68.1354 -68.1090 -68.1090 -68.1089 -68.1088
    -8.0671  -8.0668   3.3130   3.3131   3.5169   3.5169   3.8238   3.8239
     4.9588   4.9589   5.0084   5.0085   6.9561   6.9562   8.7254   8.7256
     8.8478   8.8479

     occupation numbers 
     1.0000   1.0000   1.0000   1.0000   1.0000   1.0000   1.0000   1.0000
     1.0000   1.0000   1.0000   1.0000   1.0000   1.0000   1.0000   1.0000
     1.0000   1.0000   1.0000   1.0000   1.0000   1.0000   1.0000   1.0000
     1.0000   1.0000

          k = 0.0000 0.1443-0.2846 (  3702 PWs)   bands (ev):

  -113.7578-113.7575 -68.1367 -68.1342 -68.1094 -68.1093 -68.1086 -68.1084
    -8.2905  -7.8462   3.2980   3.3785   3.5040   3.5543   3.7529   4.0375
     4.8686   4.9242   5.0273   5.0770   6.6776   7.1935   8.5539   8.5687
     8.8790   9.0388

     occupation numbers 
     1.0000   1.0000   1.0000   1.0000   1.0000   1.0000   1.0000   1.0000
     1.0000   1.0000   1.0000   1.0000   1.0000   1.0000   1.0000   1.0000
     1.0000   1.0000   1.0000   1.0000   1.0000   1.0000   1.0000   1.0000
     1.0000   1.0000

          k = 0.0000 0.1443-0.1897 (  3692 PWs)   bands (ev):

  -113.7579-113.7575 -68.1378 -68.1331 -68.1097 -68.1097 -68.1082 -68.1080
    -8.4808  -7.6630   3.3563   3.4537   3.5104   3.6099   3.8198   4.3374
     4.7702   4.8412   5.0703   5.1316   6.2958   7.4737   8.2892   8.3956
     8.9935   9.0683

     occupation numbers 
     1.0000   1.0000   1.0000   1.0000   1.0000   1.0000   1.0000   1.0000
     1.0000   1.0000   1.0000   1.0000   1.0000   1.0000   1.0000   1.0000
     1.0000   1.0000   1.0000   1.0000   1.0000   1.0000   1.0000   1.0000
     1.0000   1.0000

          k =-0.0000 0.1443-0.0949 (  3687 PWs)   bands (ev):

  -113.7580-113.7574 -68.1385 -68.1323 -68.1100 -68.1099 -68.1080 -68.1078
    -8.6078  -7.5436   3.4200   3.5199   3.5236   3.6638   4.0123   4.5695
     4.6885   4.8072   5.0913   5.2031   5.8276   7.8618   8.1044   8.2840
     8.8572   9.0617

     occupation numbers 
     1.0000   1.0000   1.0000   1.0000   1.0000   1.0000   1.0000   1.0000
     1.0000   1.0000   1.0000   1.0000   1.0000   1.0000   1.0000   1.0000
     1.0000   1.0000   1.0000   1.0000   1.0000   1.0000   1.0000   1.0000
     1.0000   1.0000

          k =-0.0000 0.2887-0.0000 (  3702 PWs)   bands (ev):

  -113.7579-113.7574 -68.1380 -68.1327 -68.1103 -68.1103 -68.1085 -68.1077
    -8.4204  -7.4908   3.3387   3.6217   3.7348   3.9599   4.0361   4.4820
     4.6020   4.8769   5.1265   5.4277   5.8856   6.9706   7.4519   7.6126
     8.2337   8.6507

     occupation numbers 
     1.0000   1.0000   1.0000   1.0000   1.0000   1.0000   1.0000   1.0000
     1.0000   1.0000   1.0000   1.0000   1.0000   1.0000   1.0000   1.0000
     1.0000   1.0000   1.0000   1.0000   1.0000   1.0000   1.0000   1.0000
     1.0000   1.0000

          k =-0.0000 0.2887 0.0949 (  3698 PWs)   bands (ev):

  -113.7579-113.7574 -68.1379 -68.1330 -68.1102 -68.1101 -68.1086 -68.1078
    -8.3817  -7.5209   3.3069   3.5484   3.7296   3.9277   3.9650   4.3966
     4.6420   4.8838   5.1157   5.3288   6.0710   7.0843   7.2803   7.6617
     8.5411   8.6212

     occupation numbers 
     1.0000   1.0000   1.0000   1.0000   1.0000   1.0000   1.0000   1.0000
     1.0000   1.0000   1.0000   1.0000   1.0000   1.0000   1.0000   1.0000
     1.0000   1.0000   1.0000   1.0000   1.0000   1.0000   1.0000   1.0000
     1.0000   1.0000

          k =-0.0000 0.2887 0.1897 (  3706 PWs)   bands (ev):

  -113.7579-113.7575 -68.1373 -68.1336 -68.1100 -68.1099 -68.1087 -68.1081
    -8.2723  -7.6097   3.2081   3.3827   3.7199   3.8573   3.8609   4.1834
     4.7359   4.9261   5.0822   5.2324   6.2849   6.8700   7.7074   7.7974
     8.5326   8.9220

     occupation numbers 
     1.0000   1.0000   1.0000   1.0000   1.0000   1.0000   1.0000   1.0000
     1.0000   1.0000   1.0000   1.0000   1.0000   1.0000   1.0000   1.0000
     1.0000   1.0000   1.0000   1.0000   1.0000   1.0000   1.0000   1.0000
     1.0000   1.0000

          k =-0.0000 0.2887 0.2846 (  3687 PWs)   bands (ev):

  -113.7578-113.7575 -68.1365 -68.1345 -68.1096 -68.1095 -68.1089 -68.1085
    -8.1111  -7.7505   3.1051   3.2252   3.7189   3.7875   3.8125   3.9655
     4.8444   5.0026   5.0250   5.1611   6.4281   6.6804   7.9892   8.3091
     8.3875   9.0221

     occupation numbers 
     1.0000   1.0000   1.0000   1.0000   1.0000   1.0000   1.0000   1.0000
     1.0000   1.0000   1.0000   1.0000   1.0000   1.0000   1.0000   1.0000
     1.0000   1.0000   1.0000   1.0000   1.0000   1.0000   1.0000   1.0000
     1.0000   1.0000

          k = 0.0000 0.2887-0.3794 (  3690 PWs)   bands (ev):

  -113.7578-113.7576 -68.1356 -68.1354 -68.1094 -68.1092 -68.1091 -68.1089
    -7.9268  -7.9266   3.1114   3.1115   3.7396   3.7396   3.8403   3.8404
     4.9443   4.9444   5.0858   5.0858   6.5480   6.5480   8.1979   8.1980
     8.7923   8.7923

     occupation numbers 
     1.0000   1.0000   1.0000   1.0000   1.0000   1.0000   1.0000   1.0000
     1.0000   1.0000   1.0000   1.0000   1.0000   1.0000   1.0000   1.0000
     1.0000   1.0000   1.0000   1.0000   1.0000   1.0000   1.0000   1.0000
     1.0000   1.0000

          k = 0.0000 0.2887-0.2846 (  3687 PWs)   bands (ev):

  -113.7578-113.7575 -68.1365 -68.1345 -68.1096 -68.1095 -68.1089 -68.1085
    -8.1111  -7.7505   3.1051   3.2252   3.7189   3.7875   3.8125   3.9655
     4.8444   5.0026   5.0250   5.1611   6.4281   6.6804   7.9892   8.3091
     8.3875   9.0221

     occupation numbers 
     1.0000   1.0000   1.0000   1.0000   1.0000   1.0000   1.0000   1.0000
     1.0000   1.0000   1.0000   1.0000   1.0000   1.0000   1.0000   1.0000
     1.0000   1.0000   1.0000   1.0000   1.0000   1.0000   1.0000   1.0000
     1.0000   1.0000

          k =-0.0000 0.2887-0.1897 (  3706 PWs)   bands (ev):

  -113.7579-113.7575 -68.1373 -68.1336 -68.1100 -68.1099 -68.1087 -68.1081
    -8.2723  -7.6097   3.2081   3.3827   3.7199   3.8573   3.8609   4.1834
     4.7359   4.9261   5.0822   5.2324   6.2849   6.8700   7.7074   7.7974
     8.5326   8.9220

     occupation numbers 
     1.0000   1.0000   1.0000   1.0000   1.0000   1.0000   1.0000   1.0000
     1.0000   1.0000   1.0000   1.0000   1.0000   1.0000   1.0000   1.0000
     1.0000   1.0000   1.0000   1.0000   1.0000   1.0000   1.0000   1.0000
     1.0000   1.0000

          k =-0.0000 0.2887-0.0949 (  3698 PWs)   bands (ev):

  -113.7579-113.7574 -68.1379 -68.1330 -68.1102 -68.1101 -68.1086 -68.1078
    -8.3817  -7.5209   3.3069   3.5484   3.7296   3.9277   3.9650   4.3966
     4.6420   4.8838   5.1157   5.3288   6.0710   7.0843   7.2803   7.6617
     8.5411   8.6212

     occupation numbers 
     1.0000   1.0000   1.0000   1.0000   1.0000   1.0000   1.0000   1.0000
     1.0000   1.0000   1.0000   1.0000   1.0000   1.0000   1.0000   1.0000
     1.0000   1.0000   1.0000   1.0000   1.0000   1.0000   1.0000   1.0000
     1.0000   1.0000

          k =-0.0000 0.4330-0.0000 (  3710 PWs)   bands (ev):

  -113.7578-113.7575 -68.1371 -68.1336 -68.1106 -68.1105 -68.1091 -68.1078
    -8.1355  -7.5259   3.2837   3.8612   4.0025   4.0269   4.2902   4.3090
     4.5540   4.8876   5.1503   5.2786   6.1858   6.4741   6.5214   6.9496
     8.0078   8.1788

     occupation numbers 
     1.0000   1.0000   1.0000   1.0000   1.0000   1.0000   1.0000   1.0000
     1.0000   1.0000   1.0000   1.0000   1.0000   1.0000   1.0000   1.0000
     1.0000   1.0000   1.0000   1.0000   1.0000   1.0000   1.0000   1.0000
     1.0000   1.0000

          k =-0.0000 0.4330 0.0949 (  3710 PWs)   bands (ev):

  -113.7578-113.7575 -68.1370 -68.1338 -68.1105 -68.1104 -68.1091 -68.1079
    -8.1060  -7.5411   3.2387   3.7137   3.9974   4.0164   4.2223   4.2365
     4.6120   4.9095   5.1320   5.2560   5.9930   6.3700   6.9527   7.0116
     8.1440   8.2931

     occupation numbers 
     1.0000   1.0000   1.0000   1.0000   1.0000   1.0000   1.0000   1.0000
     1.0000   1.0000   1.0000   1.0000   1.0000   1.0000   1.0000   1.0000
     1.0000   1.0000   1.0000   1.0000   1.0000   1.0000   1.0000   1.0000
     1.0000   1.0000

          k =-0.0000 0.4330 0.1897 (  3698 PWs)   bands (ev):

  -113.7578-113.7575 -68.1367 -68.1342 -68.1103 -68.1101 -68.1092 -68.1082
    -8.0241  -7.5884   3.1111   3.4319   3.9395   3.9880   4.0705   4.1433
     4.7200   4.9597   5.0829   5.2095   5.9189   6.1678   7.1787   7.6889
     8.0403   8.7747

     occupation numbers 
     1.0000   1.0000   1.0000   1.0000   1.0000   1.0000   1.0000   1.0000
     1.0000   1.0000   1.0000   1.0000   1.0000   1.0000   1.0000   1.0000
     1.0000   1.0000   1.0000   1.0000   1.0000   1.0000   1.0000   1.0000
     1.0000   1.0000

          k =-0.0000 0.4330 0.2846 (  3707 PWs)   bands (ev):

  -113.7578-113.7576 -68.1362 -68.1349 -68.1100 -68.1096 -68.1094 -68.1086
    -7.9077  -7.6701   2.9876   3.1615   3.8765   3.9525   3.9878   4.0628
     4.8292   5.0130   5.0255   5.1555   5.9369   6.0507   7.4080   7.8718
     8.3892   9.0277

     occupation numbers 
     1.0000   1.0000   1.0000   1.0000   1.0000   1.0000   1.0000   1.0000
     1.0000   1.0000   1.0000   1.0000   1.0000   1.0000   1.0000   1.0000
     1.0000   1.0000   1.0000   1.0000   1.0000   1.0000   1.0000   1.0000
     1.0000   1.0000

          k = 0.0000 0.4330-0.3794 (  3710 PWs)   bands (ev):

  -113.7577-113.7576 -68.1357 -68.1355 -68.1097 -68.1096 -68.1092 -68.1090
    -7.7818  -7.7816   2.9938   2.9938   3.8837   3.8838   4.0103   4.0103
     4.9278   4.9279   5.0936   5.0936   5.9840   5.9841   7.6521   7.6522
     8.8829   8.8830

     occupation numbers 
     1.0000   1.0000   1.0000   1.0000   1.0000   1.0000   1.0000   1.0000
     1.0000   1.0000   1.0000   1.0000   1.0000   1.0000   1.0000   1.0000
     1.0000   1.0000   1.0000   1.0000   1.0000   1.0000   1.0000   1.0000
     1.0000   1.0000

          k =-0.0000 0.4330-0.2846 (  3707 PWs)   bands (ev):

  -113.7578-113.7576 -68.1362 -68.1349 -68.1100 -68.1096 -68.1094 -68.1086
    -7.9077  -7.6701   2.9876   3.1615   3.8765   3.9525   3.9878   4.0628
     4.8292   5.0130   5.0255   5.1555   5.9369   6.0507   7.4080   7.8718
     8.3892   9.0277

     occupation numbers 
     1.0000   1.0000   1.0000   1.0000   1.0000   1.0000   1.0000   1.0000
     1.0000   1.0000   1.0000   1.0000   1.0000   1.0000   1.0000   1.0000
     1.0000   1.0000   1.0000   1.0000   1.0000   1.0000   1.0000   1.0000
     1.0000   1.0000

          k =-0.0000 0.4330-0.1897 (  3698 PWs)   bands (ev):

  -113.7578-113.7575 -68.1367 -68.1342 -68.1103 -68.1101 -68.1092 -68.1082
    -8.0241  -7.5884   3.1111   3.4319   3.9395   3.9880   4.0705   4.1433
     4.7200   4.9597   5.0829   5.2095   5.9189   6.1678   7.1787   7.6889
     8.0403   8.7747

     occupation numbers 
     1.0000   1.0000   1.0000   1.0000   1.0000   1.0000   1.0000   1.0000
     1.0000   1.0000   1.0000   1.0000   1.0000   1.0000   1.0000   1.0000
     1.0000   1.0000   1.0000   1.0000   1.0000   1.0000   1.0000   1.0000
     1.0000   1.0000

          k =-0.0000 0.4330-0.0949 (  3710 PWs)   bands (ev):

  -113.7578-113.7575 -68.1370 -68.1338 -68.1105 -68.1104 -68.1091 -68.1079
    -8.1060  -7.5411   3.2387   3.7137   3.9974   4.0164   4.2223   4.2365
     4.6120   4.9095   5.1320   5.2560   5.9930   6.3700   6.9527   7.0116
     8.1440   8.2931

     occupation numbers 
     1.0000   1.0000   1.0000   1.0000   1.0000   1.0000   1.0000   1.0000
     1.0000   1.0000   1.0000   1.0000   1.0000   1.0000   1.0000   1.0000
     1.0000   1.0000   1.0000   1.0000   1.0000   1.0000   1.0000   1.0000
     1.0000   1.0000

          k = 0.0000-0.5774 0.0000 (  3706 PWs)   bands (ev):

  -113.7578-113.7575 -68.1365 -68.1342 -68.1107 -68.1106 -68.1093 -68.1078
    -7.9761  -7.5799   3.2918   4.0540   4.0821   4.1386   4.1925   4.4638
     4.5356   4.8459   5.1361   5.1590   6.0183   6.0346   6.6404   6.7942
     7.8278   7.9677

     occupation numbers 
     1.0000   1.0000   1.0000   1.0000   1.0000   1.0000   1.0000   1.0000
     1.0000   1.0000   1.0000   1.0000   1.0000   1.0000   1.0000   1.0000
     1.0000   1.0000   1.0000   1.0000   1.0000   1.0000   1.0000   1.0000
     1.0000   1.0000

          k = 0.0000-0.5774 0.0949 (  3702 PWs)   bands (ev):

  -113.7578-113.7575 -68.1365 -68.1343 -68.1106 -68.1105 -68.1093 -68.1079
    -7.9532  -7.5859   3.2369   3.8409   4.0964   4.1337   4.1389   4.3774
     4.6235   4.8764   5.1283   5.1345   5.8992   5.9183   6.7120   7.1568
     7.9311   8.1275

     occupation numbers 
     1.0000   1.0000   1.0000   1.0000   1.0000   1.0000   1.0000   1.0000
     1.0000   1.0000   1.0000   1.0000   1.0000   1.0000   1.0000   1.0000
     1.0000   1.0000   1.0000   1.0000   1.0000   1.0000   1.0000   1.0000
     1.0000   1.0000

          k = 0.0000-0.5774 0.1897 (  3704 PWs)   bands (ev):

  -113.7578-113.7575 -68.1363 -68.1346 -68.1104 -68.1102 -68.1094 -68.1082
    -7.8910  -7.6075   3.0901   3.4978   3.9577   4.0916   4.1244   4.2756
     4.7322   4.9298   5.0746   5.1062   5.7879   5.7970   6.9002   7.8220
     7.8351   8.6720

     occupation numbers 
     1.0000   1.0000   1.0000   1.0000   1.0000   1.0000   1.0000   1.0000
     1.0000   1.0000   1.0000   1.0000   1.0000   1.0000   1.0000   1.0000
     1.0000   1.0000   1.0000   1.0000   1.0000   1.0000   1.0000   1.0000
     1.0000   1.0000

          k = 0.0000-0.5774 0.2846 (  3710 PWs)   bands (ev):

  -113.7577-113.7576 -68.1360 -68.1351 -68.1101 -68.1097 -68.1095 -68.1087
    -7.8061  -7.6513   2.9572   3.1646   3.9058   4.0033   4.1237   4.1954
     4.8311   4.9816   5.0001   5.0722   5.7504   5.7638   7.1508   7.6445
     8.4943   9.0129

     occupation numbers 
     1.0000   1.0000   1.0000   1.0000   1.0000   1.0000   1.0000   1.0000
     1.0000   1.0000   1.0000   1.0000   1.0000   1.0000   1.0000   1.0000
     1.0000   1.0000   1.0000   1.0000   1.0000   1.0000   1.0000   1.0000
     1.0000   1.0000

          k = 0.0000-0.5774-0.3794 (  3708 PWs)   bands (ev):

  -113.7577-113.7576 -68.1357 -68.1355 -68.1098 -68.1097 -68.1092 -68.1091
    -7.7203  -7.7200   2.9675   2.9676   3.9306   3.9307   4.1447   4.1447
     4.9194   4.9195   5.0295   5.0296   5.7528   5.7529   7.4121   7.4122
     8.9404   8.9405

     occupation numbers 
     1.0000   1.0000   1.0000   1.0000   1.0000   1.0000   1.0000   1.0000
     1.0000   1.0000   1.0000   1.0000   1.0000   1.0000   1.0000   1.0000
     1.0000   1.0000   1.0000   1.0000   1.0000   1.0000   1.0000   1.0000
     1.0000   1.0000

          k = 0.1250 0.0722-0.0000 (  3692 PWs)   bands (ev):

  -113.7580-113.7574 -68.1387 -68.1321 -68.1101 -68.1100 -68.1080 -68.1077
    -8.6523  -7.5023   3.4419   3.5299   3.5466   3.6870   4.1473   4.6226
     4.6557   4.8331   5.0972   5.3420   5.4769   8.0037   8.2438   8.3468
     8.4608   9.0840

     occupation numbers 
     1.0000   1.0000   1.0000   1.0000   1.0000   1.0000   1.0000   1.0000
     1.0000   1.0000   1.0000   1.0000   1.0000   1.0000   1.0000   1.0000
     1.0000   1.0000   1.0000   1.0000   1.0000   1.0000   1.0000   1.0000
     1.0000   1.0000

          k = 0.1250 0.0722 0.0949 (  3687 PWs)   bands (ev):

  -113.7580-113.7574 -68.1385 -68.1323 -68.1100 -68.1099 -68.1080 -68.1078
    -8.6078  -7.5436   3.4200   3.5199   3.5236   3.6638   4.0123   4.5695
     4.6885   4.8072   5.0913   5.2031   5.8276   7.8618   8.1044   8.2840
     8.8572   9.0617

     occupation numbers 
     1.0000   1.0000   1.0000   1.0000   1.0000   1.0000   1.0000   1.0000
     1.0000   1.0000   1.0000   1.0000   1.0000   1.0000   1.0000   1.0000
     1.0000   1.0000   1.0000   1.0000   1.0000   1.0000   1.0000   1.0000
     1.0000   1.0000

          k = 0.1250 0.0722 0.1897 (  3692 PWs)   bands (ev):

  -113.7579-113.7575 -68.1378 -68.1331 -68.1097 -68.1097 -68.1082 -68.1080
    -8.4808  -7.6630   3.3563   3.4537   3.5104   3.6099   3.8198   4.3374
     4.7702   4.8412   5.0703   5.1316   6.2958   7.4737   8.2892   8.3956
     8.9935   9.0683

     occupation numbers 
     1.0000   1.0000   1.0000   1.0000   1.0000   1.0000   1.0000   1.0000
     1.0000   1.0000   1.0000   1.0000   1.0000   1.0000   1.0000   1.0000
     1.0000   1.0000   1.0000   1.0000   1.0000   1.0000   1.0000   1.0000
     1.0000   1.0000

          k = 0.1250 0.0722 0.2846 (  3702 PWs)   bands (ev):

  -113.7578-113.7575 -68.1367 -68.1342 -68.1094 -68.1093 -68.1086 -68.1084
    -8.2905  -7.8462   3.2980   3.3785   3.5040   3.5543   3.7529   4.0375
     4.8686   4.9242   5.0273   5.0770   6.6776   7.1935   8.5539   8.5687
     8.8790   9.0388

     occupation numbers 
     1.0000   1.0000   1.0000   1.0000   1.0000   1.0000   1.0000   1.0000
     1.0000   1.0000   1.0000   1.0000   1.0000   1.0000   1.0000   1.0000
     1.0000   1.0000   1.0000   1.0000   1.0000   1.0000   1.0000   1.0000
     1.0000   1.0000

          k = 0.1250 0.0722-0.3794 (  3698 PWs)   bands (ev):

  -113.7578-113.7576 -68.1356 -68.1354 -68.1090 -68.1089 -68.1089 -68.1088
    -8.0671  -8.0668   3.3130   3.3131   3.5169   3.5169   3.8238   3.8239
     4.9588   4.9589   5.0084   5.0085   6.9561   6.9562   8.7254   8.7256
     8.8478   8.8479

     occupation numbers 
     1.0000   1.0000   1.0000   1.0000   1.0000   1.0000   1.0000   1.0000
     1.0000   1.0000   1.0000   1.0000   1.0000   1.0000   1.0000   1.0000
     1.0000   1.0000   1.0000   1.0000   1.0000   1.0000   1.0000   1.0000
     1.0000   1.0000

          k = 0.1250 0.0722-0.2846 (  3702 PWs)   bands (ev):

  -113.7578-113.7575 -68.1367 -68.1342 -68.1094 -68.1093 -68.1086 -68.1084
    -8.2905  -7.8462   3.2980   3.3785   3.5040   3.5543   3.7529   4.0375
     4.8686   4.9242   5.0273   5.0770   6.6776   7.1935   8.5539   8.5687
     8.8790   9.0388

     occupation numbers 
     1.0000   1.0000   1.0000   1.0000   1.0000   1.0000   1.0000   1.0000
     1.0000   1.0000   1.0000   1.0000   1.0000   1.0000   1.0000   1.0000
     1.0000   1.0000   1.0000   1.0000   1.0000   1.0000   1.0000   1.0000
     1.0000   1.0000

          k = 0.1250 0.0722-0.1897 (  3692 PWs)   bands (ev):

  -113.7579-113.7575 -68.1378 -68.1331 -68.1097 -68.1097 -68.1082 -68.1080
    -8.4808  -7.6630   3.3563   3.4537   3.5104   3.6099   3.8198   4.3374
     4.7702   4.8412   5.0703   5.1316   6.2958   7.4737   8.2892   8.3956
     8.9935   9.0683

     occupation numbers 
     1.0000   1.0000   1.0000   1.0000   1.0000   1.0000   1.0000   1.0000
     1.0000   1.0000   1.0000   1.0000   1.0000   1.0000   1.0000   1.0000
     1.0000   1.0000   1.0000   1.0000   1.0000   1.0000   1.0000   1.0000
     1.0000   1.0000

          k = 0.1250 0.0722-0.0949 (  3687 PWs)   bands (ev):

  -113.7580-113.7574 -68.1385 -68.1323 -68.1100 -68.1099 -68.1080 -68.1078
    -8.6078  -7.5436   3.4200   3.5199   3.5236   3.6638   4.0123   4.5695
     4.6885   4.8072   5.0913   5.2031   5.8276   7.8618   8.1044   8.2840
     8.8572   9.0617

     occupation numbers 
     1.0000   1.0000   1.0000   1.0000   1.0000   1.0000   1.0000   1.0000
     1.0000   1.0000   1.0000   1.0000   1.0000   1.0000   1.0000   1.0000
     1.0000   1.0000   1.0000   1.0000   1.0000   1.0000   1.0000   1.0000
     1.0000   1.0000

          k = 0.1250 0.2165-0.0000 (  3683 PWs)   bands (ev):

  -113.7579-113.7574 -68.1382 -68.1325 -68.1102 -68.1102 -68.1083 -68.1077
    -8.4922  -7.4910   3.4275   3.4927   3.7008   3.8816   4.0587   4.5179
     4.6223   4.8655   5.1183   5.4486   5.7286   7.3675   7.4955   7.9295
     8.2748   8.7078

     occupation numbers 
     1.0000   1.0000   1.0000   1.0000   1.0000   1.0000   1.0000   1.0000
     1.0000   1.0000   1.0000   1.0000   1.0000   1.0000   1.0000   1.0000
     1.0000   1.0000   1.0000   1.0000   1.0000   1.0000   1.0000   1.0000
     1.0000   1.0000

          k = 0.1250 0.2165 0.0949 (  3696 PWs)   bands (ev):

  -113.7579-113.7574 -68.1381 -68.1328 -68.1101 -68.1101 -68.1084 -68.1078
    -8.4516  -7.5246   3.4072   3.4368   3.6895   3.8463   3.9721   4.4440
     4.6555   4.8633   5.1106   5.3130   6.0042   7.3453   7.5038   7.8032
     8.6378   8.6783

     occupation numbers 
     1.0000   1.0000   1.0000   1.0000   1.0000   1.0000   1.0000   1.0000
     1.0000   1.0000   1.0000   1.0000   1.0000   1.0000   1.0000   1.0000
     1.0000   1.0000   1.0000   1.0000   1.0000   1.0000   1.0000   1.0000
     1.0000   1.0000

          k = 0.1250 0.2165 0.1897 (  3695 PWs)   bands (ev):

  -113.7579-113.7575 -68.1375 -68.1335 -68.1099 -68.1098 -68.1085 -68.1081
    -8.3363  -7.6232   3.2895   3.3471   3.6668   3.7731   3.8495   4.2254
     4.7430   4.9022   5.0834   5.2117   6.3342   7.0625   7.8834   7.8984
     8.5900   8.9987

     occupation numbers 
     1.0000   1.0000   1.0000   1.0000   1.0000   1.0000   1.0000   1.0000
     1.0000   1.0000   1.0000   1.0000   1.0000   1.0000   1.0000   1.0000
     1.0000   1.0000   1.0000   1.0000   1.0000   1.0000   1.0000   1.0000
     1.0000   1.0000

          k = 0.1250 0.2165 0.2846 (  3688 PWs)   bands (ev):

  -113.7578-113.7575 -68.1366 -68.1344 -68.1095 -68.1095 -68.1088 -68.1085
    -8.1656  -7.7777   3.1686   3.2535   3.6543   3.7111   3.7964   3.9824
     4.8491   4.9739   5.0369   5.1420   6.5520   6.8586   8.0586   8.4099
     8.4497   9.0720

     occupation numbers 
     1.0000   1.0000   1.0000   1.0000   1.0000   1.0000   1.0000   1.0000
     1.0000   1.0000   1.0000   1.0000   1.0000   1.0000   1.0000   1.0000
     1.0000   1.0000   1.0000   1.0000   1.0000   1.0000   1.0000   1.0000
     1.0000   1.0000

          k = 0.1250 0.2165-0.3794 (  3698 PWs)   bands (ev):

  -113.7578-113.7576 -68.1356 -68.1354 -68.1093 -68.1091 -68.1090 -68.1089
    -7.9684  -7.9682   3.1667   3.1667   3.6683   3.6683   3.8345   3.8346
     4.9457   4.9458   5.0702   5.0703   6.7074   6.7074   8.2595   8.2596
     8.8502   8.8502

     occupation numbers 
     1.0000   1.0000   1.0000   1.0000   1.0000   1.0000   1.0000   1.0000
     1.0000   1.0000   1.0000   1.0000   1.0000   1.0000   1.0000   1.0000
     1.0000   1.0000   1.0000   1.0000   1.0000   1.0000   1.0000   1.0000
     1.0000   1.0000

          k = 0.1250 0.2165-0.2846 (  3688 PWs)   bands (ev):

  -113.7578-113.7575 -68.1366 -68.1344 -68.1095 -68.1095 -68.1088 -68.1085
    -8.1656  -7.7777   3.1686   3.2535   3.6543   3.7111   3.7964   3.9824
     4.8491   4.9739   5.0369   5.1420   6.5520   6.8586   8.0586   8.4099
     8.4497   9.0720

     occupation numbers 
     1.0000   1.0000   1.0000   1.0000   1.0000   1.0000   1.0000   1.0000
     1.0000   1.0000   1.0000   1.0000   1.0000   1.0000   1.0000   1.0000
     1.0000   1.0000   1.0000   1.0000   1.0000   1.0000   1.0000   1.0000
     1.0000   1.0000

          k = 0.1250 0.2165-0.1897 (  3695 PWs)   bands (ev):

  -113.7579-113.7575 -68.1375 -68.1335 -68.1099 -68.1098 -68.1085 -68.1081
    -8.3363  -7.6232   3.2895   3.3471   3.6668   3.7731   3.8495   4.2254
     4.7430   4.9022   5.0834   5.2117   6.3342   7.0625   7.8834   7.8984
     8.5900   8.9987

     occupation numbers 
     1.0000   1.0000   1.0000   1.0000   1.0000   1.0000   1.0000   1.0000
     1.0000   1.0000   1.0000   1.0000   1.0000   1.0000   1.0000   1.0000
     1.0000   1.0000   1.0000   1.0000   1.0000   1.0000   1.0000   1.0000
     1.0000   1.0000

          k = 0.1250 0.2165-0.0949 (  3696 PWs)   bands (ev):

  -113.7579-113.7574 -68.1381 -68.1328 -68.1101 -68.1101 -68.1084 -68.1078
    -8.4516  -7.5246   3.4072   3.4368   3.6895   3.8463   3.9721   4.4440
     4.6555   4.8633   5.1105   5.3130   6.0042   7.3453   7.5038   7.8032
     8.6378   8.6783

     occupation numbers 
     1.0000   1.0000   1.0000   1.0000   1.0000   1.0000   1.0000   1.0000
     1.0000   1.0000   1.0000   1.0000   1.0000   1.0000   1.0000   1.0000
     1.0000   1.0000   1.0000   1.0000   1.0000   1.0000   1.0000   1.0000
     1.0000   1.0000

          k = 0.1250 0.3608-0.0000 (  3703 PWs)   bands (ev):

  -113.7579-113.7575 -68.1374 -68.1333 -68.1106 -68.1103 -68.1089 -68.1078
    -8.2298  -7.5062   3.3813   3.6677   3.9355   4.0233   4.2121   4.3711
     4.5556   4.8908   5.1447   5.3585   6.2866   6.4768   6.7555   7.1015
     8.0940   8.1425

     occupation numbers 
     1.0000   1.0000   1.0000   1.0000   1.0000   1.0000   1.0000   1.0000
     1.0000   1.0000   1.0000   1.0000   1.0000   1.0000   1.0000   1.0000
     1.0000   1.0000   1.0000   1.0000   1.0000   1.0000   1.0000   1.0000
     1.0000   1.0000

          k = 0.1250 0.3608 0.0949 (  3699 PWs)   bands (ev):

  -113.7578-113.7575 -68.1373 -68.1335 -68.1105 -68.1102 -68.1089 -68.1079
    -8.1969  -7.5265   3.3433   3.5728   3.9230   3.9744   4.1612   4.2864
     4.6064   4.9038   5.1326   5.3147   6.1367   6.6279   6.9300   7.1078
     8.0954   8.4119

     occupation numbers 
     1.0000   1.0000   1.0000   1.0000   1.0000   1.0000   1.0000   1.0000
     1.0000   1.0000   1.0000   1.0000   1.0000   1.0000   1.0000   1.0000
     1.0000   1.0000   1.0000   1.0000   1.0000   1.0000   1.0000   1.0000
     1.0000   1.0000

[...]

  -113.7578-113.7575 -68.1363 -68.1346 -68.1105 -68.1100 -68.1092 -68.1084
    -7.9007  -7.6016   3.3897   3.4256   3.9818   4.0237   4.1330   4.2608
     4.7224   4.8726   5.1338   5.2031   5.9111   6.0323   6.2254   7.2041
     8.0494   8.7616

     occupation numbers 
     1.0000   1.0000   1.0000   1.0000   1.0000   1.0000   1.0000   1.0000
     1.0000   1.0000   1.0000   1.0000   1.0000   1.0000   1.0000   1.0000
     1.0000   1.0000   1.0000   1.0000   1.0000   1.0000   1.0000   1.0000
     1.0000   1.0000

          k =-0.5000 0.0000 0.2846 (  3705 PWs)   bands (ev):

  -113.7577-113.7576 -68.1360 -68.1351 -68.1100 -68.1097 -68.1093 -68.1088
    -7.8126  -7.6493   3.1504   3.2084   3.9408   3.9419   4.1145   4.1749
     4.7971   4.8720   5.1294   5.1699   5.9085   5.9799   6.4373   6.9870
     8.7561   9.1726

     occupation numbers 
     1.0000   1.0000   1.0000   1.0000   1.0000   1.0000   1.0000   1.0000
     1.0000   1.0000   1.0000   1.0000   1.0000   1.0000   1.0000   1.0000
     1.0000   1.0000   1.0000   1.0000   1.0000   1.0000   1.0000   1.0000
     1.0000   1.0000

          k =-0.5000 0.0000-0.3794 (  3706 PWs)   bands (ev):

  -113.7577-113.7576 -68.1357 -68.1355 -68.1097 -68.1096 -68.1094 -68.1092
    -7.7227  -7.7224   3.0862   3.0862   3.9225   3.9225   4.1254   4.1254
     4.8477   4.8477   5.1432   5.1432   5.9367   5.9367   6.7176   6.7177
     9.1786   9.1787

     occupation numbers 
     1.0000   1.0000   1.0000   1.0000   1.0000   1.0000   1.0000   1.0000
     1.0000   1.0000   1.0000   1.0000   1.0000   1.0000   1.0000   1.0000
     1.0000   1.0000   1.0000   1.0000   1.0000   1.0000   1.0000   1.0000
     1.0000   1.0000

          k =-0.5000 0.0000-0.2846 (  3705 PWs)   bands (ev):

  -113.7577-113.7576 -68.1360 -68.1351 -68.1100 -68.1097 -68.1093 -68.1088
    -7.8126  -7.6493   3.1504   3.2084   3.9408   3.9419   4.1145   4.1749
     4.7971   4.8720   5.1294   5.1698   5.9085   5.9799   6.4373   6.9870
     8.7561   9.1726

     occupation numbers 
     1.0000   1.0000   1.0000   1.0000   1.0000   1.0000   1.0000   1.0000
     1.0000   1.0000   1.0000   1.0000   1.0000   1.0000   1.0000   1.0000
     1.0000   1.0000   1.0000   1.0000   1.0000   1.0000   1.0000   1.0000
     1.0000   1.0000

          k =-0.5000 0.0000-0.1897 (  3697 PWs)   bands (ev):

  -113.7578-113.7575 -68.1363 -68.1346 -68.1105 -68.1100 -68.1092 -68.1084
    -7.9007  -7.6016   3.3897   3.4256   3.9818   4.0237   4.1330   4.2608
     4.7224   4.8726   5.1338   5.2031   5.9111   6.0323   6.2254   7.2041
     8.0494   8.7616

     occupation numbers 
     1.0000   1.0000   1.0000   1.0000   1.0000   1.0000   1.0000   1.0000
     1.0000   1.0000   1.0000   1.0000   1.0000   1.0000   1.0000   1.0000
     1.0000   1.0000   1.0000   1.0000   1.0000   1.0000   1.0000   1.0000
     1.0000   1.0000

          k =-0.5000 0.0000-0.0949 (  3702 PWs)   bands (ev):

  -113.7578-113.7575 -68.1365 -68.1343 -68.1108 -68.1101 -68.1092 -68.1081
    -7.9649  -7.5773   3.5851   3.6750   4.0353   4.1424   4.1863   4.3725
     4.6291   4.8595   5.1522   5.2343   5.9349   6.0114   6.3315   7.2180
     7.4014   8.1692

     occupation numbers 
     1.0000   1.0000   1.0000   1.0000   1.0000   1.0000   1.0000   1.0000
     1.0000   1.0000   1.0000   1.0000   1.0000   1.0000   1.0000   1.0000
     1.0000   1.0000   1.0000   1.0000   1.0000   1.0000   1.0000   1.0000
     1.0000   1.0000

          k =-0.5000 0.1443 0.0000 (  3696 PWs)   bands (ev):

  -113.7578-113.7575 -68.1365 -68.1342 -68.1108 -68.1103 -68.1093 -68.1079
    -7.9823  -7.5750   3.4203   3.9622   4.0751   4.1483   4.2233   4.5010
     4.5154   4.8464   5.1613   5.1823   5.9576   6.1711   6.4665   6.7934
     7.7222   7.8301

     occupation numbers 
     1.0000   1.0000   1.0000   1.0000   1.0000   1.0000   1.0000   1.0000
     1.0000   1.0000   1.0000   1.0000   1.0000   1.0000   1.0000   1.0000
     1.0000   1.0000   1.0000   1.0000   1.0000   1.0000   1.0000   1.0000
     1.0000   1.0000

          k =-0.5000 0.1443 0.0949 (  3699 PWs)   bands (ev):

  -113.7578-113.7575 -68.1365 -68.1343 -68.1107 -68.1102 -68.1093 -68.1080
    -7.9591  -7.5816   3.3633   3.8060   4.0663   4.1329   4.1558   4.3870
     4.6237   4.8665   5.1428   5.1734   5.8786   6.0633   6.4220   7.2284
     7.6603   8.1596

     occupation numbers 
     1.0000   1.0000   1.0000   1.0000   1.0000   1.0000   1.0000   1.0000
     1.0000   1.0000   1.0000   1.0000   1.0000   1.0000   1.0000   1.0000
     1.0000   1.0000   1.0000   1.0000   1.0000   1.0000   1.0000   1.0000
     1.0000   1.0000

          k =-0.5000 0.1443 0.1897 (  3694 PWs)   bands (ev):

  -113.7578-113.7575 -68.1363 -68.1346 -68.1104 -68.1100 -68.1093 -68.1082
    -7.8959  -7.6045   3.2004   3.4979   3.9660   4.0598   4.1274   4.2741
     4.7271   4.8984   5.1049   5.1498   5.8049   5.9206   6.5605   7.5235
     7.9655   8.7277

     occupation numbers 
     1.0000   1.0000   1.0000   1.0000   1.0000   1.0000   1.0000   1.0000
     1.0000   1.0000   1.0000   1.0000   1.0000   1.0000   1.0000   1.0000
     1.0000   1.0000   1.0000   1.0000   1.0000   1.0000   1.0000   1.0000
     1.0000   1.0000

          k =-0.5000 0.1443 0.2846 (  3703 PWs)   bands (ev):

  -113.7577-113.7576 -68.1360 -68.1351 -68.1101 -68.1097 -68.1094 -68.1087
    -7.8094  -7.6503   3.0403   3.1962   3.9121   3.9847   4.1190   4.1877
     4.8134   4.9087   5.0807   5.1190   5.8003   5.8514   6.8024   7.3239
     8.6469   9.1070

     occupation numbers 
     1.0000   1.0000   1.0000   1.0000   1.0000   1.0000   1.0000   1.0000
     1.0000   1.0000   1.0000   1.0000   1.0000   1.0000   1.0000   1.0000
     1.0000   1.0000   1.0000   1.0000   1.0000   1.0000   1.0000   1.0000
     1.0000   1.0000

          k =-0.5000 0.1443-0.3794 (  3706 PWs)   bands (ev):

  -113.7577-113.7576 -68.1357 -68.1355 -68.1098 -68.1096 -68.1093 -68.1091
    -7.7215  -7.7212   3.0250   3.0250   3.9269   3.9269   4.1363   4.1364
     4.8776   4.8776   5.0902   5.0902   5.8205   5.8206   7.0721   7.0723
     9.0780   9.0781

     occupation numbers 
     1.0000   1.0000   1.0000   1.0000   1.0000   1.0000   1.0000   1.0000
     1.0000   1.0000   1.0000   1.0000   1.0000   1.0000   1.0000   1.0000
     1.0000   1.0000   1.0000   1.0000   1.0000   1.0000   1.0000   1.0000
     1.0000   1.0000

          k =-0.5000 0.1443-0.2846 (  3703 PWs)   bands (ev):

  -113.7577-113.7576 -68.1360 -68.1351 -68.1101 -68.1097 -68.1094 -68.1087
    -7.8094  -7.6503   3.0403   3.1962   3.9121   3.9847   4.1190   4.1877
     4.8134   4.9087   5.0807   5.1190   5.8003   5.8514   6.8024   7.3239
     8.6469   9.1070

     occupation numbers 
     1.0000   1.0000   1.0000   1.0000   1.0000   1.0000   1.0000   1.0000
     1.0000   1.0000   1.0000   1.0000   1.0000   1.0000   1.0000   1.0000
     1.0000   1.0000   1.0000   1.0000   1.0000   1.0000   1.0000   1.0000
     1.0000   1.0000

          k =-0.5000 0.1443-0.1897 (  3694 PWs)   bands (ev):

  -113.7578-113.7575 -68.1363 -68.1346 -68.1104 -68.1100 -68.1093 -68.1082
    -7.8959  -7.6045   3.2004   3.4979   3.9661   4.0598   4.1274   4.2741
     4.7271   4.8984   5.1049   5.1498   5.8049   5.9206   6.5605   7.5235
     7.9655   8.7277

     occupation numbers 
     1.0000   1.0000   1.0000   1.0000   1.0000   1.0000   1.0000   1.0000
     1.0000   1.0000   1.0000   1.0000   1.0000   1.0000   1.0000   1.0000
     1.0000   1.0000   1.0000   1.0000   1.0000   1.0000   1.0000   1.0000
     1.0000   1.0000

          k =-0.5000 0.1443-0.0949 (  3699 PWs)   bands (ev):

  -113.7578-113.7575 -68.1365 -68.1343 -68.1107 -68.1102 -68.1093 -68.1080
    -7.9591  -7.5816   3.3633   3.8060   4.0663   4.1329   4.1558   4.3870
     4.6237   4.8665   5.1428   5.1734   5.8786   6.0633   6.4220   7.2284
     7.6603   8.1596

     occupation numbers 
     1.0000   1.0000   1.0000   1.0000   1.0000   1.0000   1.0000   1.0000
     1.0000   1.0000   1.0000   1.0000   1.0000   1.0000   1.0000   1.0000
     1.0000   1.0000   1.0000   1.0000   1.0000   1.0000   1.0000   1.0000
     1.0000   1.0000

          k =-0.5000-0.8660 0.0000 (  3706 PWs)   bands (ev):

  -113.7578-113.7575 -68.1365 -68.1342 -68.1107 -68.1106 -68.1093 -68.1078
    -7.9761  -7.5799   3.2918   4.0540   4.0821   4.1386   4.1925   4.4638
     4.5356   4.8459   5.1361   5.1590   6.0183   6.0345   6.6404   6.7942
     7.8278   7.9677

     occupation numbers 
     1.0000   1.0000   1.0000   1.0000   1.0000   1.0000   1.0000   1.0000
     1.0000   1.0000   1.0000   1.0000   1.0000   1.0000   1.0000   1.0000
     1.0000   1.0000   1.0000   1.0000   1.0000   1.0000   1.0000   1.0000
     1.0000   1.0000

          k =-0.5000-0.8660 0.0949 (  3702 PWs)   bands (ev):

  -113.7578-113.7575 -68.1365 -68.1343 -68.1106 -68.1105 -68.1093 -68.1079
    -7.9532  -7.5859   3.2369   3.8409   4.0964   4.1337   4.1389   4.3774
     4.6235   4.8764   5.1283   5.1345   5.8992   5.9183   6.7120   7.1568
     7.9311   8.1275

     occupation numbers 
     1.0000   1.0000   1.0000   1.0000   1.0000   1.0000   1.0000   1.0000
     1.0000   1.0000   1.0000   1.0000   1.0000   1.0000   1.0000   1.0000
     1.0000   1.0000   1.0000   1.0000   1.0000   1.0000   1.0000   1.0000
     1.0000   1.0000

          k =-0.5000-0.8660 0.1897 (  3704 PWs)   bands (ev):

  -113.7578-113.7575 -68.1363 -68.1346 -68.1104 -68.1102 -68.1094 -68.1082
    -7.8910  -7.6075   3.0901   3.4978   3.9577   4.0916   4.1244   4.2756
     4.7322   4.9298   5.0746   5.1062   5.7879   5.7970   6.9002   7.8220
     7.8351   8.6720

     occupation numbers 
     1.0000   1.0000   1.0000   1.0000   1.0000   1.0000   1.0000   1.0000
     1.0000   1.0000   1.0000   1.0000   1.0000   1.0000   1.0000   1.0000
     1.0000   1.0000   1.0000   1.0000   1.0000   1.0000   1.0000   1.0000
     1.0000   1.0000

          k =-0.5000-0.8660 0.2846 (  3710 PWs)   bands (ev):

  -113.7577-113.7576 -68.1360 -68.1351 -68.1101 -68.1097 -68.1095 -68.1087
    -7.8061  -7.6513   2.9572   3.1646   3.9058   4.0033   4.1237   4.1954
     4.8311   4.9816   5.0001   5.0722   5.7504   5.7638   7.1508   7.6446
     8.4943   9.0129

     occupation numbers 
     1.0000   1.0000   1.0000   1.0000   1.0000   1.0000   1.0000   1.0000
     1.0000   1.0000   1.0000   1.0000   1.0000   1.0000   1.0000   1.0000
     1.0000   1.0000   1.0000   1.0000   1.0000   1.0000   1.0000   1.0000
     1.0000   1.0000

          k =-0.5000-0.8660-0.3794 (  3708 PWs)   bands (ev):

  -113.7577-113.7576 -68.1357 -68.1355 -68.1098 -68.1097 -68.1092 -68.1091
    -7.7203  -7.7200   2.9675   2.9676   3.9306   3.9307   4.1447   4.1447
     4.9194   4.9195   5.0295   5.0297   5.7528   5.7529   7.4121   7.4122
     8.9404   8.9405

     occupation numbers 
     1.0000   1.0000   1.0000   1.0000   1.0000   1.0000   1.0000   1.0000
     1.0000   1.0000   1.0000   1.0000   1.0000   1.0000   1.0000   1.0000
     1.0000   1.0000   1.0000   1.0000   1.0000   1.0000   1.0000   1.0000
     1.0000   1.0000

     highest occupied level (ev):     9.2590

!    total energy              =    -987.06269065 Ry
     Harris-Foulkes estimate   =    -987.06269068 Ry
     estimated scf accuracy    <       0.00000007 Ry

     The total energy is the sum of the following terms:

     one-electron contribution =    -790.44360491 Ry
     hartree contribution      =     417.80283504 Ry
     xc contribution           =     -98.10529738 Ry
     ewald contribution        =    -516.31662341 Ry

     convergence has been achieved in   7 iterations

     Forces acting on atoms (cartesian axes, Ry/au):

     atom    1 type  2   force =    -0.00000029    0.00000061    0.00009874
     atom    2 type  2   force =    -0.00000011    0.00000032    0.00009840
     atom    3 type  1   force =     0.00000031   -0.00000053   -0.00009823
     atom    4 type  1   force =     0.00000009   -0.00000039   -0.00009891
     The non-local contrib.  to forces
     atom    1 type  2   force =     0.00000050   -0.00000471    0.00246172
     atom    2 type  2   force =     0.00000058    0.00000006    0.00246288
     atom    3 type  1   force =     0.00000145   -0.00000479    0.00570837
     atom    4 type  1   force =     0.00000239   -0.00000423    0.00570736
     The ionic contribution  to forces
     atom    1 type  2   force =    -0.00001431    0.00005407   -0.03416368
     atom    2 type  2   force =    -0.00000730   -0.00000014   -0.03416231
     atom    3 type  1   force =     0.00000767   -0.00000468    0.03416780
     atom    4 type  1   force =     0.00001394   -0.00004926    0.03415820
     The local contribution  to forces
     atom    1 type  2   force =     0.00001439   -0.00004855    0.03181906
     atom    2 type  2   force =     0.00000838   -0.00000060    0.03181689
     atom    3 type  1   force =    -0.00001018    0.00000887   -0.03998290
     atom    4 type  1   force =    -0.00001598    0.00005088   -0.03997026
     The core correction contribution to forces
     atom    1 type  2   force =     0.00000000    0.00000003   -0.00001273
     atom    2 type  2   force =     0.00000001   -0.00000001   -0.00001274
     atom    3 type  1   force =     0.00000000    0.00000000    0.00000000
     atom    4 type  1   force =     0.00000000    0.00000000    0.00000000
     The Hubbard contrib.    to forces
     atom    1 type  2   force =     0.00000000    0.00000000    0.00000000
     atom    2 type  2   force =     0.00000000    0.00000000    0.00000000
     atom    3 type  1   force =     0.00000000    0.00000000    0.00000000
     atom    4 type  1   force =     0.00000000    0.00000000    0.00000000
     The SCF correction term to forces
     atom    1 type  2   force =     0.00000000    0.00000000    0.00000000
     atom    2 type  2   force =     0.00000000    0.00000000    0.00000000
     atom    3 type  1   force =     0.00000000    0.00000000    0.00000000
     atom    4 type  1   force =     0.00000000    0.00000000    0.00000000

     Total force =     0.000000     Total SCF correction =     0.000000


     Computing stress (Cartesian axis) and pressure

          total   stress  (Ry/bohr**3)                   (kbar)     P=   -1.86
  -0.00000768   0.00000000  -0.00000001         -1.13      0.00     -0.00
   0.00000000  -0.00000768   0.00000000          0.00     -1.13      0.00
  -0.00000001   0.00000000  -0.00002260         -0.00      0.00     -3.32

     kinetic stress (kbar)  35188.97     -0.00     -0.00
                               -0.00  35188.97      0.00
                               -0.00      0.00  35556.19

     local   stress (kbar)   3349.67     -0.05     -0.01
                               -0.05   3349.40     -0.00
                               -0.01     -0.00 -14913.75

     nonloc. stress (kbar)  -1746.73      0.00      0.00
                                0.00  -1746.73     -0.00
                                0.00     -0.00  -1878.54

     hartree stress (kbar)  63858.80      0.02      0.01
                                0.02  63858.91      0.00
                                0.01      0.00  73057.44

     exc-cor stress (kbar) -14743.43      0.00      0.00
                                0.00 -14743.43     -0.00
                                0.00     -0.00 -14747.04

     corecor stress (kbar)   -259.23      0.00     -0.00
                                0.00   -259.23     -0.00
                               -0.00     -0.00   -259.89

     ewald   stress (kbar) -85649.18      0.03      0.00
                                0.03 -85649.03      0.00
                                0.00      0.00 -76817.73

     hubbard stress (kbar)      0.00      0.00      0.00
                                0.00      0.00      0.00
                                0.00      0.00      0.00

     london  stress (kbar)      0.00      0.00      0.00
                                0.00      0.00      0.00
                                0.00      0.00      0.00

     DFT-D3  stress (kbar)      0.00      0.00      0.00
                                0.00      0.00      0.00
                                0.00      0.00      0.00

     XDM     stress (kbar)      0.00      0.00      0.00
                                0.00      0.00      0.00
                                0.00      0.00      0.00

     dft-nl  stress (kbar)      0.00      0.00      0.00
                                0.00      0.00      0.00
                                0.00      0.00      0.00

     TS-vdW  stress (kbar)      0.00      0.00      0.00
                                0.00      0.00      0.00
                                0.00      0.00      0.00



     Writing output data file ZnO.save/
 
     init_run     :      0.51s CPU      0.89s WALL (       1 calls)
     electrons    :      7.42s CPU      8.10s WALL (       1 calls)
     forces       :      0.15s CPU      0.17s WALL (       1 calls)
     stress       :      0.27s CPU      0.29s WALL (       1 calls)

     Called by init_run:
     wfcinit      :      0.36s CPU      0.56s WALL (       1 calls)
     wfcinit:atom :      0.00s CPU      0.00s WALL (      65 calls)
     wfcinit:wfcr :      0.35s CPU      0.54s WALL (      65 calls)
     potinit      :      0.06s CPU      0.10s WALL (       1 calls)
     hinit0       :      0.06s CPU      0.16s WALL (       1 calls)

     Called by electrons:
     c_bands      :      6.25s CPU      6.75s WALL (       7 calls)
     sum_band     :      0.89s CPU      1.00s WALL (       7 calls)
     v_of_rho     :      0.26s CPU      0.27s WALL (       8 calls)
     v_h          :      0.00s CPU      0.00s WALL (       8 calls)
     v_xc         :      0.31s CPU      0.33s WALL (      10 calls)
     newd         :      0.03s CPU      0.05s WALL (       8 calls)
     mix_rho      :      0.01s CPU      0.02s WALL (       7 calls)

     Called by c_bands:
     init_us_2    :      0.07s CPU      0.08s WALL (    1105 calls)
     cegterg      :      5.89s CPU      6.21s WALL (     455 calls)

     Called by sum_band:
     sum_band:bec :      0.01s CPU      0.04s WALL (     455 calls)
     addusdens    :      0.03s CPU      0.07s WALL (       7 calls)

     Called by *egterg:
     h_psi        :      3.63s CPU      3.79s WALL (    1491 calls)
     s_psi        :      0.11s CPU      0.11s WALL (    1491 calls)
     g_psi        :      0.01s CPU      0.01s WALL (     971 calls)
     cdiaghg      :      1.65s CPU      1.91s WALL (    1426 calls)
     cegterg:over :      0.35s CPU      0.41s WALL (     971 calls)
     cegterg:upda :      0.19s CPU      0.20s WALL (     971 calls)
     cegterg:last :      0.13s CPU      0.13s WALL (     455 calls)
     cdiaghg:chol :      0.24s CPU      0.30s WALL (    1426 calls)
     cdiaghg:inve :      0.02s CPU      0.03s WALL (    1426 calls)
     cdiaghg:para :      0.16s CPU      0.17s WALL (    2852 calls)

     Called by h_psi:
     h_psi:pot    :      3.62s CPU      3.78s WALL (    1491 calls)
     h_psi:calbec :      0.19s CPU      0.21s WALL (    1491 calls)
     vloc_psi     :      3.31s CPU      3.46s WALL (    1491 calls)
     add_vuspsi   :      0.11s CPU      0.12s WALL (    1491 calls)

     General routines
     calbec       :      0.31s CPU      0.33s WALL (    2271 calls)
     fft          :      0.04s CPU      0.08s WALL (     127 calls)
     ffts         :      0.00s CPU      0.02s WALL (      15 calls)
     fftw         :      3.79s CPU      3.94s WALL (   74416 calls)
     interpolate  :      0.00s CPU      0.02s WALL (       8 calls)
 
     Parallel routines
     fft_scatt_xy :      0.60s CPU      0.63s WALL (   74558 calls)
     fft_scatt_yz :      1.89s CPU      1.97s WALL (   74558 calls)
 
     PWSCF        :      8.68s CPU     10.93s WALL

 
   This run was terminated on:  20:45:46  15Jun2022            

=------------------------------------------------------------------------------=
   JOB DONE.
=------------------------------------------------------------------------------=
