
     Program PWSCF v.6.4.1 starts on  8Nov2021 at 19:33:57 

     This program is part of the open-source Quantum ESPRESSO suite
     for quantum simulation of materials; please cite
         "P. Giannozzi et al., J. Phys.:Condens. Matter 21 395502 (2009);
         "P. Giannozzi et al., J. Phys.:Condens. Matter 29 465901 (2017);
          URL http://www.quantum-espresso.org", 
     in publications or presentations arising from this work. More details at
     http://www.quantum-espresso.org/quote

     Parallel version (MPI), running on   128 processors

     MPI processes distributed on     2 nodes
     K-points division:     npool     =       8
     R & G space division:  proc/nbgrp/npool/nimage =      16
     Waiting for input...
     Reading input from standard input
Warning: card &CELL ignored
Warning: card   CELL_DYNAMICS     = 'BFGS' ignored
Warning: card   PRESS_CONV_THR    = 0.5D0 ignored
Warning: card   CELL_DOFREE = 'Z' ignored
Warning: card / ignored

     Current dimensions of program PWSCF are:
     Max number of different atomic species (ntypx) = 10
     Max number of k-points (npk) =  40000
     Max angular momentum in pseudopotentials (lmaxx) =  3

     Subspace diagonalization in iterative solution of the eigenvalue problem:
     one sub-group per band group will be used
     scalapack distributed-memory algorithm (size of sub-group:  2*  2 procs)

 
     Parallelization info
     --------------------
     sticks:   dense  smooth     PW     G-vecs:    dense   smooth      PW
     Min         731     351     95                61205    20350    2931
     Max         732     353     96                61209    20351    2936
     Sum       11705    5623   1531               979309   325609   46941
 


     bravais-lattice index     =            0
     lattice parameter (alat)  =      18.4233  a.u.
     unit-cell volume          =    5185.2735 (a.u.)^3
     number of atoms/cell      =           72
     number of atomic types    =            3
     number of electrons       =       796.00
     number of Kohn-Sham states=          478
     kinetic-energy cutoff     =      60.0000  Ry
     charge density cutoff     =     500.0000  Ry
     convergence threshold     =      1.0E-08
     mixing beta               =       0.5000
     number of iterations used =            8  plain     mixing
     Exchange-correlation      = SLA  PW   PSX  PSC ( 1  4 10  8 0 0)
     Using LIBXC version       =    4   3   4
     nstep                     =          200


     celldm(1)=  18.423337  celldm(2)=   0.000000  celldm(3)=   0.000000
     celldm(4)=   0.000000  celldm(5)=   0.000000  celldm(6)=   0.000000

     crystal axes: (cart. coord. in units of alat)
               a(1) = (   1.000000   0.000410  -0.000331 )  
               a(2) = (  -0.499644   0.866142   0.000342 )  
               a(3) = (  -0.000442   0.000273   0.957140 )  

     reciprocal axes: (cart. coord. in units 2 pi/alat)
               b(1) = (  0.999764  0.576725  0.000297 )  
               b(2) = ( -0.000473  1.154273 -0.000329 )  
               b(3) = (  0.000346 -0.000213  1.044780 )  


     PseudoPot. # 1 for Zn read from file:
     ./GBRV_PBEsol/zn_pbesol_v1.uspp.F.UPF
     MD5 check sum: 7d8615e52efe7c1e2b1899de8658bae2
     Pseudo is Ultrasoft, Zval = 20.0
     Generated by new atomic code, or converted to UPF format
     Using radial grid of  943 points,  6 beta functions with: 
                l(1) =   0
                l(2) =   0
                l(3) =   1
                l(4) =   1
                l(5) =   2
                l(6) =   2
     Q(r) pseudized with  8 coefficients,  rinner =    1.100   1.100   1.100
                                                       1.100   1.100

     PseudoPot. # 2 for O  read from file:
     ./GBRV_PBEsol/o_pbesol_v1.2.uspp.F.UPF
     MD5 check sum: 501638753501ef6325af9037351f7734
     Pseudo is Ultrasoft + core correction, Zval =  6.0
     Generated by new atomic code, or converted to UPF format
     Using radial grid of  737 points,  5 beta functions with: 
                l(1) =   0
                l(2) =   0
                l(3) =   1
                l(4) =   1
                l(5) =   2
     Q(r) pseudized with  8 coefficients,  rinner =    0.900   0.900   0.900
                                                       0.900   0.900

     PseudoPot. # 3 for Mg read from file:
     ./GBRV_PBEsol/mg_pbesol_v1.4.uspp.F.UPF
     MD5 check sum: 4059f37963cf5867752dbf5ab2400678
     Pseudo is Ultrasoft, Zval = 10.0
     Generated by new atomic code, or converted to UPF format
     Using radial grid of  821 points,  7 beta functions with: 
                l(1) =   0
                l(2) =   0
                l(3) =   0
                l(4) =   1
                l(5) =   1
                l(6) =   2
                l(7) =   2
     Q(r) pseudized with  8 coefficients,  rinner =    1.200   1.200   1.200
                                                       1.200   1.200

     atomic species   valence    mass     pseudopotential
        Zn            20.00    65.38000     Zn( 1.00)
        O              6.00    15.99900     O ( 1.00)
        Mg            10.00    24.30500     Mg( 1.00)

     No symmetry found


                                    s                        frac. trans.

      isym =  1     identity                                     

 cryst.   s( 1) = (     1          0          0      )
                  (     0          1          0      )
                  (     0          0          1      )

 cart.    s( 1) = (  1.0000000 -0.0000000  0.0000000 )
                  ( -0.0000000  1.0000000 -0.0000000 )
                  (  0.0000000 -0.0000000  1.0000000 )


   Cartesian axes

     site n.     atom                  positions (alat units)
         1           Zn  tau(   1) = (   0.1669892   0.0965706   0.2421523  )
         2           Zn  tau(   2) = (   0.1665794   0.0966202   0.7203531  )
         3           Zn  tau(   3) = (  -0.0006915   0.3857255   0.2425190  )
         4           Zn  tau(   4) = (  -0.0034118   0.3863608   0.7192140  )
         5           Zn  tau(   5) = (  -0.1666160   0.6773209   0.2410301  )
         6           Mg  tau(   6) = (  -0.1643451   0.6774617   0.7234914  )
         7           Zn  tau(   7) = (   0.5030412   0.0967753   0.2405883  )
         8           Zn  tau(   8) = (   0.5041816   0.0973007   0.7221743  )
         9           Mg  tau(   9) = (   0.3329948   0.3825444   0.2439577  )
        10           Mg  tau(  10) = (   0.3320208   0.3833325   0.7182173  )
        11           Mg  tau(  11) = (   0.1657171   0.6717189   0.2421673  )
        12           Zn  tau(  12) = (   0.1671037   0.6718356   0.7208612  )
        13           Mg  tau(  13) = (   0.8351107   0.0977514   0.2424622  )
        14           Mg  tau(  14) = (   0.8345127   0.0975478   0.7181084  )
        15           Zn  tau(  15) = (   0.6655187   0.3879501   0.2418692  )
        16           Mg  tau(  16) = (   0.6656664   0.3882919   0.7204449  )
        17           Zn  tau(  17) = (   0.4977878   0.6730240   0.2413844  )
        18           Zn  tau(  18) = (   0.4996161   0.6725172   0.7194629  )
        19           Zn  tau(  19) = (  -0.0009616   0.1940255   0.4815386  )
        20           Zn  tau(  20) = (   0.0019985   0.1924963   0.0030020  )
        21           Mg  tau(  21) = (  -0.1681555   0.4842503   0.4810770  )
        22           Zn  tau(  22) = (  -0.1666646   0.4842250   0.0011795  )
        23           Zn  tau(  23) = (  -0.3339369   0.7693565   0.4834669  )
        24           Mg  tau(  24) = (  -0.3356802   0.7694617   0.0029578  )
        25           Zn  tau(  25) = (   0.3343742   0.1886855   0.4813940  )
        26           Mg  tau(  26) = (   0.3344515   0.1889112   0.0029568  )
        27           Mg  tau(  27) = (   0.1638142   0.4794098   0.4813698  )
        28           Zn  tau(  28) = (   0.1659560   0.4788361   0.0045182  )
        29           Zn  tau(  29) = (   0.0021800   0.7707383   0.4782063  )
        30           Zn  tau(  30) = (   0.0026467   0.7702479   0.0015185  )
        31           Mg  tau(  31) = (   0.6665713   0.1953311   0.4806308  )
        32           Zn  tau(  32) = (   0.6696630   0.1945390   0.0001942  )
        33           Zn  tau(  33) = (   0.4989181   0.4805910   0.4840475  )
        34           Zn  tau(  34) = (   0.4971815   0.4817493   0.0029140  )
        35           Mg  tau(  35) = (   0.3333611   0.7694724   0.4808865  )
        36           Mg  tau(  36) = (   0.3331954   0.7685591   0.0030187  )
        37           O   tau(  37) = (   0.1672292   0.0952158   0.0029361  )
        38           O   tau(  38) = (   0.1655326   0.0960876   0.4814633  )
        39           O   tau(  39) = (  -0.0019968   0.3851849   0.0030411  )
        40           O   tau(  40) = (  -0.0034160   0.3858681   0.4810021  )
        41           O   tau(  41) = (  -0.1663583   0.6768482   0.0012194  )
        42           O   tau(  42) = (  -0.1658284   0.6765111   0.4833926  )
        43           O   tau(  43) = (   0.5037070   0.0969003   0.0025437  )
        44           O   tau(  44) = (   0.5021066   0.0967906   0.4813193  )
        45           O   tau(  45) = (   0.3322780   0.3815751   0.0029962  )
        46           O   tau(  46) = (   0.3313900   0.3827358   0.4812949  )
        47           O   tau(  47) = (   0.1677094   0.6711805   0.0045569  )
        48           O   tau(  48) = (   0.1678424   0.6717801   0.4781303  )
        49           O   tau(  49) = (   0.8347215   0.0951687   0.0011053  )
        50           O   tau(  50) = (   0.8323214   0.0959054   0.4805556  )
        51           O   tau(  51) = (   0.6664495   0.3872728   0.0002339  )
        52           O   tau(  52) = (   0.6666767   0.3871083   0.4839733  )
        53           O   tau(  53) = (   0.4990085   0.6732548   0.0029531  )
        54           O   tau(  54) = (   0.4996707   0.6734275   0.4808117  )
        55           O   tau(  55) = (   0.0007993   0.1933426   0.2422271  )
        56           O   tau(  56) = (   0.0005360   0.1937323   0.7204283  )
        57           O   tau(  57) = (  -0.1674166   0.4840251   0.2425942  )
        58           O   tau(  58) = (  -0.1683259   0.4852306   0.7192890  )
        59           O   tau(  59) = (  -0.3352762   0.7696030   0.2411052  )
        60           O   tau(  60) = (  -0.3338970   0.7696358   0.7235658  )
        61           O   tau(  61) = (   0.3348862   0.1906092   0.2406635  )
        62           O   tau(  62) = (   0.3349674   0.1908662   0.7222490  )
        63           O   tau(  63) = (   0.1673800   0.4796658   0.2440319  )
        64           O   tau(  64) = (   0.1658233   0.4796997   0.7182924  )
        65           O   tau(  65) = (   0.0008992   0.7704784   0.2422421  )
        66           O   tau(  66) = (   0.0030181   0.7712027   0.7209356  )
        67           O   tau(  67) = (   0.6690979   0.1952283   0.2425367  )
        68           O   tau(  68) = (   0.6694974   0.1958670   0.7181834  )
        69           O   tau(  69) = (   0.4979075   0.4807558   0.2419439  )
        70           O   tau(  70) = (   0.4970993   0.4805783   0.7205196  )
        71           O   tau(  71) = (   0.3312034   0.7713803   0.2414595  )
        72           O   tau(  72) = (   0.3328844   0.7710077   0.7195381  )

   Crystallographic axes

     site n.     atom                  positions (cryst. coord.)
         1           Zn  tau(   1) = (  0.2227164  0.1113102  0.2530330  )
         2           Zn  tau(   2) = (  0.2224774  0.1112103  0.7526472  )
         3           Zn  tau(   3) = (  0.2218382  0.4451531  0.2532963  )
         4           Zn  tau(   4) = (  0.2196267  0.4457309  0.7513364  )
         5           Zn  tau(   5) = (  0.2241228  0.7818127  0.2516211  )
         6           Mg  tau(   6) = (  0.2266177  0.7818155  0.7556876  )
         7           Zn  tau(   7) = (  0.5588067  0.1113880  0.2515152  )
         8           Zn  tau(   8) = (  0.5603928  0.1118354  0.7546667  )
         9           Mg  tau(   9) = (  0.5536117  0.4413229  0.2549157  )
        10           Mg  tau(  10) = (  0.5532332  0.4420769  0.7504119  )
        11           Mg  tau(  11) = (  0.5531470  0.7751889  0.2529255  )
        12           Zn  tau(  12) = (  0.5547428  0.7751654  0.7530555  )
        13           Mg  tau(  13) = (  0.8913613  0.1123570  0.2535877  )
        14           Mg  tau(  14) = (  0.8907873  0.1119657  0.7505330  )
        15           Zn  tau(  15) = (  0.8891740  0.4474059  0.2528475  )
        16           Mg  tau(  16) = (  0.8896609  0.4476429  0.7528536  )
        17           Zn  tau(  17) = (  0.8858917  0.7765385  0.2522222  )
        18           Zn  tau(  18) = (  0.8875693  0.7757954  0.7517095  )
        19           Zn  tau(  19) = (  0.1110810  0.2238004  0.5030599  )
        20           Zn  tau(  20) = (  0.1130163  0.2221913  0.0030961  )
        21           Mg  tau(  21) = (  0.1113063  0.5588782  0.5024579  )
        22           Zn  tau(  22) = (  0.1126397  0.5590063  0.0010713  )
        23           Zn  tau(  23) = (  0.1099927  0.8880463  0.5048366  )
        24           Mg  tau(  24) = (  0.1081677  0.8883266  0.0028098  )
        25           Zn  tau(  25) = (  0.4432580  0.2174780  0.5030260  )
        26           Mg  tau(  26) = (  0.4433232  0.2178959  0.0031647  )
        27           Mg  tau(  27) = (  0.4404062  0.5531339  0.5028797  )
        28           Zn  tau(  28) = (  0.4420749  0.5526276  0.0046758  )
        29           Zn  tau(  29) = (  0.4468255  0.8894840  0.4994565  )
        30           Zn  tau(  30) = (  0.4468677  0.8890746  0.0014231  )
        31           Mg  tau(  31) = (  0.7792090  0.2249920  0.5023422  )
        32           Zn  tau(  32) = (  0.7817005  0.2242343  0.0003931  )
        33           Zn  tau(  33) = (  0.7761130  0.5543380  0.5057931  )
        34           Zn  tau(  34) = (  0.7749018  0.5558340  0.0031137  )
        35           Mg  tau(  35) = (  0.7771993  0.8878653  0.5023715  )
        36           Mg  tau(  36) = (  0.7763649  0.8869685  0.0031052  )
        37           O   tau(  37) = (  0.2221039  0.1098250  0.0031051  )
        38           O   tau(  38) = (  0.2210527  0.1106746  0.5030598  )
        39           O   tau(  39) = (  0.2201504  0.4446085  0.0030944  )
        40           O   tau(  40) = (  0.2192675  0.4452404  0.5024576  )
        41           O   tau(  41) = (  0.2240366  0.7813459  0.0010720  )
        42           O   tau(  42) = (  0.2245152  0.7807979  0.5048369  )
        43           O   tau(  43) = (  0.5594737  0.1116103  0.0028113  )
        44           O   tau(  44) = (  0.5579526  0.1113269  0.5030257  )
        45           O   tau(  45) = (  0.5522644  0.4402837  0.0031640  )
        46           O   tau(  46) = (  0.5521880  0.4414665  0.5028801  )
        47           O   tau(  47) = (  0.5547578  0.7746447  0.0046757  )
        48           O   tau(  48) = (  0.5553772  0.7751809  0.4994555  )
        49           O   tau(  49) = (  0.8894110  0.1094554  0.0014234  )
        50           O   tau(  50) = (  0.8875788  0.1101492  0.5023423  )
        51           O   tau(  51) = (  0.8896421  0.4467032  0.0003924  )
        52           O   tau(  52) = (  0.8899182  0.4463541  0.5057935  )
        53           O   tau(  53) = (  0.8871745  0.7768828  0.0031143  )
        54           O   tau(  54) = (  0.8880781  0.7769246  0.5023715  )
        55           O   tau(  55) = (  0.1123766  0.2230901  0.2530329  )
        56           O   tau(  56) = (  0.1124801  0.2233827  0.7526476  )
        57           O   tau(  57) = (  0.1118443  0.5586965  0.2532962  )
        58           O   tau(  58) = (  0.1117722  0.5599315  0.7513366  )
        59           O   tau(  59) = (  0.1087239  0.8884112  0.2516215  )
        60           O   tau(  60) = (  0.1102649  0.8882896  0.7556870  )
        61           O   tau(  61) = (  0.4448077  0.2197774  0.2515155  )
        62           O   tau(  62) = (  0.4451802  0.2199156  0.7546661  )
        63           O   tau(  63) = (  0.4440483  0.5535058  0.2549151  )
        64           O   tau(  64) = (  0.4426524  0.5533896  0.7504123  )
        65           O   tau(  65) = (  0.4453251  0.8892623  0.2529255  )
        66           O   tau(  66) = (  0.4480034  0.8899398  0.7530552  )
        67           O   tau(  67) = (  0.7816050  0.2249505  0.2535873  )
        68           O   tau(  68) = (  0.7825141  0.2255310  0.7505332  )
        69           O   tau(  69) = (  0.7751257  0.5546083  0.2528478  )
        70           O   tau(  70) = (  0.7743575  0.5542463  0.7528536  )
        71           O   tau(  71) = (  0.7760712  0.8901474  0.2522220  )
        72           O   tau(  72) = (  0.7776790  0.8895591  0.7517093  )

     number of k points=    36  Marzari-Vanderbilt smearing, width (Ry)=  0.0010
                       cart. coord. in units 2pi/alat
        k(    1) = (   0.0000000   0.0000000   0.0000000), wk =   0.0312500
        k(    2) = (   0.0000865  -0.0000533   0.2611949), wk =   0.0625000
        k(    3) = (  -0.0001731   0.0001067  -0.5223898), wk =   0.0312500
        k(    4) = (  -0.0001183   0.2885682  -0.0000823), wk =   0.0625000
        k(    5) = (  -0.0000317   0.2885149   0.2611126), wk =   0.0625000
        k(    6) = (  -0.0002913   0.2886749  -0.5224720), wk =   0.0625000
        k(    7) = (  -0.0002048   0.2886216  -0.2612771), wk =   0.0625000
        k(    8) = (   0.0002365  -0.5771365   0.0001645), wk =   0.0312500
        k(    9) = (   0.0003230  -0.5771898   0.2613594), wk =   0.0625000
        k(   10) = (   0.0000635  -0.5770298  -0.5222253), wk =   0.0312500
        k(   11) = (   0.2499410   0.1441813   0.0000743), wk =   0.0625000
        k(   12) = (   0.2500275   0.1441279   0.2612691), wk =   0.0625000
        k(   13) = (   0.2497679   0.1442880  -0.5223155), wk =   0.0625000
        k(   14) = (   0.2498545   0.1442346  -0.2611206), wk =   0.0625000
        k(   15) = (   0.2498227   0.4327495  -0.0000080), wk =   0.0625000
        k(   16) = (   0.2499093   0.4326962   0.2611869), wk =   0.0625000
        k(   17) = (   0.2496497   0.4328562  -0.5223978), wk =   0.0625000
        k(   18) = (   0.2497362   0.4328029  -0.2612029), wk =   0.0625000
        k(   19) = (   0.2501775  -0.4329552   0.0002388), wk =   0.0625000
        k(   20) = (   0.2502640  -0.4330086   0.2614337), wk =   0.0625000
        k(   21) = (   0.2500044  -0.4328485  -0.5221510), wk =   0.0625000
        k(   22) = (   0.2500910  -0.4329019  -0.2609561), wk =   0.0625000
        k(   23) = (   0.2500592  -0.1443870   0.0001565), wk =   0.0625000
        k(   24) = (   0.2501458  -0.1444403   0.2613514), wk =   0.0625000
        k(   25) = (   0.2498862  -0.1442803  -0.5222332), wk =   0.0625000
        k(   26) = (   0.2499727  -0.1443336  -0.2610384), wk =   0.0625000
        k(   27) = (  -0.4998820  -0.2883625  -0.0001485), wk =   0.0312500
        k(   28) = (  -0.4997954  -0.2884159   0.2610464), wk =   0.0625000
        k(   29) = (  -0.5000550  -0.2882558  -0.5225383), wk =   0.0312500
        k(   30) = (  -0.5000002   0.0002057  -0.0002308), wk =   0.0625000
        k(   31) = (  -0.4999137   0.0001524   0.2609641), wk =   0.0625000
        k(   32) = (  -0.5001733   0.0003124  -0.5226205), wk =   0.0625000
        k(   33) = (  -0.5000868   0.0002591  -0.2614257), wk =   0.0625000
        k(   34) = (  -0.4996455  -0.8654990   0.0000160), wk =   0.0312500
        k(   35) = (  -0.4995589  -0.8655524   0.2612109), wk =   0.0625000
        k(   36) = (  -0.4998185  -0.8653923  -0.5223738), wk =   0.0312500

                       cryst. coord.
        k(    1) = (   0.0000000   0.0000000   0.0000000), wk =   0.0312500
        k(    2) = (   0.0000000  -0.0000000   0.2500000), wk =   0.0625000
        k(    3) = (  -0.0000000   0.0000000  -0.5000000), wk =   0.0312500
        k(    4) = (  -0.0000000   0.2500000  -0.0000000), wk =   0.0625000
        k(    5) = (  -0.0000000   0.2500000   0.2500000), wk =   0.0625000
        k(    6) = (   0.0000000   0.2500000  -0.5000000), wk =   0.0625000
        k(    7) = (  -0.0000000   0.2500000  -0.2500000), wk =   0.0625000
        k(    8) = (   0.0000000  -0.5000000   0.0000000), wk =   0.0312500
        k(    9) = (   0.0000000  -0.5000000   0.2500000), wk =   0.0625000
        k(   10) = (   0.0000000  -0.5000000  -0.5000000), wk =   0.0312500
        k(   11) = (   0.2500000   0.0000000   0.0000000), wk =   0.0625000
        k(   12) = (   0.2500000   0.0000000   0.2500000), wk =   0.0625000
        k(   13) = (   0.2500000  -0.0000000  -0.5000000), wk =   0.0625000
        k(   14) = (   0.2500000   0.0000000  -0.2500000), wk =   0.0625000
        k(   15) = (   0.2500000   0.2500000   0.0000000), wk =   0.0625000
        k(   16) = (   0.2500000   0.2500000   0.2500000), wk =   0.0625000
        k(   17) = (   0.2500000   0.2500000  -0.5000000), wk =   0.0625000
        k(   18) = (   0.2500000   0.2500000  -0.2500000), wk =   0.0625000
        k(   19) = (   0.2500000  -0.5000000   0.0000000), wk =   0.0625000
        k(   20) = (   0.2500000  -0.5000000   0.2500000), wk =   0.0625000
        k(   21) = (   0.2500000  -0.5000000  -0.5000000), wk =   0.0625000
        k(   22) = (   0.2500000  -0.5000000  -0.2500000), wk =   0.0625000
        k(   23) = (   0.2500000  -0.2500000   0.0000000), wk =   0.0625000
        k(   24) = (   0.2500000  -0.2500000   0.2500000), wk =   0.0625000
        k(   25) = (   0.2500000  -0.2500000  -0.5000000), wk =   0.0625000
        k(   26) = (   0.2500000  -0.2500000  -0.2500000), wk =   0.0625000
        k(   27) = (  -0.5000000  -0.0000000  -0.0000000), wk =   0.0312500
        k(   28) = (  -0.5000000  -0.0000000   0.2500000), wk =   0.0625000
        k(   29) = (  -0.5000000  -0.0000000  -0.5000000), wk =   0.0312500
        k(   30) = (  -0.5000000   0.2500000  -0.0000000), wk =   0.0625000
        k(   31) = (  -0.5000000   0.2500000   0.2500000), wk =   0.0625000
        k(   32) = (  -0.5000000   0.2500000  -0.5000000), wk =   0.0625000
        k(   33) = (  -0.5000000   0.2500000  -0.2500000), wk =   0.0625000
        k(   34) = (  -0.5000000  -0.5000000  -0.0000000), wk =   0.0312500
        k(   35) = (  -0.5000000  -0.5000000   0.2500000), wk =   0.0625000
        k(   36) = (  -0.5000000  -0.5000000  -0.5000000), wk =   0.0312500

     Dense  grid:   979309 G-vectors     FFT dimensions: ( 135, 135, 125)

     Smooth grid:   325609 G-vectors     FFT dimensions: (  96,  96,  90)

     Dynamical RAM for                 wfc:      18.55 MB

     Dynamical RAM for     wfc (w. buffer):     111.29 MB

     Dynamical RAM for           str. fact:       2.80 MB

     Dynamical RAM for           local pot:       0.00 MB

     Dynamical RAM for          nlocal pot:      43.85 MB

     Dynamical RAM for                qrad:      21.02 MB

     Dynamical RAM for          rho,v,vnew:       6.14 MB

     Dynamical RAM for               rhoin:       2.05 MB

     Dynamical RAM for            rho*nmix:      14.94 MB

     Dynamical RAM for           G-vectors:       3.66 MB

     Dynamical RAM for          h,s,v(r/c):      41.84 MB

     Dynamical RAM for          <psi|beta>:       8.24 MB

     Dynamical RAM for                 psi:      74.19 MB

     Dynamical RAM for                hpsi:      74.19 MB

     Dynamical RAM for                spsi:      74.19 MB

     Dynamical RAM for      wfcinit/wfcrot:      44.53 MB

     Dynamical RAM for           addusdens:      28.95 MB

     Dynamical RAM for          addusforce:      49.70 MB

     Dynamical RAM for         addusstress:      26.09 MB

     Estimated static dynamical RAM per process >     215.04 MB

     Estimated max dynamical RAM per process >     487.69 MB

     Estimated total dynamical RAM >      60.96 GB

     Check: negative core charge=   -0.000002

     Initial potential from superposition of free atoms

     starting charge  791.79390, renormalised to  796.00000
     Starting wfcs are  500 randomized atomic wfcs

     total cpu time spent up to now is       13.4 secs

     Self-consistent Calculation

     iteration #  1     ecut=    60.00 Ry     beta= 0.50
     Davidson diagonalization with overlap
     ethr =  1.00E-02,  avg # of iterations =  4.9

     total cpu time spent up to now is       67.7 secs

     total energy              =  -13054.99811567 Ry
     Harris-Foulkes estimate   =  -13069.47805665 Ry
     estimated scf accuracy    <      21.62101545 Ry

     iteration #  2     ecut=    60.00 Ry     beta= 0.50
     Davidson diagonalization with overlap
     ethr =  2.72E-03,  avg # of iterations =  3.3

     total cpu time spent up to now is      131.9 secs

     total energy              =  -13061.62164743 Ry
     Harris-Foulkes estimate   =  -13066.44048616 Ry
     estimated scf accuracy    <      10.80186384 Ry

     iteration #  3     ecut=    60.00 Ry     beta= 0.50
     Davidson diagonalization with overlap
     ethr =  1.36E-03,  avg # of iterations =  2.1

     total cpu time spent up to now is      174.7 secs

     total energy              =  -13063.55728262 Ry
     Harris-Foulkes estimate   =  -13063.61678417 Ry
     estimated scf accuracy    <       0.17848208 Ry

     iteration #  4     ecut=    60.00 Ry     beta= 0.50
     Davidson diagonalization with overlap
     ethr =  2.24E-05,  avg # of iterations =  6.3

     total cpu time spent up to now is      253.4 secs

     total energy              =  -13063.56839918 Ry
     Harris-Foulkes estimate   =  -13063.59622679 Ry
     estimated scf accuracy    <       0.07417039 Ry

     iteration #  5     ecut=    60.00 Ry     beta= 0.50
     Davidson diagonalization with overlap
     ethr =  9.32E-06,  avg # of iterations =  4.8

     total cpu time spent up to now is      317.5 secs

     total energy              =  -13063.58150505 Ry
     Harris-Foulkes estimate   =  -13063.58252614 Ry
     estimated scf accuracy    <       0.00492758 Ry

     iteration #  6     ecut=    60.00 Ry     beta= 0.50
     Davidson diagonalization with overlap
     ethr =  6.19E-07,  avg # of iterations =  2.1

     total cpu time spent up to now is      356.0 secs

     total energy              =  -13063.58218347 Ry
     Harris-Foulkes estimate   =  -13063.58226110 Ry
     estimated scf accuracy    <       0.00036369 Ry

     iteration #  7     ecut=    60.00 Ry     beta= 0.50
     Davidson diagonalization with overlap
     ethr =  4.57E-08,  avg # of iterations =  2.0

     total cpu time spent up to now is      397.7 secs

     total energy              =  -13063.58226737 Ry
     Harris-Foulkes estimate   =  -13063.58228446 Ry
     estimated scf accuracy    <       0.00009535 Ry

     iteration #  8     ecut=    60.00 Ry     beta= 0.50
     Davidson diagonalization with overlap
     ethr =  1.20E-08,  avg # of iterations =  2.0

     total cpu time spent up to now is      433.2 secs

     total energy              =  -13063.58228710 Ry
     Harris-Foulkes estimate   =  -13063.58228479 Ry
     estimated scf accuracy    <       0.00001055 Ry

     iteration #  9     ecut=    60.00 Ry     beta= 0.50
     Davidson diagonalization with overlap
     ethr =  1.33E-09,  avg # of iterations =  2.0

     total cpu time spent up to now is      474.6 secs

     total energy              =  -13063.58228865 Ry
     Harris-Foulkes estimate   =  -13063.58228912 Ry
     estimated scf accuracy    <       0.00000189 Ry

     iteration # 10     ecut=    60.00 Ry     beta= 0.50
     Davidson diagonalization with overlap
     ethr =  2.38E-10,  avg # of iterations =  2.0

     total cpu time spent up to now is      516.0 secs

     total energy              =  -13063.58228906 Ry
     Harris-Foulkes estimate   =  -13063.58228908 Ry
     estimated scf accuracy    <       0.00000025 Ry

     iteration # 11     ecut=    60.00 Ry     beta= 0.50
     Davidson diagonalization with overlap
     ethr =  3.20E-11,  avg # of iterations =  2.0

     total cpu time spent up to now is      553.3 secs

     total energy              =  -13063.58228911 Ry
     Harris-Foulkes estimate   =  -13063.58228912 Ry
     estimated scf accuracy    <       0.00000004 Ry

     iteration # 12     ecut=    60.00 Ry     beta= 0.50
     Davidson diagonalization with overlap
     ethr =  4.56E-12,  avg # of iterations =  2.0

     total cpu time spent up to now is      590.7 secs

     End of self-consistent calculation

          k = 0.0000 0.0000 0.0000 ( 40717 PWs)   bands (ev):

  -114.1939-114.1854-114.1839-114.1755-114.1732-114.1643-114.1607-114.1537
  -114.1421-114.1406-114.1353-114.1345-114.1312-114.1209-114.1165-114.1145
  -114.1063-114.1051-114.1046-114.0943-114.0845-114.0635 -68.6081 -68.6009
   -68.5954 -68.5899 -68.5898 -68.5830 -68.5713 -68.5689 -68.5548 -68.5503
   -68.5493 -68.5456 -68.5423 -68.5371 -68.5315 -68.5274 -68.5268 -68.5245
   -68.5223 -68.5222 -68.5198 -68.5197 -68.5175 -68.5171 -68.5157 -68.5147
   -68.5088 -68.5080 -68.5072 -68.5056 -68.5027 -68.5007 -68.4980 -68.4931
   -68.4929 -68.4929 -68.4841 -68.4811 -68.4806 -68.4778 -68.4769 -68.4755
   -68.4750 -68.4745 -68.4704 -68.4658 -68.4653 -68.4651 -68.4591 -68.4571
   -68.4554 -68.4518 -68.4505 -68.4491 -68.4469 -68.4465 -68.4436 -68.4399
   -68.4374 -68.4354 -68.4348 -68.4241 -68.4212 -68.4192 -68.4030 -68.3950
   -63.5033 -63.4916 -63.4803 -63.4646 -63.4640 -63.4632 -63.4385 -63.4349
   -63.4254 -63.4201 -63.4082 -63.3892 -63.3725 -63.3644 -30.5265 -30.5141
   -30.5034 -30.4933 -30.4918 -30.4872 -30.4858 -30.4847 -30.4836 -30.4756
   -30.4696 -30.4656 -30.4622 -30.4593 -30.4562 -30.4552 -30.4527 -30.4523
   -30.4457 -30.4430 -30.4396 -30.4343 -30.4333 -30.4250 -30.4249 -30.4223
   -30.4215 -30.4167 -30.4158 -30.4115 -30.4091 -30.4018 -30.4006 -30.3973
   -30.3913 -30.3814 -30.3781 -30.3739 -30.3620 -30.3582 -30.3530 -30.3500
    -9.3008  -8.8772  -8.8086  -8.7604  -8.7227  -8.6908  -8.6587  -8.6445
    -8.6213  -8.4480  -8.4460  -8.4153  -8.3775  -8.3451  -8.3385  -8.3304
    -8.3135  -8.3057  -8.2819  -8.2697  -8.2240  -8.2026  -8.1607  -8.1380
    -8.1081  -8.0817  -8.0611  -8.0397  -8.0138  -7.9472  -7.9334  -7.9186
    -7.8819  -7.8466  -7.8429  -7.8177   2.5198   2.5476   2.5742   2.5934
     2.6063   2.6217   2.6507   2.6918   2.7134   2.7312   2.7353   2.7555
     2.8193   2.8448   2.8754   2.9303   2.9357   2.9789   2.9875   3.0169
     3.0681   3.0810   3.0924   3.1144   3.1563   3.1969   3.2003   3.2327
     3.2397   3.2448   3.2658   3.2937   3.2986   3.3334   3.3655   3.3746
     3.3799   3.3986   3.4072   3.4208   3.4368   3.4436   3.4692   3.4775
     3.5249   3.5393   3.5526   3.5550   3.5754   3.5978   3.6149   3.6261
     3.6639   3.6857   3.7021   3.7071   3.7325   3.7409   3.7708   3.7895
     3.8063   3.8134   3.8375   3.8482   3.8572   3.8843   3.8971   3.9079
     3.9237   3.9543   3.9645   3.9736   3.9938   4.0018   4.0278   4.0537
     4.0645   4.0767   4.0844   4.0919   4.1041   4.1113   4.1276   4.1456
     4.1832   4.2097   4.2149   4.2487   4.2780   4.2910   4.2987   4.3191
     4.3598   4.3653   4.3845   4.4051   4.4191   4.4482   4.4559   4.4800
     4.4927   4.4990   4.5110   4.5343   4.5667   4.5722   4.5905   4.6222
     4.6330   4.6513   4.6991   4.7212   4.7368   4.8666   4.9812   5.0297
     5.0559   5.0781   5.0992   5.1228   5.1662   5.2053   5.2355   5.3014
     5.3367   5.3489   5.3736   5.4055   5.4151   5.4413   5.4657   5.5310
     5.5591   5.5964   5.6159   5.6372   5.6756   5.7143   5.7293   5.7729
     5.7880   5.8030   5.8367   5.8618   5.8901   5.9330   5.9746   5.9973
     6.0120   6.0509   6.0883   6.1298   6.1425   6.1849   6.2178   6.2698
     6.3622   6.3939   6.5390   6.6522   6.7109   6.8205   6.8640   6.9140
     6.9377   6.9639   6.9754   6.9925   7.0101   7.0631   7.0976   7.1261
     7.1841   7.2121   7.2516   7.2603   7.2749   7.3099   7.3374   7.3755
     7.4463   7.4753   7.5643   7.6123   7.6435   7.6977   7.7116   7.7527
     7.7689   7.7746   7.8168   7.8311   7.8537   7.8681   7.8774   7.8837
     7.8905   7.9030   7.9135   7.9185   8.0249   8.0708   8.1198   8.1448
     8.1762   8.2860   8.3323   8.3350   8.3435   8.3747   8.4234   8.4358
     8.4562   8.4929   8.6221   8.6841   8.6890   8.7128  10.7875  13.4930
    13.5857  13.9722  14.0101  14.0858  14.1534  14.2735  14.3433  14.7791
    14.8449  14.8530  14.8900  14.8961  14.9672  15.0110  15.0462  15.0959
    15.1311  15.2336  15.2657  15.4445  16.6383  16.7028  16.8649  16.8878
    16.9564  17.0724  17.1433  17.1644  17.1847  17.1946  17.2112  17.2152
    17.2708  17.3939  17.4299  17.4655  17.4934  17.5557  17.5646  17.6352
    17.6547  17.7468  17.7853  17.8658  17.8867  17.9461  17.9668  18.0135
    18.0293  18.1654  18.2217  18.4705  18.4836  18.4956  18.4975  18.5826
    18.6289  18.6504  19.0984  19.2683  19.3390  19.5370  19.7355  19.7928
    19.8546  19.9045  19.9231  19.9446  19.9715  20.0352  20.1229  20.2043
    20.3031  20.3355  20.3494  20.4669  20.4987  20.5862

     occupation numbers 
     1.0000   1.0000   1.0000   1.0000   1.0000   1.0000   1.0000   1.0000
     1.0000   1.0000   1.0000   1.0000   1.0000   1.0000   1.0000   1.0000
     1.0000   1.0000   1.0000   1.0000   1.0000   1.0000   1.0000   1.0000
     1.0000   1.0000   1.0000   1.0000   1.0000   1.0000   1.0000   1.0000
     1.0000   1.0000   1.0000   1.0000   1.0000   1.0000   1.0000   1.0000
     1.0000   1.0000   1.0000   1.0000   1.0000   1.0000   1.0000   1.0000
     1.0000   1.0000   1.0000   1.0000   1.0000   1.0000   1.0000   1.0000
     1.0000   1.0000   1.0000   1.0000   1.0000   1.0000   1.0000   1.0000
     1.0000   1.0000   1.0000   1.0000   1.0000   1.0000   1.0000   1.0000
     1.0000   1.0000   1.0000   1.0000   1.0000   1.0000   1.0000   1.0000
     1.0000   1.0000   1.0000   1.0000   1.0000   1.0000   1.0000   1.0000
     1.0000   1.0000   1.0000   1.0000   1.0000   1.0000   1.0000   1.0000
     1.0000   1.0000   1.0000   1.0000   1.0000   1.0000   1.0000   1.0000
     1.0000   1.0000   1.0000   1.0000   1.0000   1.0000   1.0000   1.0000
     1.0000   1.0000   1.0000   1.0000   1.0000   1.0000   1.0000   1.0000
     1.0000   1.0000   1.0000   1.0000   1.0000   1.0000   1.0000   1.0000
     1.0000   1.0000   1.0000   1.0000   1.0000   1.0000   1.0000   1.0000
     1.0000   1.0000   1.0000   1.0000   1.0000   1.0000   1.0000   1.0000
     1.0000   1.0000   1.0000   1.0000   1.0000   1.0000   1.0000   1.0000
     1.0000   1.0000   1.0000   1.0000   1.0000   1.0000   1.0000   1.0000
     1.0000   1.0000   1.0000   1.0000   1.0000   1.0000   1.0000   1.0000
     1.0000   1.0000   1.0000   1.0000   1.0000   1.0000   1.0000   1.0000
     1.0000   1.0000   1.0000   1.0000   1.0000   1.0000   1.0000   1.0000
     1.0000   1.0000   1.0000   1.0000   1.0000   1.0000   1.0000   1.0000
     1.0000   1.0000   1.0000   1.0000   1.0000   1.0000   1.0000   1.0000
     1.0000   1.0000   1.0000   1.0000   1.0000   1.0000   1.0000   1.0000
     1.0000   1.0000   1.0000   1.0000   1.0000   1.0000   1.0000   1.0000
     1.0000   1.0000   1.0000   1.0000   1.0000   1.0000   1.0000   1.0000
     1.0000   1.0000   1.0000   1.0000   1.0000   1.0000   1.0000   1.0000
     1.0000   1.0000   1.0000   1.0000   1.0000   1.0000   1.0000   1.0000
     1.0000   1.0000   1.0000   1.0000   1.0000   1.0000   1.0000   1.0000
     1.0000   1.0000   1.0000   1.0000   1.0000   1.0000   1.0000   1.0000
     1.0000   1.0000   1.0000   1.0000   1.0000   1.0000   1.0000   1.0000
     1.0000   1.0000   1.0000   1.0000   1.0000   1.0000   1.0000   1.0000
     1.0000   1.0000   1.0000   1.0000   1.0000   1.0000   1.0000   1.0000
     1.0000   1.0000   1.0000   1.0000   1.0000   1.0000   1.0000   1.0000
     1.0000   1.0000   1.0000   1.0000   1.0000   1.0000   1.0000   1.0000
     1.0000   1.0000   1.0000   1.0000   1.0000   1.0000   1.0000   1.0000
     1.0000   1.0000   1.0000   1.0000   1.0000   1.0000   1.0000   1.0000
     1.0000   1.0000   1.0000   1.0000   1.0000   1.0000   1.0000   1.0000
     1.0000   1.0000   1.0000   1.0000   1.0000   1.0000   1.0000   1.0000
     1.0000   1.0000   1.0000   1.0000   1.0000   1.0000   1.0000   1.0000
     1.0000   1.0000   1.0000   1.0000   1.0000   1.0000   1.0000   1.0000
     1.0000   1.0000   1.0000   1.0000   1.0000   1.0000   1.0000   1.0000
     1.0000   1.0000   1.0000   1.0000   1.0000   1.0000   1.0000   1.0000
     1.0000   1.0000   1.0000   1.0000   1.0000   1.0000   1.0000   1.0000
     1.0000   1.0000   1.0000   1.0000   1.0000   1.0000   1.0000   1.0000
     1.0000   1.0000   1.0000   1.0000   1.0000   1.0000   1.0000   1.0000
     1.0000   1.0000   1.0000   1.0000   1.0000   1.0000   1.0000   1.0000
     1.0000   1.0000   1.0000   1.0000   1.0000   1.0000   0.0000   0.0000
     0.0000   0.0000   0.0000   0.0000   0.0000   0.0000   0.0000   0.0000
     0.0000   0.0000   0.0000   0.0000   0.0000   0.0000   0.0000   0.0000
     0.0000   0.0000   0.0000   0.0000   0.0000   0.0000   0.0000   0.0000
     0.0000   0.0000   0.0000   0.0000   0.0000   0.0000   0.0000   0.0000
     0.0000   0.0000   0.0000   0.0000   0.0000   0.0000   0.0000   0.0000
     0.0000   0.0000   0.0000   0.0000   0.0000   0.0000   0.0000   0.0000
     0.0000   0.0000   0.0000   0.0000   0.0000   0.0000   0.0000   0.0000
     0.0000   0.0000   0.0000   0.0000   0.0000   0.0000   0.0000   0.0000
     0.0000   0.0000   0.0000   0.0000   0.0000   0.0000   0.0000   0.0000
     0.0000   0.0000   0.0000   0.0000   0.0000   0.0000

          k = 0.0001-0.0001 0.2612 ( 40760 PWs)   bands (ev):

  -114.1939-114.1854-114.1839-114.1755-114.1732-114.1643-114.1607-114.1537
  -114.1421-114.1406-114.1353-114.1345-114.1312-114.1209-114.1165-114.1145
  -114.1063-114.1051-114.1046-114.0943-114.0845-114.0635 -68.6081 -68.6009
   -68.5954 -68.5899 -68.5898 -68.5830 -68.5713 -68.5689 -68.5548 -68.5504
   -68.5493 -68.5456 -68.5423 -68.5371 -68.5315 -68.5274 -68.5268 -68.5245
   -68.5223 -68.5222 -68.5198 -68.5197 -68.5175 -68.5170 -68.5157 -68.5147
   -68.5088 -68.5080 -68.5072 -68.5056 -68.5027 -68.5007 -68.4980 -68.4931
   -68.4929 -68.4929 -68.4841 -68.4811 -68.4806 -68.4778 -68.4769 -68.4755
   -68.4750 -68.4745 -68.4704 -68.4658 -68.4653 -68.4651 -68.4591 -68.4571
   -68.4554 -68.4518 -68.4505 -68.4491 -68.4469 -68.4465 -68.4436 -68.4399
   -68.4374 -68.4354 -68.4348 -68.4241 -68.4212 -68.4192 -68.4030 -68.3950
   -63.5033 -63.4916 -63.4803 -63.4646 -63.4640 -63.4632 -63.4385 -63.4349
   -63.4254 -63.4201 -63.4082 -63.3892 -63.3725 -63.3644 -30.5265 -30.5141
   -30.5026 -30.4938 -30.4932 -30.4872 -30.4858 -30.4847 -30.4820 -30.4758
   -30.4698 -30.4657 -30.4621 -30.4597 -30.4561 -30.4550 -30.4526 -30.4522
   -30.4452 -30.4432 -30.4396 -30.4354 -30.4324 -30.4251 -30.4249 -30.4223
   -30.4215 -30.4168 -30.4158 -30.4115 -30.4091 -30.4018 -30.4006 -30.3973
   -30.3913 -30.3814 -30.3781 -30.3739 -30.3620 -30.3582 -30.3530 -30.3500
    -9.2640  -8.9851  -8.7747  -8.7417  -8.7108  -8.6874  -8.6490  -8.6150
    -8.5699  -8.5051  -8.4813  -8.4581  -8.4400  -8.4150  -8.3836  -8.3104
    -8.2834  -8.2502  -8.2251  -8.2035  -8.2007  -8.1902  -8.1618  -8.1361
    -8.1031  -8.0824  -8.0691  -8.0428  -8.0003  -7.9483  -7.9356  -7.9224
    -7.8876  -7.8605  -7.8493  -7.8307   2.5163   2.5535   2.5655   2.5938
     2.6151   2.6373   2.6682   2.7061   2.7219   2.7470   2.7648   2.8025
     2.8378   2.8605   2.8921   2.9330   2.9468   2.9796   3.0076   3.0360
     3.0727   3.1019   3.1146   3.1238   3.1608   3.1960   3.2034   3.2248
     3.2375   3.2451   3.2641   3.2948   3.3201   3.3345   3.3454   3.3766
     3.3894   3.4031   3.4143   3.4292   3.4493   3.4630   3.4809   3.4835
     3.5053   3.5187   3.5243   3.5550   3.5706   3.5886   3.6029   3.6162
     3.6259   3.6392   3.6555   3.6714   3.6768   3.7121   3.7227   3.7559
     3.7620   3.7761   3.7986   3.8139   3.8443   3.8524   3.8824   3.8912
     3.9140   3.9493   3.9647   3.9789   3.9878   3.9997   4.0271   4.0438
     4.0640   4.0793   4.0841   4.0963   4.1095   4.1165   4.1383   4.1570
     4.1866   4.2071   4.2274   4.2427   4.2768   4.2867   4.3232   4.3287
     4.3589   4.3657   4.3966   4.4059   4.4360   4.4477   4.4561   4.4846
     4.4948   4.5110   4.5200   4.5306   4.5658   4.5790   4.5856   4.6223
     4.6457   4.6584   4.7133   4.7213   4.7575   4.8267   4.9247   4.9475
     5.0420   5.0850   5.0928   5.1116   5.1671   5.1810   5.2248   5.2492
     5.3005   5.3080   5.3432   5.3605   5.3889   5.4290   5.4460   5.5155
     5.5355   5.5765   5.6112   5.6586   5.6817   5.7033   5.7420   5.7655
     5.7977   5.8332   5.8727   5.9232   5.9835   6.0023   6.0402   6.0548
     6.0804   6.1088   6.1343   6.1599   6.2067   6.2488   6.2844   6.3149
     6.3564   6.4310   6.6256   6.6749   6.7665   6.8360   6.8620   6.8868
     6.9342   6.9684   7.0010   7.0218   7.0477   7.0899   7.1190   7.1421
     7.1765   7.1948   7.2107   7.2392   7.2797   7.3341   7.3679   7.4062
     7.4283   7.4795   7.5210   7.5529   7.5868   7.6277   7.6574   7.6805
     7.7105   7.7305   7.7854   7.8170   7.8374   7.8540   7.8645   7.9051
     7.9309   7.9522   7.9741   8.0039   8.0458   8.0591   8.1094   8.1510
     8.1996   8.2058   8.2806   8.3175   8.3363   8.3647   8.4317   8.4658
     8.4725   8.5086   8.5321   8.5482   8.6784   8.6989  11.1173  12.7486
    13.9262  13.9784  14.0236  14.1060  14.1435  14.3197  14.3400  14.3872
    14.4432  14.5416  14.6162  14.7055  14.8063  15.1629  15.4821  15.5347
    15.6110  15.6398  15.7351  15.8285  16.5289  16.5876  16.7674  16.8083
    16.8779  16.9022  16.9369  17.0418  17.0748  17.1258  17.2489  17.3109
    17.3294  17.3501  17.3889  17.4487  17.5236  17.5519  17.6004  17.6416
    17.6887  17.7196  17.7781  17.8055  17.8643  17.9760  17.9976  18.0228
    18.0619  18.2085  18.2231  18.2595  18.3058  18.3627  18.3938  18.5369
    18.6267  18.7927  19.1853  19.2745  19.3599  19.4122  19.4641  19.5530
    19.7658  19.8335  19.8651  19.8995  20.0569  20.1035  20.1452  20.2265
    20.2690  20.4052  20.4600  20.4815  20.5552  20.6531

     occupation numbers 
     1.0000   1.0000   1.0000   1.0000   1.0000   1.0000   1.0000   1.0000
     1.0000   1.0000   1.0000   1.0000   1.0000   1.0000   1.0000   1.0000
     1.0000   1.0000   1.0000   1.0000   1.0000   1.0000   1.0000   1.0000
     1.0000   1.0000   1.0000   1.0000   1.0000   1.0000   1.0000   1.0000
     1.0000   1.0000   1.0000   1.0000   1.0000   1.0000   1.0000   1.0000
     1.0000   1.0000   1.0000   1.0000   1.0000   1.0000   1.0000   1.0000
     1.0000   1.0000   1.0000   1.0000   1.0000   1.0000   1.0000   1.0000
     1.0000   1.0000   1.0000   1.0000   1.0000   1.0000   1.0000   1.0000
     1.0000   1.0000   1.0000   1.0000   1.0000   1.0000   1.0000   1.0000
     1.0000   1.0000   1.0000   1.0000   1.0000   1.0000   1.0000   1.0000
     1.0000   1.0000   1.0000   1.0000   1.0000   1.0000   1.0000   1.0000
     1.0000   1.0000   1.0000   1.0000   1.0000   1.0000   1.0000   1.0000
     1.0000   1.0000   1.0000   1.0000   1.0000   1.0000   1.0000   1.0000
     1.0000   1.0000   1.0000   1.0000   1.0000   1.0000   1.0000   1.0000
     1.0000   1.0000   1.0000   1.0000   1.0000   1.0000   1.0000   1.0000
     1.0000   1.0000   1.0000   1.0000   1.0000   1.0000   1.0000   1.0000
     1.0000   1.0000   1.0000   1.0000   1.0000   1.0000   1.0000   1.0000
     1.0000   1.0000   1.0000   1.0000   1.0000   1.0000   1.0000   1.0000
     1.0000   1.0000   1.0000   1.0000   1.0000   1.0000   1.0000   1.0000
     1.0000   1.0000   1.0000   1.0000   1.0000   1.0000   1.0000   1.0000
     1.0000   1.0000   1.0000   1.0000   1.0000   1.0000   1.0000   1.0000
     1.0000   1.0000   1.0000   1.0000   1.0000   1.0000   1.0000   1.0000
     1.0000   1.0000   1.0000   1.0000   1.0000   1.0000   1.0000   1.0000
     1.0000   1.0000   1.0000   1.0000   1.0000   1.0000   1.0000   1.0000
     1.0000   1.0000   1.0000   1.0000   1.0000   1.0000   1.0000   1.0000
     1.0000   1.0000   1.0000   1.0000   1.0000   1.0000   1.0000   1.0000
     1.0000   1.0000   1.0000   1.0000   1.0000   1.0000   1.0000   1.0000
     1.0000   1.0000   1.0000   1.0000   1.0000   1.0000   1.0000   1.0000
     1.0000   1.0000   1.0000   1.0000   1.0000   1.0000   1.0000   1.0000
     1.0000   1.0000   1.0000   1.0000   1.0000   1.0000   1.0000   1.0000
     1.0000   1.0000   1.0000   1.0000   1.0000   1.0000   1.0000   1.0000
     1.0000   1.0000   1.0000   1.0000   1.0000   1.0000   1.0000   1.0000
     1.0000   1.0000   1.0000   1.0000   1.0000   1.0000   1.0000   1.0000
     1.0000   1.0000   1.0000   1.0000   1.0000   1.0000   1.0000   1.0000
     1.0000   1.0000   1.0000   1.0000   1.0000   1.0000   1.0000   1.0000
     1.0000   1.0000   1.0000   1.0000   1.0000   1.0000   1.0000   1.0000
     1.0000   1.0000   1.0000   1.0000   1.0000   1.0000   1.0000   1.0000
     1.0000   1.0000   1.0000   1.0000   1.0000   1.0000   1.0000   1.0000
     1.0000   1.0000   1.0000   1.0000   1.0000   1.0000   1.0000   1.0000
     1.0000   1.0000   1.0000   1.0000   1.0000   1.0000   1.0000   1.0000
     1.0000   1.0000   1.0000   1.0000   1.0000   1.0000   1.0000   1.0000
     1.0000   1.0000   1.0000   1.0000   1.0000   1.0000   1.0000   1.0000
     1.0000   1.0000   1.0000   1.0000   1.0000   1.0000   1.0000   1.0000
     1.0000   1.0000   1.0000   1.0000   1.0000   1.0000   1.0000   1.0000
     1.0000   1.0000   1.0000   1.0000   1.0000   1.0000   1.0000   1.0000
     1.0000   1.0000   1.0000   1.0000   1.0000   1.0000   1.0000   1.0000
     1.0000   1.0000   1.0000   1.0000   1.0000   1.0000   1.0000   1.0000
     1.0000   1.0000   1.0000   1.0000   1.0000   1.0000   1.0000   1.0000
     1.0000   1.0000   1.0000   1.0000   1.0000   1.0000   1.0000   1.0000
     1.0000   1.0000   1.0000   1.0000   1.0000   1.0000   0.0000   0.0000
     0.0000   0.0000   0.0000   0.0000   0.0000   0.0000   0.0000   0.0000
     0.0000   0.0000   0.0000   0.0000   0.0000   0.0000   0.0000   0.0000
     0.0000   0.0000   0.0000   0.0000   0.0000   0.0000   0.0000   0.0000
     0.0000   0.0000   0.0000   0.0000   0.0000   0.0000   0.0000   0.0000
     0.0000   0.0000   0.0000   0.0000   0.0000   0.0000   0.0000   0.0000
     0.0000   0.0000   0.0000   0.0000   0.0000   0.0000   0.0000   0.0000
     0.0000   0.0000   0.0000   0.0000   0.0000   0.0000   0.0000   0.0000
     0.0000   0.0000   0.0000   0.0000   0.0000   0.0000   0.0000   0.0000
     0.0000   0.0000   0.0000   0.0000   0.0000   0.0000   0.0000   0.0000
     0.0000   0.0000   0.0000   0.0000   0.0000   0.0000

          k =-0.0002 0.0001-0.5224 ( 40662 PWs)   bands (ev):

  -114.1939-114.1854-114.1839-114.1755-114.1732-114.1643-114.1607-114.1537
  -114.1421-114.1406-114.1353-114.1345-114.1312-114.1209-114.1165-114.1145
  -114.1063-114.1051-114.1046-114.0943-114.0845-114.0635 -68.6081 -68.6009
   -68.5954 -68.5899 -68.5898 -68.5830 -68.5713 -68.5689 -68.5548 -68.5504
   -68.5493 -68.5456 -68.5423 -68.5371 -68.5315 -68.5274 -68.5268 -68.5245
   -68.5223 -68.5222 -68.5198 -68.5197 -68.5175 -68.5170 -68.5157 -68.5147
   -68.5088 -68.5080 -68.5072 -68.5056 -68.5027 -68.5007 -68.4980 -68.4931
   -68.4929 -68.4929 -68.4841 -68.4811 -68.4806 -68.4778 -68.4769 -68.4755
   -68.4750 -68.4745 -68.4704 -68.4658 -68.4653 -68.4651 -68.4591 -68.4571
   -68.4554 -68.4518 -68.4505 -68.4491 -68.4469 -68.4465 -68.4436 -68.4399
   -68.4374 -68.4354 -68.4348 -68.4241 -68.4212 -68.4192 -68.4030 -68.3950
   -63.5033 -63.4916 -63.4803 -63.4646 -63.4640 -63.4632 -63.4385 -63.4349
   -63.4254 -63.4201 -63.4082 -63.3892 -63.3725 -63.3644 -30.5265 -30.5141
   -30.5014 -30.4957 -30.4932 -30.4872 -30.4858 -30.4847 -30.4806 -30.4761
   -30.4699 -30.4658 -30.4619 -30.4602 -30.4561 -30.4548 -30.4526 -30.4522
   -30.4445 -30.4437 -30.4396 -30.4361 -30.4319 -30.4251 -30.4248 -30.4223
   -30.4215 -30.4168 -30.4158 -30.4115 -30.4091 -30.4018 -30.4006 -30.3973
   -30.3913 -30.3814 -30.3781 -30.3739 -30.3620 -30.3582 -30.3530 -30.3500
    -9.1905  -9.1035  -8.7473  -8.7176  -8.6948  -8.6605  -8.6194  -8.5841
    -8.5653  -8.5518  -8.5477  -8.5378  -8.4727  -8.4545  -8.3344  -8.2919
    -8.2601  -8.2510  -8.2157  -8.1855  -8.1764  -8.1560  -8.1343  -8.1283
    -8.1118  -8.1079  -8.0600  -8.0419  -7.9793  -7.9714  -7.9322  -7.9091
    -7.8920  -7.8796  -7.8559  -7.8517   2.5138   2.5576   2.5673   2.5994
     2.6191   2.6586   2.6720   2.7192   2.7454   2.7681   2.7826   2.8370
     2.8512   2.8925   2.9163   2.9267   2.9706   2.9781   3.0388   3.0460
     3.0916   3.1176   3.1299   3.1456   3.1591   3.1744   3.2033   3.2151
     3.2360   3.2590   3.2674   3.2784   3.2851   3.3536   3.3690   3.3913
     3.3972   3.4176   3.4358   3.4432   3.4491   3.4687   3.4741   3.4946
     3.5028   3.5158   3.5263   3.5328   3.5480   3.5605   3.5707   3.5935
     3.5970   3.6040   3.6274   3.6362   3.6546   3.6866   3.7020   3.7122
     3.7258   3.7434   3.7547   3.7629   3.8336   3.8432   3.8540   3.8643
     3.8875   3.8967   3.9340   3.9749   3.9931   3.9989   4.0251   4.0329
     4.0671   4.0761   4.0867   4.1119   4.1146   4.1197   4.1506   4.1595
     4.1876   4.2209   4.2237   4.2445   4.2763   4.2929   4.3082   4.3548
     4.3680   4.3829   4.4038   4.4234   4.4427   4.4515   4.4578   4.4754
     4.4960   4.5065   4.5192   4.5474   4.5681   4.5806   4.5899   4.6167
     4.6621   4.6870   4.7142   4.7259   4.7690   4.8189   4.8936   4.9114
     4.9971   5.0588   5.0719   5.1196   5.1391   5.1714   5.2244   5.2575
     5.2712   5.2856   5.3178   5.3289   5.3520   5.3914   5.4155   5.4980
     5.5489   5.5576   5.5796   5.6492   5.6708   5.7071   5.7526   5.7876
     5.8448   5.8649   5.8761   5.9069   5.9418   5.9564   6.0128   6.0333
     6.0880   6.1634   6.2237   6.2881   6.3772   6.3983   6.4737   6.5425
     6.5965   6.6272   6.6411   6.7064   6.7478   6.7686   6.8153   6.8475
     6.8778   6.9200   6.9528   6.9771   7.0024   7.0354   7.0491   7.1395
     7.1542   7.1699   7.1883   7.2120   7.2592   7.2759   7.3464   7.4426
     7.4881   7.5106   7.5501   7.5783   7.5828   7.6279   7.6568   7.6830
     7.7057   7.7451   7.7471   7.7745   7.8063   7.8308   7.8486   7.8983
     7.9467   7.9757   7.9951   8.0171   8.0684   8.1177   8.1508   8.1769
     8.2272   8.2481   8.2661   8.2922   8.3143   8.3264   8.3443   8.3512
     8.3710   8.3814   8.5612   8.5787   8.6583   8.6800  11.8185  11.9240
    14.0068  14.0430  14.0670  14.0784  14.1251  14.1424  14.1815  14.2773
    14.3424  14.4270  14.4787  14.5801  15.0032  15.0107  16.0658  16.0980
    16.1245  16.1464  16.1797  16.1988  16.2713  16.2892  16.3759  16.4498
    16.4752  16.5592  16.9324  16.9547  16.9828  16.9898  17.3073  17.3322
    17.3489  17.4234  17.4370  17.4675  17.5186  17.5302  17.6184  17.6438
    17.7180  17.7829  17.7895  17.8300  17.8794  17.9572  17.9677  18.0352
    18.0644  18.1059  18.1166  18.1341  18.1688  18.4422  18.5148  18.5625
    18.6680  18.8691  18.8800  18.9643  19.2111  19.3516  19.4646  19.5783
    19.6621  19.7651  19.8806  19.9861  20.1029  20.1469  20.2155  20.2681
    20.2832  20.3566  20.4093  20.4924  20.5649  20.6562

     occupation numbers 
     1.0000   1.0000   1.0000   1.0000   1.0000   1.0000   1.0000   1.0000
     1.0000   1.0000   1.0000   1.0000   1.0000   1.0000   1.0000   1.0000
     1.0000   1.0000   1.0000   1.0000   1.0000   1.0000   1.0000   1.0000
     1.0000   1.0000   1.0000   1.0000   1.0000   1.0000   1.0000   1.0000
     1.0000   1.0000   1.0000   1.0000   1.0000   1.0000   1.0000   1.0000
     1.0000   1.0000   1.0000   1.0000   1.0000   1.0000   1.0000   1.0000
     1.0000   1.0000   1.0000   1.0000   1.0000   1.0000   1.0000   1.0000
     1.0000   1.0000   1.0000   1.0000   1.0000   1.0000   1.0000   1.0000
     1.0000   1.0000   1.0000   1.0000   1.0000   1.0000   1.0000   1.0000
     1.0000   1.0000   1.0000   1.0000   1.0000   1.0000   1.0000   1.0000
     1.0000   1.0000   1.0000   1.0000   1.0000   1.0000   1.0000   1.0000
     1.0000   1.0000   1.0000   1.0000   1.0000   1.0000   1.0000   1.0000
     1.0000   1.0000   1.0000   1.0000   1.0000   1.0000   1.0000   1.0000
     1.0000   1.0000   1.0000   1.0000   1.0000   1.0000   1.0000   1.0000
     1.0000   1.0000   1.0000   1.0000   1.0000   1.0000   1.0000   1.0000
     1.0000   1.0000   1.0000   1.0000   1.0000   1.0000   1.0000   1.0000
     1.0000   1.0000   1.0000   1.0000   1.0000   1.0000   1.0000   1.0000
     1.0000   1.0000   1.0000   1.0000   1.0000   1.0000   1.0000   1.0000
     1.0000   1.0000   1.0000   1.0000   1.0000   1.0000   1.0000   1.0000
     1.0000   1.0000   1.0000   1.0000   1.0000   1.0000   1.0000   1.0000
     1.0000   1.0000   1.0000   1.0000   1.0000   1.0000   1.0000   1.0000
     1.0000   1.0000   1.0000   1.0000   1.0000   1.0000   1.0000   1.0000
     1.0000   1.0000   1.0000   1.0000   1.0000   1.0000   1.0000   1.0000
     1.0000   1.0000   1.0000   1.0000   1.0000   1.0000   1.0000   1.0000
     1.0000   1.0000   1.0000   1.0000   1.0000   1.0000   1.0000   1.0000
     1.0000   1.0000   1.0000   1.0000   1.0000   1.0000   1.0000   1.0000
     1.0000   1.0000   1.0000   1.0000   1.0000   1.0000   1.0000   1.0000
     1.0000   1.0000   1.0000   1.0000   1.0000   1.0000   1.0000   1.0000
     1.0000   1.0000   1.0000   1.0000   1.0000   1.0000   1.0000   1.0000
     1.0000   1.0000   1.0000   1.0000   1.0000   1.0000   1.0000   1.0000
     1.0000   1.0000   1.0000   1.0000   1.0000   1.0000   1.0000   1.0000
     1.0000   1.0000   1.0000   1.0000   1.0000   1.0000   1.0000   1.0000
     1.0000   1.0000   1.0000   1.0000   1.0000   1.0000   1.0000   1.0000
     1.0000   1.0000   1.0000   1.0000   1.0000   1.0000   1.0000   1.0000
     1.0000   1.0000   1.0000   1.0000   1.0000   1.0000   1.0000   1.0000
     1.0000   1.0000   1.0000   1.0000   1.0000   1.0000   1.0000   1.0000
     1.0000   1.0000   1.0000   1.0000   1.0000   1.0000   1.0000   1.0000
     1.0000   1.0000   1.0000   1.0000   1.0000   1.0000   1.0000   1.0000
     1.0000   1.0000   1.0000   1.0000   1.0000   1.0000   1.0000   1.0000
     1.0000   1.0000   1.0000   1.0000   1.0000   1.0000   1.0000   1.0000
     1.0000   1.0000   1.0000   1.0000   1.0000   1.0000   1.0000   1.0000
     1.0000   1.0000   1.0000   1.0000   1.0000   1.0000   1.0000   1.0000
     1.0000   1.0000   1.0000   1.0000   1.0000   1.0000   1.0000   1.0000
     1.0000   1.0000   1.0000   1.0000   1.0000   1.0000   1.0000   1.0000
     1.0000   1.0000   1.0000   1.0000   1.0000   1.0000   1.0000   1.0000
     1.0000   1.0000   1.0000   1.0000   1.0000   1.0000   1.0000   1.0000
     1.0000   1.0000   1.0000   1.0000   1.0000   1.0000   1.0000   1.0000
     1.0000   1.0000   1.0000   1.0000   1.0000   1.0000   1.0000   1.0000
     1.0000   1.0000   1.0000   1.0000   1.0000   1.0000   1.0000   1.0000
     1.0000   1.0000   1.0000   1.0000   1.0000   1.0000   0.0000   0.0000
     0.0000   0.0000   0.0000   0.0000   0.0000   0.0000   0.0000   0.0000
     0.0000   0.0000   0.0000   0.0000   0.0000   0.0000   0.0000   0.0000
     0.0000   0.0000   0.0000   0.0000   0.0000   0.0000   0.0000   0.0000
     0.0000   0.0000   0.0000   0.0000   0.0000   0.0000   0.0000   0.0000
     0.0000   0.0000   0.0000   0.0000   0.0000   0.0000   0.0000   0.0000
     0.0000   0.0000   0.0000   0.0000   0.0000   0.0000   0.0000   0.0000
     0.0000   0.0000   0.0000   0.0000   0.0000   0.0000   0.0000   0.0000
     0.0000   0.0000   0.0000   0.0000   0.0000   0.0000   0.0000   0.0000
     0.0000   0.0000   0.0000   0.0000   0.0000   0.0000   0.0000   0.0000
     0.0000   0.0000   0.0000   0.0000   0.0000   0.0000

          k =-0.0001 0.2886-0.0001 ( 40709 PWs)   bands (ev):

  -114.1939-114.1854-114.1839-114.1755-114.1732-114.1643-114.1607-114.1537
  -114.1421-114.1406-114.1353-114.1345-114.1312-114.1209-114.1165-114.1145
  -114.1063-114.1051-114.1046-114.0943-114.0845-114.0635 -68.6081 -68.6009
   -68.5954 -68.5899 -68.5898 -68.5830 -68.5713 -68.5689 -68.5548 -68.5503
   -68.5493 -68.5456 -68.5423 -68.5371 -68.5315 -68.5274 -68.5268 -68.5245
   -68.5223 -68.5222 -68.5198 -68.5197 -68.5175 -68.5171 -68.5157 -68.5147
   -68.5088 -68.5080 -68.5072 -68.5056 -68.5027 -68.5007 -68.4980 -68.4931
   -68.4929 -68.4929 -68.4841 -68.4811 -68.4806 -68.4778 -68.4769 -68.4755
   -68.4750 -68.4745 -68.4704 -68.4658 -68.4653 -68.4651 -68.4591 -68.4571
   -68.4554 -68.4518 -68.4505 -68.4491 -68.4469 -68.4465 -68.4436 -68.4399
   -68.4374 -68.4354 -68.4348 -68.4241 -68.4212 -68.4192 -68.4030 -68.3950
   -63.5033 -63.4916 -63.4803 -63.4646 -63.4640 -63.4632 -63.4385 -63.4349
   -63.4254 -63.4201 -63.4082 -63.3892 -63.3725 -63.3644 -30.5265 -30.5141
   -30.5034 -30.4933 -30.4918 -30.4872 -30.4858 -30.4847 -30.4836 -30.4756
   -30.4696 -30.4656 -30.4622 -30.4593 -30.4562 -30.4552 -30.4527 -30.4523
   -30.4456 -30.4430 -30.4396 -30.4343 -30.4333 -30.4250 -30.4249 -30.4223
   -30.4215 -30.4168 -30.4158 -30.4115 -30.4091 -30.4018 -30.4006 -30.3973
   -30.3913 -30.3814 -30.3781 -30.3739 -30.3620 -30.3582 -30.3530 -30.3500
    -9.2561  -8.9643  -8.8368  -8.7938  -8.7559  -8.6576  -8.6282  -8.5684
    -8.5447  -8.4961  -8.4582  -8.4306  -8.4039  -8.3815  -8.3542  -8.3231
    -8.3082  -8.2805  -8.2674  -8.2386  -8.2213  -8.1877  -8.1678  -8.1382
    -8.1302  -8.0845  -8.0708  -8.0343  -8.0027  -7.9501  -7.9243  -7.9141
    -7.8700  -7.8565  -7.8492  -7.8231   2.5294   2.5597   2.5826   2.6194
     2.6279   2.6434   2.6636   2.6825   2.7079   2.7284   2.7458   2.7965
     2.8158   2.8517   2.8802   2.9291   2.9469   2.9669   2.9986   3.0239
     3.0538   3.0842   3.0974   3.1191   3.1375   3.1799   3.1893   3.2074
     3.2207   3.2307   3.2464   3.2542   3.2795   3.3088   3.3425   3.3588
     3.3818   3.3932   3.3982   3.4147   3.4265   3.4284   3.4515   3.4895
     3.5080   3.5210   3.5449   3.5478   3.5805   3.5951   3.6143   3.6364
     3.6535   3.6738   3.6893   3.6996   3.7250   3.7398   3.7540   3.7749
     3.7918   3.8016   3.8149   3.8333   3.8409   3.8514   3.8704   3.8787
     3.9123   3.9275   3.9412   3.9692   3.9841   4.0017   4.0185   4.0363
     4.0505   4.0721   4.0851   4.1039   4.1216   4.1268   4.1530   4.1766
     4.2179   4.2267   4.2365   4.2466   4.2657   4.3001   4.3087   4.3222
     4.3449   4.3814   4.3868   4.4075   4.4286   4.4394   4.4528   4.4698
     4.4794   4.5070   4.5270   4.5504   4.5614   4.5944   4.5988   4.6429
     4.6655   4.6933   4.7171   4.7845   4.8085   4.9016   4.9829   5.0031
     5.0666   5.0875   5.1057   5.1087   5.1474   5.1654   5.2096   5.2453
     5.3004   5.3303   5.3649   5.4158   5.4432   5.4675   5.4816   5.5169
     5.5666   5.5914   5.6136   5.6349   5.6659   5.7404   5.7541   5.7912
     5.8154   5.8316   5.9130   5.9340   5.9397   5.9891   6.0196   6.0814
     6.1239   6.1442   6.2123   6.2364   6.2625   6.2896   6.3325   6.3706
     6.4055   6.4407   6.5333   6.5681   6.6389   6.6867   6.7231   6.7469
     6.8149   6.8549   6.8989   6.9108   6.9728   7.0138   7.0493   7.0748
     7.1270   7.2020   7.2488   7.2770   7.2945   7.3071   7.4224   7.4739
     7.4811   7.5117   7.5637   7.5874   7.5985   7.6277   7.6420   7.6837
     7.7064   7.7210   7.7498   7.8126   7.8555   7.9075   7.9246   7.9364
     7.9557   7.9657   7.9788   7.9854   8.0308   8.0564   8.0910   8.1169
     8.1473   8.2430   8.2758   8.3061   8.3305   8.3736   8.4000   8.4120
     8.4350   8.4630   8.4983   8.5957   8.6350   8.6696  11.2064  13.0712
    13.5822  13.6993  13.7829  14.0391  14.5727  14.6155  14.6393  14.7698
    14.8469  14.9229  14.9899  15.0085  15.0470  15.1548  15.1897  15.2228
    15.2474  15.3888  15.4452  15.6082  16.3351  16.3864  16.4443  16.4768
    16.5345  16.5894  16.6359  16.6626  16.9100  17.0182  17.1476  17.3019
    17.3933  17.4231  17.4803  17.5729  17.7142  17.7287  17.8104  17.8207
    17.8576  17.8837  17.9484  17.9845  18.0777  18.0927  18.1407  18.2170
    18.3621  18.3807  18.4511  18.4866  18.5245  18.5516  18.5716  18.6221
    18.6532  18.7613  19.1065  19.3131  19.3236  19.5442  19.6229  19.6506
    19.7056  19.7575  19.7855  19.8273  20.0105  20.1088  20.1590  20.2284
    20.2973  20.3562  20.4153  20.4719  20.5209  20.5985

     occupation numbers 
     1.0000   1.0000   1.0000   1.0000   1.0000   1.0000   1.0000   1.0000
     1.0000   1.0000   1.0000   1.0000   1.0000   1.0000   1.0000   1.0000
     1.0000   1.0000   1.0000   1.0000   1.0000   1.0000   1.0000   1.0000
     1.0000   1.0000   1.0000   1.0000   1.0000   1.0000   1.0000   1.0000
     1.0000   1.0000   1.0000   1.0000   1.0000   1.0000   1.0000   1.0000
     1.0000   1.0000   1.0000   1.0000   1.0000   1.0000   1.0000   1.0000
     1.0000   1.0000   1.0000   1.0000   1.0000   1.0000   1.0000   1.0000
     1.0000   1.0000   1.0000   1.0000   1.0000   1.0000   1.0000   1.0000
     1.0000   1.0000   1.0000   1.0000   1.0000   1.0000   1.0000   1.0000
     1.0000   1.0000   1.0000   1.0000   1.0000   1.0000   1.0000   1.0000
     1.0000   1.0000   1.0000   1.0000   1.0000   1.0000   1.0000   1.0000
     1.0000   1.0000   1.0000   1.0000   1.0000   1.0000   1.0000   1.0000
     1.0000   1.0000   1.0000   1.0000   1.0000   1.0000   1.0000   1.0000
     1.0000   1.0000   1.0000   1.0000   1.0000   1.0000   1.0000   1.0000
     1.0000   1.0000   1.0000   1.0000   1.0000   1.0000   1.0000   1.0000
     1.0000   1.0000   1.0000   1.0000   1.0000   1.0000   1.0000   1.0000
     1.0000   1.0000   1.0000   1.0000   1.0000   1.0000   1.0000   1.0000
     1.0000   1.0000   1.0000   1.0000   1.0000   1.0000   1.0000   1.0000
     1.0000   1.0000   1.0000   1.0000   1.0000   1.0000   1.0000   1.0000
     1.0000   1.0000   1.0000   1.0000   1.0000   1.0000   1.0000   1.0000
     1.0000   1.0000   1.0000   1.0000   1.0000   1.0000   1.0000   1.0000
     1.0000   1.0000   1.0000   1.0000   1.0000   1.0000   1.0000   1.0000
     1.0000   1.0000   1.0000   1.0000   1.0000   1.0000   1.0000   1.0000
     1.0000   1.0000   1.0000   1.0000   1.0000   1.0000   1.0000   1.0000
     1.0000   1.0000   1.0000   1.0000   1.0000   1.0000   1.0000   1.0000
     1.0000   1.0000   1.0000   1.0000   1.0000   1.0000   1.0000   1.0000
     1.0000   1.0000   1.0000   1.0000   1.0000   1.0000   1.0000   1.0000
     1.0000   1.0000   1.0000   1.0000   1.0000   1.0000   1.0000   1.0000
     1.0000   1.0000   1.0000   1.0000   1.0000   1.0000   1.0000   1.0000
     1.0000   1.0000   1.0000   1.0000   1.0000   1.0000   1.0000   1.0000
     1.0000   1.0000   1.0000   1.0000   1.0000   1.0000   1.0000   1.0000
     1.0000   1.0000   1.0000   1.0000   1.0000   1.0000   1.0000   1.0000
     1.0000   1.0000   1.0000   1.0000   1.0000   1.0000   1.0000   1.0000
     1.0000   1.0000   1.0000   1.0000   1.0000   1.0000   1.0000   1.0000
     1.0000   1.0000   1.0000   1.0000   1.0000   1.0000   1.0000   1.0000
     1.0000   1.0000   1.0000   1.0000   1.0000   1.0000   1.0000   1.0000
     1.0000   1.0000   1.0000   1.0000   1.0000   1.0000   1.0000   1.0000
     1.0000   1.0000   1.0000   1.0000   1.0000   1.0000   1.0000   1.0000
     1.0000   1.0000   1.0000   1.0000   1.0000   1.0000   1.0000   1.0000
     1.0000   1.0000   1.0000   1.0000   1.0000   1.0000   1.0000   1.0000
     1.0000   1.0000   1.0000   1.0000   1.0000   1.0000   1.0000   1.0000
     1.0000   1.0000   1.0000   1.0000   1.0000   1.0000   1.0000   1.0000
     1.0000   1.0000   1.0000   1.0000   1.0000   1.0000   1.0000   1.0000
     1.0000   1.0000   1.0000   1.0000   1.0000   1.0000   1.0000   1.0000
     1.0000   1.0000   1.0000   1.0000   1.0000   1.0000   1.0000   1.0000
     1.0000   1.0000   1.0000   1.0000   1.0000   1.0000   1.0000   1.0000
     1.0000   1.0000   1.0000   1.0000   1.0000   1.0000   1.0000   1.0000
     1.0000   1.0000   1.0000   1.0000   1.0000   1.0000   1.0000   1.0000
     1.0000   1.0000   1.0000   1.0000   1.0000   1.0000   1.0000   1.0000
     1.0000   1.0000   1.0000   1.0000   1.0000   1.0000   0.0000   0.0000
     0.0000   0.0000   0.0000   0.0000   0.0000   0.0000   0.0000   0.0000
     0.0000   0.0000   0.0000   0.0000   0.0000   0.0000   0.0000   0.0000
     0.0000   0.0000   0.0000   0.0000   0.0000   0.0000   0.0000   0.0000
     0.0000   0.0000   0.0000   0.0000   0.0000   0.0000   0.0000   0.0000
     0.0000   0.0000   0.0000   0.0000   0.0000   0.0000   0.0000   0.0000
     0.0000   0.0000   0.0000   0.0000   0.0000   0.0000   0.0000   0.0000
     0.0000   0.0000   0.0000   0.0000   0.0000   0.0000   0.0000   0.0000
     0.0000   0.0000   0.0000   0.0000   0.0000   0.0000   0.0000   0.0000
     0.0000   0.0000   0.0000   0.0000   0.0000   0.0000   0.0000   0.0000
     0.0000   0.0000   0.0000   0.0000   0.0000   0.0000

          k =-0.0000 0.2885 0.2611 ( 40696 PWs)   bands (ev):

  -114.1939-114.1854-114.1839-114.1755-114.1732-114.1643-114.1607-114.1537
  -114.1421-114.1406-114.1353-114.1345-114.1312-114.1209-114.1165-114.1145
  -114.1063-114.1051-114.1046-114.0943-114.0845-114.0635 -68.6081 -68.6009
   -68.5954 -68.5899 -68.5898 -68.5830 -68.5713 -68.5689 -68.5548 -68.5504
   -68.5493 -68.5456 -68.5423 -68.5371 -68.5315 -68.5274 -68.5268 -68.5245
   -68.5223 -68.5222 -68.5198 -68.5197 -68.5175 -68.5170 -68.5157 -68.5147
   -68.5088 -68.5080 -68.5072 -68.5056 -68.5027 -68.5007 -68.4980 -68.4931
   -68.4929 -68.4929 -68.4841 -68.4811 -68.4806 -68.4778 -68.4769 -68.4755
   -68.4750 -68.4745 -68.4704 -68.4658 -68.4653 -68.4651 -68.4591 -68.4571
   -68.4554 -68.4518 -68.4505 -68.4491 -68.4469 -68.4465 -68.4436 -68.4399
   -68.4374 -68.4354 -68.4348 -68.4241 -68.4212 -68.4192 -68.4030 -68.3950
   -63.5033 -63.4916 -63.4803 -63.4646 -63.4640 -63.4632 -63.4385 -63.4349
   -63.4254 -63.4201 -63.4082 -63.3892 -63.3725 -63.3644 -30.5265 -30.5141
   -30.5026 -30.4938 -30.4932 -30.4872 -30.4858 -30.4847 -30.4820 -30.4758
   -30.4698 -30.4657 -30.4621 -30.4597 -30.4561 -30.4550 -30.4526 -30.4523
   -30.4452 -30.4432 -30.4396 -30.4354 -30.4324 -30.4251 -30.4249 -30.4223
   -30.4215 -30.4168 -30.4158 -30.4115 -30.4091 -30.4018 -30.4006 -30.3973
   -30.3913 -30.3814 -30.3781 -30.3739 -30.3620 -30.3582 -30.3530 -30.3500
    -9.2197  -8.9872  -8.8736  -8.7863  -8.7159  -8.6914  -8.6476  -8.5857
    -8.5331  -8.5214  -8.4876  -8.4346  -8.4077  -8.3721  -8.3448  -8.3122
    -8.3073  -8.2598  -8.2372  -8.2157  -8.2020  -8.1838  -8.1596  -8.1387
    -8.1215  -8.0947  -8.0725  -8.0358  -7.9946  -7.9444  -7.9380  -7.9142
    -7.8781  -7.8670  -7.8555  -7.8314   2.5225   2.5664   2.5884   2.6128
     2.6340   2.6512   2.6864   2.7186   2.7342   2.7478   2.7788   2.8039
     2.8383   2.8620   2.8894   2.9388   2.9543   2.9736   3.0005   3.0383
     3.0739   3.1039   3.1121   3.1216   3.1466   3.1752   3.1911   3.2113
     3.2247   3.2345   3.2445   3.2664   3.2957   3.3173   3.3433   3.3484
     3.3797   3.3929   3.4083   3.4140   3.4306   3.4543   3.4676   3.4833
     3.4912   3.5033   3.5321   3.5514   3.5666   3.5768   3.5958   3.6059
     3.6249   3.6320   3.6482   3.6683   3.6771   3.6952   3.7183   3.7242
     3.7483   3.7671   3.7813   3.8078   3.8332   3.8407   3.8544   3.8847
     3.8996   3.9020   3.9243   3.9564   3.9686   3.9972   4.0141   4.0385
     4.0590   4.0858   4.1013   4.1152   4.1284   4.1513   4.1594   4.1739
     4.1870   4.2123   4.2400   4.2443   4.2769   4.2946   4.3192   4.3324
     4.3454   4.3863   4.3959   4.4176   4.4312   4.4433   4.4512   4.4695
     4.4834   4.5140   4.5274   4.5514   4.5565   4.5899   4.5921   4.6410
     4.6555   4.6954   4.7307   4.8182   4.8376   4.9143   4.9669   5.0064
     5.0267   5.0528   5.0757   5.1081   5.1449   5.1785   5.2118   5.2423
     5.2605   5.3045   5.3373   5.3690   5.3923   5.4175   5.4344   5.4953
     5.5266   5.5725   5.6086   5.6643   5.6957   5.7250   5.7493   5.7950
     5.8191   5.8526   5.9085   5.9552   5.9743   6.0282   6.0899   6.1464
     6.1699   6.1984   6.2687   6.3002   6.3299   6.3547   6.3971   6.4243
     6.4496   6.5010   6.5515   6.5948   6.6775   6.7311   6.7508   6.7772
     6.8269   6.8596   6.9132   6.9408   7.0125   7.0281   7.0793   7.1006
     7.1243   7.1723   7.2194   7.2555   7.3373   7.3512   7.4033   7.4327
     7.4558   7.4943   7.5165   7.5385   7.5638   7.6027   7.6152   7.6726
     7.7000   7.7395   7.7657   7.7907   7.8232   7.8532   7.8648   7.9095
     7.9218   7.9509   7.9876   8.0110   8.0356   8.0656   8.0827   8.1139
     8.1936   8.2132   8.2451   8.2704   8.3018   8.3166   8.3845   8.4288
     8.4803   8.4952   8.5268   8.5480   8.5958   8.6249  11.4630  12.9015
    13.1941  13.7160  13.9154  13.9732  14.2499  14.3724  14.4503  14.6827
    14.7808  14.9044  14.9371  15.0408  15.1097  15.3150  15.4497  15.5270
    15.6356  15.6721  15.7661  15.9188  16.2332  16.3425  16.4228  16.4603
    16.5213  16.5948  16.6425  16.7208  16.7891  16.8947  17.0119  17.0856
    17.1836  17.3762  17.5014  17.5308  17.5860  17.7010  17.7481  17.7983
    17.8641  17.9269  17.9357  18.0128  18.0565  18.1232  18.1486  18.1893
    18.2169  18.2485  18.3589  18.4246  18.5016  18.5341  18.5770  18.6658
    18.7402  18.8439  19.1356  19.2837  19.3890  19.4611  19.5242  19.6069
    19.6500  19.7044  19.7618  19.9177  20.0146  20.0707  20.1818  20.2480
    20.3454  20.3838  20.4497  20.4775  20.5416  20.5998

     occupation numbers 
     1.0000   1.0000   1.0000   1.0000   1.0000   1.0000   1.0000   1.0000
     1.0000   1.0000   1.0000   1.0000   1.0000   1.0000   1.0000   1.0000
     1.0000   1.0000   1.0000   1.0000   1.0000   1.0000   1.0000   1.0000
     1.0000   1.0000   1.0000   1.0000   1.0000   1.0000   1.0000   1.0000
     1.0000   1.0000   1.0000   1.0000   1.0000   1.0000   1.0000   1.0000
     1.0000   1.0000   1.0000   1.0000   1.0000   1.0000   1.0000   1.0000
     1.0000   1.0000   1.0000   1.0000   1.0000   1.0000   1.0000   1.0000
     1.0000   1.0000   1.0000   1.0000   1.0000   1.0000   1.0000   1.0000
     1.0000   1.0000   1.0000   1.0000   1.0000   1.0000   1.0000   1.0000
     1.0000   1.0000   1.0000   1.0000   1.0000   1.0000   1.0000   1.0000
     1.0000   1.0000   1.0000   1.0000   1.0000   1.0000   1.0000   1.0000
     1.0000   1.0000   1.0000   1.0000   1.0000   1.0000   1.0000   1.0000
     1.0000   1.0000   1.0000   1.0000   1.0000   1.0000   1.0000   1.0000
     1.0000   1.0000   1.0000   1.0000   1.0000   1.0000   1.0000   1.0000
     1.0000   1.0000   1.0000   1.0000   1.0000   1.0000   1.0000   1.0000
     1.0000   1.0000   1.0000   1.0000   1.0000   1.0000   1.0000   1.0000
     1.0000   1.0000   1.0000   1.0000   1.0000   1.0000   1.0000   1.0000
     1.0000   1.0000   1.0000   1.0000   1.0000   1.0000   1.0000   1.0000
     1.0000   1.0000   1.0000   1.0000   1.0000   1.0000   1.0000   1.0000
     1.0000   1.0000   1.0000   1.0000   1.0000   1.0000   1.0000   1.0000
     1.0000   1.0000   1.0000   1.0000   1.0000   1.0000   1.0000   1.0000
     1.0000   1.0000   1.0000   1.0000   1.0000   1.0000   1.0000   1.0000
     1.0000   1.0000   1.0000   1.0000   1.0000   1.0000   1.0000   1.0000
     1.0000   1.0000   1.0000   1.0000   1.0000   1.0000   1.0000   1.0000
     1.0000   1.0000   1.0000   1.0000   1.0000   1.0000   1.0000   1.0000
     1.0000   1.0000   1.0000   1.0000   1.0000   1.0000   1.0000   1.0000
     1.0000   1.0000   1.0000   1.0000   1.0000   1.0000   1.0000   1.0000
     1.0000   1.0000   1.0000   1.0000   1.0000   1.0000   1.0000   1.0000
     1.0000   1.0000   1.0000   1.0000   1.0000   1.0000   1.0000   1.0000
     1.0000   1.0000   1.0000   1.0000   1.0000   1.0000   1.0000   1.0000
     1.0000   1.0000   1.0000   1.0000   1.0000   1.0000   1.0000   1.0000
     1.0000   1.0000   1.0000   1.0000   1.0000   1.0000   1.0000   1.0000
     1.0000   1.0000   1.0000   1.0000   1.0000   1.0000   1.0000   1.0000
     1.0000   1.0000   1.0000   1.0000   1.0000   1.0000   1.0000   1.0000
     1.0000   1.0000   1.0000   1.0000   1.0000   1.0000   1.0000   1.0000
     1.0000   1.0000   1.0000   1.0000   1.0000   1.0000   1.0000   1.0000
     1.0000   1.0000   1.0000   1.0000   1.0000   1.0000   1.0000   1.0000
     1.0000   1.0000   1.0000   1.0000   1.0000   1.0000   1.0000   1.0000
     1.0000   1.0000   1.0000   1.0000   1.0000   1.0000   1.0000   1.0000
     1.0000   1.0000   1.0000   1.0000   1.0000   1.0000   1.0000   1.0000
     1.0000   1.0000   1.0000   1.0000   1.0000   1.0000   1.0000   1.0000
     1.0000   1.0000   1.0000   1.0000   1.0000   1.0000   1.0000   1.0000
     1.0000   1.0000   1.0000   1.0000   1.0000   1.0000   1.0000   1.0000
     1.0000   1.0000   1.0000   1.0000   1.0000   1.0000   1.0000   1.0000
     1.0000   1.0000   1.0000   1.0000   1.0000   1.0000   1.0000   1.0000
     1.0000   1.0000   1.0000   1.0000   1.0000   1.0000   1.0000   1.0000
     1.0000   1.0000   1.0000   1.0000   1.0000   1.0000   1.0000   1.0000
     1.0000   1.0000   1.0000   1.0000   1.0000   1.0000   1.0000   1.0000
     1.0000   1.0000   1.0000   1.0000   1.0000   1.0000   1.0000   1.0000
     1.0000   1.0000   1.0000   1.0000   1.0000   1.0000   0.0000   0.0000
     0.0000   0.0000   0.0000   0.0000   0.0000   0.0000   0.0000   0.0000
     0.0000   0.0000   0.0000   0.0000   0.0000   0.0000   0.0000   0.0000
     0.0000   0.0000   0.0000   0.0000   0.0000   0.0000   0.0000   0.0000
     0.0000   0.0000   0.0000   0.0000   0.0000   0.0000   0.0000   0.0000
     0.0000   0.0000   0.0000   0.0000   0.0000   0.0000   0.0000   0.0000
     0.0000   0.0000   0.0000   0.0000   0.0000   0.0000   0.0000   0.0000
     0.0000   0.0000   0.0000   0.0000   0.0000   0.0000   0.0000   0.0000
     0.0000   0.0000   0.0000   0.0000   0.0000   0.0000   0.0000   0.0000
     0.0000   0.0000   0.0000   0.0000   0.0000   0.0000   0.0000   0.0000
     0.0000   0.0000   0.0000   0.0000   0.0000   0.0000

          k =-0.0003 0.2887-0.5225 ( 40684 PWs)   bands (ev):

  -114.1939-114.1854-114.1839-114.1755-114.1732-114.1643-114.1607-114.1537
  -114.1421-114.1406-114.1353-114.1345-114.1312-114.1209-114.1165-114.1145
  -114.1063-114.1051-114.1046-114.0943-114.0845-114.0635 -68.6081 -68.6009
   -68.5954 -68.5899 -68.5898 -68.5830 -68.5713 -68.5689 -68.5548 -68.5504
   -68.5493 -68.5456 -68.5423 -68.5371 -68.5315 -68.5274 -68.5268 -68.5245
   -68.5223 -68.5222 -68.5198 -68.5197 -68.5175 -68.5170 -68.5157 -68.5147
   -68.5088 -68.5080 -68.5072 -68.5056 -68.5027 -68.5007 -68.4980 -68.4931
   -68.4929 -68.4929 -68.4841 -68.4811 -68.4806 -68.4778 -68.4769 -68.4755
   -68.4750 -68.4745 -68.4704 -68.4658 -68.4653 -68.4651 -68.4591 -68.4571
   -68.4554 -68.4518 -68.4505 -68.4491 -68.4469 -68.4465 -68.4436 -68.4399
   -68.4374 -68.4354 -68.4348 -68.4241 -68.4212 -68.4192 -68.4030 -68.3950
   -63.5033 -63.4916 -63.4803 -63.4646 -63.4640 -63.4632 -63.4385 -63.4349
   -63.4254 -63.4201 -63.4082 -63.3892 -63.3725 -63.3644 -30.5265 -30.5141
   -30.5014 -30.4957 -30.4932 -30.4872 -30.4859 -30.4847 -30.4806 -30.4761
   -30.4699 -30.4658 -30.4619 -30.4602 -30.4561 -30.4548 -30.4526 -30.4522
   -30.4445 -30.4437 -30.4396 -30.4360 -30.4319 -30.4251 -30.4248 -30.4223
   -30.4215 -30.4168 -30.4158 -30.4115 -30.4091 -30.4018 -30.4006 -30.3973
   -30.3913 -30.3814 -30.3781 -30.3739 -30.3620 -30.3582 -30.3530 -30.3500
    -9.1514  -9.0657  -8.8629  -8.7867  -8.7315  -8.6841  -8.6387  -8.6120
    -8.5686  -8.5252  -8.4744  -8.4486  -8.4183  -8.3975  -8.3253  -8.2911
    -8.2776  -8.2678  -8.2328  -8.2046  -8.1856  -8.1525  -8.1422  -8.1294
    -8.1184  -8.1050  -8.0650  -8.0386  -7.9827  -7.9738  -7.9346  -7.9131
    -7.8891  -7.8789  -7.8552  -7.8435   2.5180   2.5818   2.5912   2.6208
     2.6440   2.6551   2.6975   2.7284   2.7491   2.7755   2.8106   2.8315
     2.8518   2.8818   2.9234   2.9397   2.9568   2.9859   3.0221   3.0280
     3.0998   3.1090   3.1252   3.1419   3.1590   3.1794   3.1909   3.2153
     3.2315   3.2416   3.2493   3.2643   3.2903   3.3336   3.3522   3.3634
     3.3828   3.3909   3.4032   3.4136   3.4280   3.4515   3.4637   3.4704
     3.4898   3.4985   3.5181   3.5325   3.5450   3.5505   3.5656   3.5880
     3.5971   3.6038   3.6293   3.6407   3.6658   3.6847   3.6892   3.6965
     3.7168   3.7259   3.7435   3.7666   3.8120   3.8299   3.8330   3.8461
     3.8691   3.8801   3.8868   3.9351   3.9551   3.9700   4.0184   4.0426
     4.0775   4.0962   4.1137   4.1246   4.1370   4.1565   4.1621   4.1784
     4.1910   4.2219   4.2342   4.2579   4.2745   4.2905   4.3163   4.3367
     4.3599   4.3822   4.3980   4.4054   4.4234   4.4549   4.4645   4.4733
     4.4883   4.5145   4.5217   4.5459   4.5602   4.5862   4.5941   4.6497
     4.6724   4.6892   4.7495   4.8254   4.8867   4.9049   4.9378   4.9861
     5.0192   5.0580   5.0941   5.1180   5.1473   5.1826   5.2084   5.2206
     5.2572   5.2750   5.3062   5.3268   5.3328   5.3618   5.4207   5.4636
     5.4909   5.5527   5.5991   5.6597   5.6665   5.7105   5.7410   5.7848
     5.8228   5.8558   5.9036   5.9519   6.0498   6.0914   6.1234   6.1683
     6.2145   6.2516   6.2795   6.3282   6.4104   6.4419   6.4930   6.5453
     6.5681   6.5958   6.6255   6.6617   6.6952   6.7229   6.7513   6.8044
     6.8764   6.8901   6.9178   7.0067   7.0282   7.0493   7.0744   7.1391
     7.1717   7.1943   7.2243   7.2314   7.2839   7.3029   7.3504   7.3568
     7.3910   7.4359   7.4659   7.4783   7.5182   7.5460   7.5662   7.5849
     7.6897   7.7049   7.7577   7.7844   7.8091   7.8375   7.8806   7.8990
     7.9732   8.0109   8.0284   8.0470   8.0778   8.0988   8.1095   8.1366
     8.1766   8.2059   8.2411   8.2556   8.3050   8.3267   8.3327   8.3646
     8.3907   8.4244   8.5193   8.5231   8.6014   8.6157  12.0587  12.1614
    13.4068  13.4976  13.8614  13.9153  14.0685  14.1547  14.5585  14.6505
    14.7387  14.8515  14.8765  14.9549  15.1771  15.2473  15.9432  15.9534
    16.0470  16.0872  16.1595  16.1978  16.2358  16.2682  16.3284  16.3795
    16.4366  16.4904  16.5394  16.6047  16.6218  16.6427  16.8831  16.9053
    17.0600  17.1029  17.5147  17.5557  17.6300  17.6991  17.7572  17.8154
    17.8394  17.8985  17.9216  17.9730  17.9820  18.0121  18.0393  18.1088
    18.2037  18.2561  18.2940  18.3879  18.4539  18.5175  18.6454  18.7985
    18.8690  19.0028  19.0471  19.1690  19.2259  19.3808  19.5334  19.5731
    19.6853  19.7997  19.8938  19.9393  20.0184  20.0677  20.1185  20.1567
    20.2561  20.2894  20.3707  20.4805  20.6351  20.6601

     occupation numbers 
     1.0000   1.0000   1.0000   1.0000   1.0000   1.0000   1.0000   1.0000
     1.0000   1.0000   1.0000   1.0000   1.0000   1.0000   1.0000   1.0000
     1.0000   1.0000   1.0000   1.0000   1.0000   1.0000   1.0000   1.0000
     1.0000   1.0000   1.0000   1.0000   1.0000   1.0000   1.0000   1.0000
     1.0000   1.0000   1.0000   1.0000   1.0000   1.0000   1.0000   1.0000
     1.0000   1.0000   1.0000   1.0000   1.0000   1.0000   1.0000   1.0000
     1.0000   1.0000   1.0000   1.0000   1.0000   1.0000   1.0000   1.0000
     1.0000   1.0000   1.0000   1.0000   1.0000   1.0000   1.0000   1.0000
     1.0000   1.0000   1.0000   1.0000   1.0000   1.0000   1.0000   1.0000
     1.0000   1.0000   1.0000   1.0000   1.0000   1.0000   1.0000   1.0000
     1.0000   1.0000   1.0000   1.0000   1.0000   1.0000   1.0000   1.0000
     1.0000   1.0000   1.0000   1.0000   1.0000   1.0000   1.0000   1.0000
     1.0000   1.0000   1.0000   1.0000   1.0000   1.0000   1.0000   1.0000
     1.0000   1.0000   1.0000   1.0000   1.0000   1.0000   1.0000   1.0000
     1.0000   1.0000   1.0000   1.0000   1.0000   1.0000   1.0000   1.0000
     1.0000   1.0000   1.0000   1.0000   1.0000   1.0000   1.0000   1.0000
     1.0000   1.0000   1.0000   1.0000   1.0000   1.0000   1.0000   1.0000
     1.0000   1.0000   1.0000   1.0000   1.0000   1.0000   1.0000   1.0000
     1.0000   1.0000   1.0000   1.0000   1.0000   1.0000   1.0000   1.0000
     1.0000   1.0000   1.0000   1.0000   1.0000   1.0000   1.0000   1.0000
     1.0000   1.0000   1.0000   1.0000   1.0000   1.0000   1.0000   1.0000
[...]
     atom   27 type  3   force =     0.00000000    0.00000000    0.00000000
     atom   28 type  1   force =     0.00000000    0.00000000    0.00000000
     atom   29 type  1   force =     0.00000000    0.00000000    0.00000000
     atom   30 type  1   force =     0.00000000    0.00000000    0.00000000
     atom   31 type  3   force =     0.00000000    0.00000000    0.00000000
     atom   32 type  1   force =     0.00000000    0.00000000    0.00000000
     atom   33 type  1   force =     0.00000000    0.00000000    0.00000000
     atom   34 type  1   force =     0.00000000    0.00000000    0.00000000
     atom   35 type  3   force =     0.00000000    0.00000000    0.00000000
     atom   36 type  3   force =     0.00000000    0.00000000    0.00000000
     atom   37 type  2   force =     0.00000000    0.00000000    0.00000000
     atom   38 type  2   force =     0.00000000    0.00000000    0.00000000
     atom   39 type  2   force =     0.00000000    0.00000000    0.00000000
     atom   40 type  2   force =     0.00000000    0.00000000    0.00000000
     atom   41 type  2   force =     0.00000000    0.00000000    0.00000000
     atom   42 type  2   force =     0.00000000    0.00000000    0.00000000
     atom   43 type  2   force =     0.00000000    0.00000000    0.00000000
     atom   44 type  2   force =     0.00000000    0.00000000    0.00000000
     atom   45 type  2   force =     0.00000000    0.00000000    0.00000000
     atom   46 type  2   force =     0.00000000    0.00000000    0.00000000
     atom   47 type  2   force =     0.00000000    0.00000000    0.00000000
     atom   48 type  2   force =     0.00000000    0.00000000    0.00000000
     atom   49 type  2   force =     0.00000000    0.00000000    0.00000000
     atom   50 type  2   force =     0.00000000    0.00000000    0.00000000
     atom   51 type  2   force =     0.00000000    0.00000000    0.00000000
     atom   52 type  2   force =     0.00000000    0.00000000    0.00000000
     atom   53 type  2   force =     0.00000000    0.00000000    0.00000000
     atom   54 type  2   force =     0.00000000    0.00000000    0.00000000
     atom   55 type  2   force =     0.00000000    0.00000000    0.00000000
     atom   56 type  2   force =     0.00000000    0.00000000    0.00000000
     atom   57 type  2   force =     0.00000000    0.00000000    0.00000000
     atom   58 type  2   force =     0.00000000    0.00000000    0.00000000
     atom   59 type  2   force =     0.00000000    0.00000000    0.00000000
     atom   60 type  2   force =     0.00000000    0.00000000    0.00000000
     atom   61 type  2   force =     0.00000000    0.00000000    0.00000000
     atom   62 type  2   force =     0.00000000    0.00000000    0.00000000
     atom   63 type  2   force =     0.00000000    0.00000000    0.00000000
     atom   64 type  2   force =     0.00000000    0.00000000    0.00000000
     atom   65 type  2   force =     0.00000000    0.00000000    0.00000000
     atom   66 type  2   force =     0.00000000    0.00000000    0.00000000
     atom   67 type  2   force =     0.00000000    0.00000000    0.00000000
     atom   68 type  2   force =     0.00000000    0.00000000    0.00000000
     atom   69 type  2   force =     0.00000000    0.00000000    0.00000000
     atom   70 type  2   force =     0.00000000    0.00000000    0.00000000
     atom   71 type  2   force =     0.00000000    0.00000000    0.00000000
     atom   72 type  2   force =     0.00000000    0.00000000    0.00000000
     The SCF correction term to forces
     atom    1 type  1   force =     0.00000220    0.00000319    0.00000000
     atom    2 type  1   force =     0.00000185    0.00000107    0.00000000
     atom    3 type  1   force =     0.00000275   -0.00000143    0.00000000
     atom    4 type  1   force =     0.00000406   -0.00000076    0.00000000
     atom    5 type  1   force =     0.00000154    0.00000153    0.00000000
     atom    6 type  3   force =    -0.00000014    0.00000040    0.00000000
     atom    7 type  1   force =    -0.00000059   -0.00000026    0.00000000
     atom    8 type  1   force =    -0.00000240   -0.00000175    0.00000000
     atom    9 type  3   force =     0.00000042   -0.00000031    0.00000000
     atom   10 type  3   force =     0.00000004   -0.00000066    0.00000000
     atom   11 type  3   force =     0.00000007    0.00000080    0.00000000
     atom   12 type  1   force =    -0.00000220   -0.00000083    0.00000000
     atom   13 type  3   force =    -0.00000051   -0.00000029    0.00000000
     atom   14 type  3   force =    -0.00000054    0.00000025    0.00000000
     atom   15 type  1   force =    -0.00000355   -0.00000165    0.00000000
     atom   16 type  3   force =    -0.00000016   -0.00000013    0.00000000
     atom   17 type  1   force =    -0.00000017   -0.00000254    0.00000000
     atom   18 type  1   force =     0.00000112   -0.00000139    0.00000000
     atom   19 type  1   force =    -0.00000005    0.00000219    0.00000000
     atom   20 type  1   force =     0.00000145    0.00000214    0.00000000
     atom   21 type  3   force =    -0.00000002   -0.00000035    0.00000000
     atom   22 type  1   force =     0.00000234    0.00000014    0.00000000
     atom   23 type  1   force =     0.00000085   -0.00000105    0.00000000
     atom   24 type  3   force =    -0.00000021    0.00000009    0.00000000
     atom   25 type  1   force =    -0.00000238   -0.00000027    0.00000000
     atom   26 type  3   force =    -0.00000033    0.00000020    0.00000000
     atom   27 type  3   force =     0.00000008   -0.00000064    0.00000000
     atom   28 type  1   force =    -0.00000275   -0.00000429    0.00000000
     atom   29 type  1   force =    -0.00000589   -0.00000021    0.00000000
     atom   30 type  1   force =    -0.00000309   -0.00000053    0.00000000
     atom   31 type  3   force =     0.00000048    0.00000019    0.00000000
     atom   32 type  1   force =     0.00000239   -0.00000065    0.00000000
     atom   33 type  1   force =     0.00000486    0.00000046    0.00000000
     atom   34 type  1   force =     0.00000087    0.00000335    0.00000000
     atom   35 type  3   force =     0.00000010    0.00000077    0.00000000
     atom   36 type  3   force =     0.00000024    0.00000071    0.00000000
     atom   37 type  2   force =    -0.00000020    0.00000006    0.00000000
     atom   38 type  2   force =    -0.00000032    0.00000046    0.00000000
     atom   39 type  2   force =    -0.00000021   -0.00000059    0.00000000
     atom   40 type  2   force =    -0.00000006   -0.00000046    0.00000000
     atom   41 type  2   force =    -0.00000062   -0.00000008    0.00000000
     atom   42 type  2   force =    -0.00000030   -0.00000020    0.00000000
     atom   43 type  2   force =     0.00000057    0.00000035    0.00000000
     atom   44 type  2   force =     0.00000044    0.00000037    0.00000000
     atom   45 type  2   force =     0.00000017   -0.00000043    0.00000000
     atom   46 type  2   force =    -0.00000006   -0.00000038    0.00000000
     atom   47 type  2   force =     0.00000029    0.00000058    0.00000000
     atom   48 type  2   force =     0.00000024    0.00000044    0.00000000
     atom   49 type  2   force =    -0.00000024    0.00000038    0.00000000
     atom   50 type  2   force =     0.00000003    0.00000027    0.00000000
     atom   51 type  2   force =     0.00000011   -0.00000027    0.00000000
     atom   52 type  2   force =     0.00000012   -0.00000015    0.00000000
     atom   53 type  2   force =     0.00000024   -0.00000008    0.00000000
     atom   54 type  2   force =    -0.00000001   -0.00000001    0.00000000
     atom   55 type  2   force =    -0.00000021    0.00000018    0.00000000
     atom   56 type  2   force =    -0.00000015    0.00000010    0.00000000
     atom   57 type  2   force =    -0.00000046   -0.00000059    0.00000000
     atom   58 type  2   force =    -0.00000051   -0.00000020    0.00000000
     atom   59 type  2   force =    -0.00000048   -0.00000023    0.00000000
     atom   60 type  2   force =    -0.00000025   -0.00000028    0.00000000
     atom   61 type  2   force =     0.00000006    0.00000051    0.00000000
     atom   62 type  2   force =     0.00000011    0.00000036    0.00000000
     atom   63 type  2   force =     0.00000042   -0.00000035    0.00000000
     atom   64 type  2   force =     0.00000052   -0.00000045    0.00000000
     atom   65 type  2   force =     0.00000056    0.00000043    0.00000000
     atom   66 type  2   force =     0.00000021    0.00000045    0.00000000
     atom   67 type  2   force =     0.00000005   -0.00000005    0.00000000
     atom   68 type  2   force =    -0.00000001   -0.00000007    0.00000000
     atom   69 type  2   force =     0.00000013   -0.00000032    0.00000000
     atom   70 type  2   force =     0.00000016   -0.00000031    0.00000000
     atom   71 type  2   force =    -0.00000012    0.00000032    0.00000000
     atom   72 type  2   force =    -0.00000009    0.00000044    0.00000000

     Total force =     0.000096     Total SCF correction =     0.000015
     SCF correction compared to forces is large: reduce conv_thr to get better values


     Computing stress (Cartesian axis) and pressure

          total   stress  (Ry/bohr**3)                   (kbar)     P=  146.16
   0.00148471   0.00000032   0.00000045        218.41      0.05      0.07
   0.00000032   0.00148748  -0.00000036          0.05    218.82     -0.05
   0.00000045  -0.00000036   0.00000849          0.07     -0.05      1.25

     kinetic stress (kbar)  31169.03      1.69      0.01
                                1.69  31170.66     -0.05
                                0.01     -0.05  31490.36

     local   stress (kbar)  -8042.50     11.50   2002.89
                               11.50 -14017.09  -1368.85
                             2002.89  -1368.85  -3769.24

     nonloc. stress (kbar)   1219.82     -0.51     -0.15
                               -0.51   1221.20      0.07
                               -0.15      0.07    972.05

     hartree stress (kbar)  51508.07     -7.42   -972.69
                               -7.42  54411.06    665.25
                             -972.69    665.25  51772.77

     exc-cor stress (kbar) -12513.50      0.02     -0.01
                                0.02 -12513.51      0.00
                               -0.01      0.00 -12525.21

     corecor stress (kbar)   -276.37     -0.00     -0.00
                               -0.00   -276.38      0.00
                               -0.00      0.00   -276.64

     ewald   stress (kbar) -62846.14     -5.23  -1029.98
                               -5.23 -59777.14    703.52
                            -1029.98    703.52 -67662.83

     hubbard stress (kbar)      0.00      0.00      0.00
                                0.00      0.00      0.00
                                0.00      0.00      0.00

     london  stress (kbar)      0.00      0.00      0.00
                                0.00      0.00      0.00
                                0.00      0.00      0.00

     DFT-D3  stress (kbar)      0.00      0.00      0.00
                                0.00      0.00      0.00
                                0.00      0.00      0.00

     XDM     stress (kbar)      0.00      0.00      0.00
                                0.00      0.00      0.00
                                0.00      0.00      0.00

     dft-nl  stress (kbar)      0.00      0.00      0.00
                                0.00      0.00      0.00
                                0.00      0.00      0.00

     TS-vdW  stress (kbar)      0.00      0.00      0.00
                                0.00      0.00      0.00
                                0.00      0.00      0.00


     Message from routine bfgs:
     history already reset at previous step: stopping

     bfgs converged in   4 scf cycles and   3 bfgs steps
     (criteria: energy <  1.0E-07 Ry, force <  1.0E-06 Ry/Bohr)

     End of BFGS Geometry Optimization

     Final energy   =  -13063.5822891546 Ry
Begin final coordinates

ATOMIC_POSITIONS (crystal)
Zn       0.222718515   0.111313053   0.253032975    1   1   0
Zn       0.222480073   0.111213971   0.752647190    1   1   0
Zn       0.221838596   0.445150803   0.253296306    1   1   0
Zn       0.219624865   0.445727491   0.751336392    1   1   0
Zn       0.224125147   0.781813665   0.251621097    1   1   0
Mg       0.226619226   0.781815658   0.755687562    1   1   0
Zn       0.558806517   0.111387014   0.251515210    1   1   0
Zn       0.560392536   0.111835436   0.754666712    1   1   0
Mg       0.553612690   0.441324423   0.254915656    1   1   0
Mg       0.553233753   0.442079524   0.750411892    1   1   0
Mg       0.553148019   0.775188912   0.252925479    1   1   0
Zn       0.554741587   0.775164341   0.753055488    1   1   0
Mg       0.891359593   0.112357226   0.253587739    1   1   0
Mg       0.890783476   0.111962699   0.750532975    1   1   0
Zn       0.889174490   0.447408461   0.252847508    1   1   0
Mg       0.889659204   0.447642538   0.752853592    1   1   0
Zn       0.885894566   0.776541833   0.252222160    1   1   0
Zn       0.887572246   0.775798386   0.751709508    1   1   0
Zn       0.111080472   0.223798880   0.503059938    1   1   0
Zn       0.113015195   0.222191566   0.003096051    1   1   0
Mg       0.111304205   0.558877071   0.502457901    1   1   0
Zn       0.112637313   0.559006555   0.001071293    1   1   0
Zn       0.109991785   0.888042986   0.504836553    1   1   0
Mg       0.108169364   0.888325730   0.002809818    1   1   0
Zn       0.443258752   0.217479151   0.503026042    1   1   0
Mg       0.443324246   0.217898795   0.003164652    1   1   0
Mg       0.440403146   0.553130252   0.502879661    1   1   0
Zn       0.442071314   0.552625322   0.004675773    1   1   0
Zn       0.446827367   0.889482969   0.499456460    1   1   0
Zn       0.446869425   0.889075875   0.001423087    1   1   0
Mg       0.779208384   0.224990596   0.502342210    1   1   0
Zn       0.781701587   0.224234338   0.000393149    1   1   0
Zn       0.776113949   0.554339416   0.505793059    1   1   0
Zn       0.774902927   0.555834725   0.003113746    1   1   0
Mg       0.777198300   0.887863781   0.502371513    1   1   0
Mg       0.776363975   0.886967740   0.003105237    1   1   0
O        0.222103942   0.109825600   0.003105116    1   1   0
O        0.221052538   0.110672592   0.503059787    1   1   0
O        0.220147683   0.444608679   0.003094429    1   1   0
O        0.219265038   0.445238805   0.502457586    1   1   0
O        0.224038727   0.781345202   0.001072029    1   1   0
O        0.224516816   0.780797120   0.504836895    1   1   0
O        0.559474485   0.111611902   0.002811278    1   1   0
O        0.557951562   0.111325892   0.503025668    1   1   0
O        0.552265764   0.440286876   0.003163987    1   1   0
O        0.552189345   0.441467162   0.502880118    1   1   0
O        0.554756451   0.774642745   0.004675733    1   1   0
O        0.555376374   0.775177384   0.499455535    1   1   0
O        0.889409972   0.109454725   0.001423396    1   1   0
O        0.887578008   0.110147424   0.502342278    1   1   0
O        0.889640713   0.446702293   0.000392359    1   1   0
O        0.889915690   0.446352808   0.505793539    1   1   0
O        0.887175216   0.776883441   0.003114343    1   1   0
O        0.888077773   0.776924757   0.502371492    1   1   0
O        0.112374341   0.223088190   0.253032944    1   1   0
O        0.112475764   0.223379392   0.752647612    1   1   0
O        0.111846044   0.558696702   0.253296180    1   1   0
O        0.111771701   0.559930471   0.751336636    1   1   0
O        0.108726923   0.888413187   0.251621537    1   1   0
O        0.110267773   0.888292211   0.755686963    1   1   0
O        0.444809616   0.219778698   0.251515544    1   1   0
O        0.445182582   0.219917977   0.754666148    1   1   0
O        0.444048133   0.553506122   0.254915145    1   1   0
O        0.442650152   0.553389292   0.750412266    1   1   0
O        0.445326718   0.889262199   0.252925503    1   1   0
O        0.448004962   0.889940516   0.753055191    1   1   0
O        0.781605185   0.224952444   0.253587308    1   1   0
O        0.782513481   0.225530413   0.750533213    1   1   0
O        0.775126670   0.554611584   0.252847823    1   1   0
O        0.774358088   0.554248871   0.752853594    1   1   0
O        0.776071890   0.890148136   0.252222005    1   1   0
O        0.777677070   0.889557008   0.751709342    1   1   0
End final coordinates



     Writing output data file ZnO.save/
 
     init_run     :     11.85s CPU     12.74s WALL (       1 calls)
     electrons    :   1109.72s CPU   1140.93s WALL (       4 calls)
     update_pot   :      4.66s CPU      4.75s WALL (       3 calls)
     forces       :     32.40s CPU     33.44s WALL (       4 calls)
     stress       :    477.23s CPU    488.44s WALL (       4 calls)

     Called by init_run:
     wfcinit      :      9.85s CPU     10.49s WALL (       1 calls)
     wfcinit:atom :      0.05s CPU      0.07s WALL (       5 calls)
     wfcinit:wfcr :      9.46s CPU     10.01s WALL (       5 calls)
     potinit      :      0.88s CPU      0.97s WALL (       1 calls)
     hinit0       :      0.67s CPU      0.76s WALL (       1 calls)

     Called by electrons:
     c_bands      :   1024.12s CPU   1052.15s WALL (      24 calls)
     sum_band     :     75.56s CPU     77.63s WALL (      24 calls)
     v_of_rho     :      8.90s CPU      9.46s WALL (      25 calls)
     v_h          :      0.19s CPU      0.28s WALL (      25 calls)
     v_xc         :     11.47s CPU     12.09s WALL (      33 calls)
     newd         :      1.98s CPU      2.09s WALL (      25 calls)
     mix_rho      :      0.36s CPU      0.47s WALL (      24 calls)

     Called by c_bands:
     init_us_2    :      7.72s CPU      7.91s WALL (     285 calls)
     cegterg      :    975.83s CPU   1003.03s WALL (     120 calls)

     Called by sum_band:
     sum_band:bec :      0.48s CPU      0.50s WALL (     120 calls)
     addusdens    :      1.85s CPU      1.94s WALL (      24 calls)

     Called by *egterg:
     h_psi        :    325.30s CPU    333.06s WALL (     439 calls)
     s_psi        :     82.35s CPU     83.09s WALL (     439 calls)
     g_psi        :      1.20s CPU      1.22s WALL (     314 calls)
     cdiaghg      :    363.61s CPU    374.39s WALL (     404 calls)
     cegterg:over :     91.01s CPU     94.35s WALL (     314 calls)
     cegterg:upda :     59.64s CPU     60.81s WALL (     314 calls)
     cegterg:last :     33.97s CPU     34.33s WALL (     120 calls)
     cdiaghg:chol :     16.30s CPU     16.54s WALL (     404 calls)
     cdiaghg:inve :      5.11s CPU      5.14s WALL (     404 calls)
     cdiaghg:para :     82.18s CPU     89.84s WALL (     808 calls)

     Called by h_psi:
     h_psi:pot    :    322.75s CPU    328.73s WALL (     439 calls)
     h_psi:calbec :     83.69s CPU     86.88s WALL (     439 calls)
     vloc_psi     :    155.13s CPU    156.99s WALL (     439 calls)
     add_vuspsi   :     83.91s CPU     84.86s WALL (     439 calls)

     General routines
     calbec       :    144.31s CPU    149.64s WALL (     659 calls)
     fft          :      2.19s CPU      3.15s WALL (     423 calls)
     ffts         :      0.09s CPU      0.10s WALL (      49 calls)
     fftw         :    178.04s CPU    180.15s WALL (  338604 calls)
     interpolate  :      0.21s CPU      0.27s WALL (      25 calls)
 
     Parallel routines
     fft_scatt_xy :     28.34s CPU     28.68s WALL (  339076 calls)
     fft_scatt_yz :     51.02s CPU     52.60s WALL (  339076 calls)
 
     PWSCF        :  27m18.49s CPU  28m 8.28s WALL

 
   This run was terminated on:  20: 2: 5   8Nov2021            

=------------------------------------------------------------------------------=
   JOB DONE.
=------------------------------------------------------------------------------=
