
     Program PWSCF v.6.4.1 starts on 15Jun2022 at 23:27:31 

     This program is part of the open-source Quantum ESPRESSO suite
     for quantum simulation of materials; please cite
         "P. Giannozzi et al., J. Phys.:Condens. Matter 21 395502 (2009);
         "P. Giannozzi et al., J. Phys.:Condens. Matter 29 465901 (2017);
          URL http://www.quantum-espresso.org", 
     in publications or presentations arising from this work. More details at
     http://www.quantum-espresso.org/quote

     Parallel version (MPI), running on    64 processors

     MPI processes distributed on     1 nodes
     K-points division:     npool     =       4
     R & G space division:  proc/nbgrp/npool/nimage =      16
     Waiting for input...
     Reading input from standard input
Warning: card &IONS ignored
Warning: card   UPSCALE           = 100.D0, ignored
Warning: card / ignored
Warning: card &CELL ignored
Warning: card   CELL_DYNAMICS     = 'BFGS' ignored
Warning: card   PRESS_CONV_THR    = 0.5D0 ignored
Warning: card   CELL_DOFREE = 'ALL' ignored
Warning: card / ignored

     Current dimensions of program PWSCF are:
     Max number of different atomic species (ntypx) = 10
     Max number of k-points (npk) =  40000
     Max angular momentum in pseudopotentials (lmaxx) =  3

     Subspace diagonalization in iterative solution of the eigenvalue problem:
     one sub-group per band group will be used
     scalapack distributed-memory algorithm (size of sub-group:  2*  2 procs)

     Message from routine set_sym_bl:
     NOTICE: Symmetry group for Bravais lattice is not a group (12) - symmetries are disabled
 
     Parallelization info
     --------------------
     sticks:   dense  smooth     PW     G-vecs:    dense   smooth      PW
     Min         103      54     16                 4893     1899     328
     Max         104      56     17                 4899     1902     333
     Sum        1651     871    271                78329    30405    5291
 


     bravais-lattice index     =            0
     lattice parameter (alat)  =       6.3140  a.u.
     unit-cell volume          =     315.0809 (a.u.)^3
     number of atoms/cell      =            4
     number of atomic types    =            3
     number of electrons       =        42.00
     number of Kohn-Sham states=           21
     kinetic-energy cutoff     =      80.0000  Ry
     charge density cutoff     =     600.0000  Ry
     convergence threshold     =      1.0E-06
     mixing beta               =       0.5000
     number of iterations used =            8  plain     mixing
     Exchange-correlation      = SLA  PW   PSX  PSC ( 1  4 10  8 0 0)
     Using LIBXC version       =    4   3   4

     celldm(1)=   6.314027  celldm(2)=   0.000000  celldm(3)=   0.000000
     celldm(4)=   0.000000  celldm(5)=   0.000000  celldm(6)=   0.000000

     crystal axes: (cart. coord. in units of alat)
               a(1) = (   1.000000   0.000000   0.000000 )  
               a(2) = (  -0.500000   0.866025  -0.000000 )  
               a(3) = (   0.000001  -0.000000   1.445347 )  

     reciprocal axes: (cart. coord. in units 2 pi/alat)
               b(1) = (  1.000000  0.577350 -0.000000 )  
               b(2) = ( -0.000000  1.154701  0.000000 )  
               b(3) = ( -0.000000  0.000000  0.691875 )  


     PseudoPot. # 1 for Mg read from file:
     ./GBRV_PBEsol/mg_pbesol_v1.4.uspp.F.UPF
     MD5 check sum: 4059f37963cf5867752dbf5ab2400678
     Pseudo is Ultrasoft, Zval = 10.0
     Generated by new atomic code, or converted to UPF format
     Using radial grid of  821 points,  7 beta functions with: 
                l(1) =   0
                l(2) =   0
                l(3) =   0
                l(4) =   1
                l(5) =   1
                l(6) =   2
                l(7) =   2
     Q(r) pseudized with  8 coefficients,  rinner =    1.200   1.200   1.200
                                                       1.200   1.200

     PseudoPot. # 2 for Zn read from file:
     ./GBRV_PBEsol/zn_pbesol_v1.uspp.F.UPF
     MD5 check sum: 7d8615e52efe7c1e2b1899de8658bae2
     Pseudo is Ultrasoft, Zval = 20.0
     Generated by new atomic code, or converted to UPF format
     Using radial grid of  943 points,  6 beta functions with: 
                l(1) =   0
                l(2) =   0
                l(3) =   1
                l(4) =   1
                l(5) =   2
                l(6) =   2
     Q(r) pseudized with  8 coefficients,  rinner =    1.100   1.100   1.100
                                                       1.100   1.100

     PseudoPot. # 3 for O  read from file:
     ./GBRV_PBEsol/o_pbesol_v1.2.uspp.F.UPF
     MD5 check sum: 501638753501ef6325af9037351f7734
     Pseudo is Ultrasoft + core correction, Zval =  6.0
     Generated by new atomic code, or converted to UPF format
     Using radial grid of  737 points,  5 beta functions with: 
                l(1) =   0
                l(2) =   0
                l(3) =   1
                l(4) =   1
                l(5) =   2
     Q(r) pseudized with  8 coefficients,  rinner =    0.900   0.900   0.900
                                                       0.900   0.900

     atomic species   valence    mass     pseudopotential
        Mg            10.00    24.30500     Mg( 1.00)
        Zn            20.00    65.38000     Zn( 1.00)
        O              6.00    15.99900     O ( 1.00)

     No symmetry found


                                    s                        frac. trans.

      isym =  1     identity                                     

 cryst.   s( 1) = (     1          0          0      )
                  (     0          1          0      )
                  (     0          0          1      )

 cart.    s( 1) = (  1.0000000  0.0000000 -0.0000000 )
                  (  0.0000000  1.0000000  0.0000000 )
                  (  0.0000000  0.0000000  1.0000000 )


   Cartesian axes

     site n.     atom                  positions (alat units)
         1           O   tau(   1) = (   0.5000002   0.2886755   0.0106175  )
         2           O   tau(   2) = (   0.0000005   0.5773492   0.7332906  )
         3           Zn  tau(   3) = (   0.5000004   0.2886747   0.8440740  )
         4           Mg  tau(   4) = (   0.0000007   0.5773508   1.5714947  )

   Crystallographic axes

     site n.     atom                  positions (cryst. coord.)
         1           O   tau(   1) = (  0.6666670  0.3333337  0.0073459  )
         2           O   tau(   2) = (  0.3333329  0.6666657  0.5073458  )
         3           Zn  tau(   3) = (  0.6666664  0.3333329  0.5839939  )
         4           Mg  tau(   4) = (  0.3333336  0.6666677  1.0872785  )

     number of k points=   260
                       cart. coord. in units 2pi/alat
        k(    1) = (   0.0000000   0.0000000   0.0000000), wk =   0.0039062
        k(    2) = (  -0.0000000   0.0000000   0.0864844), wk =   0.0078125
        k(    3) = (  -0.0000001   0.0000000   0.1729688), wk =   0.0078125
        k(    4) = (  -0.0000001   0.0000000   0.2594533), wk =   0.0078125
        k(    5) = (   0.0000001  -0.0000000  -0.3459377), wk =   0.0039062
        k(    6) = (  -0.0000000   0.1443376   0.0000000), wk =   0.0078125
        k(    7) = (  -0.0000001   0.1443376   0.0864844), wk =   0.0078125
        k(    8) = (  -0.0000001   0.1443376   0.1729689), wk =   0.0078125
        k(    9) = (  -0.0000001   0.1443376   0.2594533), wk =   0.0078125
        k(   10) = (   0.0000001   0.1443376  -0.3459377), wk =   0.0078125
        k(   11) = (   0.0000001   0.1443376  -0.2594533), wk =   0.0078125
        k(   12) = (   0.0000001   0.1443376  -0.1729688), wk =   0.0078125
        k(   13) = (   0.0000000   0.1443376  -0.0864844), wk =   0.0078125
        k(   14) = (  -0.0000000   0.2886752   0.0000000), wk =   0.0078125
        k(   15) = (  -0.0000001   0.2886752   0.0864845), wk =   0.0078125
        k(   16) = (  -0.0000001   0.2886752   0.1729689), wk =   0.0078125
        k(   17) = (  -0.0000002   0.2886752   0.2594533), wk =   0.0078125
        k(   18) = (   0.0000001   0.2886751  -0.3459377), wk =   0.0078125
        k(   19) = (   0.0000001   0.2886752  -0.2594532), wk =   0.0078125
        k(   20) = (   0.0000000   0.2886752  -0.1729688), wk =   0.0078125
        k(   21) = (  -0.0000000   0.2886752  -0.0864844), wk =   0.0078125
        k(   22) = (  -0.0000001   0.4330128   0.0000001), wk =   0.0078125
        k(   23) = (  -0.0000001   0.4330128   0.0864845), wk =   0.0078125
        k(   24) = (  -0.0000001   0.4330128   0.1729689), wk =   0.0078125
        k(   25) = (  -0.0000002   0.4330128   0.2594533), wk =   0.0078125
        k(   26) = (   0.0000001   0.4330127  -0.3459376), wk =   0.0078125
        k(   27) = (   0.0000000   0.4330127  -0.2594532), wk =   0.0078125
        k(   28) = (   0.0000000   0.4330128  -0.1729688), wk =   0.0078125
        k(   29) = (  -0.0000000   0.4330128  -0.0864844), wk =   0.0078125
        k(   30) = (   0.0000001  -0.5773504  -0.0000001), wk =   0.0039062
        k(   31) = (   0.0000001  -0.5773503   0.0864843), wk =   0.0078125
        k(   32) = (   0.0000000  -0.5773503   0.1729688), wk =   0.0078125
        k(   33) = (  -0.0000000  -0.5773503   0.2594532), wk =   0.0078125
        k(   34) = (   0.0000002  -0.5773504  -0.3459378), wk =   0.0039062
        k(   35) = (   0.1250000   0.0721688  -0.0000001), wk =   0.0078125
        k(   36) = (   0.1250000   0.0721688   0.0864844), wk =   0.0078125
        k(   37) = (   0.1249999   0.0721688   0.1729688), wk =   0.0078125
        k(   38) = (   0.1249999   0.0721688   0.2594532), wk =   0.0078125
        k(   39) = (   0.1250001   0.0721687  -0.3459377), wk =   0.0078125
        k(   40) = (   0.1250001   0.0721688  -0.2594533), wk =   0.0078125
        k(   41) = (   0.1250001   0.0721688  -0.1729689), wk =   0.0078125
        k(   42) = (   0.1250000   0.0721688  -0.0864845), wk =   0.0078125
        k(   43) = (   0.1250000   0.2165064  -0.0000000), wk =   0.0078125
        k(   44) = (   0.1249999   0.2165064   0.0864844), wk =   0.0078125
        k(   45) = (   0.1249999   0.2165064   0.1729688), wk =   0.0078125
        k(   46) = (   0.1249999   0.2165064   0.2594532), wk =   0.0078125
        k(   47) = (   0.1250001   0.2165063  -0.3459377), wk =   0.0078125
        k(   48) = (   0.1250001   0.2165063  -0.2594533), wk =   0.0078125
        k(   49) = (   0.1250000   0.2165063  -0.1729689), wk =   0.0078125
        k(   50) = (   0.1250000   0.2165064  -0.0864845), wk =   0.0078125
        k(   51) = (   0.1249999   0.3608440  -0.0000000), wk =   0.0078125
        k(   52) = (   0.1249999   0.3608440   0.0864844), wk =   0.0078125
        k(   53) = (   0.1249999   0.3608440   0.1729688), wk =   0.0078125
        k(   54) = (   0.1249998   0.3608440   0.2594533), wk =   0.0078125
        k(   55) = (   0.1250001   0.3608439  -0.3459377), wk =   0.0078125
        k(   56) = (   0.1250001   0.3608439  -0.2594533), wk =   0.0078125
        k(   57) = (   0.1250000   0.3608439  -0.1729689), wk =   0.0078125
        k(   58) = (   0.1250000   0.3608439  -0.0864844), wk =   0.0078125
        k(   59) = (   0.1249999   0.5051815   0.0000000), wk =   0.0078125
        k(   60) = (   0.1249999   0.5051816   0.0864844), wk =   0.0078125
        k(   61) = (   0.1249998   0.5051816   0.1729689), wk =   0.0078125
        k(   62) = (   0.1249998   0.5051816   0.2594533), wk =   0.0078125
        k(   63) = (   0.1250001   0.5051815  -0.3459377), wk =   0.0078125
        k(   64) = (   0.1250000   0.5051815  -0.2594533), wk =   0.0078125
        k(   65) = (   0.1250000   0.5051815  -0.1729688), wk =   0.0078125
        k(   66) = (   0.1250000   0.5051815  -0.0864844), wk =   0.0078125
        k(   67) = (   0.1250001  -0.5051816  -0.0000001), wk =   0.0078125
        k(   68) = (   0.1250000  -0.5051816   0.0864843), wk =   0.0078125
        k(   69) = (   0.1250000  -0.5051816   0.1729687), wk =   0.0078125
        k(   70) = (   0.1250000  -0.5051816   0.2594531), wk =   0.0078125
        k(   71) = (   0.1250002  -0.5051816  -0.3459378), wk =   0.0078125
        k(   72) = (   0.1250002  -0.5051816  -0.2594534), wk =   0.0078125
        k(   73) = (   0.1250002  -0.5051816  -0.1729690), wk =   0.0078125
        k(   74) = (   0.1250001  -0.5051816  -0.0864846), wk =   0.0078125
        k(   75) = (   0.1250001  -0.3608440  -0.0000001), wk =   0.0078125
        k(   76) = (   0.1250000  -0.3608440   0.0864843), wk =   0.0078125
        k(   77) = (   0.1250000  -0.3608440   0.1729687), wk =   0.0078125
        k(   78) = (   0.1249999  -0.3608440   0.2594532), wk =   0.0078125
        k(   79) = (   0.1250002  -0.3608440  -0.3459378), wk =   0.0078125
        k(   80) = (   0.1250002  -0.3608440  -0.2594534), wk =   0.0078125
        k(   81) = (   0.1250001  -0.3608440  -0.1729690), wk =   0.0078125
        k(   82) = (   0.1250001  -0.3608440  -0.0864845), wk =   0.0078125
        k(   83) = (   0.1250000  -0.2165064  -0.0000001), wk =   0.0078125
        k(   84) = (   0.1250000  -0.2165064   0.0864843), wk =   0.0078125
        k(   85) = (   0.1250000  -0.2165064   0.1729688), wk =   0.0078125
        k(   86) = (   0.1249999  -0.2165064   0.2594532), wk =   0.0078125
        k(   87) = (   0.1250002  -0.2165064  -0.3459378), wk =   0.0078125
        k(   88) = (   0.1250001  -0.2165064  -0.2594534), wk =   0.0078125
        k(   89) = (   0.1250001  -0.2165064  -0.1729689), wk =   0.0078125
        k(   90) = (   0.1250001  -0.2165064  -0.0864845), wk =   0.0078125
        k(   91) = (   0.1250000  -0.0721688  -0.0000001), wk =   0.0078125
        k(   92) = (   0.1250000  -0.0721688   0.0864844), wk =   0.0078125
        k(   93) = (   0.1249999  -0.0721688   0.1729688), wk =   0.0078125
        k(   94) = (   0.1249999  -0.0721688   0.2594532), wk =   0.0078125
        k(   95) = (   0.1250002  -0.0721688  -0.3459378), wk =   0.0078125
        k(   96) = (   0.1250001  -0.0721688  -0.2594533), wk =   0.0078125
        k(   97) = (   0.1250001  -0.0721688  -0.1729689), wk =   0.0078125
        k(   98) = (   0.1250000  -0.0721688  -0.0864845), wk =   0.0078125
        k(   99) = (   0.2500000   0.1443375  -0.0000001), wk =   0.0078125
        k(  100) = (   0.2499999   0.1443376   0.0864843), wk =   0.0078125
        k(  101) = (   0.2499999   0.1443376   0.1729687), wk =   0.0078125
        k(  102) = (   0.2499999   0.1443376   0.2594532), wk =   0.0078125
        k(  103) = (   0.2500001   0.1443375  -0.3459378), wk =   0.0078125
        k(  104) = (   0.2500001   0.1443375  -0.2594534), wk =   0.0078125
        k(  105) = (   0.2500001   0.1443375  -0.1729689), wk =   0.0078125
        k(  106) = (   0.2500000   0.1443375  -0.0864845), wk =   0.0078125
        k(  107) = (   0.2500000   0.2886751  -0.0000001), wk =   0.0078125
        k(  108) = (   0.2499999   0.2886751   0.0864843), wk =   0.0078125
        k(  109) = (   0.2499999   0.2886752   0.1729688), wk =   0.0078125
        k(  110) = (   0.2499998   0.2886752   0.2594532), wk =   0.0078125
        k(  111) = (   0.2500001   0.2886751  -0.3459378), wk =   0.0078125
        k(  112) = (   0.2500001   0.2886751  -0.2594534), wk =   0.0078125
        k(  113) = (   0.2500000   0.2886751  -0.1729689), wk =   0.0078125
        k(  114) = (   0.2500000   0.2886751  -0.0864845), wk =   0.0078125
        k(  115) = (   0.2499999   0.4330127  -0.0000001), wk =   0.0078125
        k(  116) = (   0.2499999   0.4330127   0.0864844), wk =   0.0078125
        k(  117) = (   0.2499999   0.4330127   0.1729688), wk =   0.0078125
        k(  118) = (   0.2499998   0.4330128   0.2594532), wk =   0.0078125
        k(  119) = (   0.2500001   0.4330127  -0.3459378), wk =   0.0078125
        k(  120) = (   0.2500000   0.4330127  -0.2594533), wk =   0.0078125
        k(  121) = (   0.2500000   0.4330127  -0.1729689), wk =   0.0078125
        k(  122) = (   0.2500000   0.4330127  -0.0864845), wk =   0.0078125
        k(  123) = (   0.2499999   0.5773503  -0.0000000), wk =   0.0078125
        k(  124) = (   0.2499999   0.5773503   0.0864844), wk =   0.0078125
        k(  125) = (   0.2499998   0.5773503   0.1729688), wk =   0.0078125
        k(  126) = (   0.2499998   0.5773503   0.2594532), wk =   0.0078125
        k(  127) = (   0.2500001   0.5773503  -0.3459377), wk =   0.0078125
        k(  128) = (   0.2500000   0.5773503  -0.2594533), wk =   0.0078125
        k(  129) = (   0.2500000   0.5773503  -0.1729689), wk =   0.0078125
        k(  130) = (   0.2499999   0.5773503  -0.0864845), wk =   0.0078125
        k(  131) = (   0.2500001  -0.4330128  -0.0000002), wk =   0.0078125
        k(  132) = (   0.2500000  -0.4330128   0.0864842), wk =   0.0078125
        k(  133) = (   0.2500000  -0.4330128   0.1729687), wk =   0.0078125
        k(  134) = (   0.2500000  -0.4330128   0.2594531), wk =   0.0078125
        k(  135) = (   0.2500002  -0.4330128  -0.3459379), wk =   0.0078125
        k(  136) = (   0.2500002  -0.4330128  -0.2594535), wk =   0.0078125
        k(  137) = (   0.2500001  -0.4330128  -0.1729690), wk =   0.0078125
        k(  138) = (   0.2500001  -0.4330128  -0.0864846), wk =   0.0078125
        k(  139) = (   0.2500000  -0.2886752  -0.0000002), wk =   0.0078125
        k(  140) = (   0.2500000  -0.2886752   0.0864843), wk =   0.0078125
        k(  141) = (   0.2500000  -0.2886752   0.1729687), wk =   0.0078125
        k(  142) = (   0.2499999  -0.2886752   0.2594531), wk =   0.0078125
        k(  143) = (   0.2500002  -0.2886752  -0.3459379), wk =   0.0078125
        k(  144) = (   0.2500002  -0.2886752  -0.2594534), wk =   0.0078125
        k(  145) = (   0.2500001  -0.2886752  -0.1729690), wk =   0.0078125
        k(  146) = (   0.2500001  -0.2886752  -0.0864846), wk =   0.0078125
        k(  147) = (   0.2500000  -0.1443376  -0.0000001), wk =   0.0078125
        k(  148) = (   0.2500000  -0.1443376   0.0864843), wk =   0.0078125
        k(  149) = (   0.2499999  -0.1443376   0.1729687), wk =   0.0078125
        k(  150) = (   0.2499999  -0.1443376   0.2594531), wk =   0.0078125
        k(  151) = (   0.2500002  -0.1443377  -0.3459378), wk =   0.0078125
        k(  152) = (   0.2500001  -0.1443377  -0.2594534), wk =   0.0078125
        k(  153) = (   0.2500001  -0.1443376  -0.1729690), wk =   0.0078125
        k(  154) = (   0.2500001  -0.1443376  -0.0864846), wk =   0.0078125
        k(  155) = (   0.2500000  -0.0000000  -0.0000001), wk =   0.0078125
        k(  156) = (   0.2500000  -0.0000000   0.0864843), wk =   0.0078125
        k(  157) = (   0.2499999  -0.0000000   0.1729687), wk =   0.0078125
        k(  158) = (   0.2499999  -0.0000000   0.2594531), wk =   0.0078125
        k(  159) = (   0.2500001  -0.0000001  -0.3459378), wk =   0.0078125
        k(  160) = (   0.2500001  -0.0000001  -0.2594534), wk =   0.0078125
        k(  161) = (   0.2500001  -0.0000001  -0.1729690), wk =   0.0078125
        k(  162) = (   0.2500000  -0.0000000  -0.0864845), wk =   0.0078125
        k(  163) = (   0.3750000   0.2165063  -0.0000002), wk =   0.0078125
        k(  164) = (   0.3749999   0.2165063   0.0864843), wk =   0.0078125
        k(  165) = (   0.3749999   0.2165063   0.1729687), wk =   0.0078125
        k(  166) = (   0.3749999   0.2165063   0.2594531), wk =   0.0078125
        k(  167) = (   0.3750001   0.2165063  -0.3459378), wk =   0.0078125
        k(  168) = (   0.3750001   0.2165063  -0.2594534), wk =   0.0078125
        k(  169) = (   0.3750000   0.2165063  -0.1729690), wk =   0.0078125
        k(  170) = (   0.3750000   0.2165063  -0.0864846), wk =   0.0078125
        k(  171) = (   0.3749999   0.3608439  -0.0000001), wk =   0.0078125
        k(  172) = (   0.3749999   0.3608439   0.0864843), wk =   0.0078125
        k(  173) = (   0.3749999   0.3608439   0.1729687), wk =   0.0078125
        k(  174) = (   0.3749998   0.3608439   0.2594531), wk =   0.0078125
        k(  175) = (   0.3750001   0.3608439  -0.3459378), wk =   0.0078125
        k(  176) = (   0.3750001   0.3608439  -0.2594534), wk =   0.0078125
        k(  177) = (   0.3750000   0.3608439  -0.1729690), wk =   0.0078125
        k(  178) = (   0.3750000   0.3608439  -0.0864846), wk =   0.0078125
        k(  179) = (   0.3749999   0.5051815  -0.0000001), wk =   0.0078125
        k(  180) = (   0.3749999   0.5051815   0.0864843), wk =   0.0078125
        k(  181) = (   0.3749998   0.5051815   0.1729687), wk =   0.0078125
        k(  182) = (   0.3749998   0.5051815   0.2594532), wk =   0.0078125
        k(  183) = (   0.3750001   0.5051815  -0.3459378), wk =   0.0078125
        k(  184) = (   0.3750000   0.5051815  -0.2594534), wk =   0.0078125
        k(  185) = (   0.3750000   0.5051815  -0.1729690), wk =   0.0078125
        k(  186) = (   0.3750000   0.5051815  -0.0864845), wk =   0.0078125
        k(  187) = (   0.3749999   0.6495191  -0.0000001), wk =   0.0078125
        k(  188) = (   0.3749999   0.6495191   0.0864843), wk =   0.0078125
        k(  189) = (   0.3749998   0.6495191   0.1729688), wk =   0.0078125
        k(  190) = (   0.3749998   0.6495191   0.2594532), wk =   0.0078125
        k(  191) = (   0.3750000   0.6495191  -0.3459378), wk =   0.0078125
        k(  192) = (   0.3750000   0.6495191  -0.2594534), wk =   0.0078125
        k(  193) = (   0.3750000   0.6495191  -0.1729689), wk =   0.0078125
        k(  194) = (   0.3749999   0.6495191  -0.0864845), wk =   0.0078125
        k(  195) = (   0.3750001  -0.3608440  -0.0000002), wk =   0.0078125
        k(  196) = (   0.3750000  -0.3608440   0.0864842), wk =   0.0078125
        k(  197) = (   0.3750000  -0.3608440   0.1729686), wk =   0.0078125
        k(  198) = (   0.3749999  -0.3608440   0.2594530), wk =   0.0078125
        k(  199) = (   0.3750002  -0.3608441  -0.3459379), wk =   0.0078125
        k(  200) = (   0.3750002  -0.3608441  -0.2594535), wk =   0.0078125
        k(  201) = (   0.3750001  -0.3608440  -0.1729691), wk =   0.0078125
        k(  202) = (   0.3750001  -0.3608440  -0.0864847), wk =   0.0078125
        k(  203) = (   0.3750000  -0.2165064  -0.0000002), wk =   0.0078125
        k(  204) = (   0.3750000  -0.2165064   0.0864842), wk =   0.0078125
        k(  205) = (   0.3750000  -0.2165064   0.1729686), wk =   0.0078125
        k(  206) = (   0.3749999  -0.2165064   0.2594531), wk =   0.0078125
        k(  207) = (   0.3750002  -0.2165065  -0.3459379), wk =   0.0078125
        k(  208) = (   0.3750001  -0.2165065  -0.2594535), wk =   0.0078125
        k(  209) = (   0.3750001  -0.2165065  -0.1729691), wk =   0.0078125
        k(  210) = (   0.3750001  -0.2165065  -0.0864846), wk =   0.0078125
        k(  211) = (   0.3750000  -0.0721689  -0.0000002), wk =   0.0078125
        k(  212) = (   0.3750000  -0.0721688   0.0864842), wk =   0.0078125
        k(  213) = (   0.3749999  -0.0721688   0.1729687), wk =   0.0078125
        k(  214) = (   0.3749999  -0.0721688   0.2594531), wk =   0.0078125
        k(  215) = (   0.3750002  -0.0721689  -0.3459379), wk =   0.0078125
        k(  216) = (   0.3750001  -0.0721689  -0.2594535), wk =   0.0078125
        k(  217) = (   0.3750001  -0.0721689  -0.1729690), wk =   0.0078125
        k(  218) = (   0.3750000  -0.0721689  -0.0864846), wk =   0.0078125
        k(  219) = (   0.3750000   0.0721687  -0.0000002), wk =   0.0078125
        k(  220) = (   0.3750000   0.0721687   0.0864842), wk =   0.0078125
        k(  221) = (   0.3749999   0.0721688   0.1729687), wk =   0.0078125
        k(  222) = (   0.3749999   0.0721688   0.2594531), wk =   0.0078125
        k(  223) = (   0.3750001   0.0721687  -0.3459379), wk =   0.0078125
        k(  224) = (   0.3750001   0.0721687  -0.2594534), wk =   0.0078125
        k(  225) = (   0.3750001   0.0721687  -0.1729690), wk =   0.0078125
        k(  226) = (   0.3750000   0.0721687  -0.0864846), wk =   0.0078125
        k(  227) = (  -0.5000000  -0.2886751   0.0000002), wk =   0.0039062
        k(  228) = (  -0.5000000  -0.2886751   0.0864846), wk =   0.0078125
        k(  229) = (  -0.5000000  -0.2886751   0.1729691), wk =   0.0078125
        k(  230) = (  -0.5000001  -0.2886751   0.2594535), wk =   0.0078125
        k(  231) = (  -0.4999998  -0.2886751  -0.3459375), wk =   0.0039062
        k(  232) = (  -0.5000000  -0.1443375   0.0000002), wk =   0.0078125
        k(  233) = (  -0.5000000  -0.1443375   0.0864846), wk =   0.0078125
        k(  234) = (  -0.5000001  -0.1443375   0.1729691), wk =   0.0078125
        k(  235) = (  -0.5000001  -0.1443375   0.2594535), wk =   0.0078125
        k(  236) = (  -0.4999998  -0.1443375  -0.3459375), wk =   0.0078125
        k(  237) = (  -0.4999999  -0.1443375  -0.2594530), wk =   0.0078125
        k(  238) = (  -0.4999999  -0.1443375  -0.1729686), wk =   0.0078125
        k(  239) = (  -0.4999999  -0.1443375  -0.0864842), wk =   0.0078125
        k(  240) = (  -0.5000000   0.0000001   0.0000002), wk =   0.0078125
        k(  241) = (  -0.5000000   0.0000001   0.0864847), wk =   0.0078125
        k(  242) = (  -0.5000001   0.0000001   0.1729691), wk =   0.0078125
        k(  243) = (  -0.5000001   0.0000001   0.2594535), wk =   0.0078125
        k(  244) = (  -0.4999999   0.0000000  -0.3459374), wk =   0.0078125
        k(  245) = (  -0.4999999   0.0000001  -0.2594530), wk =   0.0078125
        k(  246) = (  -0.4999999   0.0000001  -0.1729686), wk =   0.0078125
        k(  247) = (  -0.5000000   0.0000001  -0.0864842), wk =   0.0078125
        k(  248) = (  -0.5000000   0.1443377   0.0000003), wk =   0.0078125
        k(  249) = (  -0.5000001   0.1443377   0.0864847), wk =   0.0078125
        k(  250) = (  -0.5000001   0.1443377   0.1729691), wk =   0.0078125
        k(  251) = (  -0.5000001   0.1443377   0.2594535), wk =   0.0078125
        k(  252) = (  -0.4999999   0.1443376  -0.3459374), wk =   0.0078125
        k(  253) = (  -0.4999999   0.1443376  -0.2594530), wk =   0.0078125
        k(  254) = (  -0.4999999   0.1443377  -0.1729686), wk =   0.0078125
        k(  255) = (  -0.5000000   0.1443377  -0.0864842), wk =   0.0078125
        k(  256) = (  -0.4999999  -0.8660255   0.0000001), wk =   0.0039062
        k(  257) = (  -0.4999999  -0.8660254   0.0864845), wk =   0.0078125
        k(  258) = (  -0.4999999  -0.8660254   0.1729690), wk =   0.0078125
        k(  259) = (  -0.5000000  -0.8660254   0.2594534), wk =   0.0078125
        k(  260) = (  -0.4999997  -0.8660255  -0.3459376), wk =   0.0039062

                       cryst. coord.
        k(    1) = (   0.0000000   0.0000000   0.0000000), wk =   0.0039062
        k(    2) = (  -0.0000000   0.0000000   0.1250000), wk =   0.0078125
        k(    3) = (  -0.0000000   0.0000000   0.2500000), wk =   0.0078125
        k(    4) = (   0.0000000  -0.0000000   0.3750000), wk =   0.0078125
        k(    5) = (   0.0000000  -0.0000000  -0.5000000), wk =   0.0039062
        k(    6) = (  -0.0000000   0.1250000   0.0000000), wk =   0.0078125
        k(    7) = (  -0.0000000   0.1250000   0.1250000), wk =   0.0078125
        k(    8) = (   0.0000000   0.1250000   0.2500000), wk =   0.0078125
        k(    9) = (   0.0000000   0.1250000   0.3750000), wk =   0.0078125
        k(   10) = (  -0.0000000   0.1250000  -0.5000000), wk =   0.0078125
        k(   11) = (  -0.0000000   0.1250000  -0.3750000), wk =   0.0078125
        k(   12) = (   0.0000000   0.1250000  -0.2500000), wk =   0.0078125
        k(   13) = (  -0.0000000   0.1250000  -0.1250000), wk =   0.0078125
        k(   14) = (  -0.0000000   0.2500000   0.0000000), wk =   0.0078125
        k(   15) = (  -0.0000000   0.2500000   0.1250000), wk =   0.0078125
        k(   16) = (  -0.0000000   0.2500000   0.2500000), wk =   0.0078125
        k(   17) = (   0.0000000   0.2500000   0.3750000), wk =   0.0078125
        k(   18) = (   0.0000000   0.2500000  -0.5000000), wk =   0.0078125
        k(   19) = (  -0.0000000   0.2500000  -0.3750000), wk =   0.0078125
        k(   20) = (  -0.0000000   0.2500000  -0.2500000), wk =   0.0078125
        k(   21) = (  -0.0000000   0.2500000  -0.1250000), wk =   0.0078125
        k(   22) = (  -0.0000000   0.3750000   0.0000000), wk =   0.0078125
        k(   23) = (  -0.0000000   0.3750000   0.1250000), wk =   0.0078125
        k(   24) = (  -0.0000000   0.3750000   0.2500000), wk =   0.0078125
        k(   25) = (  -0.0000000   0.3750000   0.3750000), wk =   0.0078125
        k(   26) = (  -0.0000000   0.3750000  -0.5000000), wk =   0.0078125
        k(   27) = (  -0.0000000   0.3750000  -0.3750000), wk =   0.0078125
        k(   28) = (  -0.0000000   0.3750000  -0.2500000), wk =   0.0078125
        k(   29) = (  -0.0000000   0.3750000  -0.1250000), wk =   0.0078125
        k(   30) = (   0.0000000  -0.5000000  -0.0000000), wk =   0.0039062
        k(   31) = (   0.0000000  -0.5000000   0.1250000), wk =   0.0078125
        k(   32) = (   0.0000000  -0.5000000   0.2500000), wk =   0.0078125
        k(   33) = (   0.0000000  -0.5000000   0.3750000), wk =   0.0078125
        k(   34) = (   0.0000000  -0.5000000  -0.5000000), wk =   0.0039062
        k(   35) = (   0.1250000  -0.0000000   0.0000000), wk =   0.0078125
        k(   36) = (   0.1250000  -0.0000000   0.1250000), wk =   0.0078125
        k(   37) = (   0.1250000  -0.0000000   0.2500000), wk =   0.0078125
        k(   38) = (   0.1250000  -0.0000000   0.3750000), wk =   0.0078125
        k(   39) = (   0.1250000  -0.0000000  -0.5000000), wk =   0.0078125
        k(   40) = (   0.1250000  -0.0000000  -0.3750000), wk =   0.0078125
        k(   41) = (   0.1250000  -0.0000000  -0.2500000), wk =   0.0078125
        k(   42) = (   0.1250000  -0.0000000  -0.1250000), wk =   0.0078125
        k(   43) = (   0.1250000   0.1250000   0.0000000), wk =   0.0078125
        k(   44) = (   0.1250000   0.1250000   0.1250000), wk =   0.0078125
        k(   45) = (   0.1250000   0.1250000   0.2500000), wk =   0.0078125
        k(   46) = (   0.1250000   0.1250000   0.3750000), wk =   0.0078125
        k(   47) = (   0.1250000   0.1250000  -0.5000000), wk =   0.0078125
        k(   48) = (   0.1250000   0.1250000  -0.3750000), wk =   0.0078125
        k(   49) = (   0.1250000   0.1250000  -0.2500000), wk =   0.0078125
        k(   50) = (   0.1250000   0.1250000  -0.1250000), wk =   0.0078125
        k(   51) = (   0.1250000   0.2500000   0.0000000), wk =   0.0078125
        k(   52) = (   0.1250000   0.2500000   0.1250000), wk =   0.0078125
        k(   53) = (   0.1250000   0.2500000   0.2500000), wk =   0.0078125
        k(   54) = (   0.1250000   0.2500000   0.3750000), wk =   0.0078125
        k(   55) = (   0.1250000   0.2500000  -0.5000000), wk =   0.0078125
        k(   56) = (   0.1250000   0.2500000  -0.3750000), wk =   0.0078125
        k(   57) = (   0.1250000   0.2500000  -0.2500000), wk =   0.0078125
        k(   58) = (   0.1250000   0.2500000  -0.1250000), wk =   0.0078125
        k(   59) = (   0.1250000   0.3750000   0.0000000), wk =   0.0078125
        k(   60) = (   0.1250000   0.3750000   0.1250000), wk =   0.0078125
        k(   61) = (   0.1250000   0.3750000   0.2500000), wk =   0.0078125
        k(   62) = (   0.1250000   0.3750000   0.3750000), wk =   0.0078125
        k(   63) = (   0.1250000   0.3750000  -0.5000000), wk =   0.0078125
        k(   64) = (   0.1250000   0.3750000  -0.3750000), wk =   0.0078125
        k(   65) = (   0.1250000   0.3750000  -0.2500000), wk =   0.0078125
        k(   66) = (   0.1250000   0.3750000  -0.1250000), wk =   0.0078125
        k(   67) = (   0.1250000  -0.5000000  -0.0000000), wk =   0.0078125
        k(   68) = (   0.1250000  -0.5000000   0.1250000), wk =   0.0078125
        k(   69) = (   0.1250000  -0.5000000   0.2500000), wk =   0.0078125
        k(   70) = (   0.1250000  -0.5000000   0.3750000), wk =   0.0078125
        k(   71) = (   0.1250000  -0.5000000  -0.5000000), wk =   0.0078125
        k(   72) = (   0.1250000  -0.5000000  -0.3750000), wk =   0.0078125
        k(   73) = (   0.1250000  -0.5000000  -0.2500000), wk =   0.0078125
        k(   74) = (   0.1250000  -0.5000000  -0.1250000), wk =   0.0078125
        k(   75) = (   0.1250000  -0.3750000  -0.0000000), wk =   0.0078125
        k(   76) = (   0.1250000  -0.3750000   0.1250000), wk =   0.0078125
        k(   77) = (   0.1250000  -0.3750000   0.2500000), wk =   0.0078125
        k(   78) = (   0.1250000  -0.3750000   0.3750000), wk =   0.0078125
        k(   79) = (   0.1250000  -0.3750000  -0.5000000), wk =   0.0078125
        k(   80) = (   0.1250000  -0.3750000  -0.3750000), wk =   0.0078125
        k(   81) = (   0.1250000  -0.3750000  -0.2500000), wk =   0.0078125
        k(   82) = (   0.1250000  -0.3750000  -0.1250000), wk =   0.0078125
        k(   83) = (   0.1250000  -0.2500000  -0.0000000), wk =   0.0078125
        k(   84) = (   0.1250000  -0.2500000   0.1250000), wk =   0.0078125
        k(   85) = (   0.1250000  -0.2500000   0.2500000), wk =   0.0078125
        k(   86) = (   0.1250000  -0.2500000   0.3750000), wk =   0.0078125
        k(   87) = (   0.1250000  -0.2500000  -0.5000000), wk =   0.0078125
        k(   88) = (   0.1250000  -0.2500000  -0.3750000), wk =   0.0078125
        k(   89) = (   0.1250000  -0.2500000  -0.2500000), wk =   0.0078125
        k(   90) = (   0.1250000  -0.2500000  -0.1250000), wk =   0.0078125
        k(   91) = (   0.1250000  -0.1250000  -0.0000000), wk =   0.0078125
        k(   92) = (   0.1250000  -0.1250000   0.1250000), wk =   0.0078125
        k(   93) = (   0.1250000  -0.1250000   0.2500000), wk =   0.0078125
        k(   94) = (   0.1250000  -0.1250000   0.3750000), wk =   0.0078125
        k(   95) = (   0.1250000  -0.1250000  -0.5000000), wk =   0.0078125
        k(   96) = (   0.1250000  -0.1250000  -0.3750000), wk =   0.0078125
        k(   97) = (   0.1250000  -0.1250000  -0.2500000), wk =   0.0078125
        k(   98) = (   0.1250000  -0.1250000  -0.1250000), wk =   0.0078125
        k(   99) = (   0.2500000  -0.0000000   0.0000000), wk =   0.0078125
        k(  100) = (   0.2500000  -0.0000000   0.1250000), wk =   0.0078125
        k(  101) = (   0.2500000  -0.0000000   0.2500000), wk =   0.0078125
        k(  102) = (   0.2500000  -0.0000000   0.3750000), wk =   0.0078125
        k(  103) = (   0.2500000  -0.0000000  -0.5000000), wk =   0.0078125
        k(  104) = (   0.2500000  -0.0000000  -0.3750000), wk =   0.0078125
        k(  105) = (   0.2500000  -0.0000000  -0.2500000), wk =   0.0078125
        k(  106) = (   0.2500000  -0.0000000  -0.1250000), wk =   0.0078125
        k(  107) = (   0.2500000   0.1250000   0.0000000), wk =   0.0078125
        k(  108) = (   0.2500000   0.1250000   0.1250000), wk =   0.0078125
        k(  109) = (   0.2500000   0.1250000   0.2500000), wk =   0.0078125
        k(  110) = (   0.2500000   0.1250000   0.3750000), wk =   0.0078125
        k(  111) = (   0.2500000   0.1250000  -0.5000000), wk =   0.0078125
        k(  112) = (   0.2500000   0.1250000  -0.3750000), wk =   0.0078125
        k(  113) = (   0.2500000   0.1250000  -0.2500000), wk =   0.0078125
        k(  114) = (   0.2500000   0.1250000  -0.1250000), wk =   0.0078125
        k(  115) = (   0.2500000   0.2500000   0.0000000), wk =   0.0078125
        k(  116) = (   0.2500000   0.2500000   0.1250000), wk =   0.0078125
        k(  117) = (   0.2500000   0.2500000   0.2500000), wk =   0.0078125
        k(  118) = (   0.2500000   0.2500000   0.3750000), wk =   0.0078125
        k(  119) = (   0.2500000   0.2500000  -0.5000000), wk =   0.0078125
        k(  120) = (   0.2500000   0.2500000  -0.3750000), wk =   0.0078125
        k(  121) = (   0.2500000   0.2500000  -0.2500000), wk =   0.0078125
        k(  122) = (   0.2500000   0.2500000  -0.1250000), wk =   0.0078125
        k(  123) = (   0.2500000   0.3750000   0.0000000), wk =   0.0078125
        k(  124) = (   0.2500000   0.3750000   0.1250000), wk =   0.0078125
        k(  125) = (   0.2500000   0.3750000   0.2500000), wk =   0.0078125
        k(  126) = (   0.2500000   0.3750000   0.3750000), wk =   0.0078125
        k(  127) = (   0.2500000   0.3750000  -0.5000000), wk =   0.0078125
        k(  128) = (   0.2500000   0.3750000  -0.3750000), wk =   0.0078125
        k(  129) = (   0.2500000   0.3750000  -0.2500000), wk =   0.0078125
        k(  130) = (   0.2500000   0.3750000  -0.1250000), wk =   0.0078125
        k(  131) = (   0.2500000  -0.5000000  -0.0000000), wk =   0.0078125
        k(  132) = (   0.2500000  -0.5000000   0.1250000), wk =   0.0078125
        k(  133) = (   0.2500000  -0.5000000   0.2500000), wk =   0.0078125
        k(  134) = (   0.2500000  -0.5000000   0.3750000), wk =   0.0078125
        k(  135) = (   0.2500000  -0.5000000  -0.5000000), wk =   0.0078125
        k(  136) = (   0.2500000  -0.5000000  -0.3750000), wk =   0.0078125
        k(  137) = (   0.2500000  -0.5000000  -0.2500000), wk =   0.0078125
        k(  138) = (   0.2500000  -0.5000000  -0.1250000), wk =   0.0078125
        k(  139) = (   0.2500000  -0.3750000  -0.0000000), wk =   0.0078125
        k(  140) = (   0.2500000  -0.3750000   0.1250000), wk =   0.0078125
        k(  141) = (   0.2500000  -0.3750000   0.2500000), wk =   0.0078125
        k(  142) = (   0.2500000  -0.3750000   0.3750000), wk =   0.0078125
        k(  143) = (   0.2500000  -0.3750000  -0.5000000), wk =   0.0078125
        k(  144) = (   0.2500000  -0.3750000  -0.3750000), wk =   0.0078125
        k(  145) = (   0.2500000  -0.3750000  -0.2500000), wk =   0.0078125
        k(  146) = (   0.2500000  -0.3750000  -0.1250000), wk =   0.0078125
        k(  147) = (   0.2500000  -0.2500000  -0.0000000), wk =   0.0078125
        k(  148) = (   0.2500000  -0.2500000   0.1250000), wk =   0.0078125
        k(  149) = (   0.2500000  -0.2500000   0.2500000), wk =   0.0078125
        k(  150) = (   0.2500000  -0.2500000   0.3750000), wk =   0.0078125
        k(  151) = (   0.2500000  -0.2500000  -0.5000000), wk =   0.0078125
        k(  152) = (   0.2500000  -0.2500000  -0.3750000), wk =   0.0078125
        k(  153) = (   0.2500000  -0.2500000  -0.2500000), wk =   0.0078125
        k(  154) = (   0.2500000  -0.2500000  -0.1250000), wk =   0.0078125
        k(  155) = (   0.2500000  -0.1250000  -0.0000000), wk =   0.0078125
        k(  156) = (   0.2500000  -0.1250000   0.1250000), wk =   0.0078125
        k(  157) = (   0.2500000  -0.1250000   0.2500000), wk =   0.0078125
        k(  158) = (   0.2500000  -0.1250000   0.3750000), wk =   0.0078125
        k(  159) = (   0.2500000  -0.1250000  -0.5000000), wk =   0.0078125
        k(  160) = (   0.2500000  -0.1250000  -0.3750000), wk =   0.0078125
        k(  161) = (   0.2500000  -0.1250000  -0.2500000), wk =   0.0078125
        k(  162) = (   0.2500000  -0.1250000  -0.1250000), wk =   0.0078125
        k(  163) = (   0.3750000  -0.0000000   0.0000000), wk =   0.0078125
        k(  164) = (   0.3750000  -0.0000000   0.1250000), wk =   0.0078125
        k(  165) = (   0.3750000  -0.0000000   0.2500000), wk =   0.0078125
        k(  166) = (   0.3750000  -0.0000000   0.3750000), wk =   0.0078125
        k(  167) = (   0.3750000  -0.0000000  -0.5000000), wk =   0.0078125
        k(  168) = (   0.3750000  -0.0000000  -0.3750000), wk =   0.0078125
        k(  169) = (   0.3750000  -0.0000000  -0.2500000), wk =   0.0078125
        k(  170) = (   0.3750000  -0.0000000  -0.1250000), wk =   0.0078125
        k(  171) = (   0.3750000   0.1250000   0.0000000), wk =   0.0078125
        k(  172) = (   0.3750000   0.1250000   0.1250000), wk =   0.0078125
        k(  173) = (   0.3750000   0.1250000   0.2500000), wk =   0.0078125
        k(  174) = (   0.3750000   0.1250000   0.3750000), wk =   0.0078125
        k(  175) = (   0.3750000   0.1250000  -0.5000000), wk =   0.0078125
        k(  176) = (   0.3750000   0.1250000  -0.3750000), wk =   0.0078125
        k(  177) = (   0.3750000   0.1250000  -0.2500000), wk =   0.0078125
        k(  178) = (   0.3750000   0.1250000  -0.1250000), wk =   0.0078125
        k(  179) = (   0.3750000   0.2500000   0.0000000), wk =   0.0078125
        k(  180) = (   0.3750000   0.2500000   0.1250000), wk =   0.0078125
        k(  181) = (   0.3750000   0.2500000   0.2500000), wk =   0.0078125
        k(  182) = (   0.3750000   0.2500000   0.3750000), wk =   0.0078125
        k(  183) = (   0.3750000   0.2500000  -0.5000000), wk =   0.0078125
        k(  184) = (   0.3750000   0.2500000  -0.3750000), wk =   0.0078125
        k(  185) = (   0.3750000   0.2500000  -0.2500000), wk =   0.0078125
        k(  186) = (   0.3750000   0.2500000  -0.1250000), wk =   0.0078125
        k(  187) = (   0.3750000   0.3750000   0.0000000), wk =   0.0078125
        k(  188) = (   0.3750000   0.3750000   0.1250000), wk =   0.0078125
        k(  189) = (   0.3750000   0.3750000   0.2500000), wk =   0.0078125
        k(  190) = (   0.3750000   0.3750000   0.3750000), wk =   0.0078125
        k(  191) = (   0.3750000   0.3750000  -0.5000000), wk =   0.0078125
        k(  192) = (   0.3750000   0.3750000  -0.3750000), wk =   0.0078125
        k(  193) = (   0.3750000   0.3750000  -0.2500000), wk =   0.0078125
        k(  194) = (   0.3750000   0.3750000  -0.1250000), wk =   0.0078125
        k(  195) = (   0.3750000  -0.5000000  -0.0000000), wk =   0.0078125
        k(  196) = (   0.3750000  -0.5000000   0.1250000), wk =   0.0078125
        k(  197) = (   0.3750000  -0.5000000   0.2500000), wk =   0.0078125
        k(  198) = (   0.3750000  -0.5000000   0.3750000), wk =   0.0078125
        k(  199) = (   0.3750000  -0.5000000  -0.5000000), wk =   0.0078125
        k(  200) = (   0.3750000  -0.5000000  -0.3750000), wk =   0.0078125
        k(  201) = (   0.3750000  -0.5000000  -0.2500000), wk =   0.0078125
        k(  202) = (   0.3750000  -0.5000000  -0.1250000), wk =   0.0078125
        k(  203) = (   0.3750000  -0.3750000  -0.0000000), wk =   0.0078125
        k(  204) = (   0.3750000  -0.3750000   0.1250000), wk =   0.0078125
        k(  205) = (   0.3750000  -0.3750000   0.2500000), wk =   0.0078125
        k(  206) = (   0.3750000  -0.3750000   0.3750000), wk =   0.0078125
        k(  207) = (   0.3750000  -0.3750000  -0.5000000), wk =   0.0078125
        k(  208) = (   0.3750000  -0.3750000  -0.3750000), wk =   0.0078125
        k(  209) = (   0.3750000  -0.3750000  -0.2500000), wk =   0.0078125
        k(  210) = (   0.3750000  -0.3750000  -0.1250000), wk =   0.0078125
        k(  211) = (   0.3750000  -0.2500000  -0.0000000), wk =   0.0078125
        k(  212) = (   0.3750000  -0.2500000   0.1250000), wk =   0.0078125
        k(  213) = (   0.3750000  -0.2500000   0.2500000), wk =   0.0078125
        k(  214) = (   0.3750000  -0.2500000   0.3750000), wk =   0.0078125
        k(  215) = (   0.3750000  -0.2500000  -0.5000000), wk =   0.0078125
        k(  216) = (   0.3750000  -0.2500000  -0.3750000), wk =   0.0078125
        k(  217) = (   0.3750000  -0.2500000  -0.2500000), wk =   0.0078125
        k(  218) = (   0.3750000  -0.2500000  -0.1250000), wk =   0.0078125
        k(  219) = (   0.3750000  -0.1250000   0.0000000), wk =   0.0078125
        k(  220) = (   0.3750000  -0.1250000   0.1250000), wk =   0.0078125
        k(  221) = (   0.3750000  -0.1250000   0.2500000), wk =   0.0078125
        k(  222) = (   0.3750000  -0.1250000   0.3750000), wk =   0.0078125
        k(  223) = (   0.3750000  -0.1250000  -0.5000000), wk =   0.0078125
        k(  224) = (   0.3750000  -0.1250000  -0.3750000), wk =   0.0078125
        k(  225) = (   0.3750000  -0.1250000  -0.2500000), wk =   0.0078125
        k(  226) = (   0.3750000  -0.1250000  -0.1250000), wk =   0.0078125
        k(  227) = (  -0.5000000   0.0000000  -0.0000000), wk =   0.0039062
        k(  228) = (  -0.5000000   0.0000000   0.1250000), wk =   0.0078125
        k(  229) = (  -0.5000000   0.0000000   0.2500000), wk =   0.0078125
        k(  230) = (  -0.5000000   0.0000000   0.3750000), wk =   0.0078125
        k(  231) = (  -0.5000000   0.0000000  -0.5000000), wk =   0.0039062
        k(  232) = (  -0.5000000   0.1250000   0.0000000), wk =   0.0078125
        k(  233) = (  -0.5000000   0.1250000   0.1250000), wk =   0.0078125
        k(  234) = (  -0.5000000   0.1250000   0.2500000), wk =   0.0078125
        k(  235) = (  -0.5000000   0.1250000   0.3750000), wk =   0.0078125
        k(  236) = (  -0.5000000   0.1250000  -0.5000000), wk =   0.0078125
        k(  237) = (  -0.5000000   0.1250000  -0.3750000), wk =   0.0078125
        k(  238) = (  -0.5000000   0.1250000  -0.2500000), wk =   0.0078125
        k(  239) = (  -0.5000000   0.1250000  -0.1250000), wk =   0.0078125
        k(  240) = (  -0.5000000   0.2500000   0.0000000), wk =   0.0078125
        k(  241) = (  -0.5000000   0.2500000   0.1250000), wk =   0.0078125
        k(  242) = (  -0.5000000   0.2500000   0.2500000), wk =   0.0078125
        k(  243) = (  -0.5000000   0.2500000   0.3750000), wk =   0.0078125
        k(  244) = (  -0.5000000   0.2500000  -0.5000000), wk =   0.0078125
        k(  245) = (  -0.5000000   0.2500000  -0.3750000), wk =   0.0078125
        k(  246) = (  -0.5000000   0.2500000  -0.2500000), wk =   0.0078125
        k(  247) = (  -0.5000000   0.2500000  -0.1250000), wk =   0.0078125
        k(  248) = (  -0.5000000   0.3750000  -0.0000000), wk =   0.0078125
        k(  249) = (  -0.5000000   0.3750000   0.1250000), wk =   0.0078125
        k(  250) = (  -0.5000000   0.3750000   0.2500000), wk =   0.0078125
        k(  251) = (  -0.5000000   0.3750000   0.3750000), wk =   0.0078125
        k(  252) = (  -0.5000000   0.3750000  -0.5000000), wk =   0.0078125
        k(  253) = (  -0.5000000   0.3750000  -0.3750000), wk =   0.0078125
        k(  254) = (  -0.5000000   0.3750000  -0.2500000), wk =   0.0078125
        k(  255) = (  -0.5000000   0.3750000  -0.1250000), wk =   0.0078125
        k(  256) = (  -0.5000000  -0.5000000  -0.0000000), wk =   0.0039062
        k(  257) = (  -0.5000000  -0.5000000   0.1250000), wk =   0.0078125
        k(  258) = (  -0.5000000  -0.5000000   0.2500000), wk =   0.0078125
        k(  259) = (  -0.5000000  -0.5000000   0.3750000), wk =   0.0078125
        k(  260) = (  -0.5000000  -0.5000000  -0.5000000), wk =   0.0039062

     Dense  grid:    78329 G-vectors     FFT dimensions: (  50,  50,  72)

     Smooth grid:    30405 G-vectors     FFT dimensions: (  36,  36,  54)

     Dynamical RAM for                 wfc:       0.08 MB

     Dynamical RAM for     wfc (w. buffer):       5.01 MB

     Dynamical RAM for           str. fact:       0.22 MB

     Dynamical RAM for           local pot:       0.00 MB

     Dynamical RAM for          nlocal pot:       0.23 MB

     Dynamical RAM for                qrad:       7.90 MB

     Dynamical RAM for          rho,v,vnew:       0.51 MB

     Dynamical RAM for               rhoin:       0.17 MB

     Dynamical RAM for            rho*nmix:       1.20 MB

     Dynamical RAM for           G-vectors:       0.29 MB

     Dynamical RAM for          h,s,v(r/c):       0.08 MB

     Dynamical RAM for          <psi|beta>:       0.02 MB

     Dynamical RAM for                 psi:       0.30 MB

     Dynamical RAM for                hpsi:       0.30 MB

     Dynamical RAM for                spsi:       0.30 MB

     Dynamical RAM for      wfcinit/wfcrot:       0.20 MB

     Dynamical RAM for           addusdens:       3.92 MB

     Dynamical RAM for          addusforce:       4.07 MB

     Dynamical RAM for         addusstress:       4.14 MB

     Estimated static dynamical RAM per process >      16.31 MB

     Estimated max dynamical RAM per process >      20.45 MB

     Estimated total dynamical RAM >       1.28 GB

     Check: negative core charge=   -0.000003

     Initial potential from superposition of free atoms

     starting charge   41.69964, renormalised to   42.00000
     Starting wfcs are   26 randomized atomic wfcs

     total cpu time spent up to now is        2.2 secs

     Self-consistent Calculation

     iteration #  1     ecut=    80.00 Ry     beta= 0.50
     Davidson diagonalization with overlap
     ethr =  1.00E-02,  avg # of iterations =  2.0

     total cpu time spent up to now is        4.5 secs

     total energy              =    -650.62100912 Ry
     Harris-Foulkes estimate   =    -651.45735084 Ry
     estimated scf accuracy    <       1.25313701 Ry

     iteration #  2     ecut=    80.00 Ry     beta= 0.50
     Davidson diagonalization with overlap
     ethr =  2.98E-03,  avg # of iterations =  3.0

     total cpu time spent up to now is        5.6 secs

     total energy              =    -651.01435108 Ry
     Harris-Foulkes estimate   =    -651.30138998 Ry
     estimated scf accuracy    <       0.66003505 Ry

     iteration #  3     ecut=    80.00 Ry     beta= 0.50
     Davidson diagonalization with overlap
     ethr =  1.57E-03,  avg # of iterations =  2.0

     total cpu time spent up to now is        6.5 secs

     total energy              =    -651.12587782 Ry
     Harris-Foulkes estimate   =    -651.12944480 Ry
     estimated scf accuracy    <       0.01034865 Ry

     iteration #  4     ecut=    80.00 Ry     beta= 0.50
     Davidson diagonalization with overlap
     ethr =  2.46E-05,  avg # of iterations =  2.9

     total cpu time spent up to now is        7.5 secs

     total energy              =    -651.12675234 Ry
     Harris-Foulkes estimate   =    -651.12788401 Ry
     estimated scf accuracy    <       0.00277857 Ry

     iteration #  5     ecut=    80.00 Ry     beta= 0.50
     Davidson diagonalization with overlap
     ethr =  6.62E-06,  avg # of iterations =  2.8

     total cpu time spent up to now is        8.5 secs

     total energy              =    -651.12727779 Ry
     Harris-Foulkes estimate   =    -651.12732011 Ry
     estimated scf accuracy    <       0.00017958 Ry

     iteration #  6     ecut=    80.00 Ry     beta= 0.50
     Davidson diagonalization with overlap
     ethr =  4.28E-07,  avg # of iterations =  2.2

     total cpu time spent up to now is        9.4 secs

     total energy              =    -651.12730735 Ry
     Harris-Foulkes estimate   =    -651.12730303 Ry
     estimated scf accuracy    <       0.00001326 Ry

     iteration #  7     ecut=    80.00 Ry     beta= 0.50
     Davidson diagonalization with overlap
     ethr =  3.16E-08,  avg # of iterations =  2.0

     total cpu time spent up to now is       10.2 secs

     End of self-consistent calculation

          k = 0.0000 0.0000 0.0000 (  3751 PWs)   bands (ev):

  -115.7887 -70.1655 -70.1368 -70.1368 -65.1027 -32.1102 -32.0648 -32.0648
   -10.3625  -9.1670   1.5481   1.5481   2.4226   2.8203   2.8203   2.8811
     5.6671   5.6671   6.8152   6.9867   6.9867

     occupation numbers 
     1.0000   1.0000   1.0000   1.0000   1.0000   1.0000   1.0000   1.0000
     1.0000   1.0000   1.0000   1.0000   1.0000   1.0000   1.0000   1.0000
     1.0000   1.0000   1.0000   1.0000   1.0000

          k =-0.0000 0.0000 0.0865 (  3776 PWs)   bands (ev):

  -115.7887 -70.1655 -70.1369 -70.1368 -65.1027 -32.1103 -32.0648 -32.0648
   -10.3363  -9.1962   1.5479   1.5479   2.2680   2.8139   2.8139   3.0740
     5.6886   5.6886   6.5623   6.9756   6.9756

     occupation numbers 
     1.0000   1.0000   1.0000   1.0000   1.0000   1.0000   1.0000   1.0000
     1.0000   1.0000   1.0000   1.0000   1.0000   1.0000   1.0000   1.0000
     1.0000   1.0000   1.0000   1.0000   1.0000

          k =-0.0000 0.0000 0.1730 (  3770 PWs)   bands (ev):

  -115.7887 -70.1655 -70.1368 -70.1368 -65.1027 -32.1104 -32.0648 -32.0648
   -10.2667  -9.2732   1.5476   1.5476   2.0595   2.7985   2.7985   3.3845
     5.7419   5.7419   6.1031   6.9473   6.9473

     occupation numbers 
     1.0000   1.0000   1.0000   1.0000   1.0000   1.0000   1.0000   1.0000
     1.0000   1.0000   1.0000   1.0000   1.0000   1.0000   1.0000   1.0000
     1.0000   1.0000   1.0000   1.0000   1.0000

          k =-0.0000 0.0000 0.2595 (  3800 PWs)   bands (ev):

  -115.7887 -70.1655 -70.1369 -70.1369 -65.1027 -32.1105 -32.0648 -32.0648
   -10.1841  -9.3631   1.5473   1.5473   1.9221   2.7834   2.7834   3.6439
     5.7254   5.7974   5.7974   6.9164   6.9164

     occupation numbers 
     1.0000   1.0000   1.0000   1.0000   1.0000   1.0000   1.0000   1.0000
     1.0000   1.0000   1.0000   1.0000   1.0000   1.0000   1.0000   1.0000
     1.0000   1.0000   1.0000   1.0000   1.0000

          k = 0.0000-0.0000-0.3459 (  3842 PWs)   bands (ev):

  -115.7888 -70.1656 -70.1369 -70.1369 -65.1027 -32.1106 -32.0648 -32.0648
   -10.1440  -9.4063   1.5471   1.5471   1.8754   2.7773   2.7773   3.7506
     5.5760   5.8213   5.8213   6.9027   6.9027

     occupation numbers 
     1.0000   1.0000   1.0000   1.0000   1.0000   1.0000   1.0000   1.0000
     1.0000   1.0000   1.0000   1.0000   1.0000   1.0000   1.0000   1.0000
     1.0000   1.0000   1.0000   1.0000   1.0000

          k =-0.0000 0.1443 0.0000 (  3785 PWs)   bands (ev):

  -115.7887 -70.1655 -70.1371 -70.1369 -65.1025 -32.1099 -32.0686 -32.0656
   -10.2830  -9.1389   1.5127   1.6275   2.3700   2.8137   2.8144   3.0910
     5.3049   5.5887   6.2890   6.7340   6.8275

     occupation numbers 
     1.0000   1.0000   1.0000   1.0000   1.0000   1.0000   1.0000   1.0000
     1.0000   1.0000   1.0000   1.0000   1.0000   1.0000   1.0000   1.0000
     1.0000   1.0000   1.0000   1.0000   1.0000

          k =-0.0000 0.1443 0.0865 (  3786 PWs)   bands (ev):

  -115.7887 -70.1655 -70.1371 -70.1369 -65.1025 -32.1099 -32.0686 -32.0656
   -10.2587  -9.1650   1.5107   1.6268   2.2634   2.7442   2.8083   3.2901
     5.3151   5.6191   6.1141   6.8051   6.8101

     occupation numbers 
     1.0000   1.0000   1.0000   1.0000   1.0000   1.0000   1.0000   1.0000
     1.0000   1.0000   1.0000   1.0000   1.0000   1.0000   1.0000   1.0000
     1.0000   1.0000   1.0000   1.0000   1.0000

          k =-0.0000 0.1443 0.1730 (  3788 PWs)   bands (ev):

  -115.7887 -70.1655 -70.1371 -70.1369 -65.1025 -32.1100 -32.0686 -32.0656
   -10.1944  -9.2336   1.5045   1.6262   2.0789   2.6798   2.7927   3.5945
     5.3228   5.6857   5.8850   6.7599   6.8296

     occupation numbers 
     1.0000   1.0000   1.0000   1.0000   1.0000   1.0000   1.0000   1.0000
     1.0000   1.0000   1.0000   1.0000   1.0000   1.0000   1.0000   1.0000
     1.0000   1.0000   1.0000   1.0000   1.0000

          k =-0.0000 0.1443 0.2595 (  3791 PWs)   bands (ev):

  -115.7887 -70.1655 -70.1371 -70.1369 -65.1025 -32.1101 -32.0686 -32.0656
   -10.1190  -9.3131   1.4969   1.6261   1.9463   2.6364   2.7772   3.8371
     5.2472   5.7525   5.8134   6.7149   6.7833

     occupation numbers 
     1.0000   1.0000   1.0000   1.0000   1.0000   1.0000   1.0000   1.0000
     1.0000   1.0000   1.0000   1.0000   1.0000   1.0000   1.0000   1.0000
     1.0000   1.0000   1.0000   1.0000   1.0000

          k = 0.0000 0.1443-0.3459 (  3804 PWs)   bands (ev):

  -115.7887 -70.1655 -70.1371 -70.1369 -65.1025 -32.1102 -32.0686 -32.0656
   -10.0830  -9.3510   1.4939   1.6265   1.8997   2.6205   2.7704   3.9250
     5.2096   5.7764   5.8162   6.7010   6.7422

     occupation numbers 
     1.0000   1.0000   1.0000   1.0000   1.0000   1.0000   1.0000   1.0000
     1.0000   1.0000   1.0000   1.0000   1.0000   1.0000   1.0000   1.0000
     1.0000   1.0000   1.0000   1.0000   1.0000

          k = 0.0000 0.1443-0.2595 (  3791 PWs)   bands (ev):

  -115.7887 -70.1655 -70.1371 -70.1369 -65.1025 -32.1101 -32.0686 -32.0656
   -10.1190  -9.3132   1.4986   1.6272   1.9447   2.6377   2.7762   3.8180
     5.3130   5.7398   5.7885   6.7299   6.7539

     occupation numbers 
     1.0000   1.0000   1.0000   1.0000   1.0000   1.0000   1.0000   1.0000
     1.0000   1.0000   1.0000   1.0000   1.0000   1.0000   1.0000   1.0000
     1.0000   1.0000   1.0000   1.0000   1.0000

          k = 0.0000 0.1443-0.1730 (  3788 PWs)   bands (ev):

  -115.7887 -70.1655 -70.1371 -70.1369 -65.1025 -32.1100 -32.0686 -32.0656
   -10.1943  -9.2336   1.5057   1.6278   2.0790   2.6815   2.7914   3.5736
     5.3908   5.6697   5.8746   6.7790   6.7802

     occupation numbers 
     1.0000   1.0000   1.0000   1.0000   1.0000   1.0000   1.0000   1.0000
     1.0000   1.0000   1.0000   1.0000   1.0000   1.0000   1.0000   1.0000
     1.0000   1.0000   1.0000   1.0000   1.0000

          k = 0.0000 0.1443-0.0865 (  3786 PWs)   bands (ev):

  -115.7887 -70.1655 -70.1371 -70.1369 -65.1025 -32.1099 -32.0686 -32.0656
   -10.2587  -9.1650   1.5109   1.6280   2.2659   2.7461   2.8073   3.2759
     5.3424   5.6089   6.1401   6.7586   6.8175

     occupation numbers 
     1.0000   1.0000   1.0000   1.0000   1.0000   1.0000   1.0000   1.0000
     1.0000   1.0000   1.0000   1.0000   1.0000   1.0000   1.0000   1.0000
     1.0000   1.0000   1.0000   1.0000   1.0000

          k =-0.0000 0.2887 0.0000 (  3796 PWs)   bands (ev):

  -115.7887 -70.1655 -70.1377 -70.1371 -65.1020 -32.1090 -32.0778 -32.0677
   -10.0803  -9.0765   1.4696   1.8387   2.3001   2.8057   2.8427   3.5296
     4.5365   5.2838   5.3595   6.4778   6.4883

     occupation numbers 
     1.0000   1.0000   1.0000   1.0000   1.0000   1.0000   1.0000   1.0000
     1.0000   1.0000   1.0000   1.0000   1.0000   1.0000   1.0000   1.0000
     1.0000   1.0000   1.0000   1.0000   1.0000

          k =-0.0000 0.2887 0.0865 (  3801 PWs)   bands (ev):

  -115.7887 -70.1655 -70.1377 -70.1371 -65.1020 -32.1090 -32.0778 -32.0677
   -10.0614  -9.0938   1.4651   1.8371   2.2326   2.7169   2.8000   3.7257
     4.5338   5.2097   5.4023   6.4399   6.5991

     occupation numbers 
     1.0000   1.0000   1.0000   1.0000   1.0000   1.0000   1.0000   1.0000
     1.0000   1.0000   1.0000   1.0000   1.0000   1.0000   1.0000   1.0000
     1.0000   1.0000   1.0000   1.0000   1.0000

          k =-0.0000 0.2887 0.1730 (  3796 PWs)   bands (ev):

  -115.7887 -70.1655 -70.1377 -70.1371 -65.1020 -32.1091 -32.0778 -32.0677
   -10.0125  -9.1391   1.4492   1.8355   2.0987   2.5415   2.7844   3.9625
     4.5282   5.2545   5.4998   6.3571   6.7010

     occupation numbers 
     1.0000   1.0000   1.0000   1.0000   1.0000   1.0000   1.0000   1.0000
     1.0000   1.0000   1.0000   1.0000   1.0000   1.0000   1.0000   1.0000
     1.0000   1.0000   1.0000   1.0000   1.0000

          k =-0.0000 0.2887 0.2595 (  3800 PWs)   bands (ev):

  -115.7887 -70.1655 -70.1377 -70.1371 -65.1020 -32.1092 -32.0778 -32.0677
    -9.9575  -9.1906   1.4290   1.8350   1.9852   2.4210   2.7684   4.1060
     4.4614   5.4706   5.6089   6.2632   6.6955

     occupation numbers 
     1.0000   1.0000   1.0000   1.0000   1.0000   1.0000   1.0000   1.0000
     1.0000   1.0000   1.0000   1.0000   1.0000   1.0000   1.0000   1.0000
     1.0000   1.0000   1.0000   1.0000   1.0000

          k = 0.0000 0.2887-0.3459 (  3814 PWs)   bands (ev):

  -115.7887 -70.1655 -70.1377 -70.1371 -65.1020 -32.1093 -32.0778 -32.0677
    -9.9323  -9.2144   1.4220   1.8358   1.9418   2.3785   2.7611   4.0689
     4.5297   5.6016   5.6512   6.2283   6.6282

     occupation numbers 
     1.0000   1.0000   1.0000   1.0000   1.0000   1.0000   1.0000   1.0000
     1.0000   1.0000   1.0000   1.0000   1.0000   1.0000   1.0000   1.0000
     1.0000   1.0000   1.0000   1.0000   1.0000

          k = 0.0000 0.2887-0.2595 (  3800 PWs)   bands (ev):

  -115.7887 -70.1655 -70.1377 -70.1371 -65.1020 -32.1092 -32.0778 -32.0677
    -9.9574  -9.1908   1.4337   1.8375   1.9876   2.4197   2.7663   3.9334
     4.6959   5.4751   5.5830   6.2920   6.6040

     occupation numbers 
     1.0000   1.0000   1.0000   1.0000   1.0000   1.0000   1.0000   1.0000
     1.0000   1.0000   1.0000   1.0000   1.0000   1.0000   1.0000   1.0000
     1.0000   1.0000   1.0000   1.0000   1.0000

          k = 0.0000 0.2887-0.1730 (  3796 PWs)   bands (ev):

  -115.7887 -70.1655 -70.1377 -70.1371 -65.1020 -32.1091 -32.0778 -32.0677
   -10.0124  -9.1393   1.4511   1.8390   2.1152   2.5384   2.7815   3.7726
     4.8098   5.2497   5.4720   6.3890   6.5725

     occupation numbers 
     1.0000   1.0000   1.0000   1.0000   1.0000   1.0000   1.0000   1.0000
     1.0000   1.0000   1.0000   1.0000   1.0000   1.0000   1.0000   1.0000
     1.0000   1.0000   1.0000   1.0000   1.0000

          k =-0.0000 0.2887-0.0865 (  3801 PWs)   bands (ev):

  -115.7887 -70.1655 -70.1377 -70.1371 -65.1020 -32.1090 -32.0778 -32.0677
   -10.0613  -9.0939   1.4641   1.8395   2.2518   2.7231   2.7979   3.5979
     4.6721   5.2591   5.3859   6.4592   6.4971

     occupation numbers 
     1.0000   1.0000   1.0000   1.0000   1.0000   1.0000   1.0000   1.0000
     1.0000   1.0000   1.0000   1.0000   1.0000   1.0000   1.0000   1.0000
     1.0000   1.0000   1.0000   1.0000   1.0000

          k =-0.0000 0.4330 0.0000 (  3786 PWs)   bands (ev):

  -115.7887 -70.1654 -70.1382 -70.1372 -65.1015 -32.1080 -32.0870 -32.0697
    -9.8567  -9.0264   1.5073   2.0837   2.2741   2.8164   2.8527   3.6978
     4.1407   4.5693   5.0407   6.1138   6.1888

     occupation numbers 
     1.0000   1.0000   1.0000   1.0000   1.0000   1.0000   1.0000   1.0000
     1.0000   1.0000   1.0000   1.0000   1.0000   1.0000   1.0000   1.0000
     1.0000   1.0000   1.0000   1.0000   1.0000

          k =-0.0000 0.4330 0.0865 (  3801 PWs)   bands (ev):

  -115.7887 -70.1654 -70.1382 -70.1372 -65.1015 -32.1081 -32.0870 -32.0697
    -9.8458  -9.0324   1.5056   2.0807   2.2040   2.7389   2.8115   3.6718
     4.2906   4.5465   5.0870   6.1458   6.2730

     occupation numbers 
     1.0000   1.0000   1.0000   1.0000   1.0000   1.0000   1.0000   1.0000
     1.0000   1.0000   1.0000   1.0000   1.0000   1.0000   1.0000   1.0000
     1.0000   1.0000   1.0000   1.0000   1.0000

          k =-0.0000 0.4330 0.1730 (  3809 PWs)   bands (ev):

  -115.7887 -70.1654 -70.1382 -70.1372 -65.1015 -32.1082 -32.0870 -32.0697
    -9.8182  -9.0481   1.4835   2.0761   2.0898   2.5240   2.7978   3.5752
     4.2522   4.9610   5.2017   6.0403   6.5069

     occupation numbers 
     1.0000   1.0000   1.0000   1.0000   1.0000   1.0000   1.0000   1.0000
     1.0000   1.0000   1.0000   1.0000   1.0000   1.0000   1.0000   1.0000
     1.0000   1.0000   1.0000   1.0000   1.0000

          k =-0.0000 0.4330 0.2595 (  3801 PWs)   bands (ev):

  -115.7887 -70.1654 -70.1382 -70.1372 -65.1015 -32.1083 -32.0870 -32.0697
    -9.7890  -9.0655   1.4509   2.0020   2.0725   2.3382   2.7836   3.5236
     4.2167   5.3459   5.3518   5.9058   6.6569

     occupation numbers 
     1.0000   1.0000   1.0000   1.0000   1.0000   1.0000   1.0000   1.0000
     1.0000   1.0000   1.0000   1.0000   1.0000   1.0000   1.0000   1.0000
     1.0000   1.0000   1.0000   1.0000   1.0000

          k = 0.0000 0.4330-0.3459 (  3802 PWs)   bands (ev):

  -115.7887 -70.1654 -70.1382 -70.1372 -65.1015 -32.1083 -32.0870 -32.0697
    -9.7763  -9.0733   1.4341   1.9784   2.0722   2.2648   2.7769   3.4817
     4.2326   5.4187   5.5359   5.8376   6.6612

     occupation numbers 
     1.0000   1.0000   1.0000   1.0000   1.0000   1.0000   1.0000   1.0000
     1.0000   1.0000   1.0000   1.0000   1.0000   1.0000   1.0000   1.0000
     1.0000   1.0000   1.0000   1.0000   1.0000

          k = 0.0000 0.4330-0.2595 (  3801 PWs)   bands (ev):

  -115.7887 -70.1654 -70.1382 -70.1372 -65.1015 -32.1083 -32.0870 -32.0697
    -9.7888  -9.0657   1.4441   2.0390   2.0753   2.3225   2.7811   3.4410
     4.2833   5.3243   5.4343   5.9293   6.5547

     occupation numbers 
     1.0000   1.0000   1.0000   1.0000   1.0000   1.0000   1.0000   1.0000
     1.0000   1.0000   1.0000   1.0000   1.0000   1.0000   1.0000   1.0000
     1.0000   1.0000   1.0000   1.0000   1.0000

          k = 0.0000 0.4330-0.1730 (  3809 PWs)   bands (ev):

  -115.7887 -70.1654 -70.1382 -70.1372 -65.1015 -32.1082 -32.0870 -32.0697
    -9.8180  -9.0484   1.4685   2.0800   2.1522   2.5159   2.7942   3.4160
     4.3338   5.1184   5.1813   6.0635   6.3611

     occupation numbers 
     1.0000   1.0000   1.0000   1.0000   1.0000   1.0000   1.0000   1.0000
     1.0000   1.0000   1.0000   1.0000   1.0000   1.0000   1.0000   1.0000
     1.0000   1.0000   1.0000   1.0000   1.0000

          k =-0.0000 0.4330-0.0865 (  3801 PWs)   bands (ev):

  -115.7887 -70.1654 -70.1382 -70.1372 -65.1015 -32.1081 -32.0870 -32.0697
    -9.8456  -9.0326   1.4927   2.0835   2.2493   2.7661   2.8090   3.4756
     4.2970   4.7734   5.0754   6.1592   6.1596

     occupation numbers 
     1.0000   1.0000   1.0000   1.0000   1.0000   1.0000   1.0000   1.0000
     1.0000   1.0000   1.0000   1.0000   1.0000   1.0000   1.0000   1.0000
     1.0000   1.0000   1.0000   1.0000   1.0000

          k = 0.0000-0.5774-0.0000 (  3804 PWs)   bands (ev):

  -115.7887 -70.1654 -70.1385 -70.1373 -65.1013 -32.1076 -32.0909 -32.0706
    -9.7552  -9.0119   1.5618   2.1953   2.2893   2.8216   2.8364   3.4175
     4.1777   4.5432   4.8695   5.8642   6.0886

     occupation numbers 
     1.0000   1.0000   1.0000   1.0000   1.0000   1.0000   1.0000   1.0000
     1.0000   1.0000   1.0000   1.0000   1.0000   1.0000   1.0000   1.0000
     1.0000   1.0000   1.0000   1.0000   1.0000

          k = 0.0000-0.5774 0.0865 (  3812 PWs)   bands (ev):

  -115.7887 -70.1654 -70.1385 -70.1373 -65.1013 -32.1076 -32.0909 -32.0706
    -9.7488  -9.0120   1.5488   2.1924   2.2475   2.7796   2.8311   3.2399
     4.1610   4.7801   4.9106   5.9978   6.0511

     occupation numbers 
     1.0000   1.0000   1.0000   1.0000   1.0000   1.0000   1.0000   1.0000
     1.0000   1.0000   1.0000   1.0000   1.0000   1.0000   1.0000   1.0000
     1.0000   1.0000   1.0000   1.0000   1.0000

          k = 0.0000-0.5774 0.1730 (  3798 PWs)   bands (ev):

  -115.7887 -70.1654 -70.1384 -70.1373 -65.1013 -32.1077 -32.0908 -32.0706
    -9.7330  -9.0123   1.5137   2.1632   2.1853   2.5776   2.8190   3.0732
     4.1514   5.0217   5.1618   5.9481   6.3055

     occupation numbers 
     1.0000   1.0000   1.0000   1.0000   1.0000   1.0000   1.0000   1.0000
     1.0000   1.0000   1.0000   1.0000   1.0000   1.0000   1.0000   1.0000
     1.0000   1.0000   1.0000   1.0000   1.0000

          k =-0.0000-0.5774 0.2595 (  3810 PWs)   bands (ev):

  -115.7887 -70.1654 -70.1385 -70.1373 -65.1013 -32.1078 -32.0908 -32.0706
    -9.7169  -9.0130   1.4739   2.0953   2.1782   2.3397   2.8076   3.0379
     4.1469   5.1635   5.4588   5.8138   6.5833

     occupation numbers 
     1.0000   1.0000   1.0000   1.0000   1.0000   1.0000   1.0000   1.0000
     1.0000   1.0000   1.0000   1.0000   1.0000   1.0000   1.0000   1.0000
     1.0000   1.0000   1.0000   1.0000   1.0000

          k = 0.0000-0.5774-0.3459 (  3800 PWs)   bands (ev):

  -115.7887 -70.1654 -70.1385 -70.1373 -65.1013 -32.1079 -32.0908 -32.0706
    -9.7101  -9.0133   1.4563   2.0691   2.1752   2.2486   2.8031   3.0328
     4.1453   5.2429   5.5731   5.7374   6.6873

     occupation numbers 
     1.0000   1.0000   1.0000   1.0000   1.0000   1.0000   1.0000   1.0000
     1.0000   1.0000   1.0000   1.0000   1.0000   1.0000   1.0000   1.0000
     1.0000   1.0000   1.0000   1.0000   1.0000

          k = 0.1250 0.0722-0.0000 (  3785 PWs)   bands (ev):

  -115.7887 -70.1655 -70.1371 -70.1369 -65.1025 -32.1099 -32.0686 -32.0656
   -10.2830  -9.1389   1.5127   1.6275   2.3700   2.8137   2.8144   3.0910
     5.3049   5.5887   6.2890   6.7340   6.8275

     occupation numbers 
     1.0000   1.0000   1.0000   1.0000   1.0000   1.0000   1.0000   1.0000
     1.0000   1.0000   1.0000   1.0000   1.0000   1.0000   1.0000   1.0000
     1.0000   1.0000   1.0000   1.0000   1.0000

          k = 0.1250 0.0722 0.0865 (  3786 PWs)   bands (ev):

  -115.7887 -70.1655 -70.1371 -70.1369 -65.1025 -32.1099 -32.0686 -32.0656
   -10.2587  -9.1650   1.5109   1.6280   2.2659   2.7461   2.8073   3.2759
     5.3424   5.6089   6.1401   6.7586   6.8175

     occupation numbers 
     1.0000   1.0000   1.0000   1.0000   1.0000   1.0000   1.0000   1.0000
     1.0000   1.0000   1.0000   1.0000   1.0000   1.0000   1.0000   1.0000
     1.0000   1.0000   1.0000   1.0000   1.0000

          k = 0.1250 0.0722 0.1730 (  3788 PWs)   bands (ev):

  -115.7887 -70.1655 -70.1371 -70.1369 -65.1025 -32.1100 -32.0686 -32.0656
   -10.1943  -9.2336   1.5057   1.6278   2.0790   2.6815   2.7914   3.5736
     5.3908   5.6697   5.8746   6.7790   6.7802

     occupation numbers 
     1.0000   1.0000   1.0000   1.0000   1.0000   1.0000   1.0000   1.0000
     1.0000   1.0000   1.0000   1.0000   1.0000   1.0000   1.0000   1.0000
     1.0000   1.0000   1.0000   1.0000   1.0000

          k = 0.1250 0.0722 0.2595 (  3791 PWs)   bands (ev):

  -115.7887 -70.1655 -70.1371 -70.1369 -65.1025 -32.1101 -32.0686 -32.0656
   -10.1190  -9.3132   1.4986   1.6272   1.9447   2.6377   2.7762   3.8180
     5.3130   5.7398   5.7885   6.7299   6.7539

     occupation numbers 
     1.0000   1.0000   1.0000   1.0000   1.0000   1.0000   1.0000   1.0000
     1.0000   1.0000   1.0000   1.0000   1.0000   1.0000   1.0000   1.0000
     1.0000   1.0000   1.0000   1.0000   1.0000

          k = 0.1250 0.0722-0.3459 (  3804 PWs)   bands (ev):

  -115.7887 -70.1655 -70.1371 -70.1369 -65.1025 -32.1102 -32.0686 -32.0656
   -10.0830  -9.3510   1.4939   1.6265   1.8997   2.6205   2.7704   3.9250
     5.2096   5.7764   5.8162   6.7010   6.7422

     occupation numbers 
     1.0000   1.0000   1.0000   1.0000   1.0000   1.0000   1.0000   1.0000
     1.0000   1.0000   1.0000   1.0000   1.0000   1.0000   1.0000   1.0000
     1.0000   1.0000   1.0000   1.0000   1.0000

          k = 0.1250 0.0722-0.2595 (  3791 PWs)   bands (ev):

  -115.7887 -70.1655 -70.1371 -70.1369 -65.1025 -32.1101 -32.0686 -32.0656
   -10.1190  -9.3131   1.4969   1.6261   1.9463   2.6364   2.7772   3.8371
     5.2472   5.7525   5.8134   6.7150   6.7833

     occupation numbers 
     1.0000   1.0000   1.0000   1.0000   1.0000   1.0000   1.0000   1.0000
     1.0000   1.0000   1.0000   1.0000   1.0000   1.0000   1.0000   1.0000
     1.0000   1.0000   1.0000   1.0000   1.0000

          k = 0.1250 0.0722-0.1730 (  3788 PWs)   bands (ev):

  -115.7887 -70.1655 -70.1371 -70.1369 -65.1025 -32.1100 -32.0686 -32.0656
   -10.1944  -9.2336   1.5045   1.6262   2.0789   2.6798   2.7927   3.5945
     5.3228   5.6857   5.8850   6.7599   6.8296

     occupation numbers 
     1.0000   1.0000   1.0000   1.0000   1.0000   1.0000   1.0000   1.0000
     1.0000   1.0000   1.0000   1.0000   1.0000   1.0000   1.0000   1.0000
     1.0000   1.0000   1.0000   1.0000   1.0000

          k = 0.1250 0.0722-0.0865 (  3786 PWs)   bands (ev):

  -115.7887 -70.1655 -70.1371 -70.1369 -65.1025 -32.1099 -32.0686 -32.0656
   -10.2587  -9.1650   1.5106   1.6268   2.2634   2.7442   2.8083   3.2901
     5.3151   5.6191   6.1141   6.8051   6.8101

     occupation numbers 
     1.0000   1.0000   1.0000   1.0000   1.0000   1.0000   1.0000   1.0000
     1.0000   1.0000   1.0000   1.0000   1.0000   1.0000   1.0000   1.0000
     1.0000   1.0000   1.0000   1.0000   1.0000

          k = 0.1250 0.2165-0.0000 (  3785 PWs)   bands (ev):

  -115.7887 -70.1654 -70.1375 -70.1371 -65.1022 -32.1092 -32.0747 -32.0675
   -10.1416  -9.0938   1.4884   1.7610   2.3197   2.7994   2.8364   3.4060
     4.8210   5.2483   5.6955   6.4540   6.6138

     occupation numbers 
     1.0000   1.0000   1.0000   1.0000   1.0000   1.0000   1.0000   1.0000
     1.0000   1.0000   1.0000   1.0000   1.0000   1.0000   1.0000   1.0000
     1.0000   1.0000   1.0000   1.0000   1.0000

          k = 0.1250 0.2165 0.0865 (  3807 PWs)   bands (ev):

  -115.7887 -70.1655 -70.1375 -70.1371 -65.1022 -32.1093 -32.0747 -32.0675
   -10.1210  -9.1139   1.4845   1.7598   2.2545   2.7217   2.7928   3.5665
     4.8549   5.2854   5.6258   6.4459   6.6569

     occupation numbers 
     1.0000   1.0000   1.0000   1.0000   1.0000   1.0000   1.0000   1.0000
     1.0000   1.0000   1.0000   1.0000   1.0000   1.0000   1.0000   1.0000
     1.0000   1.0000   1.0000   1.0000   1.0000

          k = 0.1250 0.2165 0.1730 (  3799 PWs)   bands (ev):

  -115.7887 -70.1655 -70.1375 -70.1371 -65.1022 -32.1094 -32.0747 -32.0675
   -10.0670  -9.1666   1.4727   1.7566   2.1080   2.5736   2.7755   3.8193
     4.8717   5.4029   5.5668   6.3882   6.7194

     occupation numbers 
     1.0000   1.0000   1.0000   1.0000   1.0000   1.0000   1.0000   1.0000
     1.0000   1.0000   1.0000   1.0000   1.0000   1.0000   1.0000   1.0000
     1.0000   1.0000   1.0000   1.0000   1.0000

          k = 0.1250 0.2165 0.2595 (  3799 PWs)   bands (ev):

  -115.7887 -70.1655 -70.1375 -70.1371 -65.1022 -32.1095 -32.0747 -32.0675
   -10.0056  -9.2269   1.4567   1.7528   1.9857   2.4782   2.7588   4.0115
     4.7875   5.5402   5.6617   6.3088   6.7102

     occupation numbers 
     1.0000   1.0000   1.0000   1.0000   1.0000   1.0000   1.0000   1.0000
     1.0000   1.0000   1.0000   1.0000   1.0000   1.0000   1.0000   1.0000
     1.0000   1.0000   1.0000   1.0000   1.0000

          k = 0.1250 0.2165-0.3459 (  3806 PWs)   bands (ev):

  -115.7887 -70.1655 -70.1375 -70.1371 -65.1022 -32.1095 -32.0747 -32.0675
    -9.9770  -9.2550   1.4484   1.7509   1.9424   2.4444   2.7521   4.0887
     4.7287   5.5897   5.7526   6.2701   6.6809

     occupation numbers 
     1.0000   1.0000   1.0000   1.0000   1.0000   1.0000   1.0000   1.0000
     1.0000   1.0000   1.0000   1.0000   1.0000   1.0000   1.0000   1.0000
     1.0000   1.0000   1.0000   1.0000   1.0000

          k = 0.1250 0.2165-0.2595 (  3799 PWs)   bands (ev):

  -115.7887 -70.1655 -70.1375 -70.1371 -65.1022 -32.1095 -32.0747 -32.0675
   -10.0056  -9.2269   1.4567   1.7528   1.9857   2.4782   2.7588   4.0115
     4.7875   5.5402   5.6617   6.3088   6.7102

     occupation numbers 
     1.0000   1.0000   1.0000   1.0000   1.0000   1.0000   1.0000   1.0000
     1.0000   1.0000   1.0000   1.0000   1.0000   1.0000   1.0000   1.0000
     1.0000   1.0000   1.0000   1.0000   1.0000

          k = 0.1250 0.2165-0.1730 (  3799 PWs)   bands (ev):

  -115.7887 -70.1655 -70.1375 -70.1371 -65.1022 -32.1094 -32.0747 -32.0675
   -10.0670  -9.1666   1.4727   1.7566   2.1080   2.5736   2.7755   3.8193
     4.8717   5.4029   5.5668   6.3882   6.7194

     occupation numbers 
     1.0000   1.0000   1.0000   1.0000   1.0000   1.0000   1.0000   1.0000
     1.0000   1.0000   1.0000   1.0000   1.0000   1.0000   1.0000   1.0000
     1.0000   1.0000   1.0000   1.0000   1.0000

          k = 0.1250 0.2165-0.0865 (  3807 PWs)   bands (ev):

  -115.7887 -70.1655 -70.1375 -70.1371 -65.1022 -32.1093 -32.0747 -32.0675
   -10.1210  -9.1139   1.4845   1.7598   2.2545   2.7217   2.7928   3.5665
     4.8549   5.2854   5.6258   6.4459   6.6569

     occupation numbers 
     1.0000   1.0000   1.0000   1.0000   1.0000   1.0000   1.0000   1.0000
     1.0000   1.0000   1.0000   1.0000   1.0000   1.0000   1.0000   1.0000
     1.0000   1.0000   1.0000   1.0000   1.0000

          k = 0.1250 0.3608-0.0000 (  3807 PWs)   bands (ev):

  -115.7887 -70.1654 -70.1380 -70.1373 -65.1017 -32.1083 -32.0831 -32.0703
    -9.9263  -9.0387   1.5342   1.9666   2.2951   2.7889   2.8600   3.8496
     4.2001   4.6408   5.1573   6.0569   6.2915

     occupation numbers 
     1.0000   1.0000   1.0000   1.0000   1.0000   1.0000   1.0000   1.0000
     1.0000   1.0000   1.0000   1.0000   1.0000   1.0000   1.0000   1.0000
     1.0000   1.0000   1.0000   1.0000   1.0000

          k = 0.1250 0.3608 0.0865 (  3803 PWs)   bands (ev):

  -115.7887 -70.1654 -70.1380 -70.1373 -65.1017 -32.1083 -32.0831 -32.0703
    -9.9125  -9.0486   1.5327   1.9547   2.2439   2.7382   2.7835   3.8987
     4.2308   4.7367   5.1412   6.0453   6.3910

     occupation numbers 
     1.0000   1.0000   1.0000   1.0000   1.0000   1.0000   1.0000   1.0000
     1.0000   1.0000   1.0000   1.0000   1.0000   1.0000   1.0000   1.0000
     1.0000   1.0000   1.0000   1.0000   1.0000

          k = 0.1250 0.3608 0.1730 (  3806 PWs)   bands (ev):

  -115.7887 -70.1654 -70.1380 -70.1373 -65.1017 -32.1084 -32.0831 -32.0703
    -9.8776  -9.0742   1.5180   1.9241   2.1518   2.5248   2.7657   3.8860
     4.2669   5.0289   5.2301   5.9438   6.5805

     occupation numbers 
     1.0000   1.0000   1.0000   1.0000   1.0000   1.0000   1.0000   1.0000
     1.0000   1.0000   1.0000   1.0000   1.0000   1.0000   1.0000   1.0000
     1.0000   1.0000   1.0000   1.0000   1.0000

          k = 0.1250 0.3608 0.2595 (  3812 PWs)   bands (ev):

  -115.7887 -70.1654 -70.1380 -70.1373 -65.1017 -32.1085 -32.0831 -32.0703
    -9.8399  -9.1027   1.4941   1.8839   2.0835   2.3629   2.7487   3.8837
     4.2565   5.2166   5.4694   5.8374   6.6984

     occupation numbers 
     1.0000   1.0000   1.0000   1.0000   1.0000   1.0000   1.0000   1.0000
     1.0000   1.0000   1.0000   1.0000   1.0000   1.0000   1.0000   1.0000
     1.0000   1.0000   1.0000   1.0000   1.0000

          k = 0.1250 0.3608-0.3459 (  3812 PWs)   bands (ev):

  -115.7887 -70.1654 -70.1380 -70.1373 -65.1017 -32.1086 -32.0831 -32.0703
    -9.8232  -9.1156   1.4816   1.8670   2.0611   2.3056   2.7414   3.8458
     4.2937   5.3185   5.5053   5.8484   6.7073

     occupation numbers 
     1.0000   1.0000   1.0000   1.0000   1.0000   1.0000   1.0000   1.0000
     1.0000   1.0000   1.0000   1.0000   1.0000   1.0000   1.0000   1.0000
     1.0000   1.0000   1.0000   1.0000   1.0000

          k = 0.1250 0.3608-0.2595 (  3812 PWs)   bands (ev):

  -115.7887 -70.1654 -70.1380 -70.1373 -65.1017 -32.1085 -32.0831 -32.0703
    -9.8398  -9.1029   1.4918   1.8938   2.0898   2.3563   2.7475   3.7819
     4.3719   5.2103   5.4950   5.8350   6.6511

     occupation numbers 
     1.0000   1.0000   1.0000   1.0000   1.0000   1.0000   1.0000   1.0000
     1.0000   1.0000   1.0000   1.0000   1.0000   1.0000   1.0000   1.0000
     1.0000   1.0000   1.0000   1.0000   1.0000

          k = 0.1250 0.3608-0.1730 (  3806 PWs)   bands (ev):

  -115.7887 -70.1654 -70.1380 -70.1373 -65.1017 -32.1084 -32.0831 -32.0703
    -9.8775  -9.0744   1.5108   1.9371   2.1711   2.5172   2.7642   3.7245
     4.4304   5.0694   5.2341   5.9266   6.5214

     occupation numbers 
     1.0000   1.0000   1.0000   1.0000   1.0000   1.0000   1.0000   1.0000
     1.0000   1.0000   1.0000   1.0000   1.0000   1.0000   1.0000   1.0000
     1.0000   1.0000   1.0000   1.0000   1.0000

          k = 0.1250 0.3608-0.0865 (  3803 PWs)   bands (ev):

  -115.7887 -70.1654 -70.1380 -70.1373 -65.1017 -32.1083 -32.0831 -32.0703
    -9.9124  -9.0487   1.5261   1.9616   2.2622   2.7434   2.7842   3.7232
     4.3780   4.7900   5.1450   6.0147   6.3596

     occupation numbers 
     1.0000   1.0000   1.0000   1.0000   1.0000   1.0000   1.0000   1.0000
     1.0000   1.0000   1.0000   1.0000   1.0000   1.0000   1.0000   1.0000
     1.0000   1.0000   1.0000   1.0000   1.0000

          k = 0.1250 0.5052 0.0000 (  3810 PWs)   bands (ev):

  -115.7887 -70.1654 -70.1383 -70.1374 -65.1013 -32.1076 -32.0890 -32.0724
    -9.7585  -9.0103   1.6524   2.1490   2.3095   2.8141   2.8415   3.5080
     4.2043   4.5121   4.7582   5.8234   5.9356

     occupation numbers 
     1.0000   1.0000   1.0000   1.0000   1.0000   1.0000   1.0000   1.0000
     1.0000   1.0000   1.0000   1.0000   1.0000   1.0000   1.0000   1.0000
     1.0000   1.0000   1.0000   1.0000   1.0000

          k = 0.1250 0.5052 0.0865 (  3818 PWs)   bands (ev):

  -115.7887 -70.1654 -70.1383 -70.1374 -65.1013 -32.1077 -32.0890 -32.0724
    -9.7518  -9.0107   1.6504   2.1202   2.2741   2.7698   2.8128   3.3969
     4.1833   4.5716   4.9284   5.8301   6.0447

     occupation numbers 
     1.0000   1.0000   1.0000   1.0000   1.0000   1.0000   1.0000   1.0000
     1.0000   1.0000   1.0000   1.0000   1.0000   1.0000   1.0000   1.0000
     1.0000   1.0000   1.0000   1.0000   1.0000

          k = 0.1250 0.5052 0.1730 (  3814 PWs)   bands (ev):

  -115.7887 -70.1654 -70.1383 -70.1374 -65.1013 -32.1077 -32.0890 -32.0724
    -9.7354  -9.0120   1.6254   2.0592   2.2293   2.5696   2.8021   3.2422
     4.1656   4.6933   5.2782   5.7367   6.3582

     occupation numbers 
[...]
    -9.7353  -9.0121   1.6055   2.1036   2.2395   2.5629   2.8083   3.1689
     4.1777   4.7303   5.3230   5.7264   6.3046

     occupation numbers 
     1.0000   1.0000   1.0000   1.0000   1.0000   1.0000   1.0000   1.0000
     1.0000   1.0000   1.0000   1.0000   1.0000   1.0000   1.0000   1.0000
     1.0000   1.0000   1.0000   1.0000   1.0000

          k =-0.5000-0.1443-0.0865 (  3818 PWs)   bands (ev):

  -115.7887 -70.1654 -70.1383 -70.1374 -65.1013 -32.1077 -32.0890 -32.0724
    -9.7517  -9.0108   1.6356   2.1421   2.2889   2.7768   2.8281   3.3087
     4.1555   4.6794   4.9442   5.7922   6.0254

     occupation numbers 
     1.0000   1.0000   1.0000   1.0000   1.0000   1.0000   1.0000   1.0000
     1.0000   1.0000   1.0000   1.0000   1.0000   1.0000   1.0000   1.0000
     1.0000   1.0000   1.0000   1.0000   1.0000

          k =-0.5000 0.0000 0.0000 (  3799 PWs)   bands (ev):

  -115.7887 -70.1654 -70.1382 -70.1376 -65.1013 -32.1076 -32.0867 -32.0748
    -9.7616  -9.0088   1.7741   2.0735   2.3180   2.7996   2.8699   3.7920
     3.8909   4.5405   4.7801   5.5997   5.9208

     occupation numbers 
     1.0000   1.0000   1.0000   1.0000   1.0000   1.0000   1.0000   1.0000
     1.0000   1.0000   1.0000   1.0000   1.0000   1.0000   1.0000   1.0000
     1.0000   1.0000   1.0000   1.0000   1.0000

          k =-0.5000 0.0000 0.0865 (  3816 PWs)   bands (ev):

  -115.7887 -70.1654 -70.1382 -70.1376 -65.1013 -32.1077 -32.0867 -32.0748
    -9.7547  -9.0096   1.7735   2.0459   2.2933   2.7607   2.8278   3.6230
     3.8781   4.6851   4.9334   5.5624   6.0442

     occupation numbers 
     1.0000   1.0000   1.0000   1.0000   1.0000   1.0000   1.0000   1.0000
     1.0000   1.0000   1.0000   1.0000   1.0000   1.0000   1.0000   1.0000
     1.0000   1.0000   1.0000   1.0000   1.0000

          k =-0.5000 0.0000 0.1730 (  3816 PWs)   bands (ev):

  -115.7887 -70.1654 -70.1382 -70.1376 -65.1013 -32.1078 -32.0866 -32.0748
    -9.7376  -9.0118   1.7703   1.9728   2.2458   2.5578   2.7988   3.4496
     3.9777   4.6434   5.3025   5.5321   6.3473

     occupation numbers 
     1.0000   1.0000   1.0000   1.0000   1.0000   1.0000   1.0000   1.0000
     1.0000   1.0000   1.0000   1.0000   1.0000   1.0000   1.0000   1.0000
     1.0000   1.0000   1.0000   1.0000   1.0000

          k =-0.5000 0.0000 0.2595 (  3815 PWs)   bands (ev):

  -115.7887 -70.1654 -70.1382 -70.1376 -65.1013 -32.1078 -32.0866 -32.0748
    -9.7202  -9.0143   1.7630   1.8940   2.2068   2.3495   2.7852   3.4013
     4.0895   4.6378   5.1969   5.8006   6.6529

     occupation numbers 
     1.0000   1.0000   1.0000   1.0000   1.0000   1.0000   1.0000   1.0000
     1.0000   1.0000   1.0000   1.0000   1.0000   1.0000   1.0000   1.0000
     1.0000   1.0000   1.0000   1.0000   1.0000

          k =-0.5000 0.0000-0.3459 (  3810 PWs)   bands (ev):

  -115.7887 -70.1654 -70.1382 -70.1376 -65.1013 -32.1079 -32.0866 -32.0748
    -9.7128  -9.0154   1.7577   1.8603   2.1878   2.2764   2.7805   3.3929
     4.1363   4.6639   5.1017   5.9163   6.7802

     occupation numbers 
     1.0000   1.0000   1.0000   1.0000   1.0000   1.0000   1.0000   1.0000
     1.0000   1.0000   1.0000   1.0000   1.0000   1.0000   1.0000   1.0000
     1.0000   1.0000   1.0000   1.0000   1.0000

          k =-0.5000 0.0000-0.2595 (  3815 PWs)   bands (ev):

  -115.7887 -70.1654 -70.1382 -70.1376 -65.1013 -32.1078 -32.0866 -32.0748
    -9.7202  -9.0143   1.7630   1.8940   2.2068   2.3495   2.7852   3.4013
     4.0895   4.6378   5.1969   5.8006   6.6529

     occupation numbers 
     1.0000   1.0000   1.0000   1.0000   1.0000   1.0000   1.0000   1.0000
     1.0000   1.0000   1.0000   1.0000   1.0000   1.0000   1.0000   1.0000
     1.0000   1.0000   1.0000   1.0000   1.0000

          k =-0.5000 0.0000-0.1730 (  3816 PWs)   bands (ev):

  -115.7887 -70.1654 -70.1382 -70.1376 -65.1013 -32.1078 -32.0866 -32.0748
    -9.7376  -9.0118   1.7703   1.9728   2.2458   2.5578   2.7988   3.4496
     3.9777   4.6434   5.3025   5.5321   6.3473

     occupation numbers 
     1.0000   1.0000   1.0000   1.0000   1.0000   1.0000   1.0000   1.0000
     1.0000   1.0000   1.0000   1.0000   1.0000   1.0000   1.0000   1.0000
     1.0000   1.0000   1.0000   1.0000   1.0000

          k =-0.5000 0.0000-0.0865 (  3816 PWs)   bands (ev):

  -115.7887 -70.1654 -70.1382 -70.1376 -65.1013 -32.1077 -32.0867 -32.0748
    -9.7547  -9.0096   1.7735   2.0459   2.2933   2.7607   2.8278   3.6230
     3.8781   4.6851   4.9334   5.5624   6.0442

     occupation numbers 
     1.0000   1.0000   1.0000   1.0000   1.0000   1.0000   1.0000   1.0000
     1.0000   1.0000   1.0000   1.0000   1.0000   1.0000   1.0000   1.0000
     1.0000   1.0000   1.0000   1.0000   1.0000

          k =-0.5000 0.1443 0.0000 (  3810 PWs)   bands (ev):

  -115.7887 -70.1654 -70.1383 -70.1374 -65.1013 -32.1076 -32.0890 -32.0724
    -9.7585  -9.0103   1.6524   2.1490   2.3095   2.8141   2.8415   3.5080
     4.2043   4.5121   4.7582   5.8234   5.9356

     occupation numbers 
     1.0000   1.0000   1.0000   1.0000   1.0000   1.0000   1.0000   1.0000
     1.0000   1.0000   1.0000   1.0000   1.0000   1.0000   1.0000   1.0000
     1.0000   1.0000   1.0000   1.0000   1.0000

          k =-0.5000 0.1443 0.0865 (  3818 PWs)   bands (ev):

  -115.7887 -70.1654 -70.1383 -70.1374 -65.1013 -32.1077 -32.0890 -32.0724
    -9.7517  -9.0108   1.6356   2.1421   2.2889   2.7768   2.8281   3.3087
     4.1555   4.6794   4.9442   5.7922   6.0254

     occupation numbers 
     1.0000   1.0000   1.0000   1.0000   1.0000   1.0000   1.0000   1.0000
     1.0000   1.0000   1.0000   1.0000   1.0000   1.0000   1.0000   1.0000
     1.0000   1.0000   1.0000   1.0000   1.0000

          k =-0.5000 0.1443 0.1730 (  3814 PWs)   bands (ev):

  -115.7887 -70.1654 -70.1383 -70.1374 -65.1013 -32.1077 -32.0890 -32.0724
    -9.7353  -9.0121   1.6055   2.1036   2.2395   2.5629   2.8083   3.1689
     4.1777   4.7303   5.3230   5.7264   6.3046

     occupation numbers 
     1.0000   1.0000   1.0000   1.0000   1.0000   1.0000   1.0000   1.0000
     1.0000   1.0000   1.0000   1.0000   1.0000   1.0000   1.0000   1.0000
     1.0000   1.0000   1.0000   1.0000   1.0000

          k =-0.5000 0.1443 0.2595 (  3820 PWs)   bands (ev):

  -115.7887 -70.1654 -70.1383 -70.1374 -65.1013 -32.1078 -32.0890 -32.0724
    -9.7185  -9.0137   1.5745   2.0471   2.2023   2.3367   2.7952   3.1530
     4.1899   4.8454   5.3890   5.7910   6.6062

     occupation numbers 
     1.0000   1.0000   1.0000   1.0000   1.0000   1.0000   1.0000   1.0000
     1.0000   1.0000   1.0000   1.0000   1.0000   1.0000   1.0000   1.0000
     1.0000   1.0000   1.0000   1.0000   1.0000

          k =-0.5000 0.1443-0.3459 (  3816 PWs)   bands (ev):

  -115.7887 -70.1654 -70.1383 -70.1374 -65.1013 -32.1079 -32.0890 -32.0724
    -9.7115  -9.0144   1.5639   2.0046   2.1838   2.2694   2.7896   3.1641
     4.1842   4.9335   5.3101   5.8628   6.7429

     occupation numbers 
     1.0000   1.0000   1.0000   1.0000   1.0000   1.0000   1.0000   1.0000
     1.0000   1.0000   1.0000   1.0000   1.0000   1.0000   1.0000   1.0000
     1.0000   1.0000   1.0000   1.0000   1.0000

          k =-0.5000 0.1443-0.2595 (  3820 PWs)   bands (ev):

  -115.7887 -70.1654 -70.1383 -70.1374 -65.1013 -32.1078 -32.0890 -32.0724
    -9.7186  -9.0136   1.5864   2.0094   2.1998   2.3550   2.7926   3.1860
     4.1736   4.8357   5.3831   5.7722   6.6442

     occupation numbers 
     1.0000   1.0000   1.0000   1.0000   1.0000   1.0000   1.0000   1.0000
     1.0000   1.0000   1.0000   1.0000   1.0000   1.0000   1.0000   1.0000
     1.0000   1.0000   1.0000   1.0000   1.0000

          k =-0.5000 0.1443-0.1730 (  3814 PWs)   bands (ev):

  -115.7887 -70.1654 -70.1383 -70.1374 -65.1013 -32.1077 -32.0890 -32.0724
    -9.7354  -9.0120   1.6254   2.0592   2.2293   2.5697   2.8021   3.2422
     4.1656   4.6933   5.2782   5.7367   6.3582

     occupation numbers 
     1.0000   1.0000   1.0000   1.0000   1.0000   1.0000   1.0000   1.0000
     1.0000   1.0000   1.0000   1.0000   1.0000   1.0000   1.0000   1.0000
     1.0000   1.0000   1.0000   1.0000   1.0000

          k =-0.5000 0.1443-0.0865 (  3818 PWs)   bands (ev):

  -115.7887 -70.1654 -70.1383 -70.1374 -65.1013 -32.1077 -32.0890 -32.0724
    -9.7518  -9.0107   1.6504   2.1202   2.2741   2.7698   2.8128   3.3969
     4.1833   4.5716   4.9284   5.8301   6.0447

     occupation numbers 
     1.0000   1.0000   1.0000   1.0000   1.0000   1.0000   1.0000   1.0000
     1.0000   1.0000   1.0000   1.0000   1.0000   1.0000   1.0000   1.0000
     1.0000   1.0000   1.0000   1.0000   1.0000

          k =-0.5000-0.8660 0.0000 (  3804 PWs)   bands (ev):

  -115.7887 -70.1654 -70.1385 -70.1373 -65.1013 -32.1076 -32.0909 -32.0706
    -9.7552  -9.0119   1.5618   2.1953   2.2893   2.8216   2.8364   3.4175
     4.1777   4.5432   4.8695   5.8641   6.0886

     occupation numbers 
     1.0000   1.0000   1.0000   1.0000   1.0000   1.0000   1.0000   1.0000
     1.0000   1.0000   1.0000   1.0000   1.0000   1.0000   1.0000   1.0000
     1.0000   1.0000   1.0000   1.0000   1.0000

          k =-0.5000-0.8660 0.0865 (  3812 PWs)   bands (ev):

  -115.7887 -70.1654 -70.1385 -70.1373 -65.1013 -32.1076 -32.0909 -32.0706
    -9.7488  -9.0120   1.5488   2.1924   2.2475   2.7796   2.8311   3.2399
     4.1610   4.7801   4.9106   5.9978   6.0511

     occupation numbers 
     1.0000   1.0000   1.0000   1.0000   1.0000   1.0000   1.0000   1.0000
     1.0000   1.0000   1.0000   1.0000   1.0000   1.0000   1.0000   1.0000
     1.0000   1.0000   1.0000   1.0000   1.0000

          k =-0.5000-0.8660 0.1730 (  3798 PWs)   bands (ev):

  -115.7887 -70.1654 -70.1384 -70.1373 -65.1013 -32.1077 -32.0908 -32.0706
    -9.7330  -9.0123   1.5137   2.1632   2.1853   2.5776   2.8190   3.0732
     4.1514   5.0217   5.1618   5.9481   6.3055

     occupation numbers 
     1.0000   1.0000   1.0000   1.0000   1.0000   1.0000   1.0000   1.0000
     1.0000   1.0000   1.0000   1.0000   1.0000   1.0000   1.0000   1.0000
     1.0000   1.0000   1.0000   1.0000   1.0000

          k =-0.5000-0.8660 0.2595 (  3810 PWs)   bands (ev):

  -115.7887 -70.1654 -70.1385 -70.1373 -65.1013 -32.1078 -32.0908 -32.0706
    -9.7169  -9.0130   1.4739   2.0953   2.1782   2.3397   2.8076   3.0379
     4.1469   5.1635   5.4588   5.8138   6.5833

     occupation numbers 
     1.0000   1.0000   1.0000   1.0000   1.0000   1.0000   1.0000   1.0000
     1.0000   1.0000   1.0000   1.0000   1.0000   1.0000   1.0000   1.0000
     1.0000   1.0000   1.0000   1.0000   1.0000

          k =-0.5000-0.8660-0.3459 (  3800 PWs)   bands (ev):

  -115.7887 -70.1654 -70.1385 -70.1373 -65.1013 -32.1079 -32.0908 -32.0706
    -9.7101  -9.0133   1.4563   2.0691   2.1752   2.2486   2.8031   3.0328
     4.1453   5.2429   5.5731   5.7373   6.6873

     occupation numbers 
     1.0000   1.0000   1.0000   1.0000   1.0000   1.0000   1.0000   1.0000
     1.0000   1.0000   1.0000   1.0000   1.0000   1.0000   1.0000   1.0000
     1.0000   1.0000   1.0000   1.0000   1.0000

     highest occupied level (ev):     6.9867

!    total energy              =    -651.12730890 Ry
     Harris-Foulkes estimate   =    -651.12730833 Ry
     estimated scf accuracy    <       0.00000096 Ry

     The total energy is the sum of the following terms:

     one-electron contribution =    -532.98777692 Ry
     hartree contribution      =     279.96574003 Ry
     xc contribution           =     -73.07406611 Ry
     ewald contribution        =    -325.03120590 Ry

     convergence has been achieved in   7 iterations

     Forces acting on atoms (cartesian axes, Ry/au):

     atom    1 type  3   force =     0.00000128    0.00000072   -0.00315018
     atom    2 type  3   force =     0.00000098   -0.00000112   -0.01009514
     atom    3 type  2   force =    -0.00000310    0.00000154    0.01664611
     atom    4 type  1   force =     0.00000084   -0.00000114   -0.00340078
     The non-local contrib.  to forces
     atom    1 type  3   force =    -0.00000083   -0.00000112   -0.16330045
     atom    2 type  3   force =    -0.00000009    0.00000075    0.00589380
     atom    3 type  2   force =     0.00000081   -0.00000310   -0.24966713
     atom    4 type  1   force =    -0.00000054   -0.00000134   -0.07571699
     The ionic contribution  to forces
     atom    1 type  3   force =     0.00000323    0.00002640    5.08588105
     atom    2 type  3   force =    -0.00000312    0.00001235   -3.29646768
     atom    3 type  2   force =     0.00000214   -0.00002280   -0.74667585
     atom    4 type  1   force =    -0.00000225   -0.00001596   -1.04273753
     The local contribution  to forces
     atom    1 type  3   force =    -0.00000221   -0.00002455   -4.92748266
     atom    2 type  3   force =     0.00000304   -0.00001416    3.28167492
     atom    3 type  2   force =    -0.00000223    0.00002799    1.01178349
     atom    4 type  1   force =     0.00000302    0.00001579    1.11545156
     The core correction contribution to forces
     atom    1 type  3   force =     0.00000001   -0.00000000    0.00137851
     atom    2 type  3   force =     0.00000000   -0.00000002   -0.00059670
     atom    3 type  2   force =     0.00000000    0.00000000    0.00000000
     atom    4 type  1   force =     0.00000000    0.00000000    0.00000000
     The Hubbard contrib.    to forces
     atom    1 type  3   force =     0.00000000    0.00000000    0.00000000
     atom    2 type  3   force =     0.00000000    0.00000000    0.00000000
     atom    3 type  2   force =     0.00000000    0.00000000    0.00000000
     atom    4 type  1   force =     0.00000000    0.00000000    0.00000000
     The SCF correction term to forces
     atom    1 type  3   force =     0.00000000    0.00000000    0.00000000
     atom    2 type  3   force =     0.00000000    0.00000000    0.00000000
     atom    3 type  2   force =     0.00000000    0.00000000    0.00000000
     atom    4 type  1   force =     0.00000000    0.00000000    0.00000000

     Total force =     0.000000     Total SCF correction =     0.000000


     Computing stress (Cartesian axis) and pressure

          total   stress  (Ry/bohr**3)                   (kbar)     P=   -1.57
  -0.00000871   0.00000000  -0.00000001         -1.28      0.00     -0.00
   0.00000000  -0.00000870   0.00000000          0.00     -1.28      0.00
  -0.00000001   0.00000000  -0.00001456         -0.00      0.00     -2.14

     kinetic stress (kbar)  26743.44     -0.00     -0.00
                               -0.00  26743.44      0.00
                               -0.00      0.00  26909.00

     local   stress (kbar) -16461.05     -0.01     -0.05
                               -0.01 -16461.05      0.04
                               -0.05      0.04    722.77

     nonloc. stress (kbar)   1811.82     -0.00      0.00
                               -0.00   1811.82     -0.00
                                0.00     -0.00   1738.41

     hartree stress (kbar)  46173.71      0.00      0.02
                                0.00  46173.72     -0.01
                                0.02     -0.01  38363.06

     exc-cor stress (kbar) -10587.50      0.00      0.00
                                0.00 -10587.50     -0.00
                                0.00     -0.00 -10591.04

     corecor stress (kbar)   -252.26     -0.00      0.00
                               -0.00   -252.26      0.00
                                0.00      0.00   -252.56

     ewald   stress (kbar) -47429.44      0.01      0.03
                                0.01 -47429.44     -0.02
                                0.03     -0.02 -56891.79

     hubbard stress (kbar)      0.00      0.00      0.00
                                0.00      0.00      0.00
                                0.00      0.00      0.00

     london  stress (kbar)      0.00      0.00      0.00
                                0.00      0.00      0.00
                                0.00      0.00      0.00

     DFT-D3  stress (kbar)      0.00      0.00      0.00
                                0.00      0.00      0.00
                                0.00      0.00      0.00

     XDM     stress (kbar)      0.00      0.00      0.00
                                0.00      0.00      0.00
                                0.00      0.00      0.00

     dft-nl  stress (kbar)      0.00      0.00      0.00
                                0.00      0.00      0.00
                                0.00      0.00      0.00

     TS-vdW  stress (kbar)      0.00      0.00      0.00
                                0.00      0.00      0.00
                                0.00      0.00      0.00



     Writing output data file ZnO.save/
 
     init_run     :      0.55s CPU      1.64s WALL (       1 calls)
     electrons    :      6.80s CPU      8.01s WALL (       1 calls)
     forces       :      0.17s CPU      0.28s WALL (       1 calls)
     stress       :      1.45s CPU      1.53s WALL (       1 calls)

     Called by init_run:
     wfcinit      :      0.36s CPU      1.03s WALL (       1 calls)
     wfcinit:atom :      0.00s CPU      0.01s WALL (      65 calls)
     wfcinit:wfcr :      0.34s CPU      0.99s WALL (      65 calls)
     potinit      :      0.07s CPU      0.11s WALL (       1 calls)
     hinit0       :      0.10s CPU      0.31s WALL (       1 calls)

     Called by electrons:
     c_bands      :      5.81s CPU      6.70s WALL (       7 calls)
     sum_band     :      0.72s CPU      0.88s WALL (       7 calls)
     v_of_rho     :      0.22s CPU      0.24s WALL (       8 calls)
     v_h          :      0.00s CPU      0.00s WALL (       8 calls)
     v_xc         :      0.27s CPU      0.30s WALL (      10 calls)
     newd         :      0.06s CPU      0.10s WALL (       8 calls)
     mix_rho      :      0.01s CPU      0.12s WALL (       7 calls)

     Called by c_bands:
     init_us_2    :      0.13s CPU      0.16s WALL (    1105 calls)
     cegterg      :      5.40s CPU      6.14s WALL (     455 calls)

     Called by sum_band:
     sum_band:bec :      0.01s CPU      0.01s WALL (     455 calls)
     addusdens    :      0.05s CPU      0.06s WALL (       7 calls)

     Called by *egterg:
     h_psi        :      3.28s CPU      3.44s WALL (    1637 calls)
     s_psi        :      0.11s CPU      0.12s WALL (    1637 calls)
     g_psi        :      0.01s CPU      0.01s WALL (    1117 calls)
     cdiaghg      :      1.50s CPU      2.63s WALL (    1572 calls)
     cegterg:over :      0.40s CPU      0.46s WALL (    1117 calls)
     cegterg:upda :      0.18s CPU      0.19s WALL (    1117 calls)
     cegterg:last :      0.10s CPU      0.10s WALL (     455 calls)
     cdiaghg:chol :      0.12s CPU      0.42s WALL (    1572 calls)
     cdiaghg:inve :      0.03s CPU      0.06s WALL (    1572 calls)
     cdiaghg:para :      0.14s CPU      0.15s WALL (    3144 calls)

     Called by h_psi:
     h_psi:pot    :      3.27s CPU      3.43s WALL (    1637 calls)
     h_psi:calbec :      0.20s CPU      0.22s WALL (    1637 calls)
     vloc_psi     :      2.95s CPU      3.08s WALL (    1637 calls)
     add_vuspsi   :      0.12s CPU      0.12s WALL (    1637 calls)

     General routines
     calbec       :      0.37s CPU      0.40s WALL (    2417 calls)
     fft          :      0.04s CPU      0.12s WALL (     127 calls)
     ffts         :      0.00s CPU      0.01s WALL (      15 calls)
     fftw         :      3.30s CPU      3.43s WALL (   60559 calls)
     interpolate  :      0.00s CPU      0.01s WALL (       8 calls)
 
     Parallel routines
     fft_scatt_xy :      0.47s CPU      0.48s WALL (   60701 calls)
     fft_scatt_yz :      1.65s CPU      1.74s WALL (   60701 calls)
 
     PWSCF        :      9.25s CPU     13.50s WALL

 
   This run was terminated on:  23:27:45  15Jun2022            

=------------------------------------------------------------------------------=
   JOB DONE.
=------------------------------------------------------------------------------=
