
     Program PWSCF v.6.4.1 starts on 16Jun2022 at 15:14:12 

     This program is part of the open-source Quantum ESPRESSO suite
     for quantum simulation of materials; please cite
         "P. Giannozzi et al., J. Phys.:Condens. Matter 21 395502 (2009);
         "P. Giannozzi et al., J. Phys.:Condens. Matter 29 465901 (2017);
          URL http://www.quantum-espresso.org", 
     in publications or presentations arising from this work. More details at
     http://www.quantum-espresso.org/quote

     Parallel version (MPI), running on    64 processors

     MPI processes distributed on     1 nodes
     K-points division:     npool     =       4
     R & G space division:  proc/nbgrp/npool/nimage =      16
     Waiting for input...
     Reading input from standard input
Warning: card &IONS ignored
Warning: card   UPSCALE           = 100.D0, ignored
Warning: card / ignored
Warning: card &CELL ignored
Warning: card   CELL_DYNAMICS     = 'BFGS' ignored
Warning: card   PRESS_CONV_THR    = 0.5D0 ignored
Warning: card   CELL_DOFREE = 'ALL' ignored
Warning: card / ignored

     Current dimensions of program PWSCF are:
     Max number of different atomic species (ntypx) = 10
     Max number of k-points (npk) =  40000
     Max angular momentum in pseudopotentials (lmaxx) =  3

     Subspace diagonalization in iterative solution of the eigenvalue problem:
     one sub-group per band group will be used
     scalapack distributed-memory algorithm (size of sub-group:  2*  2 procs)

 
     Parallelization info
     --------------------
     sticks:   dense  smooth     PW     G-vecs:    dense   smooth      PW
     Min          94      50     15                 4950     1922     335
     Max          95      51     16                 4955     1927     342
     Sum        1507     805    253                79225    30777    5445
 


     bravais-lattice index     =            0
     lattice parameter (alat)  =       6.0287  a.u.
     unit-cell volume          =     318.3252 (a.u.)^3
     number of atoms/cell      =            4
     number of atomic types    =            2
     number of electrons       =        52.00
     number of Kohn-Sham states=           26
     kinetic-energy cutoff     =      80.0000  Ry
     charge density cutoff     =     600.0000  Ry
     convergence threshold     =      1.0E-06
     mixing beta               =       0.5000
     number of iterations used =            8  plain     mixing
     Exchange-correlation      = SLA  PW   PSX  PSC ( 1  4 10  8 0 0)
     Using LIBXC version       =    4   3   4

     celldm(1)=   6.028727  celldm(2)=   0.000000  celldm(3)=   0.000000
     celldm(4)=   0.000000  celldm(5)=   0.000000  celldm(6)=   0.000000

     crystal axes: (cart. coord. in units of alat)
               a(1) = (   1.000000  -0.000000  -0.000000 )  
               a(2) = (  -0.500000   0.866026  -0.000000 )  
               a(3) = (  -0.000000  -0.000000   1.677504 )  

     reciprocal axes: (cart. coord. in units 2 pi/alat)
               b(1) = (  1.000000  0.577350  0.000000 )  
               b(2) = (  0.000000  1.154701  0.000000 )  
               b(3) = (  0.000000  0.000000  0.596124 )  


     PseudoPot. # 1 for Zn read from file:
     ./GBRV_PBEsol/zn_pbesol_v1.uspp.F.UPF
     MD5 check sum: 7d8615e52efe7c1e2b1899de8658bae2
     Pseudo is Ultrasoft, Zval = 20.0
     Generated by new atomic code, or converted to UPF format
     Using radial grid of  943 points,  6 beta functions with: 
                l(1) =   0
                l(2) =   0
                l(3) =   1
                l(4) =   1
                l(5) =   2
                l(6) =   2
     Q(r) pseudized with  8 coefficients,  rinner =    1.100   1.100   1.100
                                                       1.100   1.100

     PseudoPot. # 2 for O  read from file:
     ./GBRV_PBEsol/o_pbesol_v1.2.uspp.F.UPF
     MD5 check sum: 501638753501ef6325af9037351f7734
     Pseudo is Ultrasoft + core correction, Zval =  6.0
     Generated by new atomic code, or converted to UPF format
     Using radial grid of  737 points,  5 beta functions with: 
                l(1) =   0
                l(2) =   0
                l(3) =   1
                l(4) =   1
                l(5) =   2
     Q(r) pseudized with  8 coefficients,  rinner =    0.900   0.900   0.900
                                                       0.900   0.900

     atomic species   valence    mass     pseudopotential
        Zn            20.00    65.38000     Zn( 1.00)
        O              6.00    15.99900     O ( 1.00)

     No symmetry found


                                    s                        frac. trans.

      isym =  1     identity                                     

 cryst.   s( 1) = (     1          0          0      )
                  (     0          1          0      )
                  (     0          0          1      )

 cart.    s( 1) = (  1.0000000 -0.0000000  0.0000000 )
                  (  0.0000000  1.0000000 -0.0000000 )
                  (  0.0000000 -0.0000000  1.0000000 )


   Cartesian axes

     site n.     atom                  positions (alat units)
         1           O   tau(   1) = (   0.5000002   0.2886754   0.0123227  )
         2           O   tau(   2) = (   0.0000001   0.5773494   0.8510745  )
         3           Zn  tau(   3) = (   0.4999999   0.2886746   1.0842617  )
         4           Zn  tau(   4) = (  -0.0000003   0.5773510   1.9230136  )

   Crystallographic axes

     site n.     atom                  positions (cryst. coord.)
         1           O   tau(   1) = (  0.6666670  0.3333337  0.0073459  )
         2           O   tau(   2) = (  0.3333329  0.6666657  0.5073458  )
         3           Zn  tau(   3) = (  0.6666664  0.3333329  0.6463542  )
         4           Zn  tau(   4) = (  0.3333337  0.6666677  1.1463542  )

     number of k points=   260
                       cart. coord. in units 2pi/alat
        k(    1) = (   0.0000000   0.0000000   0.0000000), wk =   0.0039062
        k(    2) = (   0.0000000   0.0000000   0.0745155), wk =   0.0078125
        k(    3) = (   0.0000000   0.0000000   0.1490309), wk =   0.0078125
        k(    4) = (   0.0000000   0.0000000   0.2235464), wk =   0.0078125
        k(    5) = (  -0.0000000  -0.0000000  -0.2980619), wk =   0.0039062
        k(    6) = (   0.0000000   0.1443376   0.0000000), wk =   0.0078125
        k(    7) = (   0.0000000   0.1443376   0.0745155), wk =   0.0078125
        k(    8) = (   0.0000000   0.1443376   0.1490310), wk =   0.0078125
        k(    9) = (   0.0000001   0.1443376   0.2235464), wk =   0.0078125
        k(   10) = (   0.0000000   0.1443375  -0.2980619), wk =   0.0078125
        k(   11) = (   0.0000000   0.1443375  -0.2235464), wk =   0.0078125
        k(   12) = (   0.0000000   0.1443376  -0.1490309), wk =   0.0078125
        k(   13) = (   0.0000000   0.1443376  -0.0745155), wk =   0.0078125
        k(   14) = (   0.0000001   0.2886751   0.0000000), wk =   0.0078125
        k(   15) = (   0.0000001   0.2886751   0.0745155), wk =   0.0078125
        k(   16) = (   0.0000001   0.2886751   0.1490310), wk =   0.0078125
        k(   17) = (   0.0000001   0.2886751   0.2235464), wk =   0.0078125
        k(   18) = (   0.0000000   0.2886751  -0.2980619), wk =   0.0078125
        k(   19) = (   0.0000000   0.2886751  -0.2235464), wk =   0.0078125
        k(   20) = (   0.0000000   0.2886751  -0.1490309), wk =   0.0078125
        k(   21) = (   0.0000001   0.2886751  -0.0745155), wk =   0.0078125
        k(   22) = (   0.0000001   0.4330127   0.0000000), wk =   0.0078125
        k(   23) = (   0.0000001   0.4330127   0.0745155), wk =   0.0078125
        k(   24) = (   0.0000001   0.4330127   0.1490310), wk =   0.0078125
        k(   25) = (   0.0000001   0.4330127   0.2235465), wk =   0.0078125
        k(   26) = (   0.0000001   0.4330127  -0.2980619), wk =   0.0078125
        k(   27) = (   0.0000001   0.4330127  -0.2235464), wk =   0.0078125
        k(   28) = (   0.0000001   0.4330127  -0.1490309), wk =   0.0078125
        k(   29) = (   0.0000001   0.4330127  -0.0745154), wk =   0.0078125
        k(   30) = (  -0.0000001  -0.5773503  -0.0000000), wk =   0.0039062
        k(   31) = (  -0.0000001  -0.5773503   0.0745154), wk =   0.0078125
        k(   32) = (  -0.0000001  -0.5773503   0.1490309), wk =   0.0078125
        k(   33) = (  -0.0000001  -0.5773502   0.2235464), wk =   0.0078125
        k(   34) = (  -0.0000001  -0.5773503  -0.2980619), wk =   0.0039062
        k(   35) = (   0.1250000   0.0721688   0.0000000), wk =   0.0078125
        k(   36) = (   0.1250000   0.0721688   0.0745155), wk =   0.0078125
        k(   37) = (   0.1250000   0.0721688   0.1490310), wk =   0.0078125
        k(   38) = (   0.1250000   0.0721688   0.2235464), wk =   0.0078125
        k(   39) = (   0.1250000   0.0721687  -0.2980619), wk =   0.0078125
        k(   40) = (   0.1250000   0.0721687  -0.2235464), wk =   0.0078125
        k(   41) = (   0.1250000   0.0721687  -0.1490309), wk =   0.0078125
        k(   42) = (   0.1250000   0.0721688  -0.0745155), wk =   0.0078125
        k(   43) = (   0.1250000   0.2165063   0.0000000), wk =   0.0078125
        k(   44) = (   0.1250001   0.2165063   0.0745155), wk =   0.0078125
        k(   45) = (   0.1250001   0.2165063   0.1490310), wk =   0.0078125
        k(   46) = (   0.1250001   0.2165063   0.2235464), wk =   0.0078125
        k(   47) = (   0.1250000   0.2165063  -0.2980619), wk =   0.0078125
        k(   48) = (   0.1250000   0.2165063  -0.2235464), wk =   0.0078125
        k(   49) = (   0.1250000   0.2165063  -0.1490309), wk =   0.0078125
        k(   50) = (   0.1250000   0.2165063  -0.0745154), wk =   0.0078125
        k(   51) = (   0.1250001   0.3608439   0.0000000), wk =   0.0078125
        k(   52) = (   0.1250001   0.3608439   0.0745155), wk =   0.0078125
        k(   53) = (   0.1250001   0.3608439   0.1490310), wk =   0.0078125
        k(   54) = (   0.1250001   0.3608439   0.2235465), wk =   0.0078125
        k(   55) = (   0.1250000   0.3608439  -0.2980619), wk =   0.0078125
        k(   56) = (   0.1250001   0.3608439  -0.2235464), wk =   0.0078125
        k(   57) = (   0.1250001   0.3608439  -0.1490309), wk =   0.0078125
        k(   58) = (   0.1250001   0.3608439  -0.0745154), wk =   0.0078125
        k(   59) = (   0.1250001   0.5051815   0.0000000), wk =   0.0078125
        k(   60) = (   0.1250001   0.5051815   0.0745155), wk =   0.0078125
        k(   61) = (   0.1250001   0.5051815   0.1490310), wk =   0.0078125
        k(   62) = (   0.1250001   0.5051815   0.2235465), wk =   0.0078125
        k(   63) = (   0.1250001   0.5051814  -0.2980618), wk =   0.0078125
        k(   64) = (   0.1250001   0.5051814  -0.2235464), wk =   0.0078125
        k(   65) = (   0.1250001   0.5051814  -0.1490309), wk =   0.0078125
        k(   66) = (   0.1250001   0.5051814  -0.0745154), wk =   0.0078125
        k(   67) = (   0.1249999  -0.5051815  -0.0000000), wk =   0.0078125
        k(   68) = (   0.1249999  -0.5051815   0.0745154), wk =   0.0078125
        k(   69) = (   0.1249999  -0.5051815   0.1490309), wk =   0.0078125
        k(   70) = (   0.1249999  -0.5051815   0.2235464), wk =   0.0078125
        k(   71) = (   0.1249999  -0.5051815  -0.2980619), wk =   0.0078125
        k(   72) = (   0.1249999  -0.5051815  -0.2235464), wk =   0.0078125
        k(   73) = (   0.1249999  -0.5051815  -0.1490310), wk =   0.0078125
        k(   74) = (   0.1249999  -0.5051815  -0.0745155), wk =   0.0078125
        k(   75) = (   0.1249999  -0.3608439  -0.0000000), wk =   0.0078125
        k(   76) = (   0.1249999  -0.3608439   0.0745155), wk =   0.0078125
        k(   77) = (   0.1249999  -0.3608439   0.1490309), wk =   0.0078125
        k(   78) = (   0.1249999  -0.3608439   0.2235464), wk =   0.0078125
        k(   79) = (   0.1249999  -0.3608440  -0.2980619), wk =   0.0078125
        k(   80) = (   0.1249999  -0.3608440  -0.2235464), wk =   0.0078125
        k(   81) = (   0.1249999  -0.3608439  -0.1490310), wk =   0.0078125
        k(   82) = (   0.1249999  -0.3608439  -0.0745155), wk =   0.0078125
        k(   83) = (   0.1250000  -0.2165064  -0.0000000), wk =   0.0078125
        k(   84) = (   0.1250000  -0.2165064   0.0745155), wk =   0.0078125
        k(   85) = (   0.1250000  -0.2165064   0.1490309), wk =   0.0078125
        k(   86) = (   0.1250000  -0.2165064   0.2235464), wk =   0.0078125
        k(   87) = (   0.1249999  -0.2165064  -0.2980619), wk =   0.0078125
        k(   88) = (   0.1249999  -0.2165064  -0.2235464), wk =   0.0078125
        k(   89) = (   0.1249999  -0.2165064  -0.1490310), wk =   0.0078125
        k(   90) = (   0.1249999  -0.2165064  -0.0745155), wk =   0.0078125
        k(   91) = (   0.1250000  -0.0721688   0.0000000), wk =   0.0078125
        k(   92) = (   0.1250000  -0.0721688   0.0745155), wk =   0.0078125
        k(   93) = (   0.1250000  -0.0721688   0.1490310), wk =   0.0078125
        k(   94) = (   0.1250000  -0.0721688   0.2235464), wk =   0.0078125
        k(   95) = (   0.1250000  -0.0721688  -0.2980619), wk =   0.0078125
        k(   96) = (   0.1250000  -0.0721688  -0.2235464), wk =   0.0078125
        k(   97) = (   0.1250000  -0.0721688  -0.1490309), wk =   0.0078125
        k(   98) = (   0.1250000  -0.0721688  -0.0745155), wk =   0.0078125
        k(   99) = (   0.2500000   0.1443375   0.0000000), wk =   0.0078125
        k(  100) = (   0.2500000   0.1443375   0.0745155), wk =   0.0078125
        k(  101) = (   0.2500000   0.1443375   0.1490310), wk =   0.0078125
        k(  102) = (   0.2500001   0.1443375   0.2235465), wk =   0.0078125
        k(  103) = (   0.2500000   0.1443375  -0.2980619), wk =   0.0078125
        k(  104) = (   0.2500000   0.1443375  -0.2235464), wk =   0.0078125
        k(  105) = (   0.2500000   0.1443375  -0.1490309), wk =   0.0078125
        k(  106) = (   0.2500000   0.1443375  -0.0745154), wk =   0.0078125
        k(  107) = (   0.2500001   0.2886751   0.0000000), wk =   0.0078125
        k(  108) = (   0.2500001   0.2886751   0.0745155), wk =   0.0078125
        k(  109) = (   0.2500001   0.2886751   0.1490310), wk =   0.0078125
        k(  110) = (   0.2500001   0.2886751   0.2235465), wk =   0.0078125
        k(  111) = (   0.2500000   0.2886751  -0.2980619), wk =   0.0078125
        k(  112) = (   0.2500000   0.2886751  -0.2235464), wk =   0.0078125
        k(  113) = (   0.2500000   0.2886751  -0.1490309), wk =   0.0078125
        k(  114) = (   0.2500001   0.2886751  -0.0745154), wk =   0.0078125
        k(  115) = (   0.2500001   0.4330126   0.0000001), wk =   0.0078125
        k(  116) = (   0.2500001   0.4330126   0.0745155), wk =   0.0078125
        k(  117) = (   0.2500001   0.4330127   0.1490310), wk =   0.0078125
        k(  118) = (   0.2500001   0.4330127   0.2235465), wk =   0.0078125
        k(  119) = (   0.2500001   0.4330126  -0.2980618), wk =   0.0078125
        k(  120) = (   0.2500001   0.4330126  -0.2235464), wk =   0.0078125
        k(  121) = (   0.2500001   0.4330126  -0.1490309), wk =   0.0078125
        k(  122) = (   0.2500001   0.4330126  -0.0745154), wk =   0.0078125
        k(  123) = (   0.2500001   0.5773502   0.0000001), wk =   0.0078125
        k(  124) = (   0.2500001   0.5773502   0.0745155), wk =   0.0078125
        k(  125) = (   0.2500001   0.5773502   0.1490310), wk =   0.0078125
        k(  126) = (   0.2500001   0.5773502   0.2235465), wk =   0.0078125
        k(  127) = (   0.2500001   0.5773502  -0.2980618), wk =   0.0078125
        k(  128) = (   0.2500001   0.5773502  -0.2235464), wk =   0.0078125
        k(  129) = (   0.2500001   0.5773502  -0.1490309), wk =   0.0078125
        k(  130) = (   0.2500001   0.5773502  -0.0745154), wk =   0.0078125
        k(  131) = (   0.2499999  -0.4330127  -0.0000000), wk =   0.0078125
        k(  132) = (   0.2499999  -0.4330127   0.0745155), wk =   0.0078125
        k(  133) = (   0.2499999  -0.4330127   0.1490309), wk =   0.0078125
        k(  134) = (   0.2499999  -0.4330127   0.2235464), wk =   0.0078125
        k(  135) = (   0.2499999  -0.4330128  -0.2980619), wk =   0.0078125
        k(  136) = (   0.2499999  -0.4330128  -0.2235464), wk =   0.0078125
        k(  137) = (   0.2499999  -0.4330128  -0.1490310), wk =   0.0078125
        k(  138) = (   0.2499999  -0.4330128  -0.0745155), wk =   0.0078125
        k(  139) = (   0.2499999  -0.2886752   0.0000000), wk =   0.0078125
        k(  140) = (   0.2499999  -0.2886752   0.0745155), wk =   0.0078125
        k(  141) = (   0.2500000  -0.2886752   0.1490309), wk =   0.0078125
        k(  142) = (   0.2500000  -0.2886752   0.2235464), wk =   0.0078125
        k(  143) = (   0.2499999  -0.2886752  -0.2980619), wk =   0.0078125
        k(  144) = (   0.2499999  -0.2886752  -0.2235464), wk =   0.0078125
        k(  145) = (   0.2499999  -0.2886752  -0.1490309), wk =   0.0078125
        k(  146) = (   0.2499999  -0.2886752  -0.0745155), wk =   0.0078125
        k(  147) = (   0.2500000  -0.1443376   0.0000000), wk =   0.0078125
        k(  148) = (   0.2500000  -0.1443376   0.0745155), wk =   0.0078125
        k(  149) = (   0.2500000  -0.1443376   0.1490310), wk =   0.0078125
        k(  150) = (   0.2500000  -0.1443376   0.2235464), wk =   0.0078125
        k(  151) = (   0.2499999  -0.1443376  -0.2980619), wk =   0.0078125
        k(  152) = (   0.2499999  -0.1443376  -0.2235464), wk =   0.0078125
        k(  153) = (   0.2500000  -0.1443376  -0.1490309), wk =   0.0078125
        k(  154) = (   0.2500000  -0.1443376  -0.0745155), wk =   0.0078125
        k(  155) = (   0.2500000  -0.0000001   0.0000000), wk =   0.0078125
        k(  156) = (   0.2500000  -0.0000000   0.0745155), wk =   0.0078125
        k(  157) = (   0.2500000  -0.0000000   0.1490310), wk =   0.0078125
        k(  158) = (   0.2500000  -0.0000000   0.2235464), wk =   0.0078125
        k(  159) = (   0.2500000  -0.0000001  -0.2980619), wk =   0.0078125
        k(  160) = (   0.2500000  -0.0000001  -0.2235464), wk =   0.0078125
        k(  161) = (   0.2500000  -0.0000001  -0.1490309), wk =   0.0078125
        k(  162) = (   0.2500000  -0.0000001  -0.0745155), wk =   0.0078125
        k(  163) = (   0.3750000   0.2165063   0.0000000), wk =   0.0078125
        k(  164) = (   0.3750001   0.2165063   0.0745155), wk =   0.0078125
        k(  165) = (   0.3750001   0.2165063   0.1490310), wk =   0.0078125
        k(  166) = (   0.3750001   0.2165063   0.2235465), wk =   0.0078125
        k(  167) = (   0.3750000   0.2165062  -0.2980618), wk =   0.0078125
        k(  168) = (   0.3750000   0.2165063  -0.2235464), wk =   0.0078125
        k(  169) = (   0.3750000   0.2165063  -0.1490309), wk =   0.0078125
        k(  170) = (   0.3750000   0.2165063  -0.0745154), wk =   0.0078125
        k(  171) = (   0.3750001   0.3608438   0.0000001), wk =   0.0078125
        k(  172) = (   0.3750001   0.3608438   0.0745155), wk =   0.0078125
        k(  173) = (   0.3750001   0.3608438   0.1490310), wk =   0.0078125
        k(  174) = (   0.3750001   0.3608439   0.2235465), wk =   0.0078125
        k(  175) = (   0.3750000   0.3608438  -0.2980618), wk =   0.0078125
        k(  176) = (   0.3750001   0.3608438  -0.2235464), wk =   0.0078125
        k(  177) = (   0.3750001   0.3608438  -0.1490309), wk =   0.0078125
        k(  178) = (   0.3750001   0.3608438  -0.0745154), wk =   0.0078125
        k(  179) = (   0.3750001   0.5051814   0.0000001), wk =   0.0078125
        k(  180) = (   0.3750001   0.5051814   0.0745155), wk =   0.0078125
        k(  181) = (   0.3750001   0.5051814   0.1490310), wk =   0.0078125
        k(  182) = (   0.3750001   0.5051814   0.2235465), wk =   0.0078125
        k(  183) = (   0.3750001   0.5051814  -0.2980618), wk =   0.0078125
        k(  184) = (   0.3750001   0.5051814  -0.2235464), wk =   0.0078125
        k(  185) = (   0.3750001   0.5051814  -0.1490309), wk =   0.0078125
        k(  186) = (   0.3750001   0.5051814  -0.0745154), wk =   0.0078125
        k(  187) = (   0.3750001   0.6495190   0.0000001), wk =   0.0078125
        k(  188) = (   0.3750001   0.6495190   0.0745156), wk =   0.0078125
        k(  189) = (   0.3750001   0.6495190   0.1490310), wk =   0.0078125
        k(  190) = (   0.3750002   0.6495190   0.2235465), wk =   0.0078125
        k(  191) = (   0.3750001   0.6495189  -0.2980618), wk =   0.0078125
        k(  192) = (   0.3750001   0.6495190  -0.2235463), wk =   0.0078125
        k(  193) = (   0.3750001   0.6495190  -0.1490309), wk =   0.0078125
        k(  194) = (   0.3750001   0.6495190  -0.0745154), wk =   0.0078125
        k(  195) = (   0.3749999  -0.3608440   0.0000000), wk =   0.0078125
        k(  196) = (   0.3749999  -0.3608440   0.0745155), wk =   0.0078125
        k(  197) = (   0.3749999  -0.3608440   0.1490310), wk =   0.0078125
        k(  198) = (   0.3749999  -0.3608440   0.2235464), wk =   0.0078125
        k(  199) = (   0.3749999  -0.3608440  -0.2980619), wk =   0.0078125
        k(  200) = (   0.3749999  -0.3608440  -0.2235464), wk =   0.0078125
        k(  201) = (   0.3749999  -0.3608440  -0.1490309), wk =   0.0078125
        k(  202) = (   0.3749999  -0.3608440  -0.0745155), wk =   0.0078125
        k(  203) = (   0.3750000  -0.2165064   0.0000000), wk =   0.0078125
        k(  204) = (   0.3750000  -0.2165064   0.0745155), wk =   0.0078125
        k(  205) = (   0.3750000  -0.2165064   0.1490310), wk =   0.0078125
        k(  206) = (   0.3750000  -0.2165064   0.2235464), wk =   0.0078125
        k(  207) = (   0.3749999  -0.2165064  -0.2980619), wk =   0.0078125
        k(  208) = (   0.3749999  -0.2165064  -0.2235464), wk =   0.0078125
        k(  209) = (   0.3749999  -0.2165064  -0.1490309), wk =   0.0078125
        k(  210) = (   0.3749999  -0.2165064  -0.0745155), wk =   0.0078125
        k(  211) = (   0.3750000  -0.0721689   0.0000000), wk =   0.0078125
        k(  212) = (   0.3750000  -0.0721689   0.0745155), wk =   0.0078125
        k(  213) = (   0.3750000  -0.0721688   0.1490310), wk =   0.0078125
        k(  214) = (   0.3750000  -0.0721688   0.2235464), wk =   0.0078125
        k(  215) = (   0.3750000  -0.0721689  -0.2980619), wk =   0.0078125
        k(  216) = (   0.3750000  -0.0721689  -0.2235464), wk =   0.0078125
        k(  217) = (   0.3750000  -0.0721689  -0.1490309), wk =   0.0078125
        k(  218) = (   0.3750000  -0.0721689  -0.0745154), wk =   0.0078125
        k(  219) = (   0.3750000   0.0721687   0.0000000), wk =   0.0078125
        k(  220) = (   0.3750000   0.0721687   0.0745155), wk =   0.0078125
        k(  221) = (   0.3750000   0.0721687   0.1490310), wk =   0.0078125
        k(  222) = (   0.3750000   0.0721687   0.2235465), wk =   0.0078125
        k(  223) = (   0.3750000   0.0721687  -0.2980619), wk =   0.0078125
        k(  224) = (   0.3750000   0.0721687  -0.2235464), wk =   0.0078125
        k(  225) = (   0.3750000   0.0721687  -0.1490309), wk =   0.0078125
        k(  226) = (   0.3750000   0.0721687  -0.0745154), wk =   0.0078125
        k(  227) = (  -0.5000001  -0.2886750  -0.0000001), wk =   0.0039062
        k(  228) = (  -0.5000001  -0.2886750   0.0745154), wk =   0.0078125
        k(  229) = (  -0.5000000  -0.2886750   0.1490309), wk =   0.0078125
        k(  230) = (  -0.5000000  -0.2886750   0.2235464), wk =   0.0078125
        k(  231) = (  -0.5000001  -0.2886750  -0.2980620), wk =   0.0039062
        k(  232) = (  -0.5000000  -0.1443375  -0.0000001), wk =   0.0078125
        k(  233) = (  -0.5000000  -0.1443375   0.0745154), wk =   0.0078125
        k(  234) = (  -0.5000000  -0.1443375   0.1490309), wk =   0.0078125
        k(  235) = (  -0.5000000  -0.1443374   0.2235464), wk =   0.0078125
        k(  236) = (  -0.5000001  -0.1443375  -0.2980619), wk =   0.0078125
        k(  237) = (  -0.5000001  -0.1443375  -0.2235465), wk =   0.0078125
        k(  238) = (  -0.5000000  -0.1443375  -0.1490310), wk =   0.0078125
        k(  239) = (  -0.5000000  -0.1443375  -0.0745155), wk =   0.0078125
        k(  240) = (  -0.5000000   0.0000001  -0.0000000), wk =   0.0078125
        k(  241) = (  -0.5000000   0.0000001   0.0745154), wk =   0.0078125
        k(  242) = (  -0.5000000   0.0000001   0.1490309), wk =   0.0078125
        k(  243) = (  -0.5000000   0.0000001   0.2235464), wk =   0.0078125
        k(  244) = (  -0.5000000   0.0000001  -0.2980619), wk =   0.0078125
        k(  245) = (  -0.5000000   0.0000001  -0.2235465), wk =   0.0078125
        k(  246) = (  -0.5000000   0.0000001  -0.1490310), wk =   0.0078125
        k(  247) = (  -0.5000000   0.0000001  -0.0745155), wk =   0.0078125
        k(  248) = (  -0.5000000   0.1443377  -0.0000000), wk =   0.0078125
        k(  249) = (  -0.5000000   0.1443377   0.0745154), wk =   0.0078125
        k(  250) = (  -0.5000000   0.1443377   0.1490309), wk =   0.0078125
        k(  251) = (  -0.4999999   0.1443377   0.2235464), wk =   0.0078125
        k(  252) = (  -0.5000000   0.1443376  -0.2980619), wk =   0.0078125
        k(  253) = (  -0.5000000   0.1443377  -0.2235465), wk =   0.0078125
        k(  254) = (  -0.5000000   0.1443377  -0.1490310), wk =   0.0078125
        k(  255) = (  -0.5000000   0.1443377  -0.0745155), wk =   0.0078125
        k(  256) = (  -0.5000002  -0.8660253  -0.0000001), wk =   0.0039062
        k(  257) = (  -0.5000002  -0.8660253   0.0745154), wk =   0.0078125
        k(  258) = (  -0.5000002  -0.8660253   0.1490308), wk =   0.0078125
        k(  259) = (  -0.5000002  -0.8660253   0.2235463), wk =   0.0078125
        k(  260) = (  -0.5000002  -0.8660253  -0.2980620), wk =   0.0039062

                       cryst. coord.
        k(    1) = (   0.0000000   0.0000000   0.0000000), wk =   0.0039062
        k(    2) = (   0.0000000  -0.0000000   0.1250000), wk =   0.0078125
        k(    3) = (   0.0000000  -0.0000000   0.2500000), wk =   0.0078125
        k(    4) = (  -0.0000000  -0.0000000   0.3750000), wk =   0.0078125
        k(    5) = (  -0.0000000   0.0000000  -0.5000000), wk =   0.0039062
        k(    6) = (  -0.0000000   0.1250000  -0.0000000), wk =   0.0078125
        k(    7) = (  -0.0000000   0.1250000   0.1250000), wk =   0.0078125
        k(    8) = (   0.0000000   0.1250000   0.2500000), wk =   0.0078125
        k(    9) = (   0.0000000   0.1250000   0.3750000), wk =   0.0078125
        k(   10) = (  -0.0000000   0.1250000  -0.5000000), wk =   0.0078125
        k(   11) = (  -0.0000000   0.1250000  -0.3750000), wk =   0.0078125
        k(   12) = (  -0.0000000   0.1250000  -0.2500000), wk =   0.0078125
        k(   13) = (  -0.0000000   0.1250000  -0.1250000), wk =   0.0078125
        k(   14) = (  -0.0000000   0.2500000  -0.0000000), wk =   0.0078125
        k(   15) = (  -0.0000000   0.2500000   0.1250000), wk =   0.0078125
        k(   16) = (  -0.0000000   0.2500000   0.2500000), wk =   0.0078125
        k(   17) = (  -0.0000000   0.2500000   0.3750000), wk =   0.0078125
        k(   18) = (  -0.0000000   0.2500000  -0.5000000), wk =   0.0078125
        k(   19) = (  -0.0000000   0.2500000  -0.3750000), wk =   0.0078125
        k(   20) = (  -0.0000000   0.2500000  -0.2500000), wk =   0.0078125
        k(   21) = (  -0.0000000   0.2500000  -0.1250000), wk =   0.0078125
        k(   22) = (   0.0000000   0.3750000  -0.0000000), wk =   0.0078125
        k(   23) = (  -0.0000000   0.3750000   0.1250000), wk =   0.0078125
        k(   24) = (   0.0000000   0.3750000   0.2500000), wk =   0.0078125
        k(   25) = (  -0.0000000   0.3750000   0.3750000), wk =   0.0078125
        k(   26) = (  -0.0000000   0.3750000  -0.5000000), wk =   0.0078125
        k(   27) = (  -0.0000000   0.3750000  -0.3750000), wk =   0.0078125
        k(   28) = (   0.0000000   0.3750000  -0.2500000), wk =   0.0078125
        k(   29) = (   0.0000000   0.3750000  -0.1250000), wk =   0.0078125
        k(   30) = (   0.0000000  -0.5000000   0.0000000), wk =   0.0039062
        k(   31) = (  -0.0000000  -0.5000000   0.1250000), wk =   0.0078125
        k(   32) = (   0.0000000  -0.5000000   0.2500000), wk =   0.0078125
        k(   33) = (  -0.0000000  -0.5000000   0.3750000), wk =   0.0078125
        k(   34) = (   0.0000000  -0.5000000  -0.5000000), wk =   0.0039062
        k(   35) = (   0.1250000   0.0000000   0.0000000), wk =   0.0078125
        k(   36) = (   0.1250000  -0.0000000   0.1250000), wk =   0.0078125
        k(   37) = (   0.1250000   0.0000000   0.2500000), wk =   0.0078125
        k(   38) = (   0.1250000   0.0000000   0.3750000), wk =   0.0078125
        k(   39) = (   0.1250000   0.0000000  -0.5000000), wk =   0.0078125
        k(   40) = (   0.1250000  -0.0000000  -0.3750000), wk =   0.0078125
        k(   41) = (   0.1250000  -0.0000000  -0.2500000), wk =   0.0078125
        k(   42) = (   0.1250000   0.0000000  -0.1250000), wk =   0.0078125
        k(   43) = (   0.1250000   0.1250000   0.0000000), wk =   0.0078125
        k(   44) = (   0.1250000   0.1250000   0.1250000), wk =   0.0078125
        k(   45) = (   0.1250000   0.1250000   0.2500000), wk =   0.0078125
        k(   46) = (   0.1250000   0.1250000   0.3750000), wk =   0.0078125
        k(   47) = (   0.1250000   0.1250000  -0.5000000), wk =   0.0078125
        k(   48) = (   0.1250000   0.1250000  -0.3750000), wk =   0.0078125
        k(   49) = (   0.1250000   0.1250000  -0.2500000), wk =   0.0078125
        k(   50) = (   0.1250000   0.1250000  -0.1250000), wk =   0.0078125
        k(   51) = (   0.1250000   0.2500000   0.0000000), wk =   0.0078125
        k(   52) = (   0.1250000   0.2500000   0.1250000), wk =   0.0078125
        k(   53) = (   0.1250000   0.2500000   0.2500000), wk =   0.0078125
        k(   54) = (   0.1250000   0.2500000   0.3750000), wk =   0.0078125
        k(   55) = (   0.1250000   0.2500000  -0.5000000), wk =   0.0078125
        k(   56) = (   0.1250000   0.2500000  -0.3750000), wk =   0.0078125
        k(   57) = (   0.1250000   0.2500000  -0.2500000), wk =   0.0078125
        k(   58) = (   0.1250000   0.2500000  -0.1250000), wk =   0.0078125
        k(   59) = (   0.1250000   0.3750000  -0.0000000), wk =   0.0078125
        k(   60) = (   0.1250000   0.3750000   0.1250000), wk =   0.0078125
        k(   61) = (   0.1250000   0.3750000   0.2500000), wk =   0.0078125
        k(   62) = (   0.1250000   0.3750000   0.3750000), wk =   0.0078125
        k(   63) = (   0.1250000   0.3750000  -0.5000000), wk =   0.0078125
        k(   64) = (   0.1250000   0.3750000  -0.3750000), wk =   0.0078125
        k(   65) = (   0.1250000   0.3750000  -0.2500000), wk =   0.0078125
        k(   66) = (   0.1250000   0.3750000  -0.1250000), wk =   0.0078125
        k(   67) = (   0.1250000  -0.5000000   0.0000000), wk =   0.0078125
        k(   68) = (   0.1250000  -0.5000000   0.1250000), wk =   0.0078125
        k(   69) = (   0.1250000  -0.5000000   0.2500000), wk =   0.0078125
        k(   70) = (   0.1250000  -0.5000000   0.3750000), wk =   0.0078125
        k(   71) = (   0.1250000  -0.5000000  -0.5000000), wk =   0.0078125
        k(   72) = (   0.1250000  -0.5000000  -0.3750000), wk =   0.0078125
        k(   73) = (   0.1250000  -0.5000000  -0.2500000), wk =   0.0078125
        k(   74) = (   0.1250000  -0.5000000  -0.1250000), wk =   0.0078125
        k(   75) = (   0.1250000  -0.3750000   0.0000000), wk =   0.0078125
        k(   76) = (   0.1250000  -0.3750000   0.1250000), wk =   0.0078125
        k(   77) = (   0.1250000  -0.3750000   0.2500000), wk =   0.0078125
        k(   78) = (   0.1250000  -0.3750000   0.3750000), wk =   0.0078125
        k(   79) = (   0.1250000  -0.3750000  -0.5000000), wk =   0.0078125
        k(   80) = (   0.1250000  -0.3750000  -0.3750000), wk =   0.0078125
        k(   81) = (   0.1250000  -0.3750000  -0.2500000), wk =   0.0078125
        k(   82) = (   0.1250000  -0.3750000  -0.1250000), wk =   0.0078125
        k(   83) = (   0.1250000  -0.2500000   0.0000000), wk =   0.0078125
        k(   84) = (   0.1250000  -0.2500000   0.1250000), wk =   0.0078125
        k(   85) = (   0.1250000  -0.2500000   0.2500000), wk =   0.0078125
        k(   86) = (   0.1250000  -0.2500000   0.3750000), wk =   0.0078125
        k(   87) = (   0.1250000  -0.2500000  -0.5000000), wk =   0.0078125
        k(   88) = (   0.1250000  -0.2500000  -0.3750000), wk =   0.0078125
        k(   89) = (   0.1250000  -0.2500000  -0.2500000), wk =   0.0078125
        k(   90) = (   0.1250000  -0.2500000  -0.1250000), wk =   0.0078125
        k(   91) = (   0.1250000  -0.1250000   0.0000000), wk =   0.0078125
        k(   92) = (   0.1250000  -0.1250000   0.1250000), wk =   0.0078125
        k(   93) = (   0.1250000  -0.1250000   0.2500000), wk =   0.0078125
        k(   94) = (   0.1250000  -0.1250000   0.3750000), wk =   0.0078125
        k(   95) = (   0.1250000  -0.1250000  -0.5000000), wk =   0.0078125
        k(   96) = (   0.1250000  -0.1250000  -0.3750000), wk =   0.0078125
        k(   97) = (   0.1250000  -0.1250000  -0.2500000), wk =   0.0078125
        k(   98) = (   0.1250000  -0.1250000  -0.1250000), wk =   0.0078125
        k(   99) = (   0.2500000   0.0000000   0.0000000), wk =   0.0078125
        k(  100) = (   0.2500000  -0.0000000   0.1250000), wk =   0.0078125
        k(  101) = (   0.2500000  -0.0000000   0.2500000), wk =   0.0078125
        k(  102) = (   0.2500000   0.0000000   0.3750000), wk =   0.0078125
        k(  103) = (   0.2500000  -0.0000000  -0.5000000), wk =   0.0078125
        k(  104) = (   0.2500000  -0.0000000  -0.3750000), wk =   0.0078125
        k(  105) = (   0.2500000   0.0000000  -0.2500000), wk =   0.0078125
        k(  106) = (   0.2500000  -0.0000000  -0.1250000), wk =   0.0078125
        k(  107) = (   0.2500000   0.1250000   0.0000000), wk =   0.0078125
        k(  108) = (   0.2500000   0.1250000   0.1250000), wk =   0.0078125
        k(  109) = (   0.2500000   0.1250000   0.2500000), wk =   0.0078125
        k(  110) = (   0.2500000   0.1250000   0.3750000), wk =   0.0078125
        k(  111) = (   0.2500000   0.1250000  -0.5000000), wk =   0.0078125
        k(  112) = (   0.2500000   0.1250000  -0.3750000), wk =   0.0078125
        k(  113) = (   0.2500000   0.1250000  -0.2500000), wk =   0.0078125
        k(  114) = (   0.2500000   0.1250000  -0.1250000), wk =   0.0078125
        k(  115) = (   0.2500000   0.2500000   0.0000000), wk =   0.0078125
        k(  116) = (   0.2500000   0.2500000   0.1250000), wk =   0.0078125
        k(  117) = (   0.2500000   0.2500000   0.2500000), wk =   0.0078125
        k(  118) = (   0.2500000   0.2500000   0.3750000), wk =   0.0078125
        k(  119) = (   0.2500000   0.2500000  -0.5000000), wk =   0.0078125
        k(  120) = (   0.2500000   0.2500000  -0.3750000), wk =   0.0078125
        k(  121) = (   0.2500000   0.2500000  -0.2500000), wk =   0.0078125
        k(  122) = (   0.2500000   0.2500000  -0.1250000), wk =   0.0078125
        k(  123) = (   0.2500000   0.3750000   0.0000000), wk =   0.0078125
        k(  124) = (   0.2500000   0.3750000   0.1250000), wk =   0.0078125
        k(  125) = (   0.2500000   0.3750000   0.2500000), wk =   0.0078125
        k(  126) = (   0.2500000   0.3750000   0.3750000), wk =   0.0078125
        k(  127) = (   0.2500000   0.3750000  -0.5000000), wk =   0.0078125
        k(  128) = (   0.2500000   0.3750000  -0.3750000), wk =   0.0078125
        k(  129) = (   0.2500000   0.3750000  -0.2500000), wk =   0.0078125
        k(  130) = (   0.2500000   0.3750000  -0.1250000), wk =   0.0078125
        k(  131) = (   0.2500000  -0.5000000   0.0000000), wk =   0.0078125
        k(  132) = (   0.2500000  -0.5000000   0.1250000), wk =   0.0078125
        k(  133) = (   0.2500000  -0.5000000   0.2500000), wk =   0.0078125
        k(  134) = (   0.2500000  -0.5000000   0.3750000), wk =   0.0078125
        k(  135) = (   0.2500000  -0.5000000  -0.5000000), wk =   0.0078125
        k(  136) = (   0.2500000  -0.5000000  -0.3750000), wk =   0.0078125
        k(  137) = (   0.2500000  -0.5000000  -0.2500000), wk =   0.0078125
        k(  138) = (   0.2500000  -0.5000000  -0.1250000), wk =   0.0078125
        k(  139) = (   0.2500000  -0.3750000   0.0000000), wk =   0.0078125
        k(  140) = (   0.2500000  -0.3750000   0.1250000), wk =   0.0078125
        k(  141) = (   0.2500000  -0.3750000   0.2500000), wk =   0.0078125
        k(  142) = (   0.2500000  -0.3750000   0.3750000), wk =   0.0078125
        k(  143) = (   0.2500000  -0.3750000  -0.5000000), wk =   0.0078125
        k(  144) = (   0.2500000  -0.3750000  -0.3750000), wk =   0.0078125
        k(  145) = (   0.2500000  -0.3750000  -0.2500000), wk =   0.0078125
        k(  146) = (   0.2500000  -0.3750000  -0.1250000), wk =   0.0078125
        k(  147) = (   0.2500000  -0.2500000   0.0000000), wk =   0.0078125
        k(  148) = (   0.2500000  -0.2500000   0.1250000), wk =   0.0078125
        k(  149) = (   0.2500000  -0.2500000   0.2500000), wk =   0.0078125
        k(  150) = (   0.2500000  -0.2500000   0.3750000), wk =   0.0078125
        k(  151) = (   0.2500000  -0.2500000  -0.5000000), wk =   0.0078125
        k(  152) = (   0.2500000  -0.2500000  -0.3750000), wk =   0.0078125
        k(  153) = (   0.2500000  -0.2500000  -0.2500000), wk =   0.0078125
        k(  154) = (   0.2500000  -0.2500000  -0.1250000), wk =   0.0078125
        k(  155) = (   0.2500000  -0.1250000   0.0000000), wk =   0.0078125
        k(  156) = (   0.2500000  -0.1250000   0.1250000), wk =   0.0078125
        k(  157) = (   0.2500000  -0.1250000   0.2500000), wk =   0.0078125
        k(  158) = (   0.2500000  -0.1250000   0.3750000), wk =   0.0078125
        k(  159) = (   0.2500000  -0.1250000  -0.5000000), wk =   0.0078125
        k(  160) = (   0.2500000  -0.1250000  -0.3750000), wk =   0.0078125
        k(  161) = (   0.2500000  -0.1250000  -0.2500000), wk =   0.0078125
        k(  162) = (   0.2500000  -0.1250000  -0.1250000), wk =   0.0078125
        k(  163) = (   0.3750000  -0.0000000   0.0000000), wk =   0.0078125
        k(  164) = (   0.3750000  -0.0000000   0.1250000), wk =   0.0078125
        k(  165) = (   0.3750000  -0.0000000   0.2500000), wk =   0.0078125
        k(  166) = (   0.3750000   0.0000000   0.3750000), wk =   0.0078125
        k(  167) = (   0.3750000  -0.0000000  -0.5000000), wk =   0.0078125
        k(  168) = (   0.3750000  -0.0000000  -0.3750000), wk =   0.0078125
        k(  169) = (   0.3750000   0.0000000  -0.2500000), wk =   0.0078125
        k(  170) = (   0.3750000  -0.0000000  -0.1250000), wk =   0.0078125
        k(  171) = (   0.3750000   0.1250000   0.0000000), wk =   0.0078125
        k(  172) = (   0.3750000   0.1250000   0.1250000), wk =   0.0078125
        k(  173) = (   0.3750000   0.1250000   0.2500000), wk =   0.0078125
        k(  174) = (   0.3750000   0.1250000   0.3750000), wk =   0.0078125
        k(  175) = (   0.3750000   0.1250000  -0.5000000), wk =   0.0078125
        k(  176) = (   0.3750000   0.1250000  -0.3750000), wk =   0.0078125
        k(  177) = (   0.3750000   0.1250000  -0.2500000), wk =   0.0078125
        k(  178) = (   0.3750000   0.1250000  -0.1250000), wk =   0.0078125
        k(  179) = (   0.3750000   0.2500000   0.0000000), wk =   0.0078125
        k(  180) = (   0.3750000   0.2500000   0.1250000), wk =   0.0078125
        k(  181) = (   0.3750000   0.2500000   0.2500000), wk =   0.0078125
        k(  182) = (   0.3750000   0.2500000   0.3750000), wk =   0.0078125
        k(  183) = (   0.3750000   0.2500000  -0.5000000), wk =   0.0078125
        k(  184) = (   0.3750000   0.2500000  -0.3750000), wk =   0.0078125
        k(  185) = (   0.3750000   0.2500000  -0.2500000), wk =   0.0078125
        k(  186) = (   0.3750000   0.2500000  -0.1250000), wk =   0.0078125
        k(  187) = (   0.3750000   0.3750000   0.0000000), wk =   0.0078125
        k(  188) = (   0.3750000   0.3750000   0.1250000), wk =   0.0078125
        k(  189) = (   0.3750000   0.3750000   0.2500000), wk =   0.0078125
        k(  190) = (   0.3750000   0.3750000   0.3750000), wk =   0.0078125
        k(  191) = (   0.3750000   0.3750000  -0.5000000), wk =   0.0078125
        k(  192) = (   0.3750000   0.3750000  -0.3750000), wk =   0.0078125
        k(  193) = (   0.3750000   0.3750000  -0.2500000), wk =   0.0078125
        k(  194) = (   0.3750000   0.3750000  -0.1250000), wk =   0.0078125
        k(  195) = (   0.3750000  -0.5000000   0.0000000), wk =   0.0078125
        k(  196) = (   0.3750000  -0.5000000   0.1250000), wk =   0.0078125
        k(  197) = (   0.3750000  -0.5000000   0.2500000), wk =   0.0078125
        k(  198) = (   0.3750000  -0.5000000   0.3750000), wk =   0.0078125
        k(  199) = (   0.3750000  -0.5000000  -0.5000000), wk =   0.0078125
        k(  200) = (   0.3750000  -0.5000000  -0.3750000), wk =   0.0078125
        k(  201) = (   0.3750000  -0.5000000  -0.2500000), wk =   0.0078125
        k(  202) = (   0.3750000  -0.5000000  -0.1250000), wk =   0.0078125
        k(  203) = (   0.3750000  -0.3750000   0.0000000), wk =   0.0078125
        k(  204) = (   0.3750000  -0.3750000   0.1250000), wk =   0.0078125
        k(  205) = (   0.3750000  -0.3750000   0.2500000), wk =   0.0078125
        k(  206) = (   0.3750000  -0.3750000   0.3750000), wk =   0.0078125
        k(  207) = (   0.3750000  -0.3750000  -0.5000000), wk =   0.0078125
        k(  208) = (   0.3750000  -0.3750000  -0.3750000), wk =   0.0078125
        k(  209) = (   0.3750000  -0.3750000  -0.2500000), wk =   0.0078125
        k(  210) = (   0.3750000  -0.3750000  -0.1250000), wk =   0.0078125
        k(  211) = (   0.3750000  -0.2500000   0.0000000), wk =   0.0078125
        k(  212) = (   0.3750000  -0.2500000   0.1250000), wk =   0.0078125
        k(  213) = (   0.3750000  -0.2500000   0.2500000), wk =   0.0078125
        k(  214) = (   0.3750000  -0.2500000   0.3750000), wk =   0.0078125
        k(  215) = (   0.3750000  -0.2500000  -0.5000000), wk =   0.0078125
        k(  216) = (   0.3750000  -0.2500000  -0.3750000), wk =   0.0078125
        k(  217) = (   0.3750000  -0.2500000  -0.2500000), wk =   0.0078125
        k(  218) = (   0.3750000  -0.2500000  -0.1250000), wk =   0.0078125
        k(  219) = (   0.3750000  -0.1250000   0.0000000), wk =   0.0078125
        k(  220) = (   0.3750000  -0.1250000   0.1250000), wk =   0.0078125
        k(  221) = (   0.3750000  -0.1250000   0.2500000), wk =   0.0078125
        k(  222) = (   0.3750000  -0.1250000   0.3750000), wk =   0.0078125
        k(  223) = (   0.3750000  -0.1250000  -0.5000000), wk =   0.0078125
        k(  224) = (   0.3750000  -0.1250000  -0.3750000), wk =   0.0078125
        k(  225) = (   0.3750000  -0.1250000  -0.2500000), wk =   0.0078125
        k(  226) = (   0.3750000  -0.1250000  -0.1250000), wk =   0.0078125
        k(  227) = (  -0.5000000  -0.0000000  -0.0000000), wk =   0.0039062
        k(  228) = (  -0.5000000  -0.0000000   0.1250000), wk =   0.0078125
        k(  229) = (  -0.5000000   0.0000000   0.2500000), wk =   0.0078125
        k(  230) = (  -0.5000000  -0.0000000   0.3750000), wk =   0.0078125
        k(  231) = (  -0.5000000   0.0000000  -0.5000000), wk =   0.0039062
        k(  232) = (  -0.5000000   0.1250000  -0.0000000), wk =   0.0078125
        k(  233) = (  -0.5000000   0.1250000   0.1250000), wk =   0.0078125
        k(  234) = (  -0.5000000   0.1250000   0.2500000), wk =   0.0078125
        k(  235) = (  -0.5000000   0.1250000   0.3750000), wk =   0.0078125
        k(  236) = (  -0.5000000   0.1250000  -0.5000000), wk =   0.0078125
        k(  237) = (  -0.5000000   0.1250000  -0.3750000), wk =   0.0078125
        k(  238) = (  -0.5000000   0.1250000  -0.2500000), wk =   0.0078125
        k(  239) = (  -0.5000000   0.1250000  -0.1250000), wk =   0.0078125
        k(  240) = (  -0.5000000   0.2500000  -0.0000000), wk =   0.0078125
        k(  241) = (  -0.5000000   0.2500000   0.1250000), wk =   0.0078125
        k(  242) = (  -0.5000000   0.2500000   0.2500000), wk =   0.0078125
        k(  243) = (  -0.5000000   0.2500000   0.3750000), wk =   0.0078125
        k(  244) = (  -0.5000000   0.2500000  -0.5000000), wk =   0.0078125
        k(  245) = (  -0.5000000   0.2500000  -0.3750000), wk =   0.0078125
        k(  246) = (  -0.5000000   0.2500000  -0.2500000), wk =   0.0078125
        k(  247) = (  -0.5000000   0.2500000  -0.1250000), wk =   0.0078125
        k(  248) = (  -0.5000000   0.3750000  -0.0000000), wk =   0.0078125
        k(  249) = (  -0.5000000   0.3750000   0.1250000), wk =   0.0078125
        k(  250) = (  -0.5000000   0.3750000   0.2500000), wk =   0.0078125
        k(  251) = (  -0.5000000   0.3750000   0.3750000), wk =   0.0078125
        k(  252) = (  -0.5000000   0.3750000  -0.5000000), wk =   0.0078125
        k(  253) = (  -0.5000000   0.3750000  -0.3750000), wk =   0.0078125
        k(  254) = (  -0.5000000   0.3750000  -0.2500000), wk =   0.0078125
        k(  255) = (  -0.5000000   0.3750000  -0.1250000), wk =   0.0078125
        k(  256) = (  -0.5000000  -0.5000000  -0.0000000), wk =   0.0039062
        k(  257) = (  -0.5000000  -0.5000000   0.1250000), wk =   0.0078125
        k(  258) = (  -0.5000000  -0.5000000   0.2500000), wk =   0.0078125
        k(  259) = (  -0.5000000  -0.5000000   0.3750000), wk =   0.0078125
        k(  260) = (  -0.5000000  -0.5000000  -0.5000000), wk =   0.0039062

     Dense  grid:    79225 G-vectors     FFT dimensions: (  48,  48,  80)

     Smooth grid:    30777 G-vectors     FFT dimensions: (  36,  36,  60)

     Dynamical RAM for                 wfc:       0.10 MB

     Dynamical RAM for     wfc (w. buffer):       6.28 MB

     Dynamical RAM for           str. fact:       0.15 MB

     Dynamical RAM for           local pot:       0.00 MB

     Dynamical RAM for          nlocal pot:       0.23 MB

     Dynamical RAM for                qrad:       3.77 MB

     Dynamical RAM for          rho,v,vnew:       0.49 MB

     Dynamical RAM for               rhoin:       0.16 MB

     Dynamical RAM for            rho*nmix:       1.21 MB

     Dynamical RAM for           G-vectors:       0.30 MB

     Dynamical RAM for          h,s,v(r/c):       0.12 MB

     Dynamical RAM for          <psi|beta>:       0.02 MB

     Dynamical RAM for                 psi:       0.38 MB

     Dynamical RAM for                hpsi:       0.38 MB

     Dynamical RAM for                spsi:       0.38 MB

     Dynamical RAM for      wfcinit/wfcrot:       0.28 MB

     Dynamical RAM for           addusdens:       3.61 MB

     Dynamical RAM for          addusforce:       3.76 MB

     Dynamical RAM for         addusstress:       3.83 MB

     Estimated static dynamical RAM per process >      13.26 MB

     Estimated max dynamical RAM per process >      17.09 MB

     Estimated total dynamical RAM >       1.07 GB

     Check: negative core charge=   -0.000003

     Initial potential from superposition of free atoms

     starting charge   51.99974, renormalised to   52.00000
     Starting wfcs are   34 randomized atomic wfcs

     total cpu time spent up to now is        2.7 secs

     Self-consistent Calculation

     iteration #  1     ecut=    80.00 Ry     beta= 0.50
     Davidson diagonalization with overlap
     ethr =  1.00E-02,  avg # of iterations =  1.0

     total cpu time spent up to now is        3.6 secs

     total energy              =    -986.76408029 Ry
     Harris-Foulkes estimate   =    -987.28812389 Ry
     estimated scf accuracy    <       0.82392819 Ry

     iteration #  2     ecut=    80.00 Ry     beta= 0.50
     Davidson diagonalization with overlap
     ethr =  1.58E-03,  avg # of iterations =  3.0

     total cpu time spent up to now is        4.9 secs

     total energy              =    -987.00605974 Ry
     Harris-Foulkes estimate   =    -987.17728180 Ry
     estimated scf accuracy    <       0.39623346 Ry

     iteration #  3     ecut=    80.00 Ry     beta= 0.50
     Davidson diagonalization with overlap
     ethr =  7.62E-04,  avg # of iterations =  2.0

     total cpu time spent up to now is        6.0 secs

     total energy              =    -987.07731237 Ry
     Harris-Foulkes estimate   =    -987.07963967 Ry
     estimated scf accuracy    <       0.00685673 Ry

     iteration #  4     ecut=    80.00 Ry     beta= 0.50
     Davidson diagonalization with overlap
     ethr =  1.32E-05,  avg # of iterations =  2.0

     total cpu time spent up to now is        7.1 secs

     total energy              =    -987.07789515 Ry
     Harris-Foulkes estimate   =    -987.07836374 Ry
     estimated scf accuracy    <       0.00155153 Ry

     iteration #  5     ecut=    80.00 Ry     beta= 0.50
     Davidson diagonalization with overlap
     ethr =  2.98E-06,  avg # of iterations =  2.0

     total cpu time spent up to now is        8.2 secs

     total energy              =    -987.07805966 Ry
     Harris-Foulkes estimate   =    -987.07807051 Ry
     estimated scf accuracy    <       0.00002070 Ry

     iteration #  6     ecut=    80.00 Ry     beta= 0.50
     Davidson diagonalization with overlap
     ethr =  3.98E-08,  avg # of iterations =  2.0

     total cpu time spent up to now is        9.3 secs

     total energy              =    -987.07806291 Ry
     Harris-Foulkes estimate   =    -987.07806230 Ry
     estimated scf accuracy    <       0.00000412 Ry

     iteration #  7     ecut=    80.00 Ry     beta= 0.50
     Davidson diagonalization with overlap
     ethr =  7.91E-09,  avg # of iterations =  1.4

     total cpu time spent up to now is       10.2 secs

     End of self-consistent calculation

          k = 0.0000 0.0000 0.0000 (  3863 PWs)   bands (ev):

  -114.3305-114.3303 -68.6945 -68.6945 -68.6939 -68.6939 -68.6765 -68.6735
    -9.2509  -8.5256   2.8209   2.8719   3.1051   3.1051   3.3591   3.3591
     4.2295   4.2295   4.4326   4.4326   4.6101   7.9409   7.9409   8.6985
     8.8145   8.8145

     occupation numbers 
     1.0000   1.0000   1.0000   1.0000   1.0000   1.0000   1.0000   1.0000
     1.0000   1.0000   1.0000   1.0000   1.0000   1.0000   1.0000   1.0000
     1.0000   1.0000   1.0000   1.0000   1.0000   1.0000   1.0000   1.0000
     1.0000   1.0000

          k = 0.0000 0.0000 0.0745 (  3845 PWs)   bands (ev):

  -114.3305-114.3303 -68.6944 -68.6944 -68.6939 -68.6939 -68.6764 -68.6736
    -9.2251  -8.5551   2.7710   2.8457   3.1116   3.1116   3.3456   3.3456
     4.2395   4.2395   4.4277   4.4277   4.7755   7.9748   7.9748   8.3025
     8.7818   8.7818

     occupation numbers 
     1.0000   1.0000   1.0000   1.0000   1.0000   1.0000   1.0000   1.0000
     1.0000   1.0000   1.0000   1.0000   1.0000   1.0000   1.0000   1.0000
     1.0000   1.0000   1.0000   1.0000   1.0000   1.0000   1.0000   1.0000
     1.0000   1.0000

          k = 0.0000 0.0000 0.1490 (  3875 PWs)   bands (ev):

  -114.3304-114.3303 -68.6944 -68.6944 -68.6940 -68.6940 -68.6760 -68.6740
    -9.1508  -8.6383   2.6805   2.7778   3.1312   3.1312   3.3091   3.3091
     4.2671   4.2671   4.4122   4.4122   5.1990   7.6839   8.0709   8.0710
     8.6885   8.6885

     occupation numbers 
     1.0000   1.0000   1.0000   1.0000   1.0000   1.0000   1.0000   1.0000
     1.0000   1.0000   1.0000   1.0000   1.0000   1.0000   1.0000   1.0000
     1.0000   1.0000   1.0000   1.0000   1.0000   1.0000   1.0000   1.0000
     1.0000   1.0000

          k = 0.0000 0.0000 0.2235 (  3863 PWs)   bands (ev):

  -114.3304-114.3303 -68.6943 -68.6943 -68.6941 -68.6941 -68.6755 -68.6744
    -9.0376  -8.7604   2.6272   2.6964   3.1640   3.1640   3.2597   3.2597
     4.3060   4.3060   4.3851   4.3851   5.7648   7.0414   8.2141   8.2141
     8.5482   8.5482

     occupation numbers 
     1.0000   1.0000   1.0000   1.0000   1.0000   1.0000   1.0000   1.0000
     1.0000   1.0000   1.0000   1.0000   1.0000   1.0000   1.0000   1.0000
     1.0000   1.0000   1.0000   1.0000   1.0000   1.0000   1.0000   1.0000
     1.0000   1.0000

          k =-0.0000-0.0000-0.2981 (  3856 PWs)   bands (ev):

  -114.3304-114.3303 -68.6942 -68.6942 -68.6942 -68.6942 -68.6750 -68.6749
    -8.9009  -8.9008   2.6363   2.6363   3.2084   3.2085   3.2085   3.2085
     4.3479   4.3479   4.3480   4.3480   6.3942   6.3943   8.3817   8.3817
     8.3818   8.3818

     occupation numbers 
     1.0000   1.0000   1.0000   1.0000   1.0000   1.0000   1.0000   1.0000
     1.0000   1.0000   1.0000   1.0000   1.0000   1.0000   1.0000   1.0000
     1.0000   1.0000   1.0000   1.0000   1.0000   1.0000   1.0000   1.0000
     1.0000   1.0000

          k = 0.0000 0.1443 0.0000 (  3865 PWs)   bands (ev):

  -114.3304-114.3303 -68.6948 -68.6946 -68.6944 -68.6940 -68.6764 -68.6736
    -9.1584  -8.4810   2.9222   2.9385   3.0492   3.1409   3.3513   3.4259
     4.1902   4.2296   4.4387   4.4435   4.6121   7.3834   7.7500   7.9932
     8.6005   8.7253

     occupation numbers 
     1.0000   1.0000   1.0000   1.0000   1.0000   1.0000   1.0000   1.0000
     1.0000   1.0000   1.0000   1.0000   1.0000   1.0000   1.0000   1.0000
     1.0000   1.0000   1.0000   1.0000   1.0000   1.0000   1.0000   1.0000
     1.0000   1.0000

          k = 0.0000 0.1443 0.0745 (  3867 PWs)   bands (ev):

  -114.3304-114.3303 -68.6948 -68.6946 -68.6944 -68.6941 -68.6762 -68.6737
    -9.1340  -8.5083   2.8608   2.8938   3.0605   3.1486   3.3432   3.4111
     4.2037   4.2392   4.4327   4.4403   4.7890   7.4156   7.7883   7.8589
     8.5328   8.6890

     occupation numbers 
     1.0000   1.0000   1.0000   1.0000   1.0000   1.0000   1.0000   1.0000
     1.0000   1.0000   1.0000   1.0000   1.0000   1.0000   1.0000   1.0000
     1.0000   1.0000   1.0000   1.0000   1.0000   1.0000   1.0000   1.0000
     1.0000   1.0000

          k = 0.0000 0.1443 0.1490 (  3856 PWs)   bands (ev):

  -114.3304-114.3303 -68.6948 -68.6945 -68.6944 -68.6941 -68.6759 -68.6740
    -9.0640  -8.5852   2.7498   2.7858   3.1020   3.1717   3.3113   3.3712
     4.2388   4.2659   4.4146   4.4208   5.2333   7.4054   7.6164   7.8967
     8.3712   8.5854

     occupation numbers 
     1.0000   1.0000   1.0000   1.0000   1.0000   1.0000   1.0000   1.0000
     1.0000   1.0000   1.0000   1.0000   1.0000   1.0000   1.0000   1.0000
     1.0000   1.0000   1.0000   1.0000   1.0000   1.0000   1.0000   1.0000
     1.0000   1.0000

          k = 0.0000 0.1443 0.2235 (  3851 PWs)   bands (ev):

  -114.3304-114.3303 -68.6947 -68.6945 -68.6944 -68.6942 -68.6755 -68.6744
    -8.9576  -8.6986   2.6635   2.6972   3.1510   3.2095   3.2612   3.3168
     4.2871   4.3041   4.3849   4.3858   5.8020   6.9639   7.7339   8.0572
     8.1620   8.4296

     occupation numbers 
     1.0000   1.0000   1.0000   1.0000   1.0000   1.0000   1.0000   1.0000
     1.0000   1.0000   1.0000   1.0000   1.0000   1.0000   1.0000   1.0000
     1.0000   1.0000   1.0000   1.0000   1.0000   1.0000   1.0000   1.0000
     1.0000   1.0000

          k = 0.0000 0.1443-0.2981 (  3846 PWs)   bands (ev):

  -114.3304-114.3303 -68.6946 -68.6945 -68.6943 -68.6943 -68.6750 -68.6749
    -8.8296  -8.8295   2.6482   2.6483   3.2050   3.2050   3.2597   3.2597
     4.3390   4.3391   4.3461   4.3462   6.4001   6.4002   7.9385   7.9386
     8.2443   8.2444

     occupation numbers 
     1.0000   1.0000   1.0000   1.0000   1.0000   1.0000   1.0000   1.0000
     1.0000   1.0000   1.0000   1.0000   1.0000   1.0000   1.0000   1.0000
     1.0000   1.0000   1.0000   1.0000   1.0000   1.0000   1.0000   1.0000
     1.0000   1.0000

          k = 0.0000 0.1443-0.2235 (  3851 PWs)   bands (ev):

  -114.3304-114.3303 -68.6947 -68.6945 -68.6944 -68.6942 -68.6755 -68.6744
    -8.9576  -8.6986   2.6635   2.6972   3.1510   3.2095   3.2612   3.3168
     4.2871   4.3041   4.3849   4.3858   5.8020   6.9639   7.7339   8.0572
     8.1620   8.4296

     occupation numbers 
     1.0000   1.0000   1.0000   1.0000   1.0000   1.0000   1.0000   1.0000
     1.0000   1.0000   1.0000   1.0000   1.0000   1.0000   1.0000   1.0000
     1.0000   1.0000   1.0000   1.0000   1.0000   1.0000   1.0000   1.0000
     1.0000   1.0000

          k = 0.0000 0.1443-0.1490 (  3856 PWs)   bands (ev):

  -114.3304-114.3303 -68.6948 -68.6945 -68.6944 -68.6941 -68.6759 -68.6740
    -9.0640  -8.5852   2.7498   2.7858   3.1020   3.1717   3.3113   3.3712
     4.2388   4.2659   4.4146   4.4208   5.2333   7.4054   7.6163   7.8967
     8.3712   8.5854

     occupation numbers 
     1.0000   1.0000   1.0000   1.0000   1.0000   1.0000   1.0000   1.0000
     1.0000   1.0000   1.0000   1.0000   1.0000   1.0000   1.0000   1.0000
     1.0000   1.0000   1.0000   1.0000   1.0000   1.0000   1.0000   1.0000
     1.0000   1.0000

          k = 0.0000 0.1443-0.0745 (  3867 PWs)   bands (ev):

  -114.3304-114.3303 -68.6948 -68.6946 -68.6944 -68.6941 -68.6762 -68.6737
    -9.1340  -8.5083   2.8608   2.8939   3.0605   3.1486   3.3432   3.4111
     4.2037   4.2392   4.4327   4.4403   4.7890   7.4156   7.7883   7.8589
     8.5328   8.6890

     occupation numbers 
     1.0000   1.0000   1.0000   1.0000   1.0000   1.0000   1.0000   1.0000
     1.0000   1.0000   1.0000   1.0000   1.0000   1.0000   1.0000   1.0000
     1.0000   1.0000   1.0000   1.0000   1.0000   1.0000   1.0000   1.0000
     1.0000   1.0000

          k = 0.0000 0.2887 0.0000 (  3849 PWs)   bands (ev):

  -114.3304-114.3302 -68.6957 -68.6953 -68.6949 -68.6943 -68.6760 -68.6737
    -8.9198  -8.3790   2.7799   3.0301   3.2088   3.2643   3.5238   3.6063
     4.1183   4.2674   4.4242   4.4509   4.7062   6.2163   7.1195   7.2856
     8.2657   8.4940

     occupation numbers 
     1.0000   1.0000   1.0000   1.0000   1.0000   1.0000   1.0000   1.0000
     1.0000   1.0000   1.0000   1.0000   1.0000   1.0000   1.0000   1.0000
     1.0000   1.0000   1.0000   1.0000   1.0000   1.0000   1.0000   1.0000
     1.0000   1.0000

          k = 0.0000 0.2887 0.0745 (  3854 PWs)   bands (ev):

  -114.3304-114.3302 -68.6957 -68.6954 -68.6948 -68.6943 -68.6759 -68.6738
    -8.8997  -8.4000   2.7501   2.9972   3.2163   3.2205   3.4705   3.5868
     4.1416   4.2745   4.4436   4.4580   4.8777   6.2647   7.0582   7.3348
     8.2218   8.4498

     occupation numbers 
     1.0000   1.0000   1.0000   1.0000   1.0000   1.0000   1.0000   1.0000
     1.0000   1.0000   1.0000   1.0000   1.0000   1.0000   1.0000   1.0000
     1.0000   1.0000   1.0000   1.0000   1.0000   1.0000   1.0000   1.0000
     1.0000   1.0000

          k = 0.0000 0.2887 0.1490 (  3857 PWs)   bands (ev):

  -114.3304-114.3303 -68.6957 -68.6954 -68.6948 -68.6943 -68.6756 -68.6741
    -8.8422  -8.4596   2.6857   2.8559   3.1946   3.2551   3.4015   3.5335
     4.1929   4.2944   4.4233   4.4460   5.3169   6.3880   6.9300   7.4727
     8.0546   8.3235

     occupation numbers 
     1.0000   1.0000   1.0000   1.0000   1.0000   1.0000   1.0000   1.0000
     1.0000   1.0000   1.0000   1.0000   1.0000   1.0000   1.0000   1.0000
     1.0000   1.0000   1.0000   1.0000   1.0000   1.0000   1.0000   1.0000
     1.0000   1.0000

          k = 0.0000 0.2887 0.2235 (  3844 PWs)   bands (ev):

  -114.3304-114.3303 -68.6956 -68.6955 -68.6947 -68.6944 -68.6753 -68.6744
    -8.7555  -8.5484   2.6329   2.7080   3.2269   3.3104   3.3381   3.4600
     4.2596   4.3240   4.3934   4.3969   5.7921   6.4096   6.9675   7.6741
     7.7341   8.1332

     occupation numbers 
     1.0000   1.0000   1.0000   1.0000   1.0000   1.0000   1.0000   1.0000
     1.0000   1.0000   1.0000   1.0000   1.0000   1.0000   1.0000   1.0000
     1.0000   1.0000   1.0000   1.0000   1.0000   1.0000   1.0000   1.0000
     1.0000   1.0000

          k = 0.0000 0.2887-0.2981 (  3854 PWs)   bands (ev):

  -114.3303-114.3303 -68.6956 -68.6955 -68.6946 -68.6945 -68.6749 -68.6748
    -8.6525  -8.6524   2.6323   2.6323   3.2781   3.2781   3.3814   3.3814
     4.3311   4.3311   4.3586   4.3587   6.1718   6.1719   7.3181   7.3181
     7.9059   7.9059

     occupation numbers 
     1.0000   1.0000   1.0000   1.0000   1.0000   1.0000   1.0000   1.0000
     1.0000   1.0000   1.0000   1.0000   1.0000   1.0000   1.0000   1.0000
     1.0000   1.0000   1.0000   1.0000   1.0000   1.0000   1.0000   1.0000
     1.0000   1.0000

          k = 0.0000 0.2887-0.2235 (  3844 PWs)   bands (ev):

  -114.3304-114.3303 -68.6956 -68.6955 -68.6947 -68.6944 -68.6753 -68.6744
    -8.7555  -8.5484   2.6329   2.7080   3.2269   3.3104   3.3381   3.4600
     4.2596   4.3240   4.3934   4.3969   5.7921   6.4096   6.9674   7.6741
     7.7341   8.1332

     occupation numbers 
     1.0000   1.0000   1.0000   1.0000   1.0000   1.0000   1.0000   1.0000
     1.0000   1.0000   1.0000   1.0000   1.0000   1.0000   1.0000   1.0000
     1.0000   1.0000   1.0000   1.0000   1.0000   1.0000   1.0000   1.0000
     1.0000   1.0000

          k = 0.0000 0.2887-0.1490 (  3857 PWs)   bands (ev):

  -114.3304-114.3303 -68.6957 -68.6954 -68.6948 -68.6943 -68.6756 -68.6741
    -8.8422  -8.4596   2.6857   2.8559   3.1946   3.2551   3.4015   3.5335
     4.1929   4.2944   4.4233   4.4460   5.3169   6.3880   6.9300   7.4727
     8.0546   8.3235

     occupation numbers 
     1.0000   1.0000   1.0000   1.0000   1.0000   1.0000   1.0000   1.0000
     1.0000   1.0000   1.0000   1.0000   1.0000   1.0000   1.0000   1.0000
     1.0000   1.0000   1.0000   1.0000   1.0000   1.0000   1.0000   1.0000
     1.0000   1.0000

          k = 0.0000 0.2887-0.0745 (  3854 PWs)   bands (ev):

  -114.3304-114.3302 -68.6957 -68.6954 -68.6948 -68.6943 -68.6759 -68.6738
    -8.8997  -8.4000   2.7501   2.9972   3.2163   3.2205   3.4706   3.5868
     4.1416   4.2745   4.4436   4.4579   4.8777   6.2647   7.0582   7.3348
     8.2218   8.4498

     occupation numbers 
     1.0000   1.0000   1.0000   1.0000   1.0000   1.0000   1.0000   1.0000
     1.0000   1.0000   1.0000   1.0000   1.0000   1.0000   1.0000   1.0000
     1.0000   1.0000   1.0000   1.0000   1.0000   1.0000   1.0000   1.0000
     1.0000   1.0000

          k = 0.0000 0.4330 0.0000 (  3853 PWs)   bands (ev):

  -114.3303-114.3302 -68.6967 -68.6963 -68.6951 -68.6945 -68.6755 -68.6740
    -8.6454  -8.2978   2.7036   3.0293   3.2456   3.4573   3.5895   3.8213
     4.2006   4.3675   4.4702   4.6245   4.8843   5.2772   6.3645   6.7905
     7.7045   8.2410

     occupation numbers 
     1.0000   1.0000   1.0000   1.0000   1.0000   1.0000   1.0000   1.0000
     1.0000   1.0000   1.0000   1.0000   1.0000   1.0000   1.0000   1.0000
     1.0000   1.0000   1.0000   1.0000   1.0000   1.0000   1.0000   1.0000
     1.0000   1.0000

          k = 0.0000 0.4330 0.0745 (  3859 PWs)   bands (ev):

  -114.3303-114.3302 -68.6967 -68.6963 -68.6951 -68.6945 -68.6754 -68.6741
    -8.6317  -8.3104   2.6794   2.9749   3.2625   3.4293   3.5613   3.7924
     4.2152   4.3703   4.4637   4.5903   4.9771   5.4014   6.3409   6.8532
     7.7256   8.1893

     occupation numbers 
     1.0000   1.0000   1.0000   1.0000   1.0000   1.0000   1.0000   1.0000
     1.0000   1.0000   1.0000   1.0000   1.0000   1.0000   1.0000   1.0000
     1.0000   1.0000   1.0000   1.0000   1.0000   1.0000   1.0000   1.0000
     1.0000   1.0000

          k = 0.0000 0.4330 0.1490 (  3836 PWs)   bands (ev):

  -114.3303-114.3302 -68.6966 -68.6964 -68.6950 -68.6946 -68.6753 -68.6742
    -8.5928  -8.3467   2.6259   2.8318   3.3120   3.3967   3.5161   3.7140
     4.2573   4.3786   4.4476   4.5264   5.1403   5.6233   6.3998   7.0260
     7.7169   8.0416

     occupation numbers 
     1.0000   1.0000   1.0000   1.0000   1.0000   1.0000   1.0000   1.0000
     1.0000   1.0000   1.0000   1.0000   1.0000   1.0000   1.0000   1.0000
     1.0000   1.0000   1.0000   1.0000   1.0000   1.0000   1.0000   1.0000
     1.0000   1.0000

          k = 0.0000 0.4330 0.2235 (  3842 PWs)   bands (ev):

  -114.3303-114.3302 -68.6966 -68.6964 -68.6949 -68.6947 -68.6750 -68.6745
    -8.5351  -8.4018   2.5851   2.6838   3.3911   3.4001   3.4701   3.6067
     4.3178   4.3918   4.4280   4.4568   5.3130   5.6260   6.7532   7.2724
     7.5574   7.8185

     occupation numbers 
     1.0000   1.0000   1.0000   1.0000   1.0000   1.0000   1.0000   1.0000
     1.0000   1.0000   1.0000   1.0000   1.0000   1.0000   1.0000   1.0000
     1.0000   1.0000   1.0000   1.0000   1.0000   1.0000   1.0000   1.0000
     1.0000   1.0000

          k = 0.0000 0.4330-0.2981 (  3838 PWs)   bands (ev):

  -114.3303-114.3302 -68.6966 -68.6965 -68.6948 -68.6948 -68.6748 -68.6747
    -8.4680  -8.4678   2.5973   2.5973   3.4285   3.4285   3.4931   3.4931
     4.3863   4.3864   4.4087   4.4088   5.4851   5.4851   7.2093   7.2093
     7.5499   7.5500

     occupation numbers 
     1.0000   1.0000   1.0000   1.0000   1.0000   1.0000   1.0000   1.0000
     1.0000   1.0000   1.0000   1.0000   1.0000   1.0000   1.0000   1.0000
     1.0000   1.0000   1.0000   1.0000   1.0000   1.0000   1.0000   1.0000
     1.0000   1.0000

          k = 0.0000 0.4330-0.2235 (  3842 PWs)   bands (ev):

  -114.3303-114.3302 -68.6966 -68.6964 -68.6949 -68.6947 -68.6750 -68.6745
    -8.5351  -8.4018   2.5851   2.6838   3.3911   3.4001   3.4701   3.6067
     4.3178   4.3918   4.4280   4.4568   5.3130   5.6260   6.7532   7.2724
     7.5574   7.8185

     occupation numbers 
     1.0000   1.0000   1.0000   1.0000   1.0000   1.0000   1.0000   1.0000
     1.0000   1.0000   1.0000   1.0000   1.0000   1.0000   1.0000   1.0000
     1.0000   1.0000   1.0000   1.0000   1.0000   1.0000   1.0000   1.0000
     1.0000   1.0000

          k = 0.0000 0.4330-0.1490 (  3836 PWs)   bands (ev):

  -114.3303-114.3302 -68.6966 -68.6964 -68.6950 -68.6946 -68.6753 -68.6742
    -8.5928  -8.3467   2.6259   2.8318   3.3120   3.3967   3.5161   3.7140
     4.2574   4.3787   4.4476   4.5264   5.1403   5.6233   6.3998   7.0260
     7.7169   8.0416

     occupation numbers 
     1.0000   1.0000   1.0000   1.0000   1.0000   1.0000   1.0000   1.0000
     1.0000   1.0000   1.0000   1.0000   1.0000   1.0000   1.0000   1.0000
     1.0000   1.0000   1.0000   1.0000   1.0000   1.0000   1.0000   1.0000
     1.0000   1.0000

          k = 0.0000 0.4330-0.0745 (  3859 PWs)   bands (ev):

  -114.3303-114.3302 -68.6967 -68.6963 -68.6951 -68.6945 -68.6754 -68.6741
    -8.6317  -8.3104   2.6794   2.9749   3.2625   3.4292   3.5613   3.7924
     4.2152   4.3703   4.4637   4.5903   4.9771   5.4014   6.3408   6.8532
     7.7257   8.1893

     occupation numbers 
     1.0000   1.0000   1.0000   1.0000   1.0000   1.0000   1.0000   1.0000
     1.0000   1.0000   1.0000   1.0000   1.0000   1.0000   1.0000   1.0000
     1.0000   1.0000   1.0000   1.0000   1.0000   1.0000   1.0000   1.0000
     1.0000   1.0000

          k =-0.0000-0.5774-0.0000 (  3854 PWs)   bands (ev):

  -114.3303-114.3302 -68.6971 -68.6967 -68.6953 -68.6946 -68.6753 -68.6743
    -8.5055  -8.2857   2.7690   2.9686   3.2519   3.4068   3.6753   3.9206
     4.1960   4.4344   4.4852   4.5828   4.9588   5.4596   5.8723   6.5646
     7.3320   8.1291

     occupation numbers 
     1.0000   1.0000   1.0000   1.0000   1.0000   1.0000   1.0000   1.0000
     1.0000   1.0000   1.0000   1.0000   1.0000   1.0000   1.0000   1.0000
     1.0000   1.0000   1.0000   1.0000   1.0000   1.0000   1.0000   1.0000
     1.0000   1.0000

          k =-0.0000-0.5774 0.0745 (  3842 PWs)   bands (ev):

  -114.3303-114.3302 -68.6970 -68.6967 -68.6952 -68.6946 -68.6752 -68.6743
    -8.4963  -8.2930   2.7382   2.9068   3.2709   3.4152   3.6500   3.8858
     4.2407   4.4350   4.4791   4.5814   4.9489   5.4090   6.0234   6.6350
     7.3861   8.0743

     occupation numbers 
     1.0000   1.0000   1.0000   1.0000   1.0000   1.0000   1.0000   1.0000
     1.0000   1.0000   1.0000   1.0000   1.0000   1.0000   1.0000   1.0000
     1.0000   1.0000   1.0000   1.0000   1.0000   1.0000   1.0000   1.0000
     1.0000   1.0000

          k =-0.0000-0.5774 0.1490 (  3842 PWs)   bands (ev):

  -114.3303-114.3302 -68.6970 -68.6968 -68.6952 -68.6947 -68.6751 -68.6744
    -8.4702  -8.3145   2.6676   2.7716   3.3269   3.4363   3.5985   3.7920
     4.3367   4.4371   4.4665   4.5744   4.9456   5.2904   6.3954   6.8266
     7.4731   7.9176

     occupation numbers 
     1.0000   1.0000   1.0000   1.0000   1.0000   1.0000   1.0000   1.0000
     1.0000   1.0000   1.0000   1.0000   1.0000   1.0000   1.0000   1.0000
     1.0000   1.0000   1.0000   1.0000   1.0000   1.0000   1.0000   1.0000
     1.0000   1.0000

          k =-0.0000-0.5774 0.2235 (  3830 PWs)   bands (ev):

  -114.3303-114.3302 -68.6970 -68.6968 -68.6950 -68.6948 -68.6749 -68.6745
    -8.4322  -8.3478   2.6039   2.6492   3.4167   3.4651   3.5463   3.6654
     4.4350   4.4407   4.4548   4.5540   4.9755   5.1583   6.8422   7.0953
     7.4487   7.6805

     occupation numbers 
     1.0000   1.0000   1.0000   1.0000   1.0000   1.0000   1.0000   1.0000
     1.0000   1.0000   1.0000   1.0000   1.0000   1.0000   1.0000   1.0000
     1.0000   1.0000   1.0000   1.0000   1.0000   1.0000   1.0000   1.0000
     1.0000   1.0000

          k =-0.0000-0.5774-0.2981 (  3832 PWs)   bands (ev):

  -114.3303-114.3302 -68.6969 -68.6969 -68.6949 -68.6949 -68.6747 -68.6747
    -8.3891  -8.3890   2.5903   2.5903   3.5014   3.5015   3.5336   3.5336
     4.4463   4.4464   4.5098   4.5098   5.0474   5.0474   7.2285   7.2286
     7.3940   7.3941

     occupation numbers 
     1.0000   1.0000   1.0000   1.0000   1.0000   1.0000   1.0000   1.0000
     1.0000   1.0000   1.0000   1.0000   1.0000   1.0000   1.0000   1.0000
     1.0000   1.0000   1.0000   1.0000   1.0000   1.0000   1.0000   1.0000
     1.0000   1.0000

          k = 0.1250 0.0722 0.0000 (  3865 PWs)   bands (ev):

  -114.3304-114.3303 -68.6948 -68.6946 -68.6944 -68.6940 -68.6764 -68.6736
    -9.1584  -8.4810   2.9222   2.9385   3.0492   3.1409   3.3513   3.4259
     4.1902   4.2296   4.4387   4.4435   4.6121   7.3834   7.7500   7.9932
     8.6005   8.7253

     occupation numbers 
     1.0000   1.0000   1.0000   1.0000   1.0000   1.0000   1.0000   1.0000
     1.0000   1.0000   1.0000   1.0000   1.0000   1.0000   1.0000   1.0000
     1.0000   1.0000   1.0000   1.0000   1.0000   1.0000   1.0000   1.0000
     1.0000   1.0000

          k = 0.1250 0.0722 0.0745 (  3867 PWs)   bands (ev):

  -114.3304-114.3303 -68.6948 -68.6946 -68.6944 -68.6941 -68.6762 -68.6737
    -9.1340  -8.5083   2.8608   2.8939   3.0605   3.1486   3.3432   3.4111
     4.2037   4.2392   4.4327   4.4403   4.7890   7.4156   7.7883   7.8589
     8.5328   8.6890

     occupation numbers 
     1.0000   1.0000   1.0000   1.0000   1.0000   1.0000   1.0000   1.0000
     1.0000   1.0000   1.0000   1.0000   1.0000   1.0000   1.0000   1.0000
     1.0000   1.0000   1.0000   1.0000   1.0000   1.0000   1.0000   1.0000
     1.0000   1.0000

          k = 0.1250 0.0722 0.1490 (  3856 PWs)   bands (ev):

  -114.3304-114.3303 -68.6948 -68.6945 -68.6944 -68.6941 -68.6759 -68.6740
    -9.0640  -8.5852   2.7498   2.7858   3.1020   3.1716   3.3113   3.3712
     4.2388   4.2659   4.4146   4.4208   5.2333   7.4054   7.6163   7.8967
     8.3712   8.5854

     occupation numbers 
     1.0000   1.0000   1.0000   1.0000   1.0000   1.0000   1.0000   1.0000
     1.0000   1.0000   1.0000   1.0000   1.0000   1.0000   1.0000   1.0000
     1.0000   1.0000   1.0000   1.0000   1.0000   1.0000   1.0000   1.0000
     1.0000   1.0000

          k = 0.1250 0.0722 0.2235 (  3851 PWs)   bands (ev):

  -114.3304-114.3303 -68.6947 -68.6945 -68.6944 -68.6942 -68.6755 -68.6744
    -8.9576  -8.6986   2.6635   2.6972   3.1510   3.2095   3.2612   3.3168
     4.2871   4.3041   4.3849   4.3858   5.8020   6.9639   7.7339   8.0572
     8.1620   8.4296

     occupation numbers 
     1.0000   1.0000   1.0000   1.0000   1.0000   1.0000   1.0000   1.0000
     1.0000   1.0000   1.0000   1.0000   1.0000   1.0000   1.0000   1.0000
     1.0000   1.0000   1.0000   1.0000   1.0000   1.0000   1.0000   1.0000
     1.0000   1.0000

          k = 0.1250 0.0722-0.2981 (  3846 PWs)   bands (ev):

  -114.3304-114.3303 -68.6946 -68.6945 -68.6943 -68.6943 -68.6750 -68.6749
    -8.8296  -8.8295   2.6482   2.6483   3.2050   3.2050   3.2597   3.2597
     4.3390   4.3391   4.3461   4.3462   6.4001   6.4002   7.9385   7.9386
     8.2443   8.2444

     occupation numbers 
     1.0000   1.0000   1.0000   1.0000   1.0000   1.0000   1.0000   1.0000
     1.0000   1.0000   1.0000   1.0000   1.0000   1.0000   1.0000   1.0000
     1.0000   1.0000   1.0000   1.0000   1.0000   1.0000   1.0000   1.0000
     1.0000   1.0000

          k = 0.1250 0.0722-0.2235 (  3851 PWs)   bands (ev):

  -114.3304-114.3303 -68.6947 -68.6945 -68.6944 -68.6942 -68.6755 -68.6744
    -8.9576  -8.6986   2.6635   2.6972   3.1510   3.2095   3.2612   3.3168
     4.2871   4.3041   4.3849   4.3858   5.8020   6.9639   7.7339   8.0572
     8.1620   8.4296

     occupation numbers 
     1.0000   1.0000   1.0000   1.0000   1.0000   1.0000   1.0000   1.0000
     1.0000   1.0000   1.0000   1.0000   1.0000   1.0000   1.0000   1.0000
     1.0000   1.0000   1.0000   1.0000   1.0000   1.0000   1.0000   1.0000
     1.0000   1.0000

          k = 0.1250 0.0722-0.1490 (  3856 PWs)   bands (ev):

  -114.3304-114.3303 -68.6948 -68.6945 -68.6944 -68.6941 -68.6759 -68.6740
    -9.0640  -8.5852   2.7498   2.7858   3.1020   3.1716   3.3113   3.3712
     4.2388   4.2659   4.4146   4.4208   5.2333   7.4054   7.6164   7.8967
     8.3712   8.5854

     occupation numbers 
     1.0000   1.0000   1.0000   1.0000   1.0000   1.0000   1.0000   1.0000
     1.0000   1.0000   1.0000   1.0000   1.0000   1.0000   1.0000   1.0000
     1.0000   1.0000   1.0000   1.0000   1.0000   1.0000   1.0000   1.0000
     1.0000   1.0000

          k = 0.1250 0.0722-0.0745 (  3867 PWs)   bands (ev):

  -114.3304-114.3303 -68.6948 -68.6946 -68.6944 -68.6941 -68.6762 -68.6737
    -9.1340  -8.5083   2.8608   2.8938   3.0605   3.1486   3.3432   3.4111
     4.2037   4.2392   4.4327   4.4403   4.7890   7.4156   7.7883   7.8589
     8.5328   8.6890

     occupation numbers 
     1.0000   1.0000   1.0000   1.0000   1.0000   1.0000   1.0000   1.0000
     1.0000   1.0000   1.0000   1.0000   1.0000   1.0000   1.0000   1.0000
     1.0000   1.0000   1.0000   1.0000   1.0000   1.0000   1.0000   1.0000
     1.0000   1.0000

          k = 0.1250 0.2165 0.0000 (  3845 PWs)   bands (ev):

  -114.3304-114.3302 -68.6954 -68.6951 -68.6947 -68.6942 -68.6761 -68.6737
    -8.9925  -8.4077   2.8968   3.0179   3.0353   3.2985   3.4420   3.5439
     4.1411   4.2306   4.4441   4.4447   4.6696   6.7143   7.0039   7.5901
     8.3898   8.4972

     occupation numbers 
     1.0000   1.0000   1.0000   1.0000   1.0000   1.0000   1.0000   1.0000
     1.0000   1.0000   1.0000   1.0000   1.0000   1.0000   1.0000   1.0000
     1.0000   1.0000   1.0000   1.0000   1.0000   1.0000   1.0000   1.0000
     1.0000   1.0000

          k = 0.1250 0.2165 0.0745 (  3853 PWs)   bands (ev):

  -114.3304-114.3303 -68.6954 -68.6951 -68.6947 -68.6943 -68.6760 -68.6738
    -8.9710  -8.4307   2.8431   2.9807   3.0563   3.2584   3.4155   3.5265
     4.1576   4.2502   4.4379   4.4603   4.8451   6.7625   6.9942   7.5691
     8.3346   8.4531

     occupation numbers 
     1.0000   1.0000   1.0000   1.0000   1.0000   1.0000   1.0000   1.0000
     1.0000   1.0000   1.0000   1.0000   1.0000   1.0000   1.0000   1.0000
     1.0000   1.0000   1.0000   1.0000   1.0000   1.0000   1.0000   1.0000
     1.0000   1.0000

          k = 0.1250 0.2165 0.1490 (  3869 PWs)   bands (ev):

  -114.3304-114.3303 -68.6954 -68.6952 -68.6947 -68.6943 -68.6758 -68.6741
    -8.9094  -8.4958   2.7521   2.8326   3.1145   3.2395   3.3709   3.4795
     4.2024   4.2799   4.4181   4.4421   5.2980   6.9043   6.9066   7.5852
     8.1518   8.3279

     occupation numbers 
     1.0000   1.0000   1.0000   1.0000   1.0000   1.0000   1.0000   1.0000
     1.0000   1.0000   1.0000   1.0000   1.0000   1.0000   1.0000   1.0000
     1.0000   1.0000   1.0000   1.0000   1.0000   1.0000   1.0000   1.0000
     1.0000   1.0000

          k = 0.1250 0.2165 0.2235 (  3862 PWs)   bands (ev):

  -114.3304-114.3303 -68.6953 -68.6952 -68.6946 -68.6944 -68.6753 -68.6744
    -8.8164  -8.5925   2.6770   2.7036   3.1717   3.2540   3.3318   3.4164
     4.2647   4.3142   4.3884   4.3954   5.8274   6.6696   7.1460   7.7056
     7.8553   8.1421

     occupation numbers 
     1.0000   1.0000   1.0000   1.0000   1.0000   1.0000   1.0000   1.0000
     1.0000   1.0000   1.0000   1.0000   1.0000   1.0000   1.0000   1.0000
     1.0000   1.0000   1.0000   1.0000   1.0000   1.0000   1.0000   1.0000
     1.0000   1.0000

          k = 0.1250 0.2165-0.2981 (  3866 PWs)   bands (ev):

  -114.3304-114.3303 -68.6953 -68.6952 -68.6946 -68.6945 -68.6749 -68.6748
    -8.7052  -8.7051   2.6523   2.6523   3.2264   3.2264   3.3548   3.3548
     4.3315   4.3315   4.3533   4.3534   6.3045   6.3045   7.4708   7.4708
     7.9288   7.9289

     occupation numbers 
     1.0000   1.0000   1.0000   1.0000   1.0000   1.0000   1.0000   1.0000
     1.0000   1.0000   1.0000   1.0000   1.0000   1.0000   1.0000   1.0000
     1.0000   1.0000   1.0000   1.0000   1.0000   1.0000   1.0000   1.0000
     1.0000   1.0000

          k = 0.1250 0.2165-0.2235 (  3862 PWs)   bands (ev):

  -114.3304-114.3303 -68.6953 -68.6952 -68.6946 -68.6944 -68.6753 -68.6744
    -8.8164  -8.5925   2.6770   2.7036   3.1717   3.2540   3.3318   3.4164
     4.2647   4.3142   4.3884   4.3954   5.8274   6.6696   7.1460   7.7056
     7.8553   8.1421

     occupation numbers 
     1.0000   1.0000   1.0000   1.0000   1.0000   1.0000   1.0000   1.0000
     1.0000   1.0000   1.0000   1.0000   1.0000   1.0000   1.0000   1.0000
     1.0000   1.0000   1.0000   1.0000   1.0000   1.0000   1.0000   1.0000
     1.0000   1.0000

          k = 0.1250 0.2165-0.1490 (  3869 PWs)   bands (ev):

  -114.3304-114.3303 -68.6954 -68.6952 -68.6947 -68.6943 -68.6758 -68.6741
    -8.9094  -8.4958   2.7521   2.8326   3.1145   3.2395   3.3709   3.4795
     4.2024   4.2799   4.4182   4.4421   5.2980   6.9043   6.9066   7.5852
     8.1518   8.3279

     occupation numbers 
     1.0000   1.0000   1.0000   1.0000   1.0000   1.0000   1.0000   1.0000
     1.0000   1.0000   1.0000   1.0000   1.0000   1.0000   1.0000   1.0000
     1.0000   1.0000   1.0000   1.0000   1.0000   1.0000   1.0000   1.0000
     1.0000   1.0000

          k = 0.1250 0.2165-0.0745 (  3853 PWs)   bands (ev):

  -114.3304-114.3303 -68.6954 -68.6951 -68.6947 -68.6943 -68.6760 -68.6738
    -8.9710  -8.4307   2.8431   2.9807   3.0563   3.2584   3.4155   3.5265
     4.1576   4.2502   4.4379   4.4603   4.8451   6.7625   6.9942   7.5691
     8.3346   8.4531

     occupation numbers 
     1.0000   1.0000   1.0000   1.0000   1.0000   1.0000   1.0000   1.0000
     1.0000   1.0000   1.0000   1.0000   1.0000   1.0000   1.0000   1.0000
     1.0000   1.0000   1.0000   1.0000   1.0000   1.0000   1.0000   1.0000
     1.0000   1.0000

          k = 0.1250 0.3608 0.0000 (  3854 PWs)   bands (ev):

  -114.3303-114.3302 -68.6962 -68.6960 -68.6951 -68.6946 -68.6757 -68.6739
    -8.7334  -8.3170   2.8010   3.0381   3.1555   3.4111   3.6679   3.7562
     4.1349   4.2343   4.4640   4.5601   4.8452   5.7444   6.4111   6.8502
     7.9483   8.1575

     occupation numbers 
     1.0000   1.0000   1.0000   1.0000   1.0000   1.0000   1.0000   1.0000
     1.0000   1.0000   1.0000   1.0000   1.0000   1.0000   1.0000   1.0000
     1.0000   1.0000   1.0000   1.0000   1.0000   1.0000   1.0000   1.0000
     1.0000   1.0000

          k = 0.1250 0.3608 0.0745 (  3852 PWs)   bands (ev):

  -114.3303-114.3302 -68.6962 -68.6960 -68.6951 -68.6946 -68.6756 -68.6740
    -8.7174  -8.3325   2.7711   2.9943   3.1821   3.3742   3.6010   3.7109
     4.1376   4.2977   4.4587   4.5552   4.9898   5.8202   6.4181   6.8591
     7.9428   8.1033

     occupation numbers 
     1.0000   1.0000   1.0000   1.0000   1.0000   1.0000   1.0000   1.0000
     1.0000   1.0000   1.0000   1.0000   1.0000   1.0000   1.0000   1.0000
     1.0000   1.0000   1.0000   1.0000   1.0000   1.0000   1.0000   1.0000
     1.0000   1.0000

[...]

  -114.3303-114.3302 -68.6965 -68.6964 -68.6956 -68.6952 -68.6751 -68.6744
    -8.4796  -8.3114   2.8879   2.8938   3.2650   3.3516   3.7013   3.7194
     4.1767   4.3453   4.5243   4.7127   5.0277   5.6430   6.1096   6.4401
     7.3946   7.5783

     occupation numbers 
     1.0000   1.0000   1.0000   1.0000   1.0000   1.0000   1.0000   1.0000
     1.0000   1.0000   1.0000   1.0000   1.0000   1.0000   1.0000   1.0000
     1.0000   1.0000   1.0000   1.0000   1.0000   1.0000   1.0000   1.0000
     1.0000   1.0000

          k =-0.5000 0.0000 0.2235 (  3847 PWs)   bands (ev):

  -114.3303-114.3302 -68.6965 -68.6964 -68.6955 -68.6953 -68.6749 -68.6745
    -8.4389  -8.3478   2.8017   2.8236   3.2344   3.3443   3.6380   3.6638
     4.2513   4.3535   4.5428   4.6369   5.2059   5.5387   6.3576   6.7964
     7.1782   7.5393

     occupation numbers 
     1.0000   1.0000   1.0000   1.0000   1.0000   1.0000   1.0000   1.0000
     1.0000   1.0000   1.0000   1.0000   1.0000   1.0000   1.0000   1.0000
     1.0000   1.0000   1.0000   1.0000   1.0000   1.0000   1.0000   1.0000
     1.0000   1.0000

          k =-0.5000 0.0000-0.2981 (  3844 PWs)   bands (ev):

  -114.3303-114.3302 -68.6965 -68.6964 -68.6954 -68.6954 -68.6747 -68.6747
    -8.3925  -8.3924   2.7771   2.7771   3.2857   3.2857   3.6314   3.6314
     4.3175   4.3175   4.5783   4.5783   5.3810   5.3810   6.6701   6.6702
     7.3403   7.3403

     occupation numbers 
     1.0000   1.0000   1.0000   1.0000   1.0000   1.0000   1.0000   1.0000
     1.0000   1.0000   1.0000   1.0000   1.0000   1.0000   1.0000   1.0000
     1.0000   1.0000   1.0000   1.0000   1.0000   1.0000   1.0000   1.0000
     1.0000   1.0000

          k =-0.5000 0.0000-0.2235 (  3847 PWs)   bands (ev):

  -114.3303-114.3302 -68.6965 -68.6964 -68.6955 -68.6953 -68.6749 -68.6745
    -8.4389  -8.3478   2.8017   2.8236   3.2344   3.3443   3.6380   3.6638
     4.2513   4.3535   4.5428   4.6369   5.2059   5.5387   6.3576   6.7964
     7.1782   7.5393

     occupation numbers 
     1.0000   1.0000   1.0000   1.0000   1.0000   1.0000   1.0000   1.0000
     1.0000   1.0000   1.0000   1.0000   1.0000   1.0000   1.0000   1.0000
     1.0000   1.0000   1.0000   1.0000   1.0000   1.0000   1.0000   1.0000
     1.0000   1.0000

          k =-0.5000 0.0000-0.1490 (  3843 PWs)   bands (ev):

  -114.3303-114.3302 -68.6965 -68.6964 -68.6956 -68.6952 -68.6751 -68.6744
    -8.4796  -8.3114   2.8879   2.8938   3.2650   3.3516   3.7013   3.7194
     4.1767   4.3453   4.5243   4.7127   5.0277   5.6430   6.1096   6.4401
     7.3946   7.5783

     occupation numbers 
     1.0000   1.0000   1.0000   1.0000   1.0000   1.0000   1.0000   1.0000
     1.0000   1.0000   1.0000   1.0000   1.0000   1.0000   1.0000   1.0000
     1.0000   1.0000   1.0000   1.0000   1.0000   1.0000   1.0000   1.0000
     1.0000   1.0000

          k =-0.5000 0.0000-0.0745 (  3842 PWs)   bands (ev):

  -114.3303-114.3302 -68.6965 -68.6964 -68.6956 -68.6951 -68.6752 -68.6743
    -8.5074  -8.2880   2.9072   3.0191   3.3050   3.3858   3.7783   3.8111
     4.1207   4.2727   4.5165   4.7750   4.8888   5.6197   6.0402   6.0931
     7.5180   7.5872

     occupation numbers 
     1.0000   1.0000   1.0000   1.0000   1.0000   1.0000   1.0000   1.0000
     1.0000   1.0000   1.0000   1.0000   1.0000   1.0000   1.0000   1.0000
     1.0000   1.0000   1.0000   1.0000   1.0000   1.0000   1.0000   1.0000
     1.0000   1.0000

          k =-0.5000 0.1443-0.0000 (  3841 PWs)   bands (ev):

  -114.3303-114.3302 -68.6968 -68.6965 -68.6954 -68.6948 -68.6753 -68.6742
    -8.5115  -8.2827   2.8104   3.0929   3.2291   3.5249   3.5666   3.9148
     4.1841   4.3356   4.5058   4.6838   4.9309   5.4146   5.9889   6.3237
     7.3614   7.9203

     occupation numbers 
     1.0000   1.0000   1.0000   1.0000   1.0000   1.0000   1.0000   1.0000
     1.0000   1.0000   1.0000   1.0000   1.0000   1.0000   1.0000   1.0000
     1.0000   1.0000   1.0000   1.0000   1.0000   1.0000   1.0000   1.0000
     1.0000   1.0000

          k =-0.5000 0.1443 0.0745 (  3829 PWs)   bands (ev):

  -114.3303-114.3302 -68.6968 -68.6965 -68.6954 -68.6948 -68.6752 -68.6743
    -8.5019  -8.2904   2.7875   3.0278   3.2344   3.4900   3.5850   3.8729
     4.2123   4.3500   4.5055   4.6801   4.9177   5.4716   6.0389   6.4087
     7.4078   7.8608

     occupation numbers 
     1.0000   1.0000   1.0000   1.0000   1.0000   1.0000   1.0000   1.0000
     1.0000   1.0000   1.0000   1.0000   1.0000   1.0000   1.0000   1.0000
     1.0000   1.0000   1.0000   1.0000   1.0000   1.0000   1.0000   1.0000
     1.0000   1.0000

          k =-0.5000 0.1443 0.1490 (  3836 PWs)   bands (ev):

  -114.3303-114.3302 -68.6968 -68.6966 -68.6953 -68.6949 -68.6751 -68.6744
    -8.4750  -8.3129   2.7296   2.8838   3.2499   3.4756   3.5786   3.7768
     4.2684   4.3736   4.5096   4.6508   4.9529   5.4582   6.2817   6.6461
     7.4614   7.7077

     occupation numbers 
     1.0000   1.0000   1.0000   1.0000   1.0000   1.0000   1.0000   1.0000
     1.0000   1.0000   1.0000   1.0000   1.0000   1.0000   1.0000   1.0000
     1.0000   1.0000   1.0000   1.0000   1.0000   1.0000   1.0000   1.0000
     1.0000   1.0000

          k =-0.5000 0.1443 0.2235 (  3832 PWs)   bands (ev):

  -114.3303-114.3302 -68.6968 -68.6966 -68.6952 -68.6950 -68.6749 -68.6745
    -8.4356  -8.3478   2.6761   2.7466   3.3011   3.4515   3.5736   3.6777
     4.3225   4.3800   4.5260   4.6027   5.0570   5.3393   6.6409   6.9782
     7.3309   7.5550

     occupation numbers 
     1.0000   1.0000   1.0000   1.0000   1.0000   1.0000   1.0000   1.0000
     1.0000   1.0000   1.0000   1.0000   1.0000   1.0000   1.0000   1.0000
     1.0000   1.0000   1.0000   1.0000   1.0000   1.0000   1.0000   1.0000
     1.0000   1.0000

          k =-0.5000 0.1443-0.2981 (  3840 PWs)   bands (ev):

  -114.3303-114.3302 -68.6967 -68.6967 -68.6952 -68.6951 -68.6747 -68.6747
    -8.3908  -8.3907   2.6737   2.6738   3.3798   3.3798   3.6082   3.6082
     4.3619   4.3619   4.5580   4.5580   5.1943   5.1944   6.9901   6.9902
     7.3452   7.3452

     occupation numbers 
     1.0000   1.0000   1.0000   1.0000   1.0000   1.0000   1.0000   1.0000
     1.0000   1.0000   1.0000   1.0000   1.0000   1.0000   1.0000   1.0000
     1.0000   1.0000   1.0000   1.0000   1.0000   1.0000   1.0000   1.0000
     1.0000   1.0000

          k =-0.5000 0.1443-0.2235 (  3832 PWs)   bands (ev):

  -114.3303-114.3302 -68.6968 -68.6966 -68.6952 -68.6950 -68.6749 -68.6745
    -8.4356  -8.3478   2.6761   2.7466   3.3011   3.4515   3.5735   3.6777
     4.3225   4.3800   4.5260   4.6027   5.0570   5.3393   6.6409   6.9783
     7.3309   7.5550

     occupation numbers 
     1.0000   1.0000   1.0000   1.0000   1.0000   1.0000   1.0000   1.0000
     1.0000   1.0000   1.0000   1.0000   1.0000   1.0000   1.0000   1.0000
     1.0000   1.0000   1.0000   1.0000   1.0000   1.0000   1.0000   1.0000
     1.0000   1.0000

          k =-0.5000 0.1443-0.1490 (  3836 PWs)   bands (ev):

  -114.3303-114.3302 -68.6968 -68.6966 -68.6953 -68.6949 -68.6751 -68.6744
    -8.4750  -8.3129   2.7296   2.8838   3.2499   3.4756   3.5785   3.7768
     4.2684   4.3737   4.5096   4.6508   4.9530   5.4582   6.2817   6.6462
     7.4614   7.7077

     occupation numbers 
     1.0000   1.0000   1.0000   1.0000   1.0000   1.0000   1.0000   1.0000
     1.0000   1.0000   1.0000   1.0000   1.0000   1.0000   1.0000   1.0000
     1.0000   1.0000   1.0000   1.0000   1.0000   1.0000   1.0000   1.0000
     1.0000   1.0000

          k =-0.5000 0.1443-0.0745 (  3829 PWs)   bands (ev):

  -114.3303-114.3302 -68.6968 -68.6965 -68.6954 -68.6948 -68.6752 -68.6743
    -8.5019  -8.2904   2.7875   3.0278   3.2344   3.4900   3.5850   3.8729
     4.2122   4.3500   4.5055   4.6801   4.9177   5.4716   6.0389   6.4087
     7.4078   7.8608

     occupation numbers 
     1.0000   1.0000   1.0000   1.0000   1.0000   1.0000   1.0000   1.0000
     1.0000   1.0000   1.0000   1.0000   1.0000   1.0000   1.0000   1.0000
     1.0000   1.0000   1.0000   1.0000   1.0000   1.0000   1.0000   1.0000
     1.0000   1.0000

          k =-0.5000-0.8660-0.0000 (  3854 PWs)   bands (ev):

  -114.3303-114.3302 -68.6971 -68.6967 -68.6953 -68.6946 -68.6753 -68.6743
    -8.5055  -8.2857   2.7690   2.9686   3.2519   3.4068   3.6753   3.9206
     4.1960   4.4344   4.4852   4.5828   4.9588   5.4596   5.8723   6.5646
     7.3320   8.1291

     occupation numbers 
     1.0000   1.0000   1.0000   1.0000   1.0000   1.0000   1.0000   1.0000
     1.0000   1.0000   1.0000   1.0000   1.0000   1.0000   1.0000   1.0000
     1.0000   1.0000   1.0000   1.0000   1.0000   1.0000   1.0000   1.0000
     1.0000   1.0000

          k =-0.5000-0.8660 0.0745 (  3842 PWs)   bands (ev):

  -114.3303-114.3302 -68.6970 -68.6967 -68.6952 -68.6946 -68.6752 -68.6743
    -8.4963  -8.2930   2.7382   2.9068   3.2709   3.4152   3.6500   3.8858
     4.2407   4.4350   4.4791   4.5814   4.9489   5.4090   6.0234   6.6350
     7.3861   8.0743

     occupation numbers 
     1.0000   1.0000   1.0000   1.0000   1.0000   1.0000   1.0000   1.0000
     1.0000   1.0000   1.0000   1.0000   1.0000   1.0000   1.0000   1.0000
     1.0000   1.0000   1.0000   1.0000   1.0000   1.0000   1.0000   1.0000
     1.0000   1.0000

          k =-0.5000-0.8660 0.1490 (  3842 PWs)   bands (ev):

  -114.3303-114.3302 -68.6970 -68.6968 -68.6952 -68.6947 -68.6751 -68.6744
    -8.4702  -8.3145   2.6676   2.7716   3.3269   3.4363   3.5985   3.7920
     4.3367   4.4371   4.4665   4.5744   4.9456   5.2904   6.3954   6.8266
     7.4731   7.9176

     occupation numbers 
     1.0000   1.0000   1.0000   1.0000   1.0000   1.0000   1.0000   1.0000
     1.0000   1.0000   1.0000   1.0000   1.0000   1.0000   1.0000   1.0000
     1.0000   1.0000   1.0000   1.0000   1.0000   1.0000   1.0000   1.0000
     1.0000   1.0000

          k =-0.5000-0.8660 0.2235 (  3830 PWs)   bands (ev):

  -114.3303-114.3302 -68.6970 -68.6968 -68.6950 -68.6948 -68.6749 -68.6745
    -8.4322  -8.3478   2.6039   2.6492   3.4167   3.4651   3.5463   3.6654
     4.4350   4.4407   4.4548   4.5540   4.9755   5.1583   6.8422   7.0953
     7.4487   7.6805

     occupation numbers 
     1.0000   1.0000   1.0000   1.0000   1.0000   1.0000   1.0000   1.0000
     1.0000   1.0000   1.0000   1.0000   1.0000   1.0000   1.0000   1.0000
     1.0000   1.0000   1.0000   1.0000   1.0000   1.0000   1.0000   1.0000
     1.0000   1.0000

          k =-0.5000-0.8660-0.2981 (  3832 PWs)   bands (ev):

  -114.3303-114.3302 -68.6969 -68.6969 -68.6949 -68.6949 -68.6747 -68.6747
    -8.3891  -8.3890   2.5903   2.5903   3.5014   3.5015   3.5336   3.5336
     4.4463   4.4464   4.5098   4.5098   5.0474   5.0474   7.2285   7.2286
     7.3940   7.3941

     occupation numbers 
     1.0000   1.0000   1.0000   1.0000   1.0000   1.0000   1.0000   1.0000
     1.0000   1.0000   1.0000   1.0000   1.0000   1.0000   1.0000   1.0000
     1.0000   1.0000   1.0000   1.0000   1.0000   1.0000   1.0000   1.0000
     1.0000   1.0000

     highest occupied level (ev):     8.8145

!    total energy              =    -987.07806308 Ry
     Harris-Foulkes estimate   =    -987.07806312 Ry
     estimated scf accuracy    <       0.00000010 Ry

     The total energy is the sum of the following terms:

     one-electron contribution =    -802.35939631 Ry
     hartree contribution      =     422.60511744 Ry
     xc contribution           =     -98.07383824 Ry
     ewald contribution        =    -509.24994597 Ry

     convergence has been achieved in   7 iterations

     Forces acting on atoms (cartesian axes, Ry/au):

     atom    1 type  2   force =    -0.00000021    0.00000027    0.01361198
     atom    2 type  2   force =    -0.00000051    0.00000061    0.01361523
     atom    3 type  1   force =    -0.00000005   -0.00000026   -0.01359647
     atom    4 type  1   force =     0.00000077   -0.00000062   -0.01363074
     The non-local contrib.  to forces
     atom    1 type  2   force =     0.00000177   -0.00000211    0.00240777
     atom    2 type  2   force =     0.00000134    0.00000154    0.00240589
     atom    3 type  1   force =     0.00000041   -0.00000353    0.00112579
     atom    4 type  1   force =     0.00000259   -0.00000100    0.00112041
     The ionic contribution  to forces
     atom    1 type  2   force =    -0.00001722    0.00003241   -0.21179982
     atom    2 type  2   force =    -0.00000344   -0.00000333   -0.21179126
     atom    3 type  1   force =     0.00000356   -0.00002180    0.21179660
     atom    4 type  1   force =     0.00001710   -0.00000728    0.21179448
     The local contribution  to forces
     atom    1 type  2   force =     0.00001515   -0.00003069    0.22316494
     atom    2 type  2   force =     0.00000153    0.00000204    0.22315066
     atom    3 type  1   force =    -0.00000276    0.00002432   -0.22674036
     atom    4 type  1   force =    -0.00002013    0.00000786   -0.22671281
     The core correction contribution to forces
     atom    1 type  2   force =    -0.00000001    0.00000001   -0.00005001
     atom    2 type  2   force =    -0.00000002   -0.00000002   -0.00005000
     atom    3 type  1   force =     0.00000000    0.00000000    0.00000000
     atom    4 type  1   force =     0.00000000    0.00000000    0.00000000
     The Hubbard contrib.    to forces
     atom    1 type  2   force =     0.00000000    0.00000000    0.00000000
     atom    2 type  2   force =     0.00000000    0.00000000    0.00000000
     atom    3 type  1   force =     0.00000000    0.00000000    0.00000000
     atom    4 type  1   force =     0.00000000    0.00000000    0.00000000
     The SCF correction term to forces
     atom    1 type  2   force =     0.00000000    0.00000000    0.00000000
     atom    2 type  2   force =     0.00000000    0.00000000    0.00000000
     atom    3 type  1   force =     0.00000000    0.00000000    0.00000000
     atom    4 type  1   force =     0.00000000    0.00000000    0.00000000

     Total force =     0.000000     Total SCF correction =     0.000000


     Computing stress (Cartesian axis) and pressure

          total   stress  (Ry/bohr**3)                   (kbar)     P=   -1.92
  -0.00001316   0.00000001   0.00000001         -1.94      0.00      0.00
   0.00000001  -0.00001316   0.00000001          0.00     -1.94      0.00
   0.00000001   0.00000001  -0.00001281          0.00      0.00     -1.88

     kinetic stress (kbar)  33997.07     -0.00     -0.00
                               -0.00  33997.07      0.00
                               -0.00      0.00  33840.23

     local   stress (kbar)  -1597.31     -0.03     -0.03
                               -0.03  -1597.40      0.10
                               -0.03      0.10 -10276.43

     nonloc. stress (kbar)  -1705.97     -0.00     -0.00
                               -0.00  -1705.97     -0.00
                               -0.00     -0.00  -1643.28

     hartree stress (kbar)  63952.87      0.01      0.01
                                0.01  63952.91     -0.04
                                0.01     -0.04  67389.33

     exc-cor stress (kbar) -14176.14      0.00     -0.00
                                0.00 -14176.14     -0.00
                               -0.00     -0.00 -14172.49

     corecor stress (kbar)   -249.63     -0.00     -0.00
                               -0.00   -249.63     -0.00
                               -0.00     -0.00   -249.26

     ewald   stress (kbar) -80222.83      0.02      0.02
                                0.02 -80222.78     -0.06
                                0.02     -0.06 -74889.97

     hubbard stress (kbar)      0.00      0.00      0.00
                                0.00      0.00      0.00
                                0.00      0.00      0.00

     london  stress (kbar)      0.00      0.00      0.00
                                0.00      0.00      0.00
                                0.00      0.00      0.00

     DFT-D3  stress (kbar)      0.00      0.00      0.00
                                0.00      0.00      0.00
                                0.00      0.00      0.00

     XDM     stress (kbar)      0.00      0.00      0.00
                                0.00      0.00      0.00
                                0.00      0.00      0.00

     dft-nl  stress (kbar)      0.00      0.00      0.00
                                0.00      0.00      0.00
                                0.00      0.00      0.00

     TS-vdW  stress (kbar)      0.00      0.00      0.00
                                0.00      0.00      0.00
                                0.00      0.00      0.00



     Writing output data file ZnO.save/
 
     init_run     :      0.53s CPU      1.80s WALL (       1 calls)
     electrons    :      6.88s CPU      7.49s WALL (       1 calls)
     forces       :      0.15s CPU      0.25s WALL (       1 calls)
     stress       :      0.28s CPU      0.41s WALL (       1 calls)

     Called by init_run:
     wfcinit      :      0.38s CPU      1.16s WALL (       1 calls)
     wfcinit:atom :      0.00s CPU      0.01s WALL (      65 calls)
     wfcinit:wfcr :      0.36s CPU      1.12s WALL (      65 calls)
     potinit      :      0.05s CPU      0.10s WALL (       1 calls)
     hinit0       :      0.06s CPU      0.22s WALL (       1 calls)

     Called by electrons:
     c_bands      :      5.82s CPU      6.22s WALL (       7 calls)
     sum_band     :      0.83s CPU      0.90s WALL (       7 calls)
     v_of_rho     :      0.20s CPU      0.24s WALL (       8 calls)
     v_h          :      0.00s CPU      0.00s WALL (       8 calls)
     v_xc         :      0.25s CPU      0.27s WALL (      10 calls)
     newd         :      0.04s CPU      0.09s WALL (       8 calls)
     mix_rho      :      0.01s CPU      0.02s WALL (       7 calls)

     Called by c_bands:
     init_us_2    :      0.08s CPU      0.09s WALL (    1105 calls)
     cegterg      :      5.44s CPU      5.69s WALL (     455 calls)

     Called by sum_band:
     sum_band:bec :      0.01s CPU      0.01s WALL (     455 calls)
     addusdens    :      0.03s CPU      0.04s WALL (       7 calls)

     Called by *egterg:
     h_psi        :      3.38s CPU      3.53s WALL (    1427 calls)
     s_psi        :      0.12s CPU      0.12s WALL (    1427 calls)
     g_psi        :      0.01s CPU      0.01s WALL (     907 calls)
     cdiaghg      :      1.46s CPU      2.22s WALL (    1362 calls)
     cegterg:over :      0.33s CPU      0.39s WALL (     907 calls)
     cegterg:upda :      0.19s CPU      0.20s WALL (     907 calls)
     cegterg:last :      0.13s CPU      0.13s WALL (     455 calls)
     cdiaghg:chol :      0.13s CPU      0.55s WALL (    1362 calls)
     cdiaghg:inve :      0.02s CPU      0.05s WALL (    1362 calls)
     cdiaghg:para :      0.14s CPU      0.15s WALL (    2724 calls)

     Called by h_psi:
     h_psi:pot    :      3.38s CPU      3.52s WALL (    1427 calls)
     h_psi:calbec :      0.20s CPU      0.23s WALL (    1427 calls)
     vloc_psi     :      3.05s CPU      3.16s WALL (    1427 calls)
     add_vuspsi   :      0.12s CPU      0.13s WALL (    1427 calls)

     General routines
     calbec       :      0.34s CPU      0.35s WALL (    2207 calls)
     fft          :      0.04s CPU      0.09s WALL (     127 calls)
     ffts         :      0.00s CPU      0.00s WALL (      15 calls)
     fftw         :      3.50s CPU      3.62s WALL (   73676 calls)
     interpolate  :      0.00s CPU      0.01s WALL (       8 calls)
 
     Parallel routines
     fft_scatt_xy :      0.49s CPU      0.51s WALL (   73818 calls)
     fft_scatt_yz :      1.84s CPU      1.92s WALL (   73818 calls)
 
     PWSCF        :      8.18s CPU     11.99s WALL

 
   This run was terminated on:  15:14:24  16Jun2022            

=------------------------------------------------------------------------------=
   JOB DONE.
=------------------------------------------------------------------------------=
