
     Program PWSCF v.6.4.1 starts on 15Jun2022 at 23:24:33 

     This program is part of the open-source Quantum ESPRESSO suite
     for quantum simulation of materials; please cite
         "P. Giannozzi et al., J. Phys.:Condens. Matter 21 395502 (2009);
         "P. Giannozzi et al., J. Phys.:Condens. Matter 29 465901 (2017);
          URL http://www.quantum-espresso.org", 
     in publications or presentations arising from this work. More details at
     http://www.quantum-espresso.org/quote

     Parallel version (MPI), running on    64 processors

     MPI processes distributed on     1 nodes
     K-points division:     npool     =       4
     R & G space division:  proc/nbgrp/npool/nimage =      16
     Waiting for input...
     Reading input from standard input
Warning: card &IONS ignored
Warning: card   UPSCALE           = 100.D0, ignored
Warning: card / ignored
Warning: card &CELL ignored
Warning: card   CELL_DYNAMICS     = 'BFGS' ignored
Warning: card   PRESS_CONV_THR    = 0.5D0 ignored
Warning: card   CELL_DOFREE = 'ALL' ignored
Warning: card / ignored

     Current dimensions of program PWSCF are:
     Max number of different atomic species (ntypx) = 10
     Max number of k-points (npk) =  40000
     Max angular momentum in pseudopotentials (lmaxx) =  3

     Subspace diagonalization in iterative solution of the eigenvalue problem:
     one sub-group per band group will be used
     scalapack distributed-memory algorithm (size of sub-group:  2*  2 procs)

     Message from routine set_sym_bl:
     NOTICE: Symmetry group for Bravais lattice is not a group (16) - symmetries are disabled
 
     Parallelization info
     --------------------
     sticks:   dense  smooth     PW     G-vecs:    dense   smooth      PW
     Min         101      53     16                 4919     1913     330
     Max         102      55     17                 4924     1916     335
     Sum        1627     859    265                78763    30647    5321
 


     bravais-lattice index     =            0
     lattice parameter (alat)  =       6.2603  a.u.
     unit-cell volume          =     317.4779 (a.u.)^3
     number of atoms/cell      =            4
     number of atomic types    =            3
     number of electrons       =        42.00
     number of Kohn-Sham states=           21
     kinetic-energy cutoff     =      80.0000  Ry
     charge density cutoff     =     600.0000  Ry
     convergence threshold     =      1.0E-06
     mixing beta               =       0.5000
     number of iterations used =            8  plain     mixing
     Exchange-correlation      = SLA  PW   PSX  PSC ( 1  4 10  8 0 0)
     Using LIBXC version       =    4   3   4

     celldm(1)=   6.260267  celldm(2)=   0.000000  celldm(3)=   0.000000
     celldm(4)=   0.000000  celldm(5)=   0.000000  celldm(6)=   0.000000

     crystal axes: (cart. coord. in units of alat)
               a(1) = (   1.000000   0.000000  -0.000000 )  
               a(2) = (  -0.500000   0.866025   0.000000 )  
               a(3) = (  -0.000000   0.000001   1.494184 )  

     reciprocal axes: (cart. coord. in units 2 pi/alat)
               b(1) = (  1.000000  0.577350 -0.000000 )  
               b(2) = ( -0.000000  1.154701 -0.000000 )  
               b(3) = (  0.000000 -0.000000  0.669261 )  


     PseudoPot. # 1 for Mg read from file:
     ./GBRV_PBEsol/mg_pbesol_v1.4.uspp.F.UPF
     MD5 check sum: 4059f37963cf5867752dbf5ab2400678
     Pseudo is Ultrasoft, Zval = 10.0
     Generated by new atomic code, or converted to UPF format
     Using radial grid of  821 points,  7 beta functions with: 
                l(1) =   0
                l(2) =   0
                l(3) =   0
                l(4) =   1
                l(5) =   1
                l(6) =   2
                l(7) =   2
     Q(r) pseudized with  8 coefficients,  rinner =    1.200   1.200   1.200
                                                       1.200   1.200

     PseudoPot. # 2 for Zn read from file:
     ./GBRV_PBEsol/zn_pbesol_v1.uspp.F.UPF
     MD5 check sum: 7d8615e52efe7c1e2b1899de8658bae2
     Pseudo is Ultrasoft, Zval = 20.0
     Generated by new atomic code, or converted to UPF format
     Using radial grid of  943 points,  6 beta functions with: 
                l(1) =   0
                l(2) =   0
                l(3) =   1
                l(4) =   1
                l(5) =   2
                l(6) =   2
     Q(r) pseudized with  8 coefficients,  rinner =    1.100   1.100   1.100
                                                       1.100   1.100

     PseudoPot. # 3 for O  read from file:
     ./GBRV_PBEsol/o_pbesol_v1.2.uspp.F.UPF
     MD5 check sum: 501638753501ef6325af9037351f7734
     Pseudo is Ultrasoft + core correction, Zval =  6.0
     Generated by new atomic code, or converted to UPF format
     Using radial grid of  737 points,  5 beta functions with: 
                l(1) =   0
                l(2) =   0
                l(3) =   1
                l(4) =   1
                l(5) =   2
     Q(r) pseudized with  8 coefficients,  rinner =    0.900   0.900   0.900
                                                       0.900   0.900

     atomic species   valence    mass     pseudopotential
        Mg            10.00    24.30500     Mg( 1.00)
        Zn            20.00    65.38000     Zn( 1.00)
        O              6.00    15.99900     O ( 1.00)

     No symmetry found


                                    s                        frac. trans.

      isym =  1     identity                                     

 cryst.   s( 1) = (     1          0          0      )
                  (     0          1          0      )
                  (     0          0          1      )

 cart.    s( 1) = (  1.0000000 -0.0000000  0.0000000 )
                  ( -0.0000000  1.0000000 -0.0000000 )
                  ( -0.0000000  0.0000000  1.0000000 )


   Cartesian axes

     site n.     atom                  positions (alat units)
         1           O   tau(   1) = (   0.5000002   0.2886755   0.0109761  )
         2           O   tau(   2) = (   0.0000000   0.5773497   0.7580683  )
         3           Zn  tau(   3) = (   0.4999999   0.2886751   0.6185833  )
         4           Mg  tau(   4) = (  -0.0000003   0.5773517   1.3705835  )

   Crystallographic axes

     site n.     atom                  positions (cryst. coord.)
         1           O   tau(   1) = (  0.6666670  0.3333337  0.0073459  )
         2           O   tau(   2) = (  0.3333329  0.6666657  0.5073458  )
         3           Zn  tau(   3) = (  0.6666664  0.3333329  0.4139939  )
         4           Mg  tau(   4) = (  0.3333337  0.6666677  0.9172785  )

     number of k points=   260
                       cart. coord. in units 2pi/alat
        k(    1) = (   0.0000000   0.0000000   0.0000000), wk =   0.0039062
        k(    2) = (   0.0000000  -0.0000000   0.0836577), wk =   0.0078125
        k(    3) = (   0.0000000  -0.0000001   0.1673154), wk =   0.0078125
        k(    4) = (   0.0000000  -0.0000001   0.2509730), wk =   0.0078125
        k(    5) = (  -0.0000000   0.0000001  -0.3346307), wk =   0.0039062
        k(    6) = (  -0.0000000   0.1443376  -0.0000001), wk =   0.0078125
        k(    7) = (  -0.0000000   0.1443375   0.0836576), wk =   0.0078125
        k(    8) = (  -0.0000000   0.1443375   0.1673153), wk =   0.0078125
        k(    9) = (   0.0000000   0.1443375   0.2509730), wk =   0.0078125
        k(   10) = (  -0.0000000   0.1443377  -0.3346308), wk =   0.0078125
        k(   11) = (  -0.0000000   0.1443377  -0.2509731), wk =   0.0078125
        k(   12) = (  -0.0000000   0.1443376  -0.1673154), wk =   0.0078125
        k(   13) = (  -0.0000000   0.1443376  -0.0836577), wk =   0.0078125
        k(   14) = (  -0.0000000   0.2886751  -0.0000001), wk =   0.0078125
        k(   15) = (  -0.0000000   0.2886751   0.0836576), wk =   0.0078125
        k(   16) = (  -0.0000000   0.2886751   0.1673153), wk =   0.0078125
        k(   17) = (  -0.0000000   0.2886750   0.2509729), wk =   0.0078125
        k(   18) = (  -0.0000000   0.2886753  -0.3346308), wk =   0.0078125
        k(   19) = (  -0.0000000   0.2886752  -0.2509731), wk =   0.0078125
        k(   20) = (  -0.0000000   0.2886752  -0.1673155), wk =   0.0078125
        k(   21) = (  -0.0000000   0.2886752  -0.0836578), wk =   0.0078125
        k(   22) = (  -0.0000000   0.4330127  -0.0000002), wk =   0.0078125
        k(   23) = (  -0.0000000   0.4330127   0.0836575), wk =   0.0078125
        k(   24) = (  -0.0000000   0.4330126   0.1673152), wk =   0.0078125
        k(   25) = (  -0.0000000   0.4330126   0.2509729), wk =   0.0078125
        k(   26) = (  -0.0000001   0.4330128  -0.3346309), wk =   0.0078125
        k(   27) = (  -0.0000001   0.4330128  -0.2509732), wk =   0.0078125
        k(   28) = (  -0.0000000   0.4330128  -0.1673155), wk =   0.0078125
        k(   29) = (  -0.0000000   0.4330127  -0.0836578), wk =   0.0078125
        k(   30) = (   0.0000001  -0.5773503   0.0000002), wk =   0.0039062
        k(   31) = (   0.0000001  -0.5773503   0.0836579), wk =   0.0078125
        k(   32) = (   0.0000001  -0.5773503   0.1673156), wk =   0.0078125
        k(   33) = (   0.0000001  -0.5773504   0.2509733), wk =   0.0078125
        k(   34) = (   0.0000000  -0.5773501  -0.3346305), wk =   0.0039062
        k(   35) = (   0.1250000   0.0721688  -0.0000000), wk =   0.0078125
        k(   36) = (   0.1250000   0.0721687   0.0836577), wk =   0.0078125
        k(   37) = (   0.1250000   0.0721687   0.1673153), wk =   0.0078125
        k(   38) = (   0.1250000   0.0721687   0.2509730), wk =   0.0078125
        k(   39) = (   0.1250000   0.0721689  -0.3346307), wk =   0.0078125
        k(   40) = (   0.1250000   0.0721689  -0.2509730), wk =   0.0078125
        k(   41) = (   0.1250000   0.0721688  -0.1673154), wk =   0.0078125
        k(   42) = (   0.1250000   0.0721688  -0.0836577), wk =   0.0078125
        k(   43) = (   0.1250000   0.2165063  -0.0000001), wk =   0.0078125
        k(   44) = (   0.1250000   0.2165063   0.0836576), wk =   0.0078125
        k(   45) = (   0.1250000   0.2165063   0.1673153), wk =   0.0078125
        k(   46) = (   0.1250000   0.2165062   0.2509730), wk =   0.0078125
        k(   47) = (   0.1250000   0.2165065  -0.3346308), wk =   0.0078125
        k(   48) = (   0.1250000   0.2165064  -0.2509731), wk =   0.0078125
        k(   49) = (   0.1250000   0.2165064  -0.1673154), wk =   0.0078125
        k(   50) = (   0.1250000   0.2165064  -0.0836577), wk =   0.0078125
        k(   51) = (   0.1250000   0.3608439  -0.0000001), wk =   0.0078125
        k(   52) = (   0.1250000   0.3608439   0.0836576), wk =   0.0078125
        k(   53) = (   0.1250000   0.3608438   0.1673152), wk =   0.0078125
        k(   54) = (   0.1250000   0.3608438   0.2509729), wk =   0.0078125
        k(   55) = (   0.1249999   0.3608440  -0.3346308), wk =   0.0078125
        k(   56) = (   0.1250000   0.3608440  -0.2509732), wk =   0.0078125
        k(   57) = (   0.1250000   0.3608440  -0.1673155), wk =   0.0078125
        k(   58) = (   0.1250000   0.3608439  -0.0836578), wk =   0.0078125
        k(   59) = (   0.1250000   0.5051815  -0.0000002), wk =   0.0078125
        k(   60) = (   0.1250000   0.5051814   0.0836575), wk =   0.0078125
        k(   61) = (   0.1250000   0.5051814   0.1673152), wk =   0.0078125
        k(   62) = (   0.1250000   0.5051814   0.2509729), wk =   0.0078125
        k(   63) = (   0.1249999   0.5051816  -0.3346309), wk =   0.0078125
        k(   64) = (   0.1249999   0.5051816  -0.2509732), wk =   0.0078125
        k(   65) = (   0.1249999   0.5051815  -0.1673155), wk =   0.0078125
        k(   66) = (   0.1250000   0.5051815  -0.0836579), wk =   0.0078125
        k(   67) = (   0.1250000  -0.5051815   0.0000002), wk =   0.0078125
        k(   68) = (   0.1250000  -0.5051815   0.0836579), wk =   0.0078125
        k(   69) = (   0.1250001  -0.5051816   0.1673156), wk =   0.0078125
        k(   70) = (   0.1250001  -0.5051816   0.2509732), wk =   0.0078125
        k(   71) = (   0.1250000  -0.5051814  -0.3346305), wk =   0.0078125
        k(   72) = (   0.1250000  -0.5051814  -0.2509728), wk =   0.0078125
        k(   73) = (   0.1250000  -0.5051814  -0.1673152), wk =   0.0078125
        k(   74) = (   0.1250000  -0.5051815  -0.0836575), wk =   0.0078125
        k(   75) = (   0.1250000  -0.3608439   0.0000001), wk =   0.0078125
        k(   76) = (   0.1250000  -0.3608440   0.0836578), wk =   0.0078125
        k(   77) = (   0.1250000  -0.3608440   0.1673155), wk =   0.0078125
        k(   78) = (   0.1250000  -0.3608440   0.2509732), wk =   0.0078125
        k(   79) = (   0.1250000  -0.3608438  -0.3346306), wk =   0.0078125
        k(   80) = (   0.1250000  -0.3608438  -0.2509729), wk =   0.0078125
        k(   81) = (   0.1250000  -0.3608439  -0.1673152), wk =   0.0078125
        k(   82) = (   0.1250000  -0.3608439  -0.0836575), wk =   0.0078125
        k(   83) = (   0.1250000  -0.2165064   0.0000001), wk =   0.0078125
        k(   84) = (   0.1250000  -0.2165064   0.0836578), wk =   0.0078125
        k(   85) = (   0.1250000  -0.2165064   0.1673155), wk =   0.0078125
        k(   86) = (   0.1250000  -0.2165065   0.2509731), wk =   0.0078125
        k(   87) = (   0.1250000  -0.2165062  -0.3346306), wk =   0.0078125
        k(   88) = (   0.1250000  -0.2165063  -0.2509729), wk =   0.0078125
        k(   89) = (   0.1250000  -0.2165063  -0.1673153), wk =   0.0078125
        k(   90) = (   0.1250000  -0.2165063  -0.0836576), wk =   0.0078125
        k(   91) = (   0.1250000  -0.0721688   0.0000000), wk =   0.0078125
        k(   92) = (   0.1250000  -0.0721688   0.0836577), wk =   0.0078125
        k(   93) = (   0.1250000  -0.0721689   0.1673154), wk =   0.0078125
        k(   94) = (   0.1250000  -0.0721689   0.2509731), wk =   0.0078125
        k(   95) = (   0.1250000  -0.0721687  -0.3346307), wk =   0.0078125
        k(   96) = (   0.1250000  -0.0721687  -0.2509730), wk =   0.0078125
        k(   97) = (   0.1250000  -0.0721687  -0.1673153), wk =   0.0078125
        k(   98) = (   0.1250000  -0.0721688  -0.0836576), wk =   0.0078125
        k(   99) = (   0.2500000   0.1443375  -0.0000000), wk =   0.0078125
        k(  100) = (   0.2500000   0.1443375   0.0836577), wk =   0.0078125
        k(  101) = (   0.2500000   0.1443375   0.1673153), wk =   0.0078125
        k(  102) = (   0.2500000   0.1443375   0.2509730), wk =   0.0078125
        k(  103) = (   0.2500000   0.1443377  -0.3346307), wk =   0.0078125
        k(  104) = (   0.2500000   0.1443376  -0.2509731), wk =   0.0078125
        k(  105) = (   0.2500000   0.1443376  -0.1673154), wk =   0.0078125
        k(  106) = (   0.2500000   0.1443376  -0.0836577), wk =   0.0078125
        k(  107) = (   0.2500000   0.2886751  -0.0000001), wk =   0.0078125
        k(  108) = (   0.2500000   0.2886751   0.0836576), wk =   0.0078125
        k(  109) = (   0.2500000   0.2886751   0.1673153), wk =   0.0078125
        k(  110) = (   0.2500000   0.2886750   0.2509730), wk =   0.0078125
        k(  111) = (   0.2500000   0.2886752  -0.3346308), wk =   0.0078125
        k(  112) = (   0.2500000   0.2886752  -0.2509731), wk =   0.0078125
        k(  113) = (   0.2500000   0.2886752  -0.1673154), wk =   0.0078125
        k(  114) = (   0.2500000   0.2886751  -0.0836578), wk =   0.0078125
        k(  115) = (   0.2500000   0.4330127  -0.0000001), wk =   0.0078125
        k(  116) = (   0.2500000   0.4330126   0.0836575), wk =   0.0078125
        k(  117) = (   0.2500000   0.4330126   0.1673152), wk =   0.0078125
        k(  118) = (   0.2500000   0.4330126   0.2509729), wk =   0.0078125
        k(  119) = (   0.2499999   0.4330128  -0.3346308), wk =   0.0078125
        k(  120) = (   0.2499999   0.4330128  -0.2509732), wk =   0.0078125
        k(  121) = (   0.2500000   0.4330127  -0.1673155), wk =   0.0078125
        k(  122) = (   0.2500000   0.4330127  -0.0836578), wk =   0.0078125
        k(  123) = (   0.2499999   0.5773502  -0.0000002), wk =   0.0078125
        k(  124) = (   0.2500000   0.5773502   0.0836575), wk =   0.0078125
        k(  125) = (   0.2500000   0.5773502   0.1673152), wk =   0.0078125
        k(  126) = (   0.2500000   0.5773502   0.2509729), wk =   0.0078125
        k(  127) = (   0.2499999   0.5773504  -0.3346309), wk =   0.0078125
        k(  128) = (   0.2499999   0.5773503  -0.2509732), wk =   0.0078125
        k(  129) = (   0.2499999   0.5773503  -0.1673155), wk =   0.0078125
        k(  130) = (   0.2499999   0.5773503  -0.0836579), wk =   0.0078125
        k(  131) = (   0.2500000  -0.4330127   0.0000002), wk =   0.0078125
        k(  132) = (   0.2500000  -0.4330128   0.0836579), wk =   0.0078125
        k(  133) = (   0.2500000  -0.4330128   0.1673155), wk =   0.0078125
        k(  134) = (   0.2500001  -0.4330128   0.2509732), wk =   0.0078125
        k(  135) = (   0.2500000  -0.4330126  -0.3346305), wk =   0.0078125
        k(  136) = (   0.2500000  -0.4330126  -0.2509728), wk =   0.0078125
        k(  137) = (   0.2500000  -0.4330127  -0.1673152), wk =   0.0078125
        k(  138) = (   0.2500000  -0.4330127  -0.0836575), wk =   0.0078125
        k(  139) = (   0.2500000  -0.2886752   0.0000001), wk =   0.0078125
        k(  140) = (   0.2500000  -0.2886752   0.0836578), wk =   0.0078125
        k(  141) = (   0.2500000  -0.2886752   0.1673155), wk =   0.0078125
        k(  142) = (   0.2500000  -0.2886752   0.2509732), wk =   0.0078125
        k(  143) = (   0.2500000  -0.2886750  -0.3346306), wk =   0.0078125
        k(  144) = (   0.2500000  -0.2886751  -0.2509729), wk =   0.0078125
        k(  145) = (   0.2500000  -0.2886751  -0.1673152), wk =   0.0078125
        k(  146) = (   0.2500000  -0.2886751  -0.0836575), wk =   0.0078125
        k(  147) = (   0.2500000  -0.1443376   0.0000001), wk =   0.0078125
        k(  148) = (   0.2500000  -0.1443376   0.0836578), wk =   0.0078125
        k(  149) = (   0.2500000  -0.1443376   0.1673154), wk =   0.0078125
        k(  150) = (   0.2500000  -0.1443377   0.2509731), wk =   0.0078125
        k(  151) = (   0.2500000  -0.1443375  -0.3346306), wk =   0.0078125
        k(  152) = (   0.2500000  -0.1443375  -0.2509730), wk =   0.0078125
        k(  153) = (   0.2500000  -0.1443375  -0.1673153), wk =   0.0078125
        k(  154) = (   0.2500000  -0.1443376  -0.0836576), wk =   0.0078125
        k(  155) = (   0.2500000  -0.0000000   0.0000000), wk =   0.0078125
        k(  156) = (   0.2500000  -0.0000001   0.0836577), wk =   0.0078125
        k(  157) = (   0.2500000  -0.0000001   0.1673154), wk =   0.0078125
        k(  158) = (   0.2500000  -0.0000001   0.2509731), wk =   0.0078125
        k(  159) = (   0.2500000   0.0000001  -0.3346307), wk =   0.0078125
        k(  160) = (   0.2500000   0.0000001  -0.2509730), wk =   0.0078125
        k(  161) = (   0.2500000   0.0000000  -0.1673153), wk =   0.0078125
        k(  162) = (   0.2500000   0.0000000  -0.0836576), wk =   0.0078125
        k(  163) = (   0.3750000   0.2165063  -0.0000000), wk =   0.0078125
        k(  164) = (   0.3750000   0.2165063   0.0836576), wk =   0.0078125
        k(  165) = (   0.3750000   0.2165063   0.1673153), wk =   0.0078125
        k(  166) = (   0.3750000   0.2165062   0.2509730), wk =   0.0078125
        k(  167) = (   0.3750000   0.2165064  -0.3346308), wk =   0.0078125
        k(  168) = (   0.3750000   0.2165064  -0.2509731), wk =   0.0078125
        k(  169) = (   0.3750000   0.2165064  -0.1673154), wk =   0.0078125
        k(  170) = (   0.3750000   0.2165063  -0.0836577), wk =   0.0078125
        k(  171) = (   0.3750000   0.3608439  -0.0000001), wk =   0.0078125
        k(  172) = (   0.3750000   0.3608439   0.0836576), wk =   0.0078125
        k(  173) = (   0.3750000   0.3608438   0.1673153), wk =   0.0078125
        k(  174) = (   0.3750000   0.3608438   0.2509729), wk =   0.0078125
        k(  175) = (   0.3749999   0.3608440  -0.3346308), wk =   0.0078125
        k(  176) = (   0.3750000   0.3608440  -0.2509731), wk =   0.0078125
        k(  177) = (   0.3750000   0.3608439  -0.1673154), wk =   0.0078125
        k(  178) = (   0.3750000   0.3608439  -0.0836578), wk =   0.0078125
        k(  179) = (   0.3750000   0.5051814  -0.0000001), wk =   0.0078125
        k(  180) = (   0.3750000   0.5051814   0.0836575), wk =   0.0078125
        k(  181) = (   0.3750000   0.5051814   0.1673152), wk =   0.0078125
        k(  182) = (   0.3750000   0.5051814   0.2509729), wk =   0.0078125
        k(  183) = (   0.3749999   0.5051816  -0.3346309), wk =   0.0078125
        k(  184) = (   0.3749999   0.5051815  -0.2509732), wk =   0.0078125
        k(  185) = (   0.3749999   0.5051815  -0.1673155), wk =   0.0078125
        k(  186) = (   0.3750000   0.5051815  -0.0836578), wk =   0.0078125
        k(  187) = (   0.3749999   0.6495190  -0.0000002), wk =   0.0078125
        k(  188) = (   0.3749999   0.6495190   0.0836575), wk =   0.0078125
        k(  189) = (   0.3750000   0.6495190   0.1673152), wk =   0.0078125
        k(  190) = (   0.3750000   0.6495189   0.2509728), wk =   0.0078125
        k(  191) = (   0.3749999   0.6495191  -0.3346309), wk =   0.0078125
        k(  192) = (   0.3749999   0.6495191  -0.2509732), wk =   0.0078125
        k(  193) = (   0.3749999   0.6495191  -0.1673156), wk =   0.0078125
        k(  194) = (   0.3749999   0.6495190  -0.0836579), wk =   0.0078125
        k(  195) = (   0.3750000  -0.3608439   0.0000002), wk =   0.0078125
        k(  196) = (   0.3750000  -0.3608440   0.0836579), wk =   0.0078125
        k(  197) = (   0.3750000  -0.3608440   0.1673155), wk =   0.0078125
        k(  198) = (   0.3750000  -0.3608440   0.2509732), wk =   0.0078125
        k(  199) = (   0.3750000  -0.3608438  -0.3346305), wk =   0.0078125
        k(  200) = (   0.3750000  -0.3608439  -0.2509729), wk =   0.0078125
        k(  201) = (   0.3750000  -0.3608439  -0.1673152), wk =   0.0078125
        k(  202) = (   0.3750000  -0.3608439  -0.0836575), wk =   0.0078125
        k(  203) = (   0.3750000  -0.2165064   0.0000001), wk =   0.0078125
        k(  204) = (   0.3750000  -0.2165064   0.0836578), wk =   0.0078125
        k(  205) = (   0.3750000  -0.2165064   0.1673155), wk =   0.0078125
        k(  206) = (   0.3750000  -0.2165065   0.2509732), wk =   0.0078125
        k(  207) = (   0.3750000  -0.2165063  -0.3346306), wk =   0.0078125
        k(  208) = (   0.3750000  -0.2165063  -0.2509729), wk =   0.0078125
        k(  209) = (   0.3750000  -0.2165063  -0.1673152), wk =   0.0078125
        k(  210) = (   0.3750000  -0.2165064  -0.0836576), wk =   0.0078125
        k(  211) = (   0.3750000  -0.0721688   0.0000001), wk =   0.0078125
        k(  212) = (   0.3750000  -0.0721688   0.0836578), wk =   0.0078125
        k(  213) = (   0.3750000  -0.0721689   0.1673154), wk =   0.0078125
        k(  214) = (   0.3750000  -0.0721689   0.2509731), wk =   0.0078125
        k(  215) = (   0.3750000  -0.0721687  -0.3346306), wk =   0.0078125
        k(  216) = (   0.3750000  -0.0721687  -0.2509730), wk =   0.0078125
        k(  217) = (   0.3750000  -0.0721688  -0.1673153), wk =   0.0078125
        k(  218) = (   0.3750000  -0.0721688  -0.0836576), wk =   0.0078125
        k(  219) = (   0.3750000   0.0721688   0.0000000), wk =   0.0078125
        k(  220) = (   0.3750000   0.0721687   0.0836577), wk =   0.0078125
        k(  221) = (   0.3750000   0.0721687   0.1673154), wk =   0.0078125
        k(  222) = (   0.3750000   0.0721687   0.2509731), wk =   0.0078125
        k(  223) = (   0.3750000   0.0721689  -0.3346307), wk =   0.0078125
        k(  224) = (   0.3750000   0.0721688  -0.2509730), wk =   0.0078125
        k(  225) = (   0.3750000   0.0721688  -0.1673153), wk =   0.0078125
        k(  226) = (   0.3750000   0.0721688  -0.0836577), wk =   0.0078125
        k(  227) = (  -0.5000000  -0.2886751   0.0000000), wk =   0.0039062
        k(  228) = (  -0.5000000  -0.2886751   0.0836577), wk =   0.0078125
        k(  229) = (  -0.5000000  -0.2886751   0.1673154), wk =   0.0078125
        k(  230) = (  -0.5000000  -0.2886752   0.2509731), wk =   0.0078125
        k(  231) = (  -0.5000000  -0.2886750  -0.3346307), wk =   0.0039062
        k(  232) = (  -0.5000000  -0.1443375  -0.0000000), wk =   0.0078125
        k(  233) = (  -0.5000000  -0.1443376   0.0836577), wk =   0.0078125
        k(  234) = (  -0.5000000  -0.1443376   0.1673154), wk =   0.0078125
        k(  235) = (  -0.5000000  -0.1443376   0.2509730), wk =   0.0078125
        k(  236) = (  -0.5000000  -0.1443374  -0.3346307), wk =   0.0078125
        k(  237) = (  -0.5000000  -0.1443374  -0.2509730), wk =   0.0078125
        k(  238) = (  -0.5000000  -0.1443375  -0.1673154), wk =   0.0078125
        k(  239) = (  -0.5000000  -0.1443375  -0.0836577), wk =   0.0078125
        k(  240) = (  -0.5000000   0.0000000  -0.0000001), wk =   0.0078125
        k(  241) = (  -0.5000000   0.0000000   0.0836576), wk =   0.0078125
        k(  242) = (  -0.5000000  -0.0000000   0.1673153), wk =   0.0078125
        k(  243) = (  -0.5000000  -0.0000000   0.2509730), wk =   0.0078125
        k(  244) = (  -0.5000000   0.0000002  -0.3346308), wk =   0.0078125
        k(  245) = (  -0.5000000   0.0000001  -0.2509731), wk =   0.0078125
        k(  246) = (  -0.5000000   0.0000001  -0.1673154), wk =   0.0078125
        k(  247) = (  -0.5000000   0.0000001  -0.0836577), wk =   0.0078125
        k(  248) = (  -0.5000000   0.1443376  -0.0000001), wk =   0.0078125
        k(  249) = (  -0.5000000   0.1443376   0.0836576), wk =   0.0078125
        k(  250) = (  -0.5000000   0.1443375   0.1673152), wk =   0.0078125
        k(  251) = (  -0.5000000   0.1443375   0.2509729), wk =   0.0078125
        k(  252) = (  -0.5000000   0.1443377  -0.3346308), wk =   0.0078125
        k(  253) = (  -0.5000000   0.1443377  -0.2509732), wk =   0.0078125
        k(  254) = (  -0.5000000   0.1443377  -0.1673155), wk =   0.0078125
        k(  255) = (  -0.5000000   0.1443376  -0.0836578), wk =   0.0078125
        k(  256) = (  -0.4999999  -0.8660254   0.0000003), wk =   0.0039062
        k(  257) = (  -0.4999999  -0.8660254   0.0836579), wk =   0.0078125
        k(  258) = (  -0.4999999  -0.8660254   0.1673156), wk =   0.0078125
        k(  259) = (  -0.4999999  -0.8660254   0.2509733), wk =   0.0078125
        k(  260) = (  -0.4999999  -0.8660252  -0.3346305), wk =   0.0039062

                       cryst. coord.
        k(    1) = (   0.0000000   0.0000000   0.0000000), wk =   0.0039062
        k(    2) = (   0.0000000   0.0000000   0.1250000), wk =   0.0078125
        k(    3) = (   0.0000000   0.0000000   0.2500000), wk =   0.0078125
        k(    4) = (  -0.0000000   0.0000000   0.3750000), wk =   0.0078125
        k(    5) = (  -0.0000000  -0.0000000  -0.5000000), wk =   0.0039062
        k(    6) = (  -0.0000000   0.1250000  -0.0000000), wk =   0.0078125
        k(    7) = (   0.0000000   0.1250000   0.1250000), wk =   0.0078125
        k(    8) = (  -0.0000000   0.1250000   0.2500000), wk =   0.0078125
        k(    9) = (  -0.0000000   0.1250000   0.3750000), wk =   0.0078125
        k(   10) = (   0.0000000   0.1250000  -0.5000000), wk =   0.0078125
        k(   11) = (   0.0000000   0.1250000  -0.3750000), wk =   0.0078125
        k(   12) = (   0.0000000   0.1250000  -0.2500000), wk =   0.0078125
        k(   13) = (   0.0000000   0.1250000  -0.1250000), wk =   0.0078125
        k(   14) = (  -0.0000000   0.2500000  -0.0000000), wk =   0.0078125
        k(   15) = (  -0.0000000   0.2500000   0.1250000), wk =   0.0078125
        k(   16) = (   0.0000000   0.2500000   0.2500000), wk =   0.0078125
        k(   17) = (  -0.0000000   0.2500000   0.3750000), wk =   0.0078125
        k(   18) = (   0.0000000   0.2500000  -0.5000000), wk =   0.0078125
        k(   19) = (   0.0000000   0.2500000  -0.3750000), wk =   0.0078125
        k(   20) = (   0.0000000   0.2500000  -0.2500000), wk =   0.0078125
        k(   21) = (   0.0000000   0.2500000  -0.1250000), wk =   0.0078125
        k(   22) = (  -0.0000000   0.3750000  -0.0000000), wk =   0.0078125
        k(   23) = (  -0.0000000   0.3750000   0.1250000), wk =   0.0078125
        k(   24) = (  -0.0000000   0.3750000   0.2500000), wk =   0.0078125
        k(   25) = (  -0.0000000   0.3750000   0.3750000), wk =   0.0078125
        k(   26) = (  -0.0000000   0.3750000  -0.5000000), wk =   0.0078125
        k(   27) = (  -0.0000000   0.3750000  -0.3750000), wk =   0.0078125
        k(   28) = (  -0.0000000   0.3750000  -0.2500000), wk =   0.0078125
        k(   29) = (  -0.0000000   0.3750000  -0.1250000), wk =   0.0078125
        k(   30) = (   0.0000000  -0.5000000   0.0000000), wk =   0.0039062
        k(   31) = (   0.0000000  -0.5000000   0.1250000), wk =   0.0078125
        k(   32) = (  -0.0000000  -0.5000000   0.2500000), wk =   0.0078125
        k(   33) = (  -0.0000000  -0.5000000   0.3750000), wk =   0.0078125
        k(   34) = (  -0.0000000  -0.5000000  -0.5000000), wk =   0.0039062
        k(   35) = (   0.1250000   0.0000000   0.0000000), wk =   0.0078125
        k(   36) = (   0.1250000   0.0000000   0.1250000), wk =   0.0078125
        k(   37) = (   0.1250000   0.0000000   0.2500000), wk =   0.0078125
        k(   38) = (   0.1250000  -0.0000000   0.3750000), wk =   0.0078125
        k(   39) = (   0.1250000   0.0000000  -0.5000000), wk =   0.0078125
        k(   40) = (   0.1250000   0.0000000  -0.3750000), wk =   0.0078125
        k(   41) = (   0.1250000   0.0000000  -0.2500000), wk =   0.0078125
        k(   42) = (   0.1250000   0.0000000  -0.1250000), wk =   0.0078125
        k(   43) = (   0.1250000   0.1250000   0.0000000), wk =   0.0078125
        k(   44) = (   0.1250000   0.1250000   0.1250000), wk =   0.0078125
        k(   45) = (   0.1250000   0.1250000   0.2500000), wk =   0.0078125
        k(   46) = (   0.1250000   0.1250000   0.3750000), wk =   0.0078125
        k(   47) = (   0.1250000   0.1250000  -0.5000000), wk =   0.0078125
        k(   48) = (   0.1250000   0.1250000  -0.3750000), wk =   0.0078125
        k(   49) = (   0.1250000   0.1250000  -0.2500000), wk =   0.0078125
        k(   50) = (   0.1250000   0.1250000  -0.1250000), wk =   0.0078125
        k(   51) = (   0.1250000   0.2500000   0.0000000), wk =   0.0078125
        k(   52) = (   0.1250000   0.2500000   0.1250000), wk =   0.0078125
        k(   53) = (   0.1250000   0.2500000   0.2500000), wk =   0.0078125
        k(   54) = (   0.1250000   0.2500000   0.3750000), wk =   0.0078125
        k(   55) = (   0.1250000   0.2500000  -0.5000000), wk =   0.0078125
        k(   56) = (   0.1250000   0.2500000  -0.3750000), wk =   0.0078125
        k(   57) = (   0.1250000   0.2500000  -0.2500000), wk =   0.0078125
        k(   58) = (   0.1250000   0.2500000  -0.1250000), wk =   0.0078125
        k(   59) = (   0.1250000   0.3750000  -0.0000000), wk =   0.0078125
        k(   60) = (   0.1250000   0.3750000   0.1250000), wk =   0.0078125
        k(   61) = (   0.1250000   0.3750000   0.2500000), wk =   0.0078125
        k(   62) = (   0.1250000   0.3750000   0.3750000), wk =   0.0078125
        k(   63) = (   0.1250000   0.3750000  -0.5000000), wk =   0.0078125
        k(   64) = (   0.1250000   0.3750000  -0.3750000), wk =   0.0078125
        k(   65) = (   0.1250000   0.3750000  -0.2500000), wk =   0.0078125
        k(   66) = (   0.1250000   0.3750000  -0.1250000), wk =   0.0078125
        k(   67) = (   0.1250000  -0.5000000   0.0000000), wk =   0.0078125
        k(   68) = (   0.1250000  -0.5000000   0.1250000), wk =   0.0078125
        k(   69) = (   0.1250000  -0.5000000   0.2500000), wk =   0.0078125
        k(   70) = (   0.1250000  -0.5000000   0.3750000), wk =   0.0078125
        k(   71) = (   0.1250000  -0.5000000  -0.5000000), wk =   0.0078125
        k(   72) = (   0.1250000  -0.5000000  -0.3750000), wk =   0.0078125
        k(   73) = (   0.1250000  -0.5000000  -0.2500000), wk =   0.0078125
        k(   74) = (   0.1250000  -0.5000000  -0.1250000), wk =   0.0078125
        k(   75) = (   0.1250000  -0.3750000   0.0000000), wk =   0.0078125
        k(   76) = (   0.1250000  -0.3750000   0.1250000), wk =   0.0078125
        k(   77) = (   0.1250000  -0.3750000   0.2500000), wk =   0.0078125
        k(   78) = (   0.1250000  -0.3750000   0.3750000), wk =   0.0078125
        k(   79) = (   0.1250000  -0.3750000  -0.5000000), wk =   0.0078125
        k(   80) = (   0.1250000  -0.3750000  -0.3750000), wk =   0.0078125
        k(   81) = (   0.1250000  -0.3750000  -0.2500000), wk =   0.0078125
        k(   82) = (   0.1250000  -0.3750000  -0.1250000), wk =   0.0078125
        k(   83) = (   0.1250000  -0.2500000  -0.0000000), wk =   0.0078125
        k(   84) = (   0.1250000  -0.2500000   0.1250000), wk =   0.0078125
        k(   85) = (   0.1250000  -0.2500000   0.2500000), wk =   0.0078125
        k(   86) = (   0.1250000  -0.2500000   0.3750000), wk =   0.0078125
        k(   87) = (   0.1250000  -0.2500000  -0.5000000), wk =   0.0078125
        k(   88) = (   0.1250000  -0.2500000  -0.3750000), wk =   0.0078125
        k(   89) = (   0.1250000  -0.2500000  -0.2500000), wk =   0.0078125
        k(   90) = (   0.1250000  -0.2500000  -0.1250000), wk =   0.0078125
        k(   91) = (   0.1250000  -0.1250000  -0.0000000), wk =   0.0078125
        k(   92) = (   0.1250000  -0.1250000   0.1250000), wk =   0.0078125
        k(   93) = (   0.1250000  -0.1250000   0.2500000), wk =   0.0078125
        k(   94) = (   0.1250000  -0.1250000   0.3750000), wk =   0.0078125
        k(   95) = (   0.1250000  -0.1250000  -0.5000000), wk =   0.0078125
        k(   96) = (   0.1250000  -0.1250000  -0.3750000), wk =   0.0078125
        k(   97) = (   0.1250000  -0.1250000  -0.2500000), wk =   0.0078125
        k(   98) = (   0.1250000  -0.1250000  -0.1250000), wk =   0.0078125
        k(   99) = (   0.2500000   0.0000000   0.0000000), wk =   0.0078125
        k(  100) = (   0.2500000   0.0000000   0.1250000), wk =   0.0078125
        k(  101) = (   0.2500000   0.0000000   0.2500000), wk =   0.0078125
        k(  102) = (   0.2500000   0.0000000   0.3750000), wk =   0.0078125
        k(  103) = (   0.2500000   0.0000000  -0.5000000), wk =   0.0078125
        k(  104) = (   0.2500000   0.0000000  -0.3750000), wk =   0.0078125
        k(  105) = (   0.2500000   0.0000000  -0.2500000), wk =   0.0078125
        k(  106) = (   0.2500000   0.0000000  -0.1250000), wk =   0.0078125
        k(  107) = (   0.2500000   0.1250000   0.0000000), wk =   0.0078125
        k(  108) = (   0.2500000   0.1250000   0.1250000), wk =   0.0078125
        k(  109) = (   0.2500000   0.1250000   0.2500000), wk =   0.0078125
        k(  110) = (   0.2500000   0.1250000   0.3750000), wk =   0.0078125
        k(  111) = (   0.2500000   0.1250000  -0.5000000), wk =   0.0078125
        k(  112) = (   0.2500000   0.1250000  -0.3750000), wk =   0.0078125
        k(  113) = (   0.2500000   0.1250000  -0.2500000), wk =   0.0078125
        k(  114) = (   0.2500000   0.1250000  -0.1250000), wk =   0.0078125
        k(  115) = (   0.2500000   0.2500000   0.0000000), wk =   0.0078125
        k(  116) = (   0.2500000   0.2500000   0.1250000), wk =   0.0078125
        k(  117) = (   0.2500000   0.2500000   0.2500000), wk =   0.0078125
        k(  118) = (   0.2500000   0.2500000   0.3750000), wk =   0.0078125
        k(  119) = (   0.2500000   0.2500000  -0.5000000), wk =   0.0078125
        k(  120) = (   0.2500000   0.2500000  -0.3750000), wk =   0.0078125
        k(  121) = (   0.2500000   0.2500000  -0.2500000), wk =   0.0078125
        k(  122) = (   0.2500000   0.2500000  -0.1250000), wk =   0.0078125
        k(  123) = (   0.2500000   0.3750000  -0.0000000), wk =   0.0078125
        k(  124) = (   0.2500000   0.3750000   0.1250000), wk =   0.0078125
        k(  125) = (   0.2500000   0.3750000   0.2500000), wk =   0.0078125
        k(  126) = (   0.2500000   0.3750000   0.3750000), wk =   0.0078125
        k(  127) = (   0.2500000   0.3750000  -0.5000000), wk =   0.0078125
        k(  128) = (   0.2500000   0.3750000  -0.3750000), wk =   0.0078125
        k(  129) = (   0.2500000   0.3750000  -0.2500000), wk =   0.0078125
        k(  130) = (   0.2500000   0.3750000  -0.1250000), wk =   0.0078125
        k(  131) = (   0.2500000  -0.5000000  -0.0000000), wk =   0.0078125
        k(  132) = (   0.2500000  -0.5000000   0.1250000), wk =   0.0078125
        k(  133) = (   0.2500000  -0.5000000   0.2500000), wk =   0.0078125
        k(  134) = (   0.2500000  -0.5000000   0.3750000), wk =   0.0078125
        k(  135) = (   0.2500000  -0.5000000  -0.5000000), wk =   0.0078125
        k(  136) = (   0.2500000  -0.5000000  -0.3750000), wk =   0.0078125
        k(  137) = (   0.2500000  -0.5000000  -0.2500000), wk =   0.0078125
        k(  138) = (   0.2500000  -0.5000000  -0.1250000), wk =   0.0078125
        k(  139) = (   0.2500000  -0.3750000   0.0000000), wk =   0.0078125
        k(  140) = (   0.2500000  -0.3750000   0.1250000), wk =   0.0078125
        k(  141) = (   0.2500000  -0.3750000   0.2500000), wk =   0.0078125
        k(  142) = (   0.2500000  -0.3750000   0.3750000), wk =   0.0078125
        k(  143) = (   0.2500000  -0.3750000  -0.5000000), wk =   0.0078125
        k(  144) = (   0.2500000  -0.3750000  -0.3750000), wk =   0.0078125
        k(  145) = (   0.2500000  -0.3750000  -0.2500000), wk =   0.0078125
        k(  146) = (   0.2500000  -0.3750000  -0.1250000), wk =   0.0078125
        k(  147) = (   0.2500000  -0.2500000  -0.0000000), wk =   0.0078125
        k(  148) = (   0.2500000  -0.2500000   0.1250000), wk =   0.0078125
        k(  149) = (   0.2500000  -0.2500000   0.2500000), wk =   0.0078125
        k(  150) = (   0.2500000  -0.2500000   0.3750000), wk =   0.0078125
        k(  151) = (   0.2500000  -0.2500000  -0.5000000), wk =   0.0078125
        k(  152) = (   0.2500000  -0.2500000  -0.3750000), wk =   0.0078125
        k(  153) = (   0.2500000  -0.2500000  -0.2500000), wk =   0.0078125
        k(  154) = (   0.2500000  -0.2500000  -0.1250000), wk =   0.0078125
        k(  155) = (   0.2500000  -0.1250000   0.0000000), wk =   0.0078125
        k(  156) = (   0.2500000  -0.1250000   0.1250000), wk =   0.0078125
        k(  157) = (   0.2500000  -0.1250000   0.2500000), wk =   0.0078125
        k(  158) = (   0.2500000  -0.1250000   0.3750000), wk =   0.0078125
        k(  159) = (   0.2500000  -0.1250000  -0.5000000), wk =   0.0078125
        k(  160) = (   0.2500000  -0.1250000  -0.3750000), wk =   0.0078125
        k(  161) = (   0.2500000  -0.1250000  -0.2500000), wk =   0.0078125
        k(  162) = (   0.2500000  -0.1250000  -0.1250000), wk =   0.0078125
        k(  163) = (   0.3750000   0.0000000   0.0000000), wk =   0.0078125
        k(  164) = (   0.3750000   0.0000000   0.1250000), wk =   0.0078125
        k(  165) = (   0.3750000   0.0000000   0.2500000), wk =   0.0078125
        k(  166) = (   0.3750000   0.0000000   0.3750000), wk =   0.0078125
        k(  167) = (   0.3750000   0.0000000  -0.5000000), wk =   0.0078125
        k(  168) = (   0.3750000   0.0000000  -0.3750000), wk =   0.0078125
        k(  169) = (   0.3750000   0.0000000  -0.2500000), wk =   0.0078125
        k(  170) = (   0.3750000   0.0000000  -0.1250000), wk =   0.0078125
        k(  171) = (   0.3750000   0.1250000  -0.0000000), wk =   0.0078125
        k(  172) = (   0.3750000   0.1250000   0.1250000), wk =   0.0078125
        k(  173) = (   0.3750000   0.1250000   0.2500000), wk =   0.0078125
        k(  174) = (   0.3750000   0.1250000   0.3750000), wk =   0.0078125
        k(  175) = (   0.3750000   0.1250000  -0.5000000), wk =   0.0078125
        k(  176) = (   0.3750000   0.1250000  -0.3750000), wk =   0.0078125
        k(  177) = (   0.3750000   0.1250000  -0.2500000), wk =   0.0078125
        k(  178) = (   0.3750000   0.1250000  -0.1250000), wk =   0.0078125
        k(  179) = (   0.3750000   0.2500000   0.0000000), wk =   0.0078125
        k(  180) = (   0.3750000   0.2500000   0.1250000), wk =   0.0078125
        k(  181) = (   0.3750000   0.2500000   0.2500000), wk =   0.0078125
        k(  182) = (   0.3750000   0.2500000   0.3750000), wk =   0.0078125
        k(  183) = (   0.3750000   0.2500000  -0.5000000), wk =   0.0078125
        k(  184) = (   0.3750000   0.2500000  -0.3750000), wk =   0.0078125
        k(  185) = (   0.3750000   0.2500000  -0.2500000), wk =   0.0078125
        k(  186) = (   0.3750000   0.2500000  -0.1250000), wk =   0.0078125
        k(  187) = (   0.3750000   0.3750000   0.0000000), wk =   0.0078125
        k(  188) = (   0.3750000   0.3750000   0.1250000), wk =   0.0078125
        k(  189) = (   0.3750000   0.3750000   0.2500000), wk =   0.0078125
        k(  190) = (   0.3750000   0.3750000   0.3750000), wk =   0.0078125
        k(  191) = (   0.3750000   0.3750000  -0.5000000), wk =   0.0078125
        k(  192) = (   0.3750000   0.3750000  -0.3750000), wk =   0.0078125
        k(  193) = (   0.3750000   0.3750000  -0.2500000), wk =   0.0078125
        k(  194) = (   0.3750000   0.3750000  -0.1250000), wk =   0.0078125
        k(  195) = (   0.3750000  -0.5000000   0.0000000), wk =   0.0078125
        k(  196) = (   0.3750000  -0.5000000   0.1250000), wk =   0.0078125
        k(  197) = (   0.3750000  -0.5000000   0.2500000), wk =   0.0078125
        k(  198) = (   0.3750000  -0.5000000   0.3750000), wk =   0.0078125
        k(  199) = (   0.3750000  -0.5000000  -0.5000000), wk =   0.0078125
        k(  200) = (   0.3750000  -0.5000000  -0.3750000), wk =   0.0078125
        k(  201) = (   0.3750000  -0.5000000  -0.2500000), wk =   0.0078125
        k(  202) = (   0.3750000  -0.5000000  -0.1250000), wk =   0.0078125
        k(  203) = (   0.3750000  -0.3750000   0.0000000), wk =   0.0078125
        k(  204) = (   0.3750000  -0.3750000   0.1250000), wk =   0.0078125
        k(  205) = (   0.3750000  -0.3750000   0.2500000), wk =   0.0078125
        k(  206) = (   0.3750000  -0.3750000   0.3750000), wk =   0.0078125
        k(  207) = (   0.3750000  -0.3750000  -0.5000000), wk =   0.0078125
        k(  208) = (   0.3750000  -0.3750000  -0.3750000), wk =   0.0078125
        k(  209) = (   0.3750000  -0.3750000  -0.2500000), wk =   0.0078125
        k(  210) = (   0.3750000  -0.3750000  -0.1250000), wk =   0.0078125
        k(  211) = (   0.3750000  -0.2500000   0.0000000), wk =   0.0078125
        k(  212) = (   0.3750000  -0.2500000   0.1250000), wk =   0.0078125
        k(  213) = (   0.3750000  -0.2500000   0.2500000), wk =   0.0078125
        k(  214) = (   0.3750000  -0.2500000   0.3750000), wk =   0.0078125
        k(  215) = (   0.3750000  -0.2500000  -0.5000000), wk =   0.0078125
        k(  216) = (   0.3750000  -0.2500000  -0.3750000), wk =   0.0078125
        k(  217) = (   0.3750000  -0.2500000  -0.2500000), wk =   0.0078125
        k(  218) = (   0.3750000  -0.2500000  -0.1250000), wk =   0.0078125
        k(  219) = (   0.3750000  -0.1250000   0.0000000), wk =   0.0078125
        k(  220) = (   0.3750000  -0.1250000   0.1250000), wk =   0.0078125
        k(  221) = (   0.3750000  -0.1250000   0.2500000), wk =   0.0078125
        k(  222) = (   0.3750000  -0.1250000   0.3750000), wk =   0.0078125
        k(  223) = (   0.3750000  -0.1250000  -0.5000000), wk =   0.0078125
        k(  224) = (   0.3750000  -0.1250000  -0.3750000), wk =   0.0078125
        k(  225) = (   0.3750000  -0.1250000  -0.2500000), wk =   0.0078125
        k(  226) = (   0.3750000  -0.1250000  -0.1250000), wk =   0.0078125
        k(  227) = (  -0.5000000  -0.0000000  -0.0000000), wk =   0.0039062
        k(  228) = (  -0.5000000  -0.0000000   0.1250000), wk =   0.0078125
        k(  229) = (  -0.5000000  -0.0000000   0.2500000), wk =   0.0078125
        k(  230) = (  -0.5000000  -0.0000000   0.3750000), wk =   0.0078125
        k(  231) = (  -0.5000000  -0.0000000  -0.5000000), wk =   0.0039062
        k(  232) = (  -0.5000000   0.1250000  -0.0000000), wk =   0.0078125
        k(  233) = (  -0.5000000   0.1250000   0.1250000), wk =   0.0078125
        k(  234) = (  -0.5000000   0.1250000   0.2500000), wk =   0.0078125
        k(  235) = (  -0.5000000   0.1250000   0.3750000), wk =   0.0078125
        k(  236) = (  -0.5000000   0.1250000  -0.5000000), wk =   0.0078125
        k(  237) = (  -0.5000000   0.1250000  -0.3750000), wk =   0.0078125
        k(  238) = (  -0.5000000   0.1250000  -0.2500000), wk =   0.0078125
        k(  239) = (  -0.5000000   0.1250000  -0.1250000), wk =   0.0078125
        k(  240) = (  -0.5000000   0.2500000  -0.0000000), wk =   0.0078125
        k(  241) = (  -0.5000000   0.2500000   0.1250000), wk =   0.0078125
        k(  242) = (  -0.5000000   0.2500000   0.2500000), wk =   0.0078125
        k(  243) = (  -0.5000000   0.2500000   0.3750000), wk =   0.0078125
        k(  244) = (  -0.5000000   0.2500000  -0.5000000), wk =   0.0078125
        k(  245) = (  -0.5000000   0.2500000  -0.3750000), wk =   0.0078125
        k(  246) = (  -0.5000000   0.2500000  -0.2500000), wk =   0.0078125
        k(  247) = (  -0.5000000   0.2500000  -0.1250000), wk =   0.0078125
        k(  248) = (  -0.5000000   0.3750000  -0.0000000), wk =   0.0078125
        k(  249) = (  -0.5000000   0.3750000   0.1250000), wk =   0.0078125
        k(  250) = (  -0.5000000   0.3750000   0.2500000), wk =   0.0078125
        k(  251) = (  -0.5000000   0.3750000   0.3750000), wk =   0.0078125
        k(  252) = (  -0.5000000   0.3750000  -0.5000000), wk =   0.0078125
        k(  253) = (  -0.5000000   0.3750000  -0.3750000), wk =   0.0078125
        k(  254) = (  -0.5000000   0.3750000  -0.2500000), wk =   0.0078125
        k(  255) = (  -0.5000000   0.3750000  -0.1250000), wk =   0.0078125
        k(  256) = (  -0.5000000  -0.5000000  -0.0000000), wk =   0.0039062
        k(  257) = (  -0.5000000  -0.5000000   0.1250000), wk =   0.0078125
        k(  258) = (  -0.5000000  -0.5000000   0.2500000), wk =   0.0078125
        k(  259) = (  -0.5000000  -0.5000000   0.3750000), wk =   0.0078125
        k(  260) = (  -0.5000000  -0.5000000  -0.5000000), wk =   0.0039062

     Dense  grid:    78763 G-vectors     FFT dimensions: (  50,  50,  75)

     Smooth grid:    30647 G-vectors     FFT dimensions: (  36,  36,  54)

     Dynamical RAM for                 wfc:       0.08 MB

     Dynamical RAM for     wfc (w. buffer):       5.05 MB

     Dynamical RAM for           str. fact:       0.23 MB

     Dynamical RAM for           local pot:       0.00 MB

     Dynamical RAM for          nlocal pot:       0.23 MB

     Dynamical RAM for                qrad:       7.83 MB

     Dynamical RAM for          rho,v,vnew:       0.51 MB

     Dynamical RAM for               rhoin:       0.17 MB

     Dynamical RAM for            rho*nmix:       1.20 MB

     Dynamical RAM for           G-vectors:       0.30 MB

     Dynamical RAM for          h,s,v(r/c):       0.08 MB

     Dynamical RAM for          <psi|beta>:       0.02 MB

     Dynamical RAM for                 psi:       0.31 MB

     Dynamical RAM for                hpsi:       0.31 MB

     Dynamical RAM for                spsi:       0.31 MB

     Dynamical RAM for      wfcinit/wfcrot:       0.21 MB

     Dynamical RAM for           addusdens:       3.94 MB

     Dynamical RAM for          addusforce:       4.09 MB

     Dynamical RAM for         addusstress:       4.16 MB

     Estimated static dynamical RAM per process >      16.30 MB

     Estimated max dynamical RAM per process >      20.45 MB

     Estimated total dynamical RAM >       1.28 GB

     Check: negative core charge=   -0.000003

     Initial potential from superposition of free atoms

     starting charge   41.69964, renormalised to   42.00000
     Starting wfcs are   26 randomized atomic wfcs

     total cpu time spent up to now is        2.2 secs

     Self-consistent Calculation

     iteration #  1     ecut=    80.00 Ry     beta= 0.50
     Davidson diagonalization with overlap
     ethr =  1.00E-02,  avg # of iterations =  2.0

     total cpu time spent up to now is        3.6 secs

     total energy              =    -650.62307193 Ry
     Harris-Foulkes estimate   =    -651.46004890 Ry
     estimated scf accuracy    <       1.25489867 Ry

     iteration #  2     ecut=    80.00 Ry     beta= 0.50
     Davidson diagonalization with overlap
     ethr =  2.99E-03,  avg # of iterations =  3.0

     total cpu time spent up to now is        4.7 secs

     total energy              =    -651.01634124 Ry
     Harris-Foulkes estimate   =    -651.30311742 Ry
     estimated scf accuracy    <       0.65872030 Ry

     iteration #  3     ecut=    80.00 Ry     beta= 0.50
     Davidson diagonalization with overlap
     ethr =  1.57E-03,  avg # of iterations =  2.0

     total cpu time spent up to now is        5.6 secs

     total energy              =    -651.12817774 Ry
     Harris-Foulkes estimate   =    -651.13145330 Ry
     estimated scf accuracy    <       0.01002281 Ry

     iteration #  4     ecut=    80.00 Ry     beta= 0.50
     Davidson diagonalization with overlap
     ethr =  2.39E-05,  avg # of iterations =  2.2

     total cpu time spent up to now is        6.6 secs

     total energy              =    -651.12914032 Ry
     Harris-Foulkes estimate   =    -651.12962469 Ry
     estimated scf accuracy    <       0.00104770 Ry

     iteration #  5     ecut=    80.00 Ry     beta= 0.50
     Davidson diagonalization with overlap
     ethr =  2.49E-06,  avg # of iterations =  2.9

     total cpu time spent up to now is        7.6 secs

     total energy              =    -651.12936521 Ry
     Harris-Foulkes estimate   =    -651.12943365 Ry
     estimated scf accuracy    <       0.00022261 Ry

     iteration #  6     ecut=    80.00 Ry     beta= 0.50
     Davidson diagonalization with overlap
     ethr =  5.30E-07,  avg # of iterations =  2.8

     total cpu time spent up to now is        8.5 secs

     total energy              =    -651.12940856 Ry
     Harris-Foulkes estimate   =    -651.12940758 Ry
     estimated scf accuracy    <       0.00001758 Ry

     iteration #  7     ecut=    80.00 Ry     beta= 0.50
     Davidson diagonalization with overlap
     ethr =  4.18E-08,  avg # of iterations =  2.6

     total cpu time spent up to now is        9.4 secs

     total energy              =    -651.12941153 Ry
     Harris-Foulkes estimate   =    -651.12941082 Ry
     estimated scf accuracy    <       0.00000137 Ry

     iteration #  8     ecut=    80.00 Ry     beta= 0.50
     Davidson diagonalization with overlap
     ethr =  3.26E-09,  avg # of iterations =  2.0

     total cpu time spent up to now is       10.3 secs

     End of self-consistent calculation

          k = 0.0000 0.0000 0.0000 (  3789 PWs)   bands (ev):

  -115.8329 -70.2062 -70.1822 -70.1822 -65.2172 -32.2214 -32.1804 -32.1804
   -10.3993  -9.3532   1.5579   1.5579   2.2386   2.7102   2.7645   2.7645
     5.5801   5.5801   6.7729   6.9420   6.9420

     occupation numbers 
     1.0000   1.0000   1.0000   1.0000   1.0000   1.0000   1.0000   1.0000
     1.0000   1.0000   1.0000   1.0000   1.0000   1.0000   1.0000   1.0000
     1.0000   1.0000   1.0000   1.0000   1.0000

          k = 0.0000-0.0000 0.0837 (  3801 PWs)   bands (ev):

  -115.8329 -70.2062 -70.1822 -70.1822 -65.2172 -32.2215 -32.1804 -32.1804
   -10.3737  -9.3822   1.5576   1.5576   2.1032   2.7597   2.7597   2.8883
     5.5971   5.5971   6.5313   6.9328   6.9328

     occupation numbers 
     1.0000   1.0000   1.0000   1.0000   1.0000   1.0000   1.0000   1.0000
     1.0000   1.0000   1.0000   1.0000   1.0000   1.0000   1.0000   1.0000
     1.0000   1.0000   1.0000   1.0000   1.0000

          k = 0.0000-0.0000 0.1673 (  3819 PWs)   bands (ev):

  -115.8329 -70.2062 -70.1823 -70.1823 -65.2172 -32.2215 -32.1804 -32.1804
   -10.3049  -9.4591   1.5569   1.5569   1.9158   2.7483   2.7483   3.1889
     5.6392   5.6392   6.0863   6.9094   6.9094

     occupation numbers 
     1.0000   1.0000   1.0000   1.0000   1.0000   1.0000   1.0000   1.0000
     1.0000   1.0000   1.0000   1.0000   1.0000   1.0000   1.0000   1.0000
     1.0000   1.0000   1.0000   1.0000   1.0000

          k = 0.0000-0.0000 0.2510 (  3848 PWs)   bands (ev):

  -115.8329 -70.2063 -70.1823 -70.1823 -65.2172 -32.2216 -32.1804 -32.1804
   -10.2206  -9.5516   1.5563   1.5563   1.7919   2.7370   2.7370   3.4462
     5.6826   5.6826   5.7164   6.8844   6.8844

     occupation numbers 
     1.0000   1.0000   1.0000   1.0000   1.0000   1.0000   1.0000   1.0000
     1.0000   1.0000   1.0000   1.0000   1.0000   1.0000   1.0000   1.0000
     1.0000   1.0000   1.0000   1.0000   1.0000

          k =-0.0000 0.0000-0.3346 (  3866 PWs)   bands (ev):

  -115.8329 -70.2063 -70.1823 -70.1823 -65.2172 -32.2217 -32.1804 -32.1804
   -10.1779  -9.5977   1.5560   1.5560   1.7498   2.7324   2.7324   3.5527
     5.5697   5.7011   5.7011   6.8735   6.8735

     occupation numbers 
     1.0000   1.0000   1.0000   1.0000   1.0000   1.0000   1.0000   1.0000
     1.0000   1.0000   1.0000   1.0000   1.0000   1.0000   1.0000   1.0000
     1.0000   1.0000   1.0000   1.0000   1.0000

          k =-0.0000 0.1443-0.0000 (  3821 PWs)   bands (ev):

  -115.8329 -70.2062 -70.1825 -70.1823 -65.2170 -32.2210 -32.1845 -32.1813
   -10.3180  -9.3220   1.5186   1.6321   2.2441   2.6695   2.7591   2.9573
     5.2071   5.5041   6.2392   6.6897   6.7898

     occupation numbers 
     1.0000   1.0000   1.0000   1.0000   1.0000   1.0000   1.0000   1.0000
     1.0000   1.0000   1.0000   1.0000   1.0000   1.0000   1.0000   1.0000
     1.0000   1.0000   1.0000   1.0000   1.0000

          k =-0.0000 0.1443 0.0837 (  3828 PWs)   bands (ev):

  -115.8329 -70.2062 -70.1825 -70.1823 -65.2170 -32.2210 -32.1845 -32.1813
   -10.2942  -9.3480   1.5167   1.6324   2.1331   2.6520   2.7537   3.1077
     5.2384   5.5192   6.1239   6.6811   6.7825

     occupation numbers 
     1.0000   1.0000   1.0000   1.0000   1.0000   1.0000   1.0000   1.0000
     1.0000   1.0000   1.0000   1.0000   1.0000   1.0000   1.0000   1.0000
     1.0000   1.0000   1.0000   1.0000   1.0000

          k =-0.0000 0.1443 0.1673 (  3824 PWs)   bands (ev):

  -115.8329 -70.2062 -70.1825 -70.1823 -65.2170 -32.2211 -32.1845 -32.1813
   -10.2304  -9.4172   1.5113   1.6319   1.9506   2.6230   2.7419   3.3874
     5.2778   5.5674   5.8855   6.6717   6.7507

     occupation numbers 
     1.0000   1.0000   1.0000   1.0000   1.0000   1.0000   1.0000   1.0000
     1.0000   1.0000   1.0000   1.0000   1.0000   1.0000   1.0000   1.0000
     1.0000   1.0000   1.0000   1.0000   1.0000

          k = 0.0000 0.1443 0.2510 (  3825 PWs)   bands (ev):

  -115.8329 -70.2062 -70.1825 -70.1823 -65.2170 -32.2212 -32.1845 -32.1813
   -10.1534  -9.4998   1.5031   1.6308   1.8247   2.5961   2.7307   3.6291
     5.2334   5.6231   5.7648   6.6344   6.7104

     occupation numbers 
     1.0000   1.0000   1.0000   1.0000   1.0000   1.0000   1.0000   1.0000
     1.0000   1.0000   1.0000   1.0000   1.0000   1.0000   1.0000   1.0000
     1.0000   1.0000   1.0000   1.0000   1.0000

          k =-0.0000 0.1443-0.3346 (  3828 PWs)   bands (ev):

  -115.8329 -70.2062 -70.1825 -70.1823 -65.2170 -32.2212 -32.1845 -32.1813
   -10.1150  -9.5404   1.4972   1.6298   1.7839   2.5847   2.7265   3.7354
     5.1541   5.6526   5.7648   6.6225   6.6862

     occupation numbers 
     1.0000   1.0000   1.0000   1.0000   1.0000   1.0000   1.0000   1.0000
     1.0000   1.0000   1.0000   1.0000   1.0000   1.0000   1.0000   1.0000
     1.0000   1.0000   1.0000   1.0000   1.0000

          k =-0.0000 0.1443-0.2510 (  3825 PWs)   bands (ev):

  -115.8329 -70.2062 -70.1825 -70.1823 -65.2170 -32.2212 -32.1845 -32.1813
   -10.1534  -9.4998   1.5004   1.6295   1.8272   2.5949   2.7316   3.6471
     5.1737   5.6356   5.7802   6.6685   6.6956

     occupation numbers 
     1.0000   1.0000   1.0000   1.0000   1.0000   1.0000   1.0000   1.0000
     1.0000   1.0000   1.0000   1.0000   1.0000   1.0000   1.0000   1.0000
     1.0000   1.0000   1.0000   1.0000   1.0000

          k =-0.0000 0.1443-0.1673 (  3824 PWs)   bands (ev):

  -115.8329 -70.2062 -70.1825 -70.1823 -65.2170 -32.2211 -32.1845 -32.1813
   -10.2305  -9.4172   1.5092   1.6300   1.9510   2.6215   2.7432   3.4077
     5.2189   5.5836   5.8800   6.7288   6.7314

     occupation numbers 
     1.0000   1.0000   1.0000   1.0000   1.0000   1.0000   1.0000   1.0000
     1.0000   1.0000   1.0000   1.0000   1.0000   1.0000   1.0000   1.0000
     1.0000   1.0000   1.0000   1.0000   1.0000

          k =-0.0000 0.1443-0.0837 (  3828 PWs)   bands (ev):

  -115.8329 -70.2062 -70.1825 -70.1823 -65.2170 -32.2210 -32.1845 -32.1813
   -10.2942  -9.3480   1.5162   1.6311   2.1303   2.6515   2.7546   3.1210
     5.2122   5.5298   6.0914   6.7385   6.7696

     occupation numbers 
     1.0000   1.0000   1.0000   1.0000   1.0000   1.0000   1.0000   1.0000
     1.0000   1.0000   1.0000   1.0000   1.0000   1.0000   1.0000   1.0000
     1.0000   1.0000   1.0000   1.0000   1.0000

          k =-0.0000 0.2887-0.0000 (  3821 PWs)   bands (ev):

  -115.8329 -70.2062 -70.1831 -70.1825 -65.2165 -32.2200 -32.1944 -32.1836
   -10.1103  -9.2518   1.4649   1.8259   2.2422   2.6849   2.7550   3.3588
     4.4333   5.2221   5.2884   6.4326   6.4490

     occupation numbers 
     1.0000   1.0000   1.0000   1.0000   1.0000   1.0000   1.0000   1.0000
     1.0000   1.0000   1.0000   1.0000   1.0000   1.0000   1.0000   1.0000
     1.0000   1.0000   1.0000   1.0000   1.0000

          k =-0.0000 0.2887 0.0837 (  3823 PWs)   bands (ev):

  -115.8329 -70.2062 -70.1831 -70.1825 -65.2165 -32.2200 -32.1944 -32.1836
   -10.0916  -9.2699   1.4583   1.8264   2.1897   2.5956   2.7491   3.4256
     4.5550   5.2151   5.3090   6.4095   6.4342

     occupation numbers 
     1.0000   1.0000   1.0000   1.0000   1.0000   1.0000   1.0000   1.0000
     1.0000   1.0000   1.0000   1.0000   1.0000   1.0000   1.0000   1.0000
     1.0000   1.0000   1.0000   1.0000   1.0000

          k =-0.0000 0.2887 0.1673 (  3826 PWs)   bands (ev):

  -115.8329 -70.2062 -70.1831 -70.1825 -65.2165 -32.2201 -32.1944 -32.1836
   -10.0428  -9.3176   1.4436   1.8249   2.0380   2.4688   2.7372   3.6087
     4.6863   5.2178   5.3793   6.3748   6.4221

     occupation numbers 
     1.0000   1.0000   1.0000   1.0000   1.0000   1.0000   1.0000   1.0000
     1.0000   1.0000   1.0000   1.0000   1.0000   1.0000   1.0000   1.0000
     1.0000   1.0000   1.0000   1.0000   1.0000

          k =-0.0000 0.2887 0.2510 (  3836 PWs)   bands (ev):

  -115.8329 -70.2062 -70.1831 -70.1825 -65.2165 -32.2202 -32.1944 -32.1836
    -9.9863  -9.3729   1.4246   1.8223   1.9044   2.3887   2.7265   3.7799
     4.6128   5.4112   5.4678   6.2956   6.3992

     occupation numbers 
     1.0000   1.0000   1.0000   1.0000   1.0000   1.0000   1.0000   1.0000
     1.0000   1.0000   1.0000   1.0000   1.0000   1.0000   1.0000   1.0000
     1.0000   1.0000   1.0000   1.0000   1.0000

          k =-0.0000 0.2887-0.3346 (  3824 PWs)   bands (ev):

  -115.8329 -70.2062 -70.1831 -70.1825 -65.2165 -32.2202 -32.1944 -32.1835
    -9.9596  -9.3990   1.4120   1.8202   1.8576   2.3604   2.7231   3.9157
     4.4613   5.5204   5.5284   6.2456   6.4062

     occupation numbers 
     1.0000   1.0000   1.0000   1.0000   1.0000   1.0000   1.0000   1.0000
     1.0000   1.0000   1.0000   1.0000   1.0000   1.0000   1.0000   1.0000
     1.0000   1.0000   1.0000   1.0000   1.0000

          k =-0.0000 0.2887-0.2510 (  3836 PWs)   bands (ev):

  -115.8329 -70.2062 -70.1831 -70.1825 -65.2165 -32.2202 -32.1944 -32.1836
    -9.9864  -9.3727   1.4197   1.8197   1.9005   2.3898   2.7286   3.9476
     4.3827   5.3926   5.4915   6.2689   6.5081

     occupation numbers 
     1.0000   1.0000   1.0000   1.0000   1.0000   1.0000   1.0000   1.0000
     1.0000   1.0000   1.0000   1.0000   1.0000   1.0000   1.0000   1.0000
     1.0000   1.0000   1.0000   1.0000   1.0000

          k =-0.0000 0.2887-0.1673 (  3826 PWs)   bands (ev):

  -115.8329 -70.2062 -70.1831 -70.1825 -65.2165 -32.2201 -32.1944 -32.1836
   -10.0430  -9.3173   1.4421   1.8212   2.0169   2.4733   2.7402   3.7998
     4.4153   5.1991   5.4069   6.3430   6.5665

     occupation numbers 
     1.0000   1.0000   1.0000   1.0000   1.0000   1.0000   1.0000   1.0000
     1.0000   1.0000   1.0000   1.0000   1.0000   1.0000   1.0000   1.0000
     1.0000   1.0000   1.0000   1.0000   1.0000

          k =-0.0000 0.2887-0.0837 (  3823 PWs)   bands (ev):

  -115.8329 -70.2062 -70.1831 -70.1825 -65.2165 -32.2200 -32.1944 -32.1836
   -10.0917  -9.2698   1.4601   1.8238   2.1626   2.5955   2.7512   3.5520
     4.4182   5.1619   5.3259   6.4143   6.5176

     occupation numbers 
     1.0000   1.0000   1.0000   1.0000   1.0000   1.0000   1.0000   1.0000
     1.0000   1.0000   1.0000   1.0000   1.0000   1.0000   1.0000   1.0000
     1.0000   1.0000   1.0000   1.0000   1.0000

          k =-0.0000 0.4330-0.0000 (  3836 PWs)   bands (ev):

  -115.8328 -70.2061 -70.1838 -70.1827 -65.2159 -32.2189 -32.2044 -32.1858
    -9.8797  -9.1950   1.4884   2.0400   2.2479   2.7110   2.7798   3.5187
     4.0276   4.5014   4.9980   6.0356   6.1556

     occupation numbers 
     1.0000   1.0000   1.0000   1.0000   1.0000   1.0000   1.0000   1.0000
     1.0000   1.0000   1.0000   1.0000   1.0000   1.0000   1.0000   1.0000
     1.0000   1.0000   1.0000   1.0000   1.0000

          k =-0.0000 0.4330 0.0837 (  3837 PWs)   bands (ev):

  -115.8328 -70.2061 -70.1838 -70.1827 -65.2159 -32.2190 -32.2043 -32.1858
    -9.8688  -9.2026   1.4697   2.0391   2.2364   2.6353   2.7747   3.3287
     4.1967   4.6624   5.0279   6.0531   6.1291

     occupation numbers 
     1.0000   1.0000   1.0000   1.0000   1.0000   1.0000   1.0000   1.0000
     1.0000   1.0000   1.0000   1.0000   1.0000   1.0000   1.0000   1.0000
     1.0000   1.0000   1.0000   1.0000   1.0000

          k =-0.0000 0.4330 0.1673 (  3839 PWs)   bands (ev):

  -115.8328 -70.2061 -70.1838 -70.1827 -65.2159 -32.2190 -32.2043 -32.1858
    -9.8412  -9.2219   1.4400   2.0341   2.1480   2.4231   2.7651   3.3024
     4.2433   4.9734   5.1204   6.0426   6.1917

     occupation numbers 
     1.0000   1.0000   1.0000   1.0000   1.0000   1.0000   1.0000   1.0000
     1.0000   1.0000   1.0000   1.0000   1.0000   1.0000   1.0000   1.0000
     1.0000   1.0000   1.0000   1.0000   1.0000

          k =-0.0000 0.4330 0.2510 (  3833 PWs)   bands (ev):

  -115.8328 -70.2061 -70.1837 -70.1827 -65.2159 -32.2191 -32.2043 -32.1858
    -9.8116  -9.2432   1.4118   2.0237   2.0279   2.2813   2.7568   3.3513
     4.1820   5.2416   5.2872   5.9264   6.3272

     occupation numbers 
     1.0000   1.0000   1.0000   1.0000   1.0000   1.0000   1.0000   1.0000
     1.0000   1.0000   1.0000   1.0000   1.0000   1.0000   1.0000   1.0000
     1.0000   1.0000   1.0000   1.0000   1.0000

          k =-0.0000 0.4330-0.3346 (  3848 PWs)   bands (ev):

  -115.8329 -70.2061 -70.1838 -70.1827 -65.2159 -32.2191 -32.2043 -32.1858
    -9.7987  -9.2527   1.4018   1.9540   2.0242   2.2442   2.7545   3.4123
     4.1156   5.3159   5.3854   5.8533   6.4180

     occupation numbers 
     1.0000   1.0000   1.0000   1.0000   1.0000   1.0000   1.0000   1.0000
     1.0000   1.0000   1.0000   1.0000   1.0000   1.0000   1.0000   1.0000
     1.0000   1.0000   1.0000   1.0000   1.0000

          k =-0.0000 0.4330-0.2510 (  3833 PWs)   bands (ev):

  -115.8328 -70.2061 -70.1837 -70.1827 -65.2159 -32.2191 -32.2043 -32.1858
    -9.8118  -9.2429   1.4220   1.9755   2.0251   2.2974   2.7591   3.4665
     4.0888   5.1899   5.2621   5.9040   6.4474

     occupation numbers 
     1.0000   1.0000   1.0000   1.0000   1.0000   1.0000   1.0000   1.0000
     1.0000   1.0000   1.0000   1.0000   1.0000   1.0000   1.0000   1.0000
     1.0000   1.0000   1.0000   1.0000   1.0000

          k =-0.0000 0.4330-0.1673 (  3839 PWs)   bands (ev):

  -115.8328 -70.2061 -70.1838 -70.1827 -65.2159 -32.2190 -32.2043 -32.1858
    -9.8415  -9.2215   1.4601   2.0302   2.0625   2.4359   2.7684   3.5129
     4.1186   4.8069   5.1416   6.0187   6.3545

     occupation numbers 
     1.0000   1.0000   1.0000   1.0000   1.0000   1.0000   1.0000   1.0000
     1.0000   1.0000   1.0000   1.0000   1.0000   1.0000   1.0000   1.0000
     1.0000   1.0000   1.0000   1.0000   1.0000

          k =-0.0000 0.4330-0.0837 (  3837 PWs)   bands (ev):

  -115.8328 -70.2061 -70.1838 -70.1827 -65.2159 -32.2190 -32.2043 -32.1858
    -9.8689  -9.2023   1.4867   2.0363   2.1743   2.6082   2.7771   3.5713
     4.1155   4.4715   5.0402   6.1149   6.1736

     occupation numbers 
     1.0000   1.0000   1.0000   1.0000   1.0000   1.0000   1.0000   1.0000
     1.0000   1.0000   1.0000   1.0000   1.0000   1.0000   1.0000   1.0000
     1.0000   1.0000   1.0000   1.0000   1.0000

          k = 0.0000-0.5774 0.0000 (  3848 PWs)   bands (ev):

  -115.8328 -70.2061 -70.1840 -70.1827 -65.2157 -32.2185 -32.2085 -32.1867
    -9.7738  -9.1790   1.5349   2.1315   2.2732   2.7130   2.8108   3.2237
     4.0862   4.4479   4.8436   5.7669   6.0504

     occupation numbers 
     1.0000   1.0000   1.0000   1.0000   1.0000   1.0000   1.0000   1.0000
     1.0000   1.0000   1.0000   1.0000   1.0000   1.0000   1.0000   1.0000
     1.0000   1.0000   1.0000   1.0000   1.0000

          k = 0.0000-0.5774 0.0837 (  3828 PWs)   bands (ev):

  -115.8328 -70.2061 -70.1840 -70.1827 -65.2157 -32.2185 -32.2085 -32.1867
    -9.7676  -9.1805   1.5186   2.1280   2.2415   2.6634   2.8077   3.1056
     4.0736   4.6379   4.8813   5.8796   6.0147

     occupation numbers 
     1.0000   1.0000   1.0000   1.0000   1.0000   1.0000   1.0000   1.0000
     1.0000   1.0000   1.0000   1.0000   1.0000   1.0000   1.0000   1.0000
     1.0000   1.0000   1.0000   1.0000   1.0000

          k = 0.0000-0.5774 0.1673 (  3844 PWs)   bands (ev):

  -115.8328 -70.2061 -70.1840 -70.1827 -65.2157 -32.2185 -32.2085 -32.1867
    -9.7525  -9.1843   1.4765   2.1195   2.1744   2.4819   2.8005   2.9937
     4.0481   4.9827   4.9922   5.9175   6.1325

     occupation numbers 
     1.0000   1.0000   1.0000   1.0000   1.0000   1.0000   1.0000   1.0000
     1.0000   1.0000   1.0000   1.0000   1.0000   1.0000   1.0000   1.0000
     1.0000   1.0000   1.0000   1.0000   1.0000

          k = 0.0000-0.5774 0.2510 (  3832 PWs)   bands (ev):

  -115.8328 -70.2061 -70.1840 -70.1827 -65.2157 -32.2186 -32.2085 -32.1867
    -9.7369  -9.1886   1.4312   2.1098   2.1110   2.2964   2.7938   2.9671
     4.0282   5.1096   5.2888   5.7945   6.3558

     occupation numbers 
     1.0000   1.0000   1.0000   1.0000   1.0000   1.0000   1.0000   1.0000
     1.0000   1.0000   1.0000   1.0000   1.0000   1.0000   1.0000   1.0000
     1.0000   1.0000   1.0000   1.0000   1.0000

          k = 0.0000-0.5774-0.3346 (  3816 PWs)   bands (ev):

  -115.8328 -70.2061 -70.1840 -70.1827 -65.2157 -32.2186 -32.2085 -32.1867
    -9.7304  -9.1905   1.4118   2.0767   2.1075   2.2334   2.7912   2.9632
     4.0211   5.1777   5.4054   5.7280   6.4382

     occupation numbers 
     1.0000   1.0000   1.0000   1.0000   1.0000   1.0000   1.0000   1.0000
     1.0000   1.0000   1.0000   1.0000   1.0000   1.0000   1.0000   1.0000
     1.0000   1.0000   1.0000   1.0000   1.0000

          k = 0.1250 0.0722-0.0000 (  3821 PWs)   bands (ev):

  -115.8329 -70.2062 -70.1825 -70.1823 -65.2170 -32.2210 -32.1845 -32.1813
   -10.3180  -9.3220   1.5186   1.6321   2.2441   2.6695   2.7591   2.9573
     5.2071   5.5041   6.2392   6.6897   6.7898

     occupation numbers 
     1.0000   1.0000   1.0000   1.0000   1.0000   1.0000   1.0000   1.0000
     1.0000   1.0000   1.0000   1.0000   1.0000   1.0000   1.0000   1.0000
     1.0000   1.0000   1.0000   1.0000   1.0000

          k = 0.1250 0.0722 0.0837 (  3828 PWs)   bands (ev):

  -115.8329 -70.2062 -70.1825 -70.1823 -65.2170 -32.2210 -32.1845 -32.1813
   -10.2942  -9.3480   1.5162   1.6311   2.1303   2.6515   2.7546   3.1210
     5.2122   5.5298   6.0914   6.7385   6.7696

     occupation numbers 
     1.0000   1.0000   1.0000   1.0000   1.0000   1.0000   1.0000   1.0000
     1.0000   1.0000   1.0000   1.0000   1.0000   1.0000   1.0000   1.0000
     1.0000   1.0000   1.0000   1.0000   1.0000

          k = 0.1250 0.0722 0.1673 (  3824 PWs)   bands (ev):

  -115.8329 -70.2062 -70.1825 -70.1823 -65.2170 -32.2211 -32.1845 -32.1813
   -10.2305  -9.4172   1.5092   1.6300   1.9510   2.6215   2.7432   3.4077
     5.2189   5.5836   5.8800   6.7288   6.7314

     occupation numbers 
     1.0000   1.0000   1.0000   1.0000   1.0000   1.0000   1.0000   1.0000
     1.0000   1.0000   1.0000   1.0000   1.0000   1.0000   1.0000   1.0000
     1.0000   1.0000   1.0000   1.0000   1.0000

          k = 0.1250 0.0722 0.2510 (  3825 PWs)   bands (ev):

  -115.8329 -70.2062 -70.1825 -70.1823 -65.2170 -32.2212 -32.1845 -32.1813
   -10.1534  -9.4998   1.5004   1.6295   1.8272   2.5949   2.7316   3.6471
     5.1737   5.6356   5.7802   6.6685   6.6956

     occupation numbers 
     1.0000   1.0000   1.0000   1.0000   1.0000   1.0000   1.0000   1.0000
     1.0000   1.0000   1.0000   1.0000   1.0000   1.0000   1.0000   1.0000
     1.0000   1.0000   1.0000   1.0000   1.0000

          k = 0.1250 0.0722-0.3346 (  3828 PWs)   bands (ev):

  -115.8329 -70.2062 -70.1825 -70.1823 -65.2170 -32.2212 -32.1845 -32.1813
   -10.1150  -9.5404   1.4972   1.6298   1.7839   2.5847   2.7265   3.7354
     5.1541   5.6526   5.7648   6.6225   6.6862

     occupation numbers 
     1.0000   1.0000   1.0000   1.0000   1.0000   1.0000   1.0000   1.0000
     1.0000   1.0000   1.0000   1.0000   1.0000   1.0000   1.0000   1.0000
     1.0000   1.0000   1.0000   1.0000   1.0000

          k = 0.1250 0.0722-0.2510 (  3825 PWs)   bands (ev):

  -115.8329 -70.2062 -70.1825 -70.1823 -65.2170 -32.2212 -32.1845 -32.1813
   -10.1534  -9.4998   1.5031   1.6308   1.8247   2.5961   2.7307   3.6291
     5.2334   5.6231   5.7648   6.6343   6.7104

     occupation numbers 
     1.0000   1.0000   1.0000   1.0000   1.0000   1.0000   1.0000   1.0000
     1.0000   1.0000   1.0000   1.0000   1.0000   1.0000   1.0000   1.0000
     1.0000   1.0000   1.0000   1.0000   1.0000

          k = 0.1250 0.0722-0.1673 (  3824 PWs)   bands (ev):

  -115.8329 -70.2062 -70.1825 -70.1823 -65.2170 -32.2211 -32.1845 -32.1813
   -10.2304  -9.4172   1.5113   1.6319   1.9506   2.6230   2.7419   3.3874
     5.2778   5.5674   5.8855   6.6717   6.7507

     occupation numbers 
     1.0000   1.0000   1.0000   1.0000   1.0000   1.0000   1.0000   1.0000
     1.0000   1.0000   1.0000   1.0000   1.0000   1.0000   1.0000   1.0000
     1.0000   1.0000   1.0000   1.0000   1.0000

          k = 0.1250 0.0722-0.0837 (  3828 PWs)   bands (ev):

  -115.8329 -70.2062 -70.1825 -70.1823 -65.2170 -32.2210 -32.1845 -32.1813
   -10.2942  -9.3480   1.5167   1.6324   2.1331   2.6520   2.7537   3.1077
     5.2384   5.5192   6.1239   6.6811   6.7825

     occupation numbers 
     1.0000   1.0000   1.0000   1.0000   1.0000   1.0000   1.0000   1.0000
     1.0000   1.0000   1.0000   1.0000   1.0000   1.0000   1.0000   1.0000
     1.0000   1.0000   1.0000   1.0000   1.0000

          k = 0.1250 0.2165-0.0000 (  3807 PWs)   bands (ev):

  -115.8329 -70.2062 -70.1829 -70.1825 -65.2166 -32.2203 -32.1911 -32.1833
   -10.1732  -9.2713   1.4918   1.7474   2.2487   2.6791   2.7459   3.2464
     4.7137   5.1855   5.6260   6.4074   6.5780

     occupation numbers 
     1.0000   1.0000   1.0000   1.0000   1.0000   1.0000   1.0000   1.0000
     1.0000   1.0000   1.0000   1.0000   1.0000   1.0000   1.0000   1.0000
     1.0000   1.0000   1.0000   1.0000   1.0000

          k = 0.1250 0.2165 0.0837 (  3827 PWs)   bands (ev):

  -115.8329 -70.2062 -70.1829 -70.1825 -65.2166 -32.2203 -32.1911 -32.1833
   -10.1529  -9.2919   1.4876   1.7451   2.1722   2.6054   2.7406   3.3945
     4.7404   5.2232   5.5700   6.4015   6.5908

     occupation numbers 
     1.0000   1.0000   1.0000   1.0000   1.0000   1.0000   1.0000   1.0000
     1.0000   1.0000   1.0000   1.0000   1.0000   1.0000   1.0000   1.0000
     1.0000   1.0000   1.0000   1.0000   1.0000

          k = 0.1250 0.2165 0.1673 (  3824 PWs)   bands (ev):

  -115.8329 -70.2062 -70.1829 -70.1825 -65.2166 -32.2204 -32.1911 -32.1833
   -10.0992  -9.3464   1.4749   1.7383   2.0161   2.5102   2.7281   3.6451
     4.7620   5.3384   5.5065   6.3586   6.5924

     occupation numbers 
     1.0000   1.0000   1.0000   1.0000   1.0000   1.0000   1.0000   1.0000
     1.0000   1.0000   1.0000   1.0000   1.0000   1.0000   1.0000   1.0000
     1.0000   1.0000   1.0000   1.0000   1.0000

          k = 0.1250 0.2165 0.2510 (  3822 PWs)   bands (ev):

  -115.8329 -70.2062 -70.1829 -70.1825 -65.2166 -32.2205 -32.1911 -32.1833
   -10.0361  -9.4103   1.4576   1.7281   1.8983   2.4465   2.7160   3.8416
     4.7097   5.4512   5.5855   6.2986   6.5313

     occupation numbers 
     1.0000   1.0000   1.0000   1.0000   1.0000   1.0000   1.0000   1.0000
     1.0000   1.0000   1.0000   1.0000   1.0000   1.0000   1.0000   1.0000
     1.0000   1.0000   1.0000   1.0000   1.0000

          k = 0.1250 0.2165-0.3346 (  3816 PWs)   bands (ev):

  -115.8329 -70.2062 -70.1829 -70.1825 -65.2166 -32.2205 -32.1911 -32.1833
   -10.0058  -9.4410   1.4486   1.7219   1.8600   2.4234   2.7111   3.9190
     4.6673   5.4810   5.6801   6.2716   6.4766

     occupation numbers 
     1.0000   1.0000   1.0000   1.0000   1.0000   1.0000   1.0000   1.0000
     1.0000   1.0000   1.0000   1.0000   1.0000   1.0000   1.0000   1.0000
     1.0000   1.0000   1.0000   1.0000   1.0000

          k = 0.1250 0.2165-0.2510 (  3822 PWs)   bands (ev):

  -115.8329 -70.2062 -70.1829 -70.1825 -65.2166 -32.2205 -32.1911 -32.1833
   -10.0361  -9.4103   1.4576   1.7281   1.8983   2.4465   2.7160   3.8416
     4.7097   5.4512   5.5855   6.2986   6.5313

     occupation numbers 
     1.0000   1.0000   1.0000   1.0000   1.0000   1.0000   1.0000   1.0000
     1.0000   1.0000   1.0000   1.0000   1.0000   1.0000   1.0000   1.0000
     1.0000   1.0000   1.0000   1.0000   1.0000

          k = 0.1250 0.2165-0.1673 (  3824 PWs)   bands (ev):

  -115.8329 -70.2062 -70.1829 -70.1825 -65.2166 -32.2204 -32.1911 -32.1833
   -10.0992  -9.3464   1.4749   1.7383   2.0161   2.5102   2.7281   3.6451
     4.7620   5.3384   5.5065   6.3586   6.5924

     occupation numbers 
     1.0000   1.0000   1.0000   1.0000   1.0000   1.0000   1.0000   1.0000
     1.0000   1.0000   1.0000   1.0000   1.0000   1.0000   1.0000   1.0000
     1.0000   1.0000   1.0000   1.0000   1.0000

          k = 0.1250 0.2165-0.0837 (  3827 PWs)   bands (ev):

  -115.8329 -70.2062 -70.1829 -70.1825 -65.2166 -32.2203 -32.1911 -32.1833
   -10.1529  -9.2919   1.4876   1.7451   2.1722   2.6054   2.7406   3.3945
     4.7404   5.2232   5.5700   6.4015   6.5908

     occupation numbers 
     1.0000   1.0000   1.0000   1.0000   1.0000   1.0000   1.0000   1.0000
     1.0000   1.0000   1.0000   1.0000   1.0000   1.0000   1.0000   1.0000
     1.0000   1.0000   1.0000   1.0000   1.0000

          k = 0.1250 0.3608-0.0000 (  3842 PWs)   bands (ev):

  -115.8329 -70.2061 -70.1835 -70.1827 -65.2161 -32.2193 -32.2001 -32.1864
    -9.9518  -9.2091   1.5300   1.9195   2.2627   2.7072   2.7453   3.6681
     4.1045   4.5840   5.0910   6.0003   6.2447

     occupation numbers 
     1.0000   1.0000   1.0000   1.0000   1.0000   1.0000   1.0000   1.0000
     1.0000   1.0000   1.0000   1.0000   1.0000   1.0000   1.0000   1.0000
     1.0000   1.0000   1.0000   1.0000   1.0000

          k = 0.1250 0.3608 0.0837 (  3837 PWs)   bands (ev):

  -115.8329 -70.2061 -70.1835 -70.1827 -65.2161 -32.2193 -32.2001 -32.1864
    -9.9381  -9.2202   1.5195   1.9138   2.2343   2.6126   2.7399   3.5779
     4.2745   4.6985   5.0843   5.9602   6.2826

     occupation numbers 
     1.0000   1.0000   1.0000   1.0000   1.0000   1.0000   1.0000   1.0000
     1.0000   1.0000   1.0000   1.0000   1.0000   1.0000   1.0000   1.0000
     1.0000   1.0000   1.0000   1.0000   1.0000

          k = 0.1250 0.3608 0.1673 (  3832 PWs)   bands (ev):

  -115.8329 -70.2061 -70.1835 -70.1827 -65.2161 -32.2194 -32.2001 -32.1864
    -9.9031  -9.2491   1.5012   1.8862   2.1383   2.4358   2.7284   3.6077
     4.3346   4.9731   5.1390   5.8860   6.3725

     occupation numbers 
     1.0000   1.0000   1.0000   1.0000   1.0000   1.0000   1.0000   1.0000
     1.0000   1.0000   1.0000   1.0000   1.0000   1.0000   1.0000   1.0000
     1.0000   1.0000   1.0000   1.0000   1.0000

          k = 0.1250 0.3608 0.2510 (  3838 PWs)   bands (ev):

  -115.8329 -70.2061 -70.1835 -70.1827 -65.2161 -32.2194 -32.2001 -32.1864
    -9.8645  -9.2817   1.4805   1.8390   2.0467   2.3240   2.7179   3.6876
     4.2700   5.1255   5.3814   5.8042   6.4308

     occupation numbers 
     1.0000   1.0000   1.0000   1.0000   1.0000   1.0000   1.0000   1.0000
     1.0000   1.0000   1.0000   1.0000   1.0000   1.0000   1.0000   1.0000
     1.0000   1.0000   1.0000   1.0000   1.0000

          k = 0.1250 0.3608-0.3346 (  3832 PWs)   bands (ev):

  -115.8329 -70.2061 -70.1835 -70.1827 -65.2161 -32.2194 -32.2001 -32.1864
    -9.8471  -9.2966   1.4706   1.8094   2.0149   2.2904   2.7141   3.7738
     4.1742   5.2069   5.4381   5.8070   6.4549

     occupation numbers 
     1.0000   1.0000   1.0000   1.0000   1.0000   1.0000   1.0000   1.0000
     1.0000   1.0000   1.0000   1.0000   1.0000   1.0000   1.0000   1.0000
     1.0000   1.0000   1.0000   1.0000   1.0000

          k = 0.1250 0.3608-0.2510 (  3838 PWs)   bands (ev):

  -115.8329 -70.2061 -70.1835 -70.1827 -65.2161 -32.2194 -32.2001 -32.1864
    -9.8646  -9.2816   1.4853   1.8261   2.0386   2.3303   2.7190   3.8251
     4.1179   5.1365   5.3367   5.8223   6.4812

     occupation numbers 
     1.0000   1.0000   1.0000   1.0000   1.0000   1.0000   1.0000   1.0000
     1.0000   1.0000   1.0000   1.0000   1.0000   1.0000   1.0000   1.0000
     1.0000   1.0000   1.0000   1.0000   1.0000

          k = 0.1250 0.3608-0.1673 (  3832 PWs)   bands (ev):

  -115.8329 -70.2061 -70.1835 -70.1827 -65.2161 -32.2194 -32.2001 -32.1864
    -9.9033  -9.2489   1.5123   1.8690   2.1121   2.4462   2.7299   3.8102
     4.1246   4.9354   5.1310   5.9176   6.4295

     occupation numbers 
     1.0000   1.0000   1.0000   1.0000   1.0000   1.0000   1.0000   1.0000
     1.0000   1.0000   1.0000   1.0000   1.0000   1.0000   1.0000   1.0000
     1.0000   1.0000   1.0000   1.0000   1.0000

          k = 0.1250 0.3608-0.0837 (  3837 PWs)   bands (ev):

  -115.8329 -70.2061 -70.1835 -70.1827 -65.2161 -32.2193 -32.2001 -32.1864
    -9.9382  -9.2201   1.5289   1.9046   2.2082   2.6099   2.7406   3.7733
     4.0941   4.6620   5.0769   6.0014   6.3077

     occupation numbers 
     1.0000   1.0000   1.0000   1.0000   1.0000   1.0000   1.0000   1.0000
     1.0000   1.0000   1.0000   1.0000   1.0000   1.0000   1.0000   1.0000
     1.0000   1.0000   1.0000   1.0000   1.0000

          k = 0.1250 0.5052-0.0000 (  3845 PWs)   bands (ev):

  -115.8328 -70.2061 -70.1839 -70.1829 -65.2157 -32.2185 -32.2065 -32.1887
    -9.7773  -9.1774   1.6324   2.0858   2.2849   2.7234   2.7850   3.3426
     4.1075   4.4248   4.7096   5.7360   5.8880

     occupation numbers 
     1.0000   1.0000   1.0000   1.0000   1.0000   1.0000   1.0000   1.0000
     1.0000   1.0000   1.0000   1.0000   1.0000   1.0000   1.0000   1.0000
     1.0000   1.0000   1.0000   1.0000   1.0000

          k = 0.1250 0.5052 0.0837 (  3848 PWs)   bands (ev):

  -115.8328 -70.2061 -70.1839 -70.1829 -65.2157 -32.2185 -32.2065 -32.1887
    -9.7708  -9.1793   1.6104   2.0832   2.2723   2.6738   2.7877   3.1809
     4.0785   4.6097   4.8273   5.7214   5.9368

     occupation numbers 
     1.0000   1.0000   1.0000   1.0000   1.0000   1.0000   1.0000   1.0000
[...]
    -9.7551  -9.1839   1.5963   2.0262   2.1848   2.4766   2.7836   3.1879
     4.0542   4.6391   5.1217   5.6952   6.1850

     occupation numbers 
     1.0000   1.0000   1.0000   1.0000   1.0000   1.0000   1.0000   1.0000
     1.0000   1.0000   1.0000   1.0000   1.0000   1.0000   1.0000   1.0000
     1.0000   1.0000   1.0000   1.0000   1.0000

          k =-0.5000-0.1443-0.0837 (  3848 PWs)   bands (ev):

  -115.8328 -70.2061 -70.1839 -70.1829 -65.2157 -32.2185 -32.2065 -32.1887
    -9.7709  -9.1791   1.6289   2.0651   2.2427   2.6494   2.7849   3.2938
     4.0922   4.4810   4.8305   5.7784   5.9415

     occupation numbers 
     1.0000   1.0000   1.0000   1.0000   1.0000   1.0000   1.0000   1.0000
     1.0000   1.0000   1.0000   1.0000   1.0000   1.0000   1.0000   1.0000
     1.0000   1.0000   1.0000   1.0000   1.0000

          k =-0.5000 0.0000-0.0000 (  3865 PWs)   bands (ev):

  -115.8328 -70.2061 -70.1837 -70.1831 -65.2157 -32.2185 -32.2039 -32.1913
    -9.7808  -9.1757   1.7798   1.9890   2.2810   2.7302   2.7870   3.6723
     3.7820   4.4540   4.7030   5.5311   5.8569

     occupation numbers 
     1.0000   1.0000   1.0000   1.0000   1.0000   1.0000   1.0000   1.0000
     1.0000   1.0000   1.0000   1.0000   1.0000   1.0000   1.0000   1.0000
     1.0000   1.0000   1.0000   1.0000   1.0000

          k =-0.5000 0.0000 0.0837 (  3853 PWs)   bands (ev):

  -115.8328 -70.2061 -70.1837 -70.1831 -65.2157 -32.2185 -32.2039 -32.1913
    -9.7741  -9.1780   1.7776   1.9655   2.2556   2.6555   2.7885   3.5318
     3.8014   4.6051   4.7993   5.5000   5.9472

     occupation numbers 
     1.0000   1.0000   1.0000   1.0000   1.0000   1.0000   1.0000   1.0000
     1.0000   1.0000   1.0000   1.0000   1.0000   1.0000   1.0000   1.0000
     1.0000   1.0000   1.0000   1.0000   1.0000

          k =-0.5000-0.0000 0.1673 (  3845 PWs)   bands (ev):

  -115.8328 -70.2061 -70.1837 -70.1830 -65.2157 -32.2186 -32.2039 -32.1912
    -9.7576  -9.1837   1.7707   1.9046   2.2016   2.4663   2.7858   3.4033
     3.8800   4.5859   5.1690   5.4399   6.1733

     occupation numbers 
     1.0000   1.0000   1.0000   1.0000   1.0000   1.0000   1.0000   1.0000
     1.0000   1.0000   1.0000   1.0000   1.0000   1.0000   1.0000   1.0000
     1.0000   1.0000   1.0000   1.0000   1.0000

          k =-0.5000-0.0000 0.2510 (  3846 PWs)   bands (ev):

  -115.8328 -70.2061 -70.1837 -70.1830 -65.2157 -32.2186 -32.2039 -32.1912
    -9.7405  -9.1899   1.7604   1.8376   2.1477   2.3012   2.7819   3.3690
     3.9606   4.6024   5.1299   5.6517   6.3980

     occupation numbers 
     1.0000   1.0000   1.0000   1.0000   1.0000   1.0000   1.0000   1.0000
     1.0000   1.0000   1.0000   1.0000   1.0000   1.0000   1.0000   1.0000
     1.0000   1.0000   1.0000   1.0000   1.0000

          k =-0.5000 0.0000-0.3346 (  3844 PWs)   bands (ev):

  -115.8328 -70.2061 -70.1837 -70.1831 -65.2157 -32.2186 -32.2039 -32.1912
    -9.7332  -9.1927   1.7550   1.8072   2.1200   2.2488   2.7803   3.3643
     3.9918   4.6426   5.0376   5.7702   6.4910

     occupation numbers 
     1.0000   1.0000   1.0000   1.0000   1.0000   1.0000   1.0000   1.0000
     1.0000   1.0000   1.0000   1.0000   1.0000   1.0000   1.0000   1.0000
     1.0000   1.0000   1.0000   1.0000   1.0000

          k =-0.5000 0.0000-0.2510 (  3846 PWs)   bands (ev):

  -115.8328 -70.2061 -70.1837 -70.1830 -65.2157 -32.2186 -32.2039 -32.1912
    -9.7405  -9.1899   1.7604   1.8376   2.1477   2.3012   2.7819   3.3690
     3.9606   4.6024   5.1299   5.6517   6.3980

     occupation numbers 
     1.0000   1.0000   1.0000   1.0000   1.0000   1.0000   1.0000   1.0000
     1.0000   1.0000   1.0000   1.0000   1.0000   1.0000   1.0000   1.0000
     1.0000   1.0000   1.0000   1.0000   1.0000

          k =-0.5000 0.0000-0.1673 (  3845 PWs)   bands (ev):

  -115.8328 -70.2061 -70.1837 -70.1830 -65.2157 -32.2186 -32.2039 -32.1912
    -9.7576  -9.1837   1.7707   1.9046   2.2016   2.4663   2.7858   3.4033
     3.8800   4.5859   5.1690   5.4399   6.1733

     occupation numbers 
     1.0000   1.0000   1.0000   1.0000   1.0000   1.0000   1.0000   1.0000
     1.0000   1.0000   1.0000   1.0000   1.0000   1.0000   1.0000   1.0000
     1.0000   1.0000   1.0000   1.0000   1.0000

          k =-0.5000 0.0000-0.0837 (  3853 PWs)   bands (ev):

  -115.8328 -70.2061 -70.1837 -70.1831 -65.2157 -32.2185 -32.2039 -32.1913
    -9.7741  -9.1780   1.7776   1.9655   2.2556   2.6555   2.7885   3.5318
     3.8014   4.6051   4.7993   5.5000   5.9472

     occupation numbers 
     1.0000   1.0000   1.0000   1.0000   1.0000   1.0000   1.0000   1.0000
     1.0000   1.0000   1.0000   1.0000   1.0000   1.0000   1.0000   1.0000
     1.0000   1.0000   1.0000   1.0000   1.0000

          k =-0.5000 0.1443-0.0000 (  3845 PWs)   bands (ev):

  -115.8328 -70.2061 -70.1839 -70.1829 -65.2157 -32.2185 -32.2065 -32.1887
    -9.7773  -9.1774   1.6324   2.0858   2.2849   2.7234   2.7850   3.3426
     4.1075   4.4248   4.7096   5.7359   5.8880

     occupation numbers 
     1.0000   1.0000   1.0000   1.0000   1.0000   1.0000   1.0000   1.0000
     1.0000   1.0000   1.0000   1.0000   1.0000   1.0000   1.0000   1.0000
     1.0000   1.0000   1.0000   1.0000   1.0000

          k =-0.5000 0.1443 0.0837 (  3848 PWs)   bands (ev):

  -115.8328 -70.2061 -70.1839 -70.1829 -65.2157 -32.2185 -32.2065 -32.1887
    -9.7709  -9.1791   1.6289   2.0651   2.2427   2.6494   2.7849   3.2938
     4.0922   4.4810   4.8305   5.7784   5.9415

     occupation numbers 
     1.0000   1.0000   1.0000   1.0000   1.0000   1.0000   1.0000   1.0000
     1.0000   1.0000   1.0000   1.0000   1.0000   1.0000   1.0000   1.0000
     1.0000   1.0000   1.0000   1.0000   1.0000

          k =-0.5000 0.1443 0.1673 (  3838 PWs)   bands (ev):

  -115.8328 -70.2061 -70.1839 -70.1829 -65.2157 -32.2186 -32.2065 -32.1887
    -9.7551  -9.1839   1.5963   2.0262   2.1848   2.4766   2.7836   3.1879
     4.0542   4.6391   5.1217   5.6952   6.1850

     occupation numbers 
     1.0000   1.0000   1.0000   1.0000   1.0000   1.0000   1.0000   1.0000
     1.0000   1.0000   1.0000   1.0000   1.0000   1.0000   1.0000   1.0000
     1.0000   1.0000   1.0000   1.0000   1.0000

          k =-0.5000 0.1443 0.2510 (  3836 PWs)   bands (ev):

  -115.8328 -70.2061 -70.1839 -70.1829 -65.2157 -32.2186 -32.2065 -32.1887
    -9.7388  -9.1892   1.5505   1.9943   2.1389   2.3123   2.7822   3.1377
     4.0437   4.7968   5.2691   5.6836   6.4040

     occupation numbers 
     1.0000   1.0000   1.0000   1.0000   1.0000   1.0000   1.0000   1.0000
     1.0000   1.0000   1.0000   1.0000   1.0000   1.0000   1.0000   1.0000
     1.0000   1.0000   1.0000   1.0000   1.0000

          k =-0.5000 0.1443-0.3346 (  3830 PWs)   bands (ev):

  -115.8328 -70.2061 -70.1839 -70.1829 -65.2157 -32.2186 -32.2065 -32.1887
    -9.7318  -9.1916   1.5250   1.9954   2.1167   2.2498   2.7827   3.1099
     4.0514   4.9001   5.2243   5.7502   6.4716

     occupation numbers 
     1.0000   1.0000   1.0000   1.0000   1.0000   1.0000   1.0000   1.0000
     1.0000   1.0000   1.0000   1.0000   1.0000   1.0000   1.0000   1.0000
     1.0000   1.0000   1.0000   1.0000   1.0000

          k =-0.5000 0.1443-0.2510 (  3836 PWs)   bands (ev):

  -115.8328 -70.2061 -70.1839 -70.1829 -65.2157 -32.2186 -32.2065 -32.1887
    -9.7387  -9.1893   1.5364   2.0318   2.1527   2.2915   2.7859   3.0882
     4.0687   4.8096   5.2851   5.6945   6.3601

     occupation numbers 
     1.0000   1.0000   1.0000   1.0000   1.0000   1.0000   1.0000   1.0000
     1.0000   1.0000   1.0000   1.0000   1.0000   1.0000   1.0000   1.0000
     1.0000   1.0000   1.0000   1.0000   1.0000

          k =-0.5000 0.1443-0.1673 (  3838 PWs)   bands (ev):

  -115.8328 -70.2061 -70.1839 -70.1829 -65.2157 -32.2186 -32.2065 -32.1887
    -9.7550  -9.1841   1.5725   2.0636   2.2190   2.4701   2.7895   3.0871
     4.0804   4.6860   5.1683   5.6727   6.1310

     occupation numbers 
     1.0000   1.0000   1.0000   1.0000   1.0000   1.0000   1.0000   1.0000
     1.0000   1.0000   1.0000   1.0000   1.0000   1.0000   1.0000   1.0000
     1.0000   1.0000   1.0000   1.0000   1.0000

          k =-0.5000 0.1443-0.0837 (  3848 PWs)   bands (ev):

  -115.8328 -70.2061 -70.1839 -70.1829 -65.2157 -32.2185 -32.2065 -32.1887
    -9.7708  -9.1793   1.6104   2.0832   2.2723   2.6738   2.7877   3.1809
     4.0785   4.6097   4.8273   5.7214   5.9368

     occupation numbers 
     1.0000   1.0000   1.0000   1.0000   1.0000   1.0000   1.0000   1.0000
     1.0000   1.0000   1.0000   1.0000   1.0000   1.0000   1.0000   1.0000
     1.0000   1.0000   1.0000   1.0000   1.0000

          k =-0.5000-0.8660 0.0000 (  3848 PWs)   bands (ev):

  -115.8328 -70.2061 -70.1840 -70.1827 -65.2157 -32.2185 -32.2085 -32.1867
    -9.7738  -9.1790   1.5349   2.1315   2.2732   2.7130   2.8108   3.2237
     4.0862   4.4479   4.8436   5.7669   6.0504

     occupation numbers 
     1.0000   1.0000   1.0000   1.0000   1.0000   1.0000   1.0000   1.0000
     1.0000   1.0000   1.0000   1.0000   1.0000   1.0000   1.0000   1.0000
     1.0000   1.0000   1.0000   1.0000   1.0000

          k =-0.5000-0.8660 0.0837 (  3828 PWs)   bands (ev):

  -115.8328 -70.2061 -70.1840 -70.1827 -65.2157 -32.2185 -32.2085 -32.1867
    -9.7676  -9.1805   1.5186   2.1280   2.2415   2.6634   2.8077   3.1056
     4.0736   4.6379   4.8812   5.8796   6.0146

     occupation numbers 
     1.0000   1.0000   1.0000   1.0000   1.0000   1.0000   1.0000   1.0000
     1.0000   1.0000   1.0000   1.0000   1.0000   1.0000   1.0000   1.0000
     1.0000   1.0000   1.0000   1.0000   1.0000

          k =-0.5000-0.8660 0.1673 (  3844 PWs)   bands (ev):

  -115.8328 -70.2061 -70.1840 -70.1827 -65.2157 -32.2185 -32.2085 -32.1867
    -9.7525  -9.1843   1.4765   2.1195   2.1744   2.4819   2.8005   2.9937
     4.0481   4.9827   4.9922   5.9175   6.1325

     occupation numbers 
     1.0000   1.0000   1.0000   1.0000   1.0000   1.0000   1.0000   1.0000
     1.0000   1.0000   1.0000   1.0000   1.0000   1.0000   1.0000   1.0000
     1.0000   1.0000   1.0000   1.0000   1.0000

          k =-0.5000-0.8660 0.2510 (  3832 PWs)   bands (ev):

  -115.8328 -70.2061 -70.1840 -70.1827 -65.2157 -32.2186 -32.2085 -32.1867
    -9.7369  -9.1886   1.4312   2.1098   2.1110   2.2964   2.7938   2.9671
     4.0282   5.1096   5.2888   5.7945   6.3558

     occupation numbers 
     1.0000   1.0000   1.0000   1.0000   1.0000   1.0000   1.0000   1.0000
     1.0000   1.0000   1.0000   1.0000   1.0000   1.0000   1.0000   1.0000
     1.0000   1.0000   1.0000   1.0000   1.0000

          k =-0.5000-0.8660-0.3346 (  3816 PWs)   bands (ev):

  -115.8328 -70.2061 -70.1840 -70.1827 -65.2157 -32.2186 -32.2085 -32.1867
    -9.7304  -9.1905   1.4118   2.0767   2.1075   2.2334   2.7912   2.9632
     4.0211   5.1777   5.4054   5.7280   6.4382

     occupation numbers 
     1.0000   1.0000   1.0000   1.0000   1.0000   1.0000   1.0000   1.0000
     1.0000   1.0000   1.0000   1.0000   1.0000   1.0000   1.0000   1.0000
     1.0000   1.0000   1.0000   1.0000   1.0000

     highest occupied level (ev):     6.9420

!    total energy              =    -651.12941173 Ry
     Harris-Foulkes estimate   =    -651.12941168 Ry
     estimated scf accuracy    <       0.00000007 Ry

     The total energy is the sum of the following terms:

     one-electron contribution =    -535.77860036 Ry
     hartree contribution      =     281.24123101 Ry
     xc contribution           =     -73.07196866 Ry
     ewald contribution        =    -323.52007373 Ry

     convergence has been achieved in   8 iterations

     Forces acting on atoms (cartesian axes, Ry/au):

     atom    1 type  3   force =     0.00000007   -0.00000124    0.00188789
     atom    2 type  3   force =    -0.00000030   -0.00000014    0.01159439
     atom    3 type  2   force =     0.00000028    0.00000119   -0.00956183
     atom    4 type  1   force =    -0.00000005    0.00000018   -0.00392045
     The non-local contrib.  to forces
     atom    1 type  3   force =    -0.00000039   -0.00000080    0.18387964
     atom    2 type  3   force =     0.00000016    0.00000095   -0.06147349
     atom    3 type  2   force =     0.00000132   -0.00000225    0.20031420
     atom    4 type  1   force =     0.00000073    0.00000016    0.04895591
     The ionic contribution  to forces
     atom    1 type  3   force =    -0.00000358    0.00001974   -6.25862572
     atom    2 type  3   force =    -0.00000603    0.00000920    4.91235453
     atom    3 type  2   force =     0.00000497   -0.00002143    1.36464155
     atom    4 type  1   force =     0.00000464   -0.00000751   -0.01837036
     The local contribution  to forces
     atom    1 type  3   force =     0.00000348   -0.00002072    6.07812006
     atom    2 type  3   force =     0.00000524   -0.00001016   -4.84009275
     atom    3 type  2   force =    -0.00000565    0.00002471   -1.57488376
     atom    4 type  1   force =    -0.00000456    0.00000782   -0.03421830
     The core correction contribution to forces
     atom    1 type  3   force =     0.00000001   -0.00000002   -0.00158025
     atom    2 type  3   force =     0.00000000   -0.00000001    0.00093184
     atom    3 type  2   force =     0.00000000    0.00000000    0.00000000
     atom    4 type  1   force =     0.00000000    0.00000000    0.00000000
     The Hubbard contrib.    to forces
     atom    1 type  3   force =     0.00000000    0.00000000    0.00000000
     atom    2 type  3   force =     0.00000000    0.00000000    0.00000000
     atom    3 type  2   force =     0.00000000    0.00000000    0.00000000
     atom    4 type  1   force =     0.00000000    0.00000000    0.00000000
     The SCF correction term to forces
     atom    1 type  3   force =     0.00000000    0.00000000    0.00000000
     atom    2 type  3   force =     0.00000000    0.00000000    0.00000000
     atom    3 type  2   force =     0.00000000    0.00000000    0.00000000
     atom    4 type  1   force =     0.00000000    0.00000000    0.00000000

     Total force =     0.000000     Total SCF correction =     0.000000


     Computing stress (Cartesian axis) and pressure

          total   stress  (Ry/bohr**3)                   (kbar)     P=    2.03
   0.00001575   0.00000000  -0.00000000          2.32      0.00     -0.00
   0.00000000   0.00001574  -0.00000000          0.00      2.32     -0.00
  -0.00000000  -0.00000000   0.00000999         -0.00     -0.00      1.47

     kinetic stress (kbar)  26553.64      0.00      0.00
                                0.00  26553.64     -0.00
                                0.00     -0.00  26677.71

     local   stress (kbar) -17625.82     -0.01      0.02
                               -0.01 -17625.82     -0.06
                                0.02     -0.06   2005.14

     nonloc. stress (kbar)   1797.47      0.00     -0.00
                                0.00   1797.47      0.00
                               -0.00      0.00   1739.70

     hartree stress (kbar)  46472.96      0.00     -0.01
                                0.00  46472.96      0.02
                               -0.01      0.02  37368.68

     exc-cor stress (kbar) -10507.52      0.00     -0.00
                                0.00 -10507.52      0.00
                               -0.00      0.00 -10510.49

     corecor stress (kbar)   -250.38     -0.00     -0.00
                               -0.00   -250.38      0.00
                               -0.00      0.00   -250.61

     ewald   stress (kbar) -46438.04      0.01     -0.01
                                0.01 -46438.03      0.03
                               -0.01      0.03 -57028.66

     hubbard stress (kbar)      0.00      0.00      0.00
                                0.00      0.00      0.00
                                0.00      0.00      0.00

     london  stress (kbar)      0.00      0.00      0.00
                                0.00      0.00      0.00
                                0.00      0.00      0.00

     DFT-D3  stress (kbar)      0.00      0.00      0.00
                                0.00      0.00      0.00
                                0.00      0.00      0.00

     XDM     stress (kbar)      0.00      0.00      0.00
                                0.00      0.00      0.00
                                0.00      0.00      0.00

     dft-nl  stress (kbar)      0.00      0.00      0.00
                                0.00      0.00      0.00
                                0.00      0.00      0.00

     TS-vdW  stress (kbar)      0.00      0.00      0.00
                                0.00      0.00      0.00
                                0.00      0.00      0.00



     Writing output data file ZnO.save/
 
     init_run     :      0.50s CPU      1.50s WALL (       1 calls)
     electrons    :      6.91s CPU      8.14s WALL (       1 calls)
     forces       :      0.95s CPU      1.03s WALL (       1 calls)
     stress       :      0.68s CPU      0.79s WALL (       1 calls)

     Called by init_run:
     wfcinit      :      0.30s CPU      1.00s WALL (       1 calls)
     wfcinit:atom :      0.00s CPU      0.01s WALL (      65 calls)
     wfcinit:wfcr :      0.28s CPU      0.96s WALL (      65 calls)
     potinit      :      0.07s CPU      0.12s WALL (       1 calls)
     hinit0       :      0.10s CPU      0.20s WALL (       1 calls)

     Called by electrons:
     c_bands      :      5.79s CPU      6.37s WALL (       8 calls)
     sum_band     :      0.81s CPU      1.14s WALL (       8 calls)
     v_of_rho     :      0.24s CPU      0.27s WALL (       9 calls)
     v_h          :      0.00s CPU      0.00s WALL (       9 calls)
     v_xc         :      0.66s CPU      0.68s WALL (      11 calls)
     newd         :      0.06s CPU      0.08s WALL (       9 calls)
     mix_rho      :      0.01s CPU      0.13s WALL (       8 calls)

     Called by c_bands:
     init_us_2    :      0.10s CPU      0.12s WALL (    1235 calls)
     cegterg      :      5.41s CPU      5.77s WALL (     520 calls)

     Called by sum_band:
     sum_band:bec :      0.01s CPU      0.01s WALL (     520 calls)
     addusdens    :      0.06s CPU      0.07s WALL (       8 calls)

     Called by *egterg:
     h_psi        :      3.21s CPU      3.36s WALL (    1902 calls)
     s_psi        :      0.11s CPU      0.13s WALL (    1902 calls)
     g_psi        :      0.01s CPU      0.01s WALL (    1317 calls)
     cdiaghg      :      1.49s CPU      2.22s WALL (    1837 calls)
     cegterg:over :      0.39s CPU      0.46s WALL (    1317 calls)
     cegterg:upda :      0.20s CPU      0.20s WALL (    1317 calls)
     cegterg:last :      0.11s CPU      0.11s WALL (     520 calls)
     cdiaghg:chol :      0.08s CPU      0.38s WALL (    1837 calls)
     cdiaghg:inve :      0.03s CPU      0.07s WALL (    1837 calls)
     cdiaghg:para :      0.15s CPU      0.16s WALL (    3674 calls)

     Called by h_psi:
     h_psi:pot    :      3.20s CPU      3.35s WALL (    1902 calls)
     h_psi:calbec :      0.20s CPU      0.22s WALL (    1902 calls)
     vloc_psi     :      2.88s CPU      3.00s WALL (    1902 calls)
     add_vuspsi   :      0.12s CPU      0.13s WALL (    1902 calls)

     General routines
     calbec       :      0.31s CPU      0.33s WALL (    2747 calls)
     fft          :      0.06s CPU      0.10s WALL (     140 calls)
     ffts         :      0.00s CPU      0.01s WALL (      17 calls)
     fftw         :      3.28s CPU      3.42s WALL (   68848 calls)
     interpolate  :      0.00s CPU      0.01s WALL (       9 calls)
 
     Parallel routines
     fft_scatt_xy :      0.46s CPU      0.47s WALL (   69005 calls)
     fft_scatt_yz :      1.74s CPU      1.81s WALL (   69005 calls)
 
     PWSCF        :      9.75s CPU     13.39s WALL

 
   This run was terminated on:  23:24:46  15Jun2022            

=------------------------------------------------------------------------------=
   JOB DONE.
=------------------------------------------------------------------------------=
