
     Program PWSCF v.6.4.1 starts on 16Jun2022 at 20:11:41 

     This program is part of the open-source Quantum ESPRESSO suite
     for quantum simulation of materials; please cite
         "P. Giannozzi et al., J. Phys.:Condens. Matter 21 395502 (2009);
         "P. Giannozzi et al., J. Phys.:Condens. Matter 29 465901 (2017);
          URL http://www.quantum-espresso.org", 
     in publications or presentations arising from this work. More details at
     http://www.quantum-espresso.org/quote

     Parallel version (MPI), running on    64 processors

     MPI processes distributed on     1 nodes
     K-points division:     npool     =       4
     R & G space division:  proc/nbgrp/npool/nimage =      16
     Waiting for input...
     Reading input from standard input
Warning: card &IONS ignored
Warning: card   UPSCALE           = 100.D0, ignored
Warning: card / ignored
Warning: card &CELL ignored
Warning: card   CELL_DYNAMICS     = 'BFGS' ignored
Warning: card   PRESS_CONV_THR    = 0.5D0 ignored
Warning: card   CELL_DOFREE = 'ALL' ignored
Warning: card / ignored

     Current dimensions of program PWSCF are:
     Max number of different atomic species (ntypx) = 10
     Max number of k-points (npk) =  40000
     Max angular momentum in pseudopotentials (lmaxx) =  3

     Subspace diagonalization in iterative solution of the eigenvalue problem:
     one sub-group per band group will be used
     scalapack distributed-memory algorithm (size of sub-group:  2*  2 procs)

 
     Parallelization info
     --------------------
     sticks:   dense  smooth     PW     G-vecs:    dense   smooth      PW
     Min         109      58     18                 4725     1834     318
     Max         110      59     19                 4730     1839     322
     Sum        1759     931    295                75635    29369    5133
 


     bravais-lattice index     =            0
     lattice parameter (alat)  =       6.5146  a.u.
     unit-cell volume          =     304.5274 (a.u.)^3
     number of atoms/cell      =            4
     number of atomic types    =            3
     number of electrons       =        42.00
     number of Kohn-Sham states=           21
     kinetic-energy cutoff     =      80.0000  Ry
     charge density cutoff     =     600.0000  Ry
     convergence threshold     =      1.0E-06
     mixing beta               =       0.5000
     number of iterations used =            8  plain     mixing
     Exchange-correlation      = SLA  PW   PSX  PSC ( 1  4 10  8 0 0)
     Using LIBXC version       =    4   3   4

     celldm(1)=   6.514582  celldm(2)=   0.000000  celldm(3)=   0.000000
     celldm(4)=   0.000000  celldm(5)=   0.000000  celldm(6)=   0.000000

     crystal axes: (cart. coord. in units of alat)
               a(1) = (   1.000000   0.000000  -0.000000 )  
               a(2) = (  -0.500000   0.866025   0.000000 )  
               a(3) = (  -0.000000   0.000000   1.271850 )  

     reciprocal axes: (cart. coord. in units 2 pi/alat)
               b(1) = (  1.000000  0.577350 -0.000000 )  
               b(2) = ( -0.000000  1.154700 -0.000000 )  
               b(3) = (  0.000000 -0.000000  0.786256 )  


     PseudoPot. # 1 for Mg read from file:
     ./GBRV_PBEsol/mg_pbesol_v1.4.uspp.F.UPF
     MD5 check sum: 4059f37963cf5867752dbf5ab2400678
     Pseudo is Ultrasoft, Zval = 10.0
     Generated by new atomic code, or converted to UPF format
     Using radial grid of  821 points,  7 beta functions with: 
                l(1) =   0
                l(2) =   0
                l(3) =   0
                l(4) =   1
                l(5) =   1
                l(6) =   2
                l(7) =   2
     Q(r) pseudized with  8 coefficients,  rinner =    1.200   1.200   1.200
                                                       1.200   1.200

     PseudoPot. # 2 for Zn read from file:
     ./GBRV_PBEsol/zn_pbesol_v1.uspp.F.UPF
     MD5 check sum: 7d8615e52efe7c1e2b1899de8658bae2
     Pseudo is Ultrasoft, Zval = 20.0
     Generated by new atomic code, or converted to UPF format
     Using radial grid of  943 points,  6 beta functions with: 
                l(1) =   0
                l(2) =   0
                l(3) =   1
                l(4) =   1
                l(5) =   2
                l(6) =   2
     Q(r) pseudized with  8 coefficients,  rinner =    1.100   1.100   1.100
                                                       1.100   1.100

     PseudoPot. # 3 for O  read from file:
     ./GBRV_PBEsol/o_pbesol_v1.2.uspp.F.UPF
     MD5 check sum: 501638753501ef6325af9037351f7734
     Pseudo is Ultrasoft + core correction, Zval =  6.0
     Generated by new atomic code, or converted to UPF format
     Using radial grid of  737 points,  5 beta functions with: 
                l(1) =   0
                l(2) =   0
                l(3) =   1
                l(4) =   1
                l(5) =   2
     Q(r) pseudized with  8 coefficients,  rinner =    0.900   0.900   0.900
                                                       0.900   0.900

     atomic species   valence    mass     pseudopotential
        Mg            10.00    24.30500     Mg( 1.00)
        Zn            20.00    65.38000     Zn( 1.00)
        O              6.00    15.99900     O ( 1.00)

     No symmetry found


                                    s                        frac. trans.

      isym =  1     identity                                     

 cryst.   s( 1) = (     1          0          0      )
                  (     0          1          0      )
                  (     0          0          1      )

 cart.    s( 1) = (  1.0000000 -0.0000000 -0.0000000 )
                  (  0.0000000  1.0000000 -0.0000000 )
                  ( -0.0000000  0.0000000  1.0000000 )


   Cartesian axes

     site n.     atom                  positions (alat units)
         1           O   tau(   1) = (   0.5000002   0.2886755   0.0093429  )
         2           O   tau(   2) = (   0.0000001   0.5773496   0.6452679  )
         3           Zn  tau(   3) = (   0.5000000   0.2886750   0.6791603  )
         4           Mg  tau(   4) = (  -0.0000002   0.5773515   1.3192630  )

   Crystallographic axes

     site n.     atom                  positions (cryst. coord.)
         1           O   tau(   1) = (  0.6666670  0.3333337  0.0073459  )
         2           O   tau(   2) = (  0.3333329  0.6666657  0.5073458  )
         3           Zn  tau(   3) = (  0.6666664  0.3333329  0.5339939  )
         4           Mg  tau(   4) = (  0.3333336  0.6666677  1.0372785  )

     number of k points=   260
                       cart. coord. in units 2pi/alat
        k(    1) = (   0.0000000   0.0000000   0.0000000), wk =   0.0039062
        k(    2) = (   0.0000000  -0.0000000   0.0982820), wk =   0.0078125
        k(    3) = (   0.0000000  -0.0000001   0.1965640), wk =   0.0078125
        k(    4) = (   0.0000000  -0.0000001   0.2948461), wk =   0.0078125
        k(    5) = (  -0.0000000   0.0000001  -0.3931281), wk =   0.0039062
        k(    6) = (  -0.0000000   0.1443376  -0.0000000), wk =   0.0078125
        k(    7) = (  -0.0000000   0.1443375   0.0982820), wk =   0.0078125
        k(    8) = (   0.0000000   0.1443375   0.1965640), wk =   0.0078125
        k(    9) = (   0.0000000   0.1443375   0.2948460), wk =   0.0078125
        k(   10) = (  -0.0000000   0.1443377  -0.3931281), wk =   0.0078125
        k(   11) = (  -0.0000000   0.1443376  -0.2948461), wk =   0.0078125
        k(   12) = (  -0.0000000   0.1443376  -0.1965641), wk =   0.0078125
        k(   13) = (  -0.0000000   0.1443376  -0.0982820), wk =   0.0078125
        k(   14) = (  -0.0000000   0.2886751  -0.0000001), wk =   0.0078125
        k(   15) = (  -0.0000000   0.2886751   0.0982820), wk =   0.0078125
        k(   16) = (  -0.0000000   0.2886751   0.1965640), wk =   0.0078125
        k(   17) = (   0.0000000   0.2886750   0.2948460), wk =   0.0078125
        k(   18) = (  -0.0000000   0.2886752  -0.3931281), wk =   0.0078125
        k(   19) = (  -0.0000000   0.2886752  -0.2948461), wk =   0.0078125
        k(   20) = (  -0.0000000   0.2886752  -0.1965641), wk =   0.0078125
        k(   21) = (  -0.0000000   0.2886751  -0.0982821), wk =   0.0078125
        k(   22) = (  -0.0000000   0.4330127  -0.0000001), wk =   0.0078125
        k(   23) = (  -0.0000000   0.4330126   0.0982819), wk =   0.0078125
        k(   24) = (  -0.0000000   0.4330126   0.1965640), wk =   0.0078125
        k(   25) = (  -0.0000000   0.4330126   0.2948460), wk =   0.0078125
        k(   26) = (  -0.0000000   0.4330128  -0.3931282), wk =   0.0078125
        k(   27) = (  -0.0000000   0.4330127  -0.2948461), wk =   0.0078125
        k(   28) = (  -0.0000000   0.4330127  -0.1965641), wk =   0.0078125
        k(   29) = (  -0.0000000   0.4330127  -0.0982821), wk =   0.0078125
        k(   30) = (   0.0000000  -0.5773502   0.0000001), wk =   0.0039062
        k(   31) = (   0.0000000  -0.5773503   0.0982821), wk =   0.0078125
        k(   32) = (   0.0000000  -0.5773503   0.1965642), wk =   0.0078125
        k(   33) = (   0.0000000  -0.5773503   0.2948462), wk =   0.0078125
        k(   34) = (   0.0000000  -0.5773501  -0.3931280), wk =   0.0039062
        k(   35) = (   0.1250000   0.0721688  -0.0000000), wk =   0.0078125
        k(   36) = (   0.1250000   0.0721687   0.0982820), wk =   0.0078125
        k(   37) = (   0.1250000   0.0721687   0.1965640), wk =   0.0078125
        k(   38) = (   0.1250000   0.0721687   0.2948460), wk =   0.0078125
        k(   39) = (   0.1250000   0.0721689  -0.3931281), wk =   0.0078125
        k(   40) = (   0.1250000   0.0721688  -0.2948461), wk =   0.0078125
        k(   41) = (   0.1250000   0.0721688  -0.1965641), wk =   0.0078125
        k(   42) = (   0.1250000   0.0721688  -0.0982820), wk =   0.0078125
        k(   43) = (   0.1250000   0.2165063  -0.0000000), wk =   0.0078125
        k(   44) = (   0.1250000   0.2165063   0.0982820), wk =   0.0078125
        k(   45) = (   0.1250000   0.2165063   0.1965640), wk =   0.0078125
        k(   46) = (   0.1250000   0.2165063   0.2948460), wk =   0.0078125
        k(   47) = (   0.1250000   0.2165064  -0.3931281), wk =   0.0078125
        k(   48) = (   0.1250000   0.2165064  -0.2948461), wk =   0.0078125
        k(   49) = (   0.1250000   0.2165064  -0.1965641), wk =   0.0078125
        k(   50) = (   0.1250000   0.2165064  -0.0982821), wk =   0.0078125
        k(   51) = (   0.1250000   0.3608439  -0.0000001), wk =   0.0078125
        k(   52) = (   0.1250000   0.3608439   0.0982819), wk =   0.0078125
        k(   53) = (   0.1250000   0.3608438   0.1965640), wk =   0.0078125
        k(   54) = (   0.1250000   0.3608438   0.2948460), wk =   0.0078125
        k(   55) = (   0.1250000   0.3608440  -0.3931282), wk =   0.0078125
        k(   56) = (   0.1250000   0.3608440  -0.2948461), wk =   0.0078125
        k(   57) = (   0.1250000   0.3608439  -0.1965641), wk =   0.0078125
        k(   58) = (   0.1250000   0.3608439  -0.0982821), wk =   0.0078125
        k(   59) = (   0.1250000   0.5051814  -0.0000001), wk =   0.0078125
        k(   60) = (   0.1250000   0.5051814   0.0982819), wk =   0.0078125
        k(   61) = (   0.1250000   0.5051814   0.1965639), wk =   0.0078125
        k(   62) = (   0.1250000   0.5051814   0.2948460), wk =   0.0078125
        k(   63) = (   0.1250000   0.5051815  -0.3931282), wk =   0.0078125
        k(   64) = (   0.1250000   0.5051815  -0.2948462), wk =   0.0078125
        k(   65) = (   0.1250000   0.5051815  -0.1965641), wk =   0.0078125
        k(   66) = (   0.1250000   0.5051815  -0.0982821), wk =   0.0078125
        k(   67) = (   0.1250000  -0.5051815   0.0000001), wk =   0.0078125
        k(   68) = (   0.1250000  -0.5051815   0.0982821), wk =   0.0078125
        k(   69) = (   0.1250000  -0.5051815   0.1965641), wk =   0.0078125
        k(   70) = (   0.1250000  -0.5051815   0.2948462), wk =   0.0078125
        k(   71) = (   0.1250000  -0.5051813  -0.3931280), wk =   0.0078125
        k(   72) = (   0.1250000  -0.5051814  -0.2948460), wk =   0.0078125
        k(   73) = (   0.1250000  -0.5051814  -0.1965639), wk =   0.0078125
        k(   74) = (   0.1250000  -0.5051814  -0.0982819), wk =   0.0078125
        k(   75) = (   0.1250000  -0.3608439   0.0000001), wk =   0.0078125
        k(   76) = (   0.1250000  -0.3608439   0.0982821), wk =   0.0078125
        k(   77) = (   0.1250000  -0.3608439   0.1965641), wk =   0.0078125
        k(   78) = (   0.1250000  -0.3608440   0.2948461), wk =   0.0078125
        k(   79) = (   0.1250000  -0.3608438  -0.3931280), wk =   0.0078125
        k(   80) = (   0.1250000  -0.3608438  -0.2948460), wk =   0.0078125
        k(   81) = (   0.1250000  -0.3608438  -0.1965640), wk =   0.0078125
        k(   82) = (   0.1250000  -0.3608439  -0.0982819), wk =   0.0078125
        k(   83) = (   0.1250000  -0.2165063   0.0000000), wk =   0.0078125
        k(   84) = (   0.1250000  -0.2165064   0.0982821), wk =   0.0078125
        k(   85) = (   0.1250000  -0.2165064   0.1965641), wk =   0.0078125
        k(   86) = (   0.1250000  -0.2165064   0.2948461), wk =   0.0078125
        k(   87) = (   0.1250000  -0.2165062  -0.3931280), wk =   0.0078125
        k(   88) = (   0.1250000  -0.2165063  -0.2948460), wk =   0.0078125
        k(   89) = (   0.1250000  -0.2165063  -0.1965640), wk =   0.0078125
        k(   90) = (   0.1250000  -0.2165063  -0.0982820), wk =   0.0078125
        k(   91) = (   0.1250000  -0.0721688   0.0000000), wk =   0.0078125
        k(   92) = (   0.1250000  -0.0721688   0.0982820), wk =   0.0078125
        k(   93) = (   0.1250000  -0.0721688   0.1965641), wk =   0.0078125
        k(   94) = (   0.1250000  -0.0721689   0.2948461), wk =   0.0078125
        k(   95) = (   0.1250000  -0.0721687  -0.3931281), wk =   0.0078125
        k(   96) = (   0.1250000  -0.0721687  -0.2948460), wk =   0.0078125
        k(   97) = (   0.1250000  -0.0721687  -0.1965640), wk =   0.0078125
        k(   98) = (   0.1250000  -0.0721688  -0.0982820), wk =   0.0078125
        k(   99) = (   0.2500000   0.1443375  -0.0000000), wk =   0.0078125
        k(  100) = (   0.2500000   0.1443375   0.0982820), wk =   0.0078125
        k(  101) = (   0.2500000   0.1443375   0.1965640), wk =   0.0078125
        k(  102) = (   0.2500000   0.1443375   0.2948460), wk =   0.0078125
        k(  103) = (   0.2500000   0.1443376  -0.3931281), wk =   0.0078125
        k(  104) = (   0.2500000   0.1443376  -0.2948461), wk =   0.0078125
        k(  105) = (   0.2500000   0.1443376  -0.1965641), wk =   0.0078125
        k(  106) = (   0.2500000   0.1443376  -0.0982820), wk =   0.0078125
        k(  107) = (   0.2500000   0.2886751  -0.0000001), wk =   0.0078125
        k(  108) = (   0.2500000   0.2886751   0.0982820), wk =   0.0078125
        k(  109) = (   0.2500000   0.2886751   0.1965640), wk =   0.0078125
        k(  110) = (   0.2500000   0.2886750   0.2948460), wk =   0.0078125
        k(  111) = (   0.2500000   0.2886752  -0.3931281), wk =   0.0078125
        k(  112) = (   0.2500000   0.2886752  -0.2948461), wk =   0.0078125
        k(  113) = (   0.2500000   0.2886752  -0.1965641), wk =   0.0078125
        k(  114) = (   0.2500000   0.2886751  -0.0982821), wk =   0.0078125
        k(  115) = (   0.2500000   0.4330127  -0.0000001), wk =   0.0078125
        k(  116) = (   0.2500000   0.4330126   0.0982819), wk =   0.0078125
        k(  117) = (   0.2500000   0.4330126   0.1965640), wk =   0.0078125
        k(  118) = (   0.2500000   0.4330126   0.2948460), wk =   0.0078125
        k(  119) = (   0.2500000   0.4330128  -0.3931282), wk =   0.0078125
        k(  120) = (   0.2500000   0.4330127  -0.2948461), wk =   0.0078125
        k(  121) = (   0.2500000   0.4330127  -0.1965641), wk =   0.0078125
        k(  122) = (   0.2500000   0.4330127  -0.0982821), wk =   0.0078125
        k(  123) = (   0.2500000   0.5773502  -0.0000001), wk =   0.0078125
        k(  124) = (   0.2500000   0.5773502   0.0982819), wk =   0.0078125
        k(  125) = (   0.2500000   0.5773502   0.1965639), wk =   0.0078125
        k(  126) = (   0.2500000   0.5773501   0.2948459), wk =   0.0078125
        k(  127) = (   0.2500000   0.5773503  -0.3931282), wk =   0.0078125
        k(  128) = (   0.2500000   0.5773503  -0.2948462), wk =   0.0078125
        k(  129) = (   0.2500000   0.5773503  -0.1965642), wk =   0.0078125
        k(  130) = (   0.2500000   0.5773502  -0.0982821), wk =   0.0078125
        k(  131) = (   0.2500000  -0.4330127   0.0000001), wk =   0.0078125
        k(  132) = (   0.2500000  -0.4330127   0.0982821), wk =   0.0078125
        k(  133) = (   0.2500000  -0.4330127   0.1965641), wk =   0.0078125
        k(  134) = (   0.2500000  -0.4330128   0.2948461), wk =   0.0078125
        k(  135) = (   0.2500000  -0.4330126  -0.3931280), wk =   0.0078125
        k(  136) = (   0.2500000  -0.4330126  -0.2948460), wk =   0.0078125
        k(  137) = (   0.2500000  -0.4330126  -0.1965640), wk =   0.0078125
        k(  138) = (   0.2500000  -0.4330127  -0.0982819), wk =   0.0078125
        k(  139) = (   0.2500000  -0.2886751   0.0000001), wk =   0.0078125
        k(  140) = (   0.2500000  -0.2886751   0.0982821), wk =   0.0078125
        k(  141) = (   0.2500000  -0.2886752   0.1965641), wk =   0.0078125
        k(  142) = (   0.2500000  -0.2886752   0.2948461), wk =   0.0078125
        k(  143) = (   0.2500000  -0.2886750  -0.3931280), wk =   0.0078125
        k(  144) = (   0.2500000  -0.2886750  -0.2948460), wk =   0.0078125
        k(  145) = (   0.2500000  -0.2886751  -0.1965640), wk =   0.0078125
        k(  146) = (   0.2500000  -0.2886751  -0.0982820), wk =   0.0078125
        k(  147) = (   0.2500000  -0.1443376   0.0000000), wk =   0.0078125
        k(  148) = (   0.2500000  -0.1443376   0.0982821), wk =   0.0078125
        k(  149) = (   0.2500000  -0.1443376   0.1965641), wk =   0.0078125
        k(  150) = (   0.2500000  -0.1443376   0.2948461), wk =   0.0078125
        k(  151) = (   0.2500000  -0.1443375  -0.3931280), wk =   0.0078125
        k(  152) = (   0.2500000  -0.1443375  -0.2948460), wk =   0.0078125
        k(  153) = (   0.2500000  -0.1443375  -0.1965640), wk =   0.0078125
        k(  154) = (   0.2500000  -0.1443375  -0.0982820), wk =   0.0078125
        k(  155) = (   0.2500000  -0.0000000   0.0000000), wk =   0.0078125
        k(  156) = (   0.2500000  -0.0000000   0.0982820), wk =   0.0078125
        k(  157) = (   0.2500000  -0.0000001   0.1965640), wk =   0.0078125
        k(  158) = (   0.2500000  -0.0000001   0.2948461), wk =   0.0078125
        k(  159) = (   0.2500000   0.0000001  -0.3931281), wk =   0.0078125
        k(  160) = (   0.2500000   0.0000001  -0.2948461), wk =   0.0078125
        k(  161) = (   0.2500000   0.0000000  -0.1965640), wk =   0.0078125
        k(  162) = (   0.2500000   0.0000000  -0.0982820), wk =   0.0078125
        k(  163) = (   0.3750000   0.2165063  -0.0000000), wk =   0.0078125
        k(  164) = (   0.3750000   0.2165063   0.0982820), wk =   0.0078125
        k(  165) = (   0.3750000   0.2165063   0.1965640), wk =   0.0078125
        k(  166) = (   0.3750000   0.2165062   0.2948460), wk =   0.0078125
        k(  167) = (   0.3750000   0.2165064  -0.3931281), wk =   0.0078125
        k(  168) = (   0.3750000   0.2165064  -0.2948461), wk =   0.0078125
        k(  169) = (   0.3750000   0.2165064  -0.1965641), wk =   0.0078125
        k(  170) = (   0.3750000   0.2165063  -0.0982821), wk =   0.0078125
        k(  171) = (   0.3750000   0.3608439  -0.0000001), wk =   0.0078125
        k(  172) = (   0.3750000   0.3608438   0.0982820), wk =   0.0078125
        k(  173) = (   0.3750000   0.3608438   0.1965640), wk =   0.0078125
        k(  174) = (   0.3750000   0.3608438   0.2948460), wk =   0.0078125
        k(  175) = (   0.3750000   0.3608440  -0.3931281), wk =   0.0078125
        k(  176) = (   0.3750000   0.3608440  -0.2948461), wk =   0.0078125
        k(  177) = (   0.3750000   0.3608439  -0.1965641), wk =   0.0078125
        k(  178) = (   0.3750000   0.3608439  -0.0982821), wk =   0.0078125
        k(  179) = (   0.3750000   0.5051814  -0.0000001), wk =   0.0078125
        k(  180) = (   0.3750000   0.5051814   0.0982819), wk =   0.0078125
        k(  181) = (   0.3750000   0.5051814   0.1965639), wk =   0.0078125
        k(  182) = (   0.3750000   0.5051814   0.2948460), wk =   0.0078125
        k(  183) = (   0.3750000   0.5051815  -0.3931282), wk =   0.0078125
        k(  184) = (   0.3750000   0.5051815  -0.2948462), wk =   0.0078125
        k(  185) = (   0.3750000   0.5051815  -0.1965641), wk =   0.0078125
        k(  186) = (   0.3750000   0.5051815  -0.0982821), wk =   0.0078125
        k(  187) = (   0.3750000   0.6495190  -0.0000001), wk =   0.0078125
        k(  188) = (   0.3750000   0.6495190   0.0982819), wk =   0.0078125
        k(  189) = (   0.3750000   0.6495189   0.1965639), wk =   0.0078125
        k(  190) = (   0.3750000   0.6495189   0.2948459), wk =   0.0078125
        k(  191) = (   0.3749999   0.6495191  -0.3931282), wk =   0.0078125
        k(  192) = (   0.3750000   0.6495191  -0.2948462), wk =   0.0078125
        k(  193) = (   0.3750000   0.6495190  -0.1965642), wk =   0.0078125
        k(  194) = (   0.3750000   0.6495190  -0.0982821), wk =   0.0078125
        k(  195) = (   0.3750000  -0.3608439   0.0000001), wk =   0.0078125
        k(  196) = (   0.3750000  -0.3608439   0.0982821), wk =   0.0078125
        k(  197) = (   0.3750000  -0.3608440   0.1965641), wk =   0.0078125
        k(  198) = (   0.3750000  -0.3608440   0.2948461), wk =   0.0078125
        k(  199) = (   0.3750000  -0.3608438  -0.3931280), wk =   0.0078125
        k(  200) = (   0.3750000  -0.3608438  -0.2948460), wk =   0.0078125
        k(  201) = (   0.3750000  -0.3608439  -0.1965640), wk =   0.0078125
        k(  202) = (   0.3750000  -0.3608439  -0.0982819), wk =   0.0078125
        k(  203) = (   0.3750000  -0.2165064   0.0000000), wk =   0.0078125
        k(  204) = (   0.3750000  -0.2165064   0.0982821), wk =   0.0078125
        k(  205) = (   0.3750000  -0.2165064   0.1965641), wk =   0.0078125
        k(  206) = (   0.3750000  -0.2165064   0.2948461), wk =   0.0078125
        k(  207) = (   0.3750000  -0.2165062  -0.3931280), wk =   0.0078125
        k(  208) = (   0.3750000  -0.2165063  -0.2948460), wk =   0.0078125
        k(  209) = (   0.3750000  -0.2165063  -0.1965640), wk =   0.0078125
        k(  210) = (   0.3750000  -0.2165063  -0.0982820), wk =   0.0078125
        k(  211) = (   0.3750000  -0.0721688   0.0000000), wk =   0.0078125
        k(  212) = (   0.3750000  -0.0721688   0.0982820), wk =   0.0078125
        k(  213) = (   0.3750000  -0.0721688   0.1965641), wk =   0.0078125
        k(  214) = (   0.3750000  -0.0721689   0.2948461), wk =   0.0078125
        k(  215) = (   0.3750000  -0.0721687  -0.3931281), wk =   0.0078125
        k(  216) = (   0.3750000  -0.0721687  -0.2948460), wk =   0.0078125
        k(  217) = (   0.3750000  -0.0721687  -0.1965640), wk =   0.0078125
        k(  218) = (   0.3750000  -0.0721688  -0.0982820), wk =   0.0078125
        k(  219) = (   0.3750000   0.0721688  -0.0000000), wk =   0.0078125
        k(  220) = (   0.3750000   0.0721687   0.0982820), wk =   0.0078125
        k(  221) = (   0.3750000   0.0721687   0.1965640), wk =   0.0078125
        k(  222) = (   0.3750000   0.0721687   0.2948460), wk =   0.0078125
        k(  223) = (   0.3750000   0.0721689  -0.3931281), wk =   0.0078125
        k(  224) = (   0.3750000   0.0721688  -0.2948461), wk =   0.0078125
        k(  225) = (   0.3750000   0.0721688  -0.1965641), wk =   0.0078125
        k(  226) = (   0.3750000   0.0721688  -0.0982820), wk =   0.0078125
        k(  227) = (  -0.5000000  -0.2886751   0.0000001), wk =   0.0039062
        k(  228) = (  -0.5000000  -0.2886751   0.0982821), wk =   0.0078125
        k(  229) = (  -0.5000000  -0.2886751   0.1965641), wk =   0.0078125
        k(  230) = (  -0.5000000  -0.2886752   0.2948461), wk =   0.0078125
        k(  231) = (  -0.5000000  -0.2886750  -0.3931280), wk =   0.0039062
        k(  232) = (  -0.5000000  -0.1443375   0.0000000), wk =   0.0078125
        k(  233) = (  -0.5000000  -0.1443376   0.0982820), wk =   0.0078125
        k(  234) = (  -0.5000000  -0.1443376   0.1965641), wk =   0.0078125
        k(  235) = (  -0.5000000  -0.1443376   0.2948461), wk =   0.0078125
        k(  236) = (  -0.5000000  -0.1443374  -0.3931281), wk =   0.0078125
        k(  237) = (  -0.5000000  -0.1443375  -0.2948460), wk =   0.0078125
        k(  238) = (  -0.5000000  -0.1443375  -0.1965640), wk =   0.0078125
        k(  239) = (  -0.5000000  -0.1443375  -0.0982820), wk =   0.0078125
        k(  240) = (  -0.5000000   0.0000000  -0.0000000), wk =   0.0078125
        k(  241) = (  -0.5000000  -0.0000000   0.0982820), wk =   0.0078125
        k(  242) = (  -0.5000000  -0.0000000   0.1965640), wk =   0.0078125
        k(  243) = (  -0.5000000  -0.0000001   0.2948461), wk =   0.0078125
        k(  244) = (  -0.5000000   0.0000001  -0.3931281), wk =   0.0078125
        k(  245) = (  -0.5000000   0.0000001  -0.2948461), wk =   0.0078125
        k(  246) = (  -0.5000000   0.0000001  -0.1965640), wk =   0.0078125
        k(  247) = (  -0.5000000   0.0000000  -0.0982820), wk =   0.0078125
        k(  248) = (  -0.5000000   0.1443376  -0.0000000), wk =   0.0078125
        k(  249) = (  -0.5000000   0.1443376   0.0982820), wk =   0.0078125
        k(  250) = (  -0.5000000   0.1443375   0.1965640), wk =   0.0078125
        k(  251) = (  -0.5000000   0.1443375   0.2948460), wk =   0.0078125
        k(  252) = (  -0.5000000   0.1443377  -0.3931281), wk =   0.0078125
        k(  253) = (  -0.5000000   0.1443377  -0.2948461), wk =   0.0078125
        k(  254) = (  -0.5000000   0.1443376  -0.1965641), wk =   0.0078125
        k(  255) = (  -0.5000000   0.1443376  -0.0982821), wk =   0.0078125
        k(  256) = (  -0.5000000  -0.8660253   0.0000002), wk =   0.0039062
        k(  257) = (  -0.5000000  -0.8660253   0.0982822), wk =   0.0078125
        k(  258) = (  -0.5000000  -0.8660254   0.1965642), wk =   0.0078125
        k(  259) = (  -0.4999999  -0.8660254   0.2948462), wk =   0.0078125
        k(  260) = (  -0.5000000  -0.8660252  -0.3931279), wk =   0.0039062

                       cryst. coord.
        k(    1) = (   0.0000000   0.0000000   0.0000000), wk =   0.0039062
        k(    2) = (  -0.0000000   0.0000000   0.1250000), wk =   0.0078125
        k(    3) = (  -0.0000000   0.0000000   0.2500000), wk =   0.0078125
        k(    4) = (  -0.0000000   0.0000000   0.3750000), wk =   0.0078125
        k(    5) = (   0.0000000  -0.0000000  -0.5000000), wk =   0.0039062
        k(    6) = (   0.0000000   0.1250000   0.0000000), wk =   0.0078125
        k(    7) = (   0.0000000   0.1250000   0.1250000), wk =   0.0078125
        k(    8) = (   0.0000000   0.1250000   0.2500000), wk =   0.0078125
        k(    9) = (   0.0000000   0.1250000   0.3750000), wk =   0.0078125
        k(   10) = (   0.0000000   0.1250000  -0.5000000), wk =   0.0078125
        k(   11) = (  -0.0000000   0.1250000  -0.3750000), wk =   0.0078125
        k(   12) = (  -0.0000000   0.1250000  -0.2500000), wk =   0.0078125
        k(   13) = (   0.0000000   0.1250000  -0.1250000), wk =   0.0078125
        k(   14) = (   0.0000000   0.2500000   0.0000000), wk =   0.0078125
        k(   15) = (   0.0000000   0.2500000   0.1250000), wk =   0.0078125
        k(   16) = (   0.0000000   0.2500000   0.2500000), wk =   0.0078125
        k(   17) = (  -0.0000000   0.2500000   0.3750000), wk =   0.0078125
        k(   18) = (  -0.0000000   0.2500000  -0.5000000), wk =   0.0078125
        k(   19) = (   0.0000000   0.2500000  -0.3750000), wk =   0.0078125
        k(   20) = (   0.0000000   0.2500000  -0.2500000), wk =   0.0078125
        k(   21) = (   0.0000000   0.2500000  -0.1250000), wk =   0.0078125
        k(   22) = (   0.0000000   0.3750000   0.0000000), wk =   0.0078125
        k(   23) = (   0.0000000   0.3750000   0.1250000), wk =   0.0078125
        k(   24) = (   0.0000000   0.3750000   0.2500000), wk =   0.0078125
        k(   25) = (   0.0000000   0.3750000   0.3750000), wk =   0.0078125
        k(   26) = (   0.0000000   0.3750000  -0.5000000), wk =   0.0078125
        k(   27) = (   0.0000000   0.3750000  -0.3750000), wk =   0.0078125
        k(   28) = (  -0.0000000   0.3750000  -0.2500000), wk =   0.0078125
        k(   29) = (   0.0000000   0.3750000  -0.1250000), wk =   0.0078125
        k(   30) = (  -0.0000000  -0.5000000  -0.0000000), wk =   0.0039062
        k(   31) = (  -0.0000000  -0.5000000   0.1250000), wk =   0.0078125
        k(   32) = (  -0.0000000  -0.5000000   0.2500000), wk =   0.0078125
        k(   33) = (  -0.0000000  -0.5000000   0.3750000), wk =   0.0078125
        k(   34) = (  -0.0000000  -0.5000000  -0.5000000), wk =   0.0039062
        k(   35) = (   0.1250000  -0.0000000  -0.0000000), wk =   0.0078125
        k(   36) = (   0.1250000   0.0000000   0.1250000), wk =   0.0078125
        k(   37) = (   0.1250000  -0.0000000   0.2500000), wk =   0.0078125
        k(   38) = (   0.1250000   0.0000000   0.3750000), wk =   0.0078125
        k(   39) = (   0.1250000  -0.0000000  -0.5000000), wk =   0.0078125
        k(   40) = (   0.1250000  -0.0000000  -0.3750000), wk =   0.0078125
        k(   41) = (   0.1250000   0.0000000  -0.2500000), wk =   0.0078125
        k(   42) = (   0.1250000  -0.0000000  -0.1250000), wk =   0.0078125
        k(   43) = (   0.1250000   0.1250000   0.0000000), wk =   0.0078125
        k(   44) = (   0.1250000   0.1250000   0.1250000), wk =   0.0078125
        k(   45) = (   0.1250000   0.1250000   0.2500000), wk =   0.0078125
        k(   46) = (   0.1250000   0.1250000   0.3750000), wk =   0.0078125
        k(   47) = (   0.1250000   0.1250000  -0.5000000), wk =   0.0078125
        k(   48) = (   0.1250000   0.1250000  -0.3750000), wk =   0.0078125
        k(   49) = (   0.1250000   0.1250000  -0.2500000), wk =   0.0078125
        k(   50) = (   0.1250000   0.1250000  -0.1250000), wk =   0.0078125
        k(   51) = (   0.1250000   0.2500000   0.0000000), wk =   0.0078125
        k(   52) = (   0.1250000   0.2500000   0.1250000), wk =   0.0078125
        k(   53) = (   0.1250000   0.2500000   0.2500000), wk =   0.0078125
        k(   54) = (   0.1250000   0.2500000   0.3750000), wk =   0.0078125
        k(   55) = (   0.1250000   0.2500000  -0.5000000), wk =   0.0078125
        k(   56) = (   0.1250000   0.2500000  -0.3750000), wk =   0.0078125
        k(   57) = (   0.1250000   0.2500000  -0.2500000), wk =   0.0078125
        k(   58) = (   0.1250000   0.2500000  -0.1250000), wk =   0.0078125
        k(   59) = (   0.1250000   0.3750000   0.0000000), wk =   0.0078125
        k(   60) = (   0.1250000   0.3750000   0.1250000), wk =   0.0078125
        k(   61) = (   0.1250000   0.3750000   0.2500000), wk =   0.0078125
        k(   62) = (   0.1250000   0.3750000   0.3750000), wk =   0.0078125
        k(   63) = (   0.1250000   0.3750000  -0.5000000), wk =   0.0078125
        k(   64) = (   0.1250000   0.3750000  -0.3750000), wk =   0.0078125
        k(   65) = (   0.1250000   0.3750000  -0.2500000), wk =   0.0078125
        k(   66) = (   0.1250000   0.3750000  -0.1250000), wk =   0.0078125
        k(   67) = (   0.1250000  -0.5000000  -0.0000000), wk =   0.0078125
        k(   68) = (   0.1250000  -0.5000000   0.1250000), wk =   0.0078125
        k(   69) = (   0.1250000  -0.5000000   0.2500000), wk =   0.0078125
        k(   70) = (   0.1250000  -0.5000000   0.3750000), wk =   0.0078125
        k(   71) = (   0.1250000  -0.5000000  -0.5000000), wk =   0.0078125
        k(   72) = (   0.1250000  -0.5000000  -0.3750000), wk =   0.0078125
        k(   73) = (   0.1250000  -0.5000000  -0.2500000), wk =   0.0078125
        k(   74) = (   0.1250000  -0.5000000  -0.1250000), wk =   0.0078125
        k(   75) = (   0.1250000  -0.3750000  -0.0000000), wk =   0.0078125
        k(   76) = (   0.1250000  -0.3750000   0.1250000), wk =   0.0078125
        k(   77) = (   0.1250000  -0.3750000   0.2500000), wk =   0.0078125
        k(   78) = (   0.1250000  -0.3750000   0.3750000), wk =   0.0078125
        k(   79) = (   0.1250000  -0.3750000  -0.5000000), wk =   0.0078125
        k(   80) = (   0.1250000  -0.3750000  -0.3750000), wk =   0.0078125
        k(   81) = (   0.1250000  -0.3750000  -0.2500000), wk =   0.0078125
        k(   82) = (   0.1250000  -0.3750000  -0.1250000), wk =   0.0078125
        k(   83) = (   0.1250000  -0.2500000  -0.0000000), wk =   0.0078125
        k(   84) = (   0.1250000  -0.2500000   0.1250000), wk =   0.0078125
        k(   85) = (   0.1250000  -0.2500000   0.2500000), wk =   0.0078125
        k(   86) = (   0.1250000  -0.2500000   0.3750000), wk =   0.0078125
        k(   87) = (   0.1250000  -0.2500000  -0.5000000), wk =   0.0078125
        k(   88) = (   0.1250000  -0.2500000  -0.3750000), wk =   0.0078125
        k(   89) = (   0.1250000  -0.2500000  -0.2500000), wk =   0.0078125
        k(   90) = (   0.1250000  -0.2500000  -0.1250000), wk =   0.0078125
        k(   91) = (   0.1250000  -0.1250000  -0.0000000), wk =   0.0078125
        k(   92) = (   0.1250000  -0.1250000   0.1250000), wk =   0.0078125
        k(   93) = (   0.1250000  -0.1250000   0.2500000), wk =   0.0078125
        k(   94) = (   0.1250000  -0.1250000   0.3750000), wk =   0.0078125
        k(   95) = (   0.1250000  -0.1250000  -0.5000000), wk =   0.0078125
        k(   96) = (   0.1250000  -0.1250000  -0.3750000), wk =   0.0078125
        k(   97) = (   0.1250000  -0.1250000  -0.2500000), wk =   0.0078125
        k(   98) = (   0.1250000  -0.1250000  -0.1250000), wk =   0.0078125
        k(   99) = (   0.2500000  -0.0000000  -0.0000000), wk =   0.0078125
        k(  100) = (   0.2500000  -0.0000000   0.1250000), wk =   0.0078125
        k(  101) = (   0.2500000   0.0000000   0.2500000), wk =   0.0078125
        k(  102) = (   0.2500000  -0.0000000   0.3750000), wk =   0.0078125
        k(  103) = (   0.2500000   0.0000000  -0.5000000), wk =   0.0078125
        k(  104) = (   0.2500000  -0.0000000  -0.3750000), wk =   0.0078125
        k(  105) = (   0.2500000  -0.0000000  -0.2500000), wk =   0.0078125
        k(  106) = (   0.2500000   0.0000000  -0.1250000), wk =   0.0078125
        k(  107) = (   0.2500000   0.1250000   0.0000000), wk =   0.0078125
        k(  108) = (   0.2500000   0.1250000   0.1250000), wk =   0.0078125
        k(  109) = (   0.2500000   0.1250000   0.2500000), wk =   0.0078125
        k(  110) = (   0.2500000   0.1250000   0.3750000), wk =   0.0078125
        k(  111) = (   0.2500000   0.1250000  -0.5000000), wk =   0.0078125
        k(  112) = (   0.2500000   0.1250000  -0.3750000), wk =   0.0078125
        k(  113) = (   0.2500000   0.1250000  -0.2500000), wk =   0.0078125
        k(  114) = (   0.2500000   0.1250000  -0.1250000), wk =   0.0078125
        k(  115) = (   0.2500000   0.2500000   0.0000000), wk =   0.0078125
        k(  116) = (   0.2500000   0.2500000   0.1250000), wk =   0.0078125
        k(  117) = (   0.2500000   0.2500000   0.2500000), wk =   0.0078125
        k(  118) = (   0.2500000   0.2500000   0.3750000), wk =   0.0078125
        k(  119) = (   0.2500000   0.2500000  -0.5000000), wk =   0.0078125
        k(  120) = (   0.2500000   0.2500000  -0.3750000), wk =   0.0078125
        k(  121) = (   0.2500000   0.2500000  -0.2500000), wk =   0.0078125
        k(  122) = (   0.2500000   0.2500000  -0.1250000), wk =   0.0078125
        k(  123) = (   0.2500000   0.3750000   0.0000000), wk =   0.0078125
        k(  124) = (   0.2500000   0.3750000   0.1250000), wk =   0.0078125
        k(  125) = (   0.2500000   0.3750000   0.2500000), wk =   0.0078125
        k(  126) = (   0.2500000   0.3750000   0.3750000), wk =   0.0078125
        k(  127) = (   0.2500000   0.3750000  -0.5000000), wk =   0.0078125
        k(  128) = (   0.2500000   0.3750000  -0.3750000), wk =   0.0078125
        k(  129) = (   0.2500000   0.3750000  -0.2500000), wk =   0.0078125
        k(  130) = (   0.2500000   0.3750000  -0.1250000), wk =   0.0078125
        k(  131) = (   0.2500000  -0.5000000  -0.0000000), wk =   0.0078125
        k(  132) = (   0.2500000  -0.5000000   0.1250000), wk =   0.0078125
        k(  133) = (   0.2500000  -0.5000000   0.2500000), wk =   0.0078125
        k(  134) = (   0.2500000  -0.5000000   0.3750000), wk =   0.0078125
        k(  135) = (   0.2500000  -0.5000000  -0.5000000), wk =   0.0078125
        k(  136) = (   0.2500000  -0.5000000  -0.3750000), wk =   0.0078125
        k(  137) = (   0.2500000  -0.5000000  -0.2500000), wk =   0.0078125
        k(  138) = (   0.2500000  -0.5000000  -0.1250000), wk =   0.0078125
        k(  139) = (   0.2500000  -0.3750000  -0.0000000), wk =   0.0078125
        k(  140) = (   0.2500000  -0.3750000   0.1250000), wk =   0.0078125
        k(  141) = (   0.2500000  -0.3750000   0.2500000), wk =   0.0078125
        k(  142) = (   0.2500000  -0.3750000   0.3750000), wk =   0.0078125
        k(  143) = (   0.2500000  -0.3750000  -0.5000000), wk =   0.0078125
        k(  144) = (   0.2500000  -0.3750000  -0.3750000), wk =   0.0078125
        k(  145) = (   0.2500000  -0.3750000  -0.2500000), wk =   0.0078125
        k(  146) = (   0.2500000  -0.3750000  -0.1250000), wk =   0.0078125
        k(  147) = (   0.2500000  -0.2500000  -0.0000000), wk =   0.0078125
        k(  148) = (   0.2500000  -0.2500000   0.1250000), wk =   0.0078125
        k(  149) = (   0.2500000  -0.2500000   0.2500000), wk =   0.0078125
        k(  150) = (   0.2500000  -0.2500000   0.3750000), wk =   0.0078125
        k(  151) = (   0.2500000  -0.2500000  -0.5000000), wk =   0.0078125
        k(  152) = (   0.2500000  -0.2500000  -0.3750000), wk =   0.0078125
        k(  153) = (   0.2500000  -0.2500000  -0.2500000), wk =   0.0078125
        k(  154) = (   0.2500000  -0.2500000  -0.1250000), wk =   0.0078125
        k(  155) = (   0.2500000  -0.1250000  -0.0000000), wk =   0.0078125
        k(  156) = (   0.2500000  -0.1250000   0.1250000), wk =   0.0078125
        k(  157) = (   0.2500000  -0.1250000   0.2500000), wk =   0.0078125
        k(  158) = (   0.2500000  -0.1250000   0.3750000), wk =   0.0078125
        k(  159) = (   0.2500000  -0.1250000  -0.5000000), wk =   0.0078125
        k(  160) = (   0.2500000  -0.1250000  -0.3750000), wk =   0.0078125
        k(  161) = (   0.2500000  -0.1250000  -0.2500000), wk =   0.0078125
        k(  162) = (   0.2500000  -0.1250000  -0.1250000), wk =   0.0078125
        k(  163) = (   0.3750000  -0.0000000  -0.0000000), wk =   0.0078125
        k(  164) = (   0.3750000  -0.0000000   0.1250000), wk =   0.0078125
        k(  165) = (   0.3750000   0.0000000   0.2500000), wk =   0.0078125
        k(  166) = (   0.3750000   0.0000000   0.3750000), wk =   0.0078125
        k(  167) = (   0.3750000  -0.0000000  -0.5000000), wk =   0.0078125
        k(  168) = (   0.3750000  -0.0000000  -0.3750000), wk =   0.0078125
        k(  169) = (   0.3750000  -0.0000000  -0.2500000), wk =   0.0078125
        k(  170) = (   0.3750000  -0.0000000  -0.1250000), wk =   0.0078125
        k(  171) = (   0.3750000   0.1250000   0.0000000), wk =   0.0078125
        k(  172) = (   0.3750000   0.1250000   0.1250000), wk =   0.0078125
        k(  173) = (   0.3750000   0.1250000   0.2500000), wk =   0.0078125
        k(  174) = (   0.3750000   0.1250000   0.3750000), wk =   0.0078125
        k(  175) = (   0.3750000   0.1250000  -0.5000000), wk =   0.0078125
        k(  176) = (   0.3750000   0.1250000  -0.3750000), wk =   0.0078125
        k(  177) = (   0.3750000   0.1250000  -0.2500000), wk =   0.0078125
        k(  178) = (   0.3750000   0.1250000  -0.1250000), wk =   0.0078125
        k(  179) = (   0.3750000   0.2500000   0.0000000), wk =   0.0078125
        k(  180) = (   0.3750000   0.2500000   0.1250000), wk =   0.0078125
        k(  181) = (   0.3750000   0.2500000   0.2500000), wk =   0.0078125
        k(  182) = (   0.3750000   0.2500000   0.3750000), wk =   0.0078125
        k(  183) = (   0.3750000   0.2500000  -0.5000000), wk =   0.0078125
        k(  184) = (   0.3750000   0.2500000  -0.3750000), wk =   0.0078125
        k(  185) = (   0.3750000   0.2500000  -0.2500000), wk =   0.0078125
        k(  186) = (   0.3750000   0.2500000  -0.1250000), wk =   0.0078125
        k(  187) = (   0.3750000   0.3750000   0.0000000), wk =   0.0078125
        k(  188) = (   0.3750000   0.3750000   0.1250000), wk =   0.0078125
        k(  189) = (   0.3750000   0.3750000   0.2500000), wk =   0.0078125
        k(  190) = (   0.3750000   0.3750000   0.3750000), wk =   0.0078125
        k(  191) = (   0.3750000   0.3750000  -0.5000000), wk =   0.0078125
        k(  192) = (   0.3750000   0.3750000  -0.3750000), wk =   0.0078125
        k(  193) = (   0.3750000   0.3750000  -0.2500000), wk =   0.0078125
        k(  194) = (   0.3750000   0.3750000  -0.1250000), wk =   0.0078125
        k(  195) = (   0.3750000  -0.5000000  -0.0000000), wk =   0.0078125
        k(  196) = (   0.3750000  -0.5000000   0.1250000), wk =   0.0078125
        k(  197) = (   0.3750000  -0.5000000   0.2500000), wk =   0.0078125
        k(  198) = (   0.3750000  -0.5000000   0.3750000), wk =   0.0078125
        k(  199) = (   0.3750000  -0.5000000  -0.5000000), wk =   0.0078125
        k(  200) = (   0.3750000  -0.5000000  -0.3750000), wk =   0.0078125
        k(  201) = (   0.3750000  -0.5000000  -0.2500000), wk =   0.0078125
        k(  202) = (   0.3750000  -0.5000000  -0.1250000), wk =   0.0078125
        k(  203) = (   0.3750000  -0.3750000  -0.0000000), wk =   0.0078125
        k(  204) = (   0.3750000  -0.3750000   0.1250000), wk =   0.0078125
        k(  205) = (   0.3750000  -0.3750000   0.2500000), wk =   0.0078125
        k(  206) = (   0.3750000  -0.3750000   0.3750000), wk =   0.0078125
        k(  207) = (   0.3750000  -0.3750000  -0.5000000), wk =   0.0078125
        k(  208) = (   0.3750000  -0.3750000  -0.3750000), wk =   0.0078125
        k(  209) = (   0.3750000  -0.3750000  -0.2500000), wk =   0.0078125
        k(  210) = (   0.3750000  -0.3750000  -0.1250000), wk =   0.0078125
        k(  211) = (   0.3750000  -0.2500000  -0.0000000), wk =   0.0078125
        k(  212) = (   0.3750000  -0.2500000   0.1250000), wk =   0.0078125
        k(  213) = (   0.3750000  -0.2500000   0.2500000), wk =   0.0078125
        k(  214) = (   0.3750000  -0.2500000   0.3750000), wk =   0.0078125
        k(  215) = (   0.3750000  -0.2500000  -0.5000000), wk =   0.0078125
        k(  216) = (   0.3750000  -0.2500000  -0.3750000), wk =   0.0078125
        k(  217) = (   0.3750000  -0.2500000  -0.2500000), wk =   0.0078125
        k(  218) = (   0.3750000  -0.2500000  -0.1250000), wk =   0.0078125
        k(  219) = (   0.3750000  -0.1250000  -0.0000000), wk =   0.0078125
        k(  220) = (   0.3750000  -0.1250000   0.1250000), wk =   0.0078125
        k(  221) = (   0.3750000  -0.1250000   0.2500000), wk =   0.0078125
        k(  222) = (   0.3750000  -0.1250000   0.3750000), wk =   0.0078125
        k(  223) = (   0.3750000  -0.1250000  -0.5000000), wk =   0.0078125
        k(  224) = (   0.3750000  -0.1250000  -0.3750000), wk =   0.0078125
        k(  225) = (   0.3750000  -0.1250000  -0.2500000), wk =   0.0078125
        k(  226) = (   0.3750000  -0.1250000  -0.1250000), wk =   0.0078125
        k(  227) = (  -0.5000000   0.0000000   0.0000000), wk =   0.0039062
        k(  228) = (  -0.5000000  -0.0000000   0.1250000), wk =   0.0078125
        k(  229) = (  -0.5000000  -0.0000000   0.2500000), wk =   0.0078125
        k(  230) = (  -0.5000000   0.0000000   0.3750000), wk =   0.0078125
        k(  231) = (  -0.5000000  -0.0000000  -0.5000000), wk =   0.0039062
        k(  232) = (  -0.5000000   0.1250000   0.0000000), wk =   0.0078125
        k(  233) = (  -0.5000000   0.1250000   0.1250000), wk =   0.0078125
        k(  234) = (  -0.5000000   0.1250000   0.2500000), wk =   0.0078125
        k(  235) = (  -0.5000000   0.1250000   0.3750000), wk =   0.0078125
        k(  236) = (  -0.5000000   0.1250000  -0.5000000), wk =   0.0078125
        k(  237) = (  -0.5000000   0.1250000  -0.3750000), wk =   0.0078125
        k(  238) = (  -0.5000000   0.1250000  -0.2500000), wk =   0.0078125
        k(  239) = (  -0.5000000   0.1250000  -0.1250000), wk =   0.0078125
        k(  240) = (  -0.5000000   0.2500000   0.0000000), wk =   0.0078125
        k(  241) = (  -0.5000000   0.2500000   0.1250000), wk =   0.0078125
        k(  242) = (  -0.5000000   0.2500000   0.2500000), wk =   0.0078125
        k(  243) = (  -0.5000000   0.2500000   0.3750000), wk =   0.0078125
        k(  244) = (  -0.5000000   0.2500000  -0.5000000), wk =   0.0078125
        k(  245) = (  -0.5000000   0.2500000  -0.3750000), wk =   0.0078125
        k(  246) = (  -0.5000000   0.2500000  -0.2500000), wk =   0.0078125
        k(  247) = (  -0.5000000   0.2500000  -0.1250000), wk =   0.0078125
        k(  248) = (  -0.5000000   0.3750000   0.0000000), wk =   0.0078125
        k(  249) = (  -0.5000000   0.3750000   0.1250000), wk =   0.0078125
        k(  250) = (  -0.5000000   0.3750000   0.2500000), wk =   0.0078125
        k(  251) = (  -0.5000000   0.3750000   0.3750000), wk =   0.0078125
        k(  252) = (  -0.5000000   0.3750000  -0.5000000), wk =   0.0078125
        k(  253) = (  -0.5000000   0.3750000  -0.3750000), wk =   0.0078125
        k(  254) = (  -0.5000000   0.3750000  -0.2500000), wk =   0.0078125
        k(  255) = (  -0.5000000   0.3750000  -0.1250000), wk =   0.0078125
        k(  256) = (  -0.5000000  -0.5000000  -0.0000000), wk =   0.0039062
        k(  257) = (  -0.5000000  -0.5000000   0.1250000), wk =   0.0078125
        k(  258) = (  -0.5000000  -0.5000000   0.2500000), wk =   0.0078125
        k(  259) = (  -0.5000000  -0.5000000   0.3750000), wk =   0.0078125
        k(  260) = (  -0.5000000  -0.5000000  -0.5000000), wk =   0.0039062

     Dense  grid:    75635 G-vectors     FFT dimensions: (  54,  54,  72)

     Smooth grid:    29369 G-vectors     FFT dimensions: (  40,  40,  48)

     Dynamical RAM for                 wfc:       0.07 MB

     Dynamical RAM for     wfc (w. buffer):       4.86 MB

     Dynamical RAM for           str. fact:       0.22 MB

     Dynamical RAM for           local pot:       0.00 MB

     Dynamical RAM for          nlocal pot:       0.22 MB

     Dynamical RAM for                qrad:       8.15 MB

     Dynamical RAM for          rho,v,vnew:       0.55 MB

     Dynamical RAM for               rhoin:       0.18 MB

     Dynamical RAM for            rho*nmix:       1.15 MB

     Dynamical RAM for           G-vectors:       0.28 MB

     Dynamical RAM for          h,s,v(r/c):       0.08 MB

     Dynamical RAM for          <psi|beta>:       0.02 MB

     Dynamical RAM for                 psi:       0.29 MB

     Dynamical RAM for                hpsi:       0.29 MB

     Dynamical RAM for                spsi:       0.29 MB

     Dynamical RAM for      wfcinit/wfcrot:       0.20 MB

     Dynamical RAM for           addusdens:       3.79 MB

     Dynamical RAM for          addusforce:       3.93 MB

     Dynamical RAM for         addusstress:       3.99 MB

     Estimated static dynamical RAM per process >      16.47 MB

     Estimated max dynamical RAM per process >      20.46 MB

     Estimated total dynamical RAM >       1.28 GB

     Check: negative core charge=   -0.000003

     Initial potential from superposition of free atoms

     starting charge   41.69964, renormalised to   42.00000
     Starting wfcs are   26 randomized atomic wfcs

     total cpu time spent up to now is        1.1 secs

     Self-consistent Calculation

     iteration #  1     ecut=    80.00 Ry     beta= 0.50
     Davidson diagonalization with overlap
     ethr =  1.00E-02,  avg # of iterations =  2.0

     total cpu time spent up to now is        1.8 secs

     total energy              =    -650.64757323 Ry
     Harris-Foulkes estimate   =    -651.44299806 Ry
     estimated scf accuracy    <       1.19261706 Ry

     iteration #  2     ecut=    80.00 Ry     beta= 0.50
     Davidson diagonalization with overlap
     ethr =  2.84E-03,  avg # of iterations =  3.0

     total cpu time spent up to now is        2.8 secs

     total energy              =    -651.02306783 Ry
     Harris-Foulkes estimate   =    -651.28933001 Ry
     estimated scf accuracy    <       0.61005530 Ry

     iteration #  3     ecut=    80.00 Ry     beta= 0.50
     Davidson diagonalization with overlap
     ethr =  1.45E-03,  avg # of iterations =  2.0

     total cpu time spent up to now is        3.6 secs

     total energy              =    -651.12626502 Ry
     Harris-Foulkes estimate   =    -651.12962676 Ry
     estimated scf accuracy    <       0.00980333 Ry

     iteration #  4     ecut=    80.00 Ry     beta= 0.50
     Davidson diagonalization with overlap
     ethr =  2.33E-05,  avg # of iterations =  3.0

     total cpu time spent up to now is        4.6 secs

     total energy              =    -651.12691286 Ry
     Harris-Foulkes estimate   =    -651.12814727 Ry
     estimated scf accuracy    <       0.00312789 Ry

     iteration #  5     ecut=    80.00 Ry     beta= 0.50
     Davidson diagonalization with overlap
     ethr =  7.45E-06,  avg # of iterations =  2.8

     total cpu time spent up to now is        5.5 secs

     total energy              =    -651.12751504 Ry
     Harris-Foulkes estimate   =    -651.12755225 Ry
     estimated scf accuracy    <       0.00016987 Ry

     iteration #  6     ecut=    80.00 Ry     beta= 0.50
     Davidson diagonalization with overlap
     ethr =  4.04E-07,  avg # of iterations =  2.5

     total cpu time spent up to now is        6.4 secs

     total energy              =    -651.12754065 Ry
     Harris-Foulkes estimate   =    -651.12753726 Ry
     estimated scf accuracy    <       0.00000972 Ry

     iteration #  7     ecut=    80.00 Ry     beta= 0.50
     Davidson diagonalization with overlap
     ethr =  2.32E-08,  avg # of iterations =  2.0

     total cpu time spent up to now is        7.1 secs

     End of self-consistent calculation

          k = 0.0000 0.0000 0.0000 (  3647 PWs)   bands (ev):

  -115.3242 -69.6854 -69.6854 -69.6801 -64.7595 -31.7527 -31.7280 -31.7280
    -9.9778  -8.5834   2.0406   2.0406   3.0714   3.2910   3.2910   3.5830
     5.8188   5.8188   7.0285   7.3683   7.3683

     occupation numbers 
     1.0000   1.0000   1.0000   1.0000   1.0000   1.0000   1.0000   1.0000
     1.0000   1.0000   1.0000   1.0000   1.0000   1.0000   1.0000   1.0000
     1.0000   1.0000   1.0000   1.0000   1.0000

          k = 0.0000-0.0000 0.0983 (  3659 PWs)   bands (ev):

  -115.3242 -69.6854 -69.6854 -69.6801 -64.7595 -31.7529 -31.7280 -31.7280
    -9.9336  -8.6254   2.0413   2.0413   2.8274   3.2689   3.2689   3.8266
     5.8705   5.8705   6.7410   7.3493   7.3493

     occupation numbers 
     1.0000   1.0000   1.0000   1.0000   1.0000   1.0000   1.0000   1.0000
     1.0000   1.0000   1.0000   1.0000   1.0000   1.0000   1.0000   1.0000
     1.0000   1.0000   1.0000   1.0000   1.0000

          k = 0.0000-0.0000 0.1966 (  3684 PWs)   bands (ev):

  -115.3242 -69.6854 -69.6854 -69.6801 -64.7595 -31.7534 -31.7280 -31.7280
    -9.8118  -8.7422   2.0431   2.0431   2.5039   3.2178   3.2178   4.1489
     5.9989   5.9989   6.2473   7.2974   7.2974

     occupation numbers 
     1.0000   1.0000   1.0000   1.0000   1.0000   1.0000   1.0000   1.0000
     1.0000   1.0000   1.0000   1.0000   1.0000   1.0000   1.0000   1.0000
     1.0000   1.0000   1.0000   1.0000   1.0000

          k = 0.0000-0.0000 0.2948 (  3732 PWs)   bands (ev):

  -115.3242 -69.6855 -69.6855 -69.6802 -64.7595 -31.7539 -31.7280 -31.7280
    -9.6520  -8.8974   2.0449   2.0449   2.2873   3.1695   3.1695   4.3620
     5.8798   6.1357   6.1357   7.2343   7.2343

     occupation numbers 
     1.0000   1.0000   1.0000   1.0000   1.0000   1.0000   1.0000   1.0000
     1.0000   1.0000   1.0000   1.0000   1.0000   1.0000   1.0000   1.0000
     1.0000   1.0000   1.0000   1.0000   1.0000

          k =-0.0000 0.0000-0.3931 (  3744 PWs)   bands (ev):

  -115.3242 -69.6855 -69.6855 -69.6802 -64.7595 -31.7541 -31.7280 -31.7280
    -9.5607  -8.9869   2.0457   2.0457   2.2131   3.1503   3.1503   4.4334
     5.7491   6.1964   6.1964   7.2034   7.2034

     occupation numbers 
     1.0000   1.0000   1.0000   1.0000   1.0000   1.0000   1.0000   1.0000
     1.0000   1.0000   1.0000   1.0000   1.0000   1.0000   1.0000   1.0000
     1.0000   1.0000   1.0000   1.0000   1.0000

          k =-0.0000 0.1443-0.0000 (  3658 PWs)   bands (ev):

  -115.3242 -69.6855 -69.6854 -69.6801 -64.7594 -31.7525 -31.7308 -31.7286
    -9.8967  -8.5796   2.0156   2.1215   2.9178   3.2850   3.5534   3.5924
     5.5109   5.7345   6.7342   6.9472   7.2227

     occupation numbers 
     1.0000   1.0000   1.0000   1.0000   1.0000   1.0000   1.0000   1.0000
     1.0000   1.0000   1.0000   1.0000   1.0000   1.0000   1.0000   1.0000
     1.0000   1.0000   1.0000   1.0000   1.0000

          k =-0.0000 0.1443 0.0983 (  3663 PWs)   bands (ev):

  -115.3242 -69.6855 -69.6854 -69.6801 -64.7594 -31.7527 -31.7308 -31.7286
    -9.8547  -8.6171   2.0142   2.1221   2.7808   3.2626   3.2689   3.9675
     5.5677   5.7929   6.3739   7.1939   7.1950

     occupation numbers 
     1.0000   1.0000   1.0000   1.0000   1.0000   1.0000   1.0000   1.0000
     1.0000   1.0000   1.0000   1.0000   1.0000   1.0000   1.0000   1.0000
     1.0000   1.0000   1.0000   1.0000   1.0000

          k = 0.0000 0.1443 0.1966 (  3669 PWs)   bands (ev):

  -115.3242 -69.6855 -69.6854 -69.6801 -64.7594 -31.7531 -31.7308 -31.7286
    -9.7396  -8.7216   2.0070   2.1245   2.5102   3.0923   3.2103   4.3046
     5.6539   5.9364   6.0346   7.1206   7.3267

     occupation numbers 
     1.0000   1.0000   1.0000   1.0000   1.0000   1.0000   1.0000   1.0000
     1.0000   1.0000   1.0000   1.0000   1.0000   1.0000   1.0000   1.0000
     1.0000   1.0000   1.0000   1.0000   1.0000

          k = 0.0000 0.1443 0.2948 (  3694 PWs)   bands (ev):

  -115.3242 -69.6855 -69.6855 -69.6801 -64.7594 -31.7536 -31.7308 -31.7286
    -9.5907  -8.8604   1.9897   2.1273   2.3154   2.9746   3.1606   4.5211
     5.5077   6.0735   6.0941   7.0304   7.3278

     occupation numbers 
     1.0000   1.0000   1.0000   1.0000   1.0000   1.0000   1.0000   1.0000
     1.0000   1.0000   1.0000   1.0000   1.0000   1.0000   1.0000   1.0000
     1.0000   1.0000   1.0000   1.0000   1.0000

          k =-0.0000 0.1443-0.3931 (  3706 PWs)   bands (ev):

  -115.3242 -69.6855 -69.6855 -69.6802 -64.7594 -31.7538 -31.7308 -31.7286
    -9.5075  -8.9395   1.9778   2.1289   2.2523   2.9302   3.1405   4.5920
     5.4245   6.1424   6.1647   6.9874   7.3040

     occupation numbers 
     1.0000   1.0000   1.0000   1.0000   1.0000   1.0000   1.0000   1.0000
     1.0000   1.0000   1.0000   1.0000   1.0000   1.0000   1.0000   1.0000
     1.0000   1.0000   1.0000   1.0000   1.0000

          k =-0.0000 0.1443-0.2948 (  3694 PWs)   bands (ev):

  -115.3242 -69.6855 -69.6855 -69.6801 -64.7594 -31.7536 -31.7308 -31.7286
    -9.5906  -8.8604   1.9915   2.1282   2.3126   2.9757   3.1598   4.5087
     5.5503   6.0492   6.0868   7.0388   7.3191

     occupation numbers 
     1.0000   1.0000   1.0000   1.0000   1.0000   1.0000   1.0000   1.0000
     1.0000   1.0000   1.0000   1.0000   1.0000   1.0000   1.0000   1.0000
     1.0000   1.0000   1.0000   1.0000   1.0000

          k =-0.0000 0.1443-0.1966 (  3669 PWs)   bands (ev):

  -115.3242 -69.6855 -69.6854 -69.6801 -64.7594 -31.7531 -31.7308 -31.7286
    -9.7396  -8.7216   2.0075   2.1257   2.5087   3.0939   3.2091   4.2926
     5.7166   5.9284   5.9942   7.1302   7.3115

     occupation numbers 
     1.0000   1.0000   1.0000   1.0000   1.0000   1.0000   1.0000   1.0000
     1.0000   1.0000   1.0000   1.0000   1.0000   1.0000   1.0000   1.0000
     1.0000   1.0000   1.0000   1.0000   1.0000

          k =-0.0000 0.1443-0.0983 (  3663 PWs)   bands (ev):

  -115.3242 -69.6855 -69.6854 -69.6801 -64.7594 -31.7527 -31.7308 -31.7286
    -9.8547  -8.6171   2.0140   2.1230   2.7811   3.2618   3.2710   3.9601
     5.5830   5.7882   6.3788   7.1768   7.1997

     occupation numbers 
     1.0000   1.0000   1.0000   1.0000   1.0000   1.0000   1.0000   1.0000
     1.0000   1.0000   1.0000   1.0000   1.0000   1.0000   1.0000   1.0000
     1.0000   1.0000   1.0000   1.0000   1.0000

          k =-0.0000 0.2887-0.0000 (  3684 PWs)   bands (ev):

  -115.3242 -69.6859 -69.6855 -69.6801 -64.7591 -31.7519 -31.7377 -31.7302
    -9.6835  -8.5846   1.9941   2.3420   2.7781   3.2708   3.5811   4.0005
     4.8473   5.4914   5.8202   6.7119   6.9043

     occupation numbers 
     1.0000   1.0000   1.0000   1.0000   1.0000   1.0000   1.0000   1.0000
     1.0000   1.0000   1.0000   1.0000   1.0000   1.0000   1.0000   1.0000
     1.0000   1.0000   1.0000   1.0000   1.0000

          k =-0.0000 0.2887 0.0983 (  3667 PWs)   bands (ev):

  -115.3242 -69.6859 -69.6855 -69.6801 -64.7591 -31.7521 -31.7376 -31.7302
    -9.6483  -8.6095   1.9905   2.3428   2.6840   3.2474   3.2821   4.2301
     4.9616   5.5600   5.6531   6.8601   6.9522

     occupation numbers 
     1.0000   1.0000   1.0000   1.0000   1.0000   1.0000   1.0000   1.0000
     1.0000   1.0000   1.0000   1.0000   1.0000   1.0000   1.0000   1.0000
     1.0000   1.0000   1.0000   1.0000   1.0000

          k =-0.0000 0.2887 0.1966 (  3682 PWs)   bands (ev):

  -115.3242 -69.6859 -69.6855 -69.6801 -64.7591 -31.7525 -31.7376 -31.7302
    -9.5537  -8.6796   1.9704   2.3467   2.4891   2.9063   3.1920   4.4356
     5.0360   5.6646   5.7346   6.7427   7.2745

     occupation numbers 
     1.0000   1.0000   1.0000   1.0000   1.0000   1.0000   1.0000   1.0000
     1.0000   1.0000   1.0000   1.0000   1.0000   1.0000   1.0000   1.0000
     1.0000   1.0000   1.0000   1.0000   1.0000

          k = 0.0000 0.2887 0.2948 (  3681 PWs)   bands (ev):

  -115.3242 -69.6859 -69.6855 -69.6801 -64.7591 -31.7530 -31.7376 -31.7301
    -9.4368  -8.7723   1.9276   2.3474   2.3517   2.6379   3.1393   4.5833
     4.8853   5.9436   5.9551   6.5764   7.4423

     occupation numbers 
     1.0000   1.0000   1.0000   1.0000   1.0000   1.0000   1.0000   1.0000
     1.0000   1.0000   1.0000   1.0000   1.0000   1.0000   1.0000   1.0000
     1.0000   1.0000   1.0000   1.0000   1.0000

          k =-0.0000 0.2887-0.3931 (  3682 PWs)   bands (ev):

  -115.3242 -69.6859 -69.6856 -69.6801 -64.7591 -31.7532 -31.7376 -31.7301
    -9.3761  -8.8230   1.9052   2.2980   2.3548   2.5427   3.1175   4.6177
     4.8444   6.0747   6.0841   6.4695   7.4691

     occupation numbers 
     1.0000   1.0000   1.0000   1.0000   1.0000   1.0000   1.0000   1.0000
     1.0000   1.0000   1.0000   1.0000   1.0000   1.0000   1.0000   1.0000
     1.0000   1.0000   1.0000   1.0000   1.0000

          k =-0.0000 0.2887-0.2948 (  3681 PWs)   bands (ev):

  -115.3242 -69.6859 -69.6855 -69.6801 -64.7591 -31.7530 -31.7376 -31.7301
    -9.4368  -8.7724   1.9368   2.3288   2.3537   2.6472   3.1375   4.5015
     5.0039   5.9231   5.9399   6.5932   7.4178

     occupation numbers 
     1.0000   1.0000   1.0000   1.0000   1.0000   1.0000   1.0000   1.0000
     1.0000   1.0000   1.0000   1.0000   1.0000   1.0000   1.0000   1.0000
     1.0000   1.0000   1.0000   1.0000   1.0000

          k =-0.0000 0.2887-0.1966 (  3682 PWs)   bands (ev):

  -115.3242 -69.6859 -69.6855 -69.6801 -64.7591 -31.7525 -31.7376 -31.7302
    -9.5537  -8.6797   1.9740   2.3494   2.4839   2.9109   3.1895   4.3602
     5.1775   5.6257   5.7215   6.7580   7.2331

     occupation numbers 
     1.0000   1.0000   1.0000   1.0000   1.0000   1.0000   1.0000   1.0000
     1.0000   1.0000   1.0000   1.0000   1.0000   1.0000   1.0000   1.0000
     1.0000   1.0000   1.0000   1.0000   1.0000

          k =-0.0000 0.2887-0.0983 (  3667 PWs)   bands (ev):

  -115.3242 -69.6859 -69.6855 -69.6801 -64.7591 -31.7521 -31.7376 -31.7302
    -9.6483  -8.6096   1.9897   2.3446   2.6868   3.2457   3.2913   4.1742
     5.0162   5.5528   5.6801   6.8688   6.9080

     occupation numbers 
     1.0000   1.0000   1.0000   1.0000   1.0000   1.0000   1.0000   1.0000
     1.0000   1.0000   1.0000   1.0000   1.0000   1.0000   1.0000   1.0000
     1.0000   1.0000   1.0000   1.0000   1.0000

          k =-0.0000 0.4330-0.0000 (  3666 PWs)   bands (ev):

  -115.3242 -69.6862 -69.6856 -69.6801 -64.7588 -31.7513 -31.7445 -31.7317
    -9.4305  -8.6245   2.0498   2.6165   2.7029   3.2580   3.4735   4.2905
     4.5066   5.1167   5.1658   6.3840   6.6365

     occupation numbers 
     1.0000   1.0000   1.0000   1.0000   1.0000   1.0000   1.0000   1.0000
     1.0000   1.0000   1.0000   1.0000   1.0000   1.0000   1.0000   1.0000
     1.0000   1.0000   1.0000   1.0000   1.0000

          k =-0.0000 0.4330 0.0983 (  3689 PWs)   bands (ev):

  -115.3242 -69.6863 -69.6856 -69.6801 -64.7588 -31.7515 -31.7444 -31.7317
    -9.4063  -8.6325   2.0469   2.6019   2.6172   3.2337   3.2922   4.0226
     4.7497   5.2357   5.2370   6.5860   6.6431

     occupation numbers 
     1.0000   1.0000   1.0000   1.0000   1.0000   1.0000   1.0000   1.0000
     1.0000   1.0000   1.0000   1.0000   1.0000   1.0000   1.0000   1.0000
     1.0000   1.0000   1.0000   1.0000   1.0000

          k =-0.0000 0.4330 0.1966 (  3686 PWs)   bands (ev):

  -115.3242 -69.6862 -69.6856 -69.6801 -64.7588 -31.7519 -31.7444 -31.7317
    -9.3437  -8.6559   2.0211   2.4124   2.6214   2.8552   3.1762   3.9085
     4.7770   5.4225   5.6484   6.4475   7.1178

     occupation numbers 
     1.0000   1.0000   1.0000   1.0000   1.0000   1.0000   1.0000   1.0000
     1.0000   1.0000   1.0000   1.0000   1.0000   1.0000   1.0000   1.0000
     1.0000   1.0000   1.0000   1.0000   1.0000

          k =-0.0000 0.4330 0.2948 (  3682 PWs)   bands (ev):

  -115.3242 -69.6862 -69.6857 -69.6801 -64.7588 -31.7524 -31.7444 -31.7317
    -9.2732  -8.6869   1.9680   2.2706   2.4972   2.6274   3.1215   3.8861
     4.7716   5.6704   5.9959   6.2426   7.4742

     occupation numbers 
     1.0000   1.0000   1.0000   1.0000   1.0000   1.0000   1.0000   1.0000
     1.0000   1.0000   1.0000   1.0000   1.0000   1.0000   1.0000   1.0000
     1.0000   1.0000   1.0000   1.0000   1.0000

          k =-0.0000 0.4330-0.3931 (  3692 PWs)   bands (ev):

  -115.3242 -69.6863 -69.6857 -69.6801 -64.7588 -31.7525 -31.7444 -31.7317
    -9.2406  -8.7031   1.9506   2.1800   2.3999   2.6313   3.0986   3.8781
     4.7755   5.8551   6.0750   6.1367   7.5810

     occupation numbers 
     1.0000   1.0000   1.0000   1.0000   1.0000   1.0000   1.0000   1.0000
     1.0000   1.0000   1.0000   1.0000   1.0000   1.0000   1.0000   1.0000
     1.0000   1.0000   1.0000   1.0000   1.0000

          k =-0.0000 0.4330-0.2948 (  3682 PWs)   bands (ev):

  -115.3242 -69.6862 -69.6857 -69.6801 -64.7588 -31.7524 -31.7444 -31.7317
    -9.2731  -8.6870   1.9833   2.2382   2.5153   2.6301   3.1189   3.8725
     4.7911   5.6585   6.0077   6.2555   7.4468

     occupation numbers 
     1.0000   1.0000   1.0000   1.0000   1.0000   1.0000   1.0000   1.0000
     1.0000   1.0000   1.0000   1.0000   1.0000   1.0000   1.0000   1.0000
     1.0000   1.0000   1.0000   1.0000   1.0000

          k =-0.0000 0.4330-0.1966 (  3686 PWs)   bands (ev):

  -115.3242 -69.6862 -69.6856 -69.6801 -64.7588 -31.7519 -31.7444 -31.7317
    -9.3436  -8.6560   2.0195   2.4151   2.6249   2.8620   3.1728   3.8773
     4.7958   5.4133   5.6900   6.4582   7.0702

     occupation numbers 
     1.0000   1.0000   1.0000   1.0000   1.0000   1.0000   1.0000   1.0000
     1.0000   1.0000   1.0000   1.0000   1.0000   1.0000   1.0000   1.0000
     1.0000   1.0000   1.0000   1.0000   1.0000

          k =-0.0000 0.4330-0.0983 (  3689 PWs)   bands (ev):

  -115.3242 -69.6863 -69.6856 -69.6801 -64.7588 -31.7515 -31.7444 -31.7317
    -9.4062  -8.6326   2.0412   2.6114   2.6195   3.2315   3.3133   3.9723
     4.7160   5.2320   5.3405   6.5912   6.5920

     occupation numbers 
     1.0000   1.0000   1.0000   1.0000   1.0000   1.0000   1.0000   1.0000
     1.0000   1.0000   1.0000   1.0000   1.0000   1.0000   1.0000   1.0000
     1.0000   1.0000   1.0000   1.0000   1.0000

          k = 0.0000-0.5774 0.0000 (  3670 PWs)   bands (ev):

  -115.3242 -69.6864 -69.6857 -69.6801 -64.7586 -31.7511 -31.7473 -31.7323
    -9.3023  -8.6630   2.1123   2.6796   2.7564   3.2542   3.3468   4.1674
     4.7453   4.8334   4.9942   6.1881   6.5406

     occupation numbers 
     1.0000   1.0000   1.0000   1.0000   1.0000   1.0000   1.0000   1.0000
     1.0000   1.0000   1.0000   1.0000   1.0000   1.0000   1.0000   1.0000
     1.0000   1.0000   1.0000   1.0000   1.0000

          k = 0.0000-0.5774 0.0983 (  3682 PWs)   bands (ev):

  -115.3242 -69.6864 -69.6857 -69.6801 -64.7586 -31.7513 -31.7473 -31.7323
    -9.2858  -8.6607   2.1004   2.5874   2.7576   3.2286   3.2962   3.7616
     4.6013   5.0626   5.3762   6.4276   6.4922

     occupation numbers 
     1.0000   1.0000   1.0000   1.0000   1.0000   1.0000   1.0000   1.0000
     1.0000   1.0000   1.0000   1.0000   1.0000   1.0000   1.0000   1.0000
     1.0000   1.0000   1.0000   1.0000   1.0000

          k = 0.0000-0.5774 0.1966 (  3678 PWs)   bands (ev):

  -115.3242 -69.6864 -69.6857 -69.6801 -64.7586 -31.7517 -31.7472 -31.7323
    -9.2448  -8.6561   2.0557   2.4168   2.7609   2.8946   3.1709   3.5104
     4.6710   5.2431   5.7893   6.3557   6.9941

     occupation numbers 
     1.0000   1.0000   1.0000   1.0000   1.0000   1.0000   1.0000   1.0000
     1.0000   1.0000   1.0000   1.0000   1.0000   1.0000   1.0000   1.0000
     1.0000   1.0000   1.0000   1.0000   1.0000

          k = 0.0000-0.5774 0.2948 (  3674 PWs)   bands (ev):

  -115.3242 -69.6864 -69.6857 -69.6801 -64.7586 -31.7521 -31.7472 -31.7323
    -9.2017  -8.6530   1.9948   2.2551   2.5067   2.7649   3.1173   3.4870
     4.7194   5.4759   6.0732   6.1620   7.4592

     occupation numbers 
     1.0000   1.0000   1.0000   1.0000   1.0000   1.0000   1.0000   1.0000
     1.0000   1.0000   1.0000   1.0000   1.0000   1.0000   1.0000   1.0000
     1.0000   1.0000   1.0000   1.0000   1.0000

          k = 0.0000-0.5774-0.3931 (  3656 PWs)   bands (ev):

  -115.3242 -69.6863 -69.6857 -69.6800 -64.7586 -31.7523 -31.7472 -31.7323
    -9.1832  -8.6523   1.9849   2.1271   2.4194   2.7669   3.0961   3.4842
     4.7327   5.6249   6.0280   6.1874   7.6192

     occupation numbers 
     1.0000   1.0000   1.0000   1.0000   1.0000   1.0000   1.0000   1.0000
     1.0000   1.0000   1.0000   1.0000   1.0000   1.0000   1.0000   1.0000
     1.0000   1.0000   1.0000   1.0000   1.0000

          k = 0.1250 0.0722-0.0000 (  3658 PWs)   bands (ev):

  -115.3242 -69.6855 -69.6854 -69.6801 -64.7594 -31.7525 -31.7308 -31.7286
    -9.8967  -8.5796   2.0156   2.1215   2.9178   3.2850   3.5534   3.5924
     5.5109   5.7345   6.7342   6.9472   7.2227

     occupation numbers 
     1.0000   1.0000   1.0000   1.0000   1.0000   1.0000   1.0000   1.0000
     1.0000   1.0000   1.0000   1.0000   1.0000   1.0000   1.0000   1.0000
     1.0000   1.0000   1.0000   1.0000   1.0000

          k = 0.1250 0.0722 0.0983 (  3663 PWs)   bands (ev):

  -115.3242 -69.6855 -69.6854 -69.6801 -64.7594 -31.7527 -31.7308 -31.7286
    -9.8547  -8.6171   2.0140   2.1230   2.7811   3.2618   3.2710   3.9601
     5.5830   5.7882   6.3788   7.1768   7.1997

     occupation numbers 
     1.0000   1.0000   1.0000   1.0000   1.0000   1.0000   1.0000   1.0000
     1.0000   1.0000   1.0000   1.0000   1.0000   1.0000   1.0000   1.0000
     1.0000   1.0000   1.0000   1.0000   1.0000

          k = 0.1250 0.0722 0.1966 (  3669 PWs)   bands (ev):

  -115.3242 -69.6855 -69.6854 -69.6801 -64.7594 -31.7531 -31.7308 -31.7286
    -9.7396  -8.7216   2.0075   2.1257   2.5087   3.0939   3.2091   4.2926
     5.7166   5.9284   5.9942   7.1302   7.3115

     occupation numbers 
     1.0000   1.0000   1.0000   1.0000   1.0000   1.0000   1.0000   1.0000
     1.0000   1.0000   1.0000   1.0000   1.0000   1.0000   1.0000   1.0000
     1.0000   1.0000   1.0000   1.0000   1.0000

          k = 0.1250 0.0722 0.2948 (  3694 PWs)   bands (ev):

  -115.3242 -69.6855 -69.6855 -69.6801 -64.7594 -31.7536 -31.7308 -31.7286
    -9.5906  -8.8604   1.9915   2.1282   2.3126   2.9757   3.1598   4.5087
     5.5503   6.0492   6.0868   7.0388   7.3191

     occupation numbers 
     1.0000   1.0000   1.0000   1.0000   1.0000   1.0000   1.0000   1.0000
     1.0000   1.0000   1.0000   1.0000   1.0000   1.0000   1.0000   1.0000
     1.0000   1.0000   1.0000   1.0000   1.0000

          k = 0.1250 0.0722-0.3931 (  3706 PWs)   bands (ev):

  -115.3242 -69.6855 -69.6855 -69.6802 -64.7594 -31.7538 -31.7308 -31.7286
    -9.5075  -8.9395   1.9778   2.1289   2.2523   2.9302   3.1405   4.5920
     5.4245   6.1424   6.1647   6.9874   7.3040

     occupation numbers 
     1.0000   1.0000   1.0000   1.0000   1.0000   1.0000   1.0000   1.0000
     1.0000   1.0000   1.0000   1.0000   1.0000   1.0000   1.0000   1.0000
     1.0000   1.0000   1.0000   1.0000   1.0000

          k = 0.1250 0.0722-0.2948 (  3694 PWs)   bands (ev):

  -115.3242 -69.6855 -69.6855 -69.6801 -64.7594 -31.7536 -31.7308 -31.7286
    -9.5907  -8.8604   1.9897   2.1273   2.3154   2.9746   3.1606   4.5211
     5.5077   6.0735   6.0941   7.0304   7.3278

     occupation numbers 
     1.0000   1.0000   1.0000   1.0000   1.0000   1.0000   1.0000   1.0000
     1.0000   1.0000   1.0000   1.0000   1.0000   1.0000   1.0000   1.0000
     1.0000   1.0000   1.0000   1.0000   1.0000

          k = 0.1250 0.0722-0.1966 (  3669 PWs)   bands (ev):

  -115.3242 -69.6855 -69.6854 -69.6801 -64.7594 -31.7531 -31.7308 -31.7286
    -9.7396  -8.7216   2.0070   2.1245   2.5102   3.0923   3.2103   4.3046
     5.6539   5.9364   6.0346   7.1206   7.3267

     occupation numbers 
     1.0000   1.0000   1.0000   1.0000   1.0000   1.0000   1.0000   1.0000
     1.0000   1.0000   1.0000   1.0000   1.0000   1.0000   1.0000   1.0000
     1.0000   1.0000   1.0000   1.0000   1.0000

          k = 0.1250 0.0722-0.0983 (  3663 PWs)   bands (ev):

  -115.3242 -69.6855 -69.6854 -69.6801 -64.7594 -31.7527 -31.7308 -31.7286
    -9.8547  -8.6171   2.0142   2.1221   2.7808   3.2626   3.2689   3.9675
     5.5677   5.7929   6.3739   7.1939   7.1950

     occupation numbers 
     1.0000   1.0000   1.0000   1.0000   1.0000   1.0000   1.0000   1.0000
     1.0000   1.0000   1.0000   1.0000   1.0000   1.0000   1.0000   1.0000
     1.0000   1.0000   1.0000   1.0000   1.0000

          k = 0.1250 0.2165-0.0000 (  3689 PWs)   bands (ev):

  -115.3242 -69.6858 -69.6855 -69.6801 -64.7592 -31.7521 -31.7354 -31.7300
    -9.7491  -8.5805   2.0001   2.2699   2.8110   3.2697   3.5895   3.8776
     5.0828   5.4609   6.1453   6.7828   6.9326

     occupation numbers 
     1.0000   1.0000   1.0000   1.0000   1.0000   1.0000   1.0000   1.0000
     1.0000   1.0000   1.0000   1.0000   1.0000   1.0000   1.0000   1.0000
     1.0000   1.0000   1.0000   1.0000   1.0000

          k = 0.1250 0.2165 0.0983 (  3671 PWs)   bands (ev):

  -115.3242 -69.6858 -69.6855 -69.6801 -64.7592 -31.7523 -31.7354 -31.7300
    -9.7117  -8.6094   1.9966   2.2713   2.7148   3.2447   3.2835   4.1580
     5.1681   5.5368   5.9359   6.8802   7.0314

     occupation numbers 
     1.0000   1.0000   1.0000   1.0000   1.0000   1.0000   1.0000   1.0000
     1.0000   1.0000   1.0000   1.0000   1.0000   1.0000   1.0000   1.0000
     1.0000   1.0000   1.0000   1.0000   1.0000

          k = 0.1250 0.2165 0.1966 (  3675 PWs)   bands (ev):

  -115.3242 -69.6858 -69.6855 -69.6801 -64.7592 -31.7527 -31.7354 -31.7300
    -9.6103  -8.6905   1.9805   2.2750   2.5029   2.9545   3.1876   4.4289
     5.2384   5.7224   5.8139   6.7760   7.3199

     occupation numbers 
     1.0000   1.0000   1.0000   1.0000   1.0000   1.0000   1.0000   1.0000
     1.0000   1.0000   1.0000   1.0000   1.0000   1.0000   1.0000   1.0000
     1.0000   1.0000   1.0000   1.0000   1.0000

          k = 0.1250 0.2165 0.2948 (  3691 PWs)   bands (ev):

  -115.3242 -69.6858 -69.6855 -69.6801 -64.7592 -31.7532 -31.7353 -31.7300
    -9.4829  -8.7979   1.9438   2.2785   2.3416   2.7342   3.1339   4.6134
     5.0823   5.8930   6.0521   6.6234   7.4585

     occupation numbers 
     1.0000   1.0000   1.0000   1.0000   1.0000   1.0000   1.0000   1.0000
     1.0000   1.0000   1.0000   1.0000   1.0000   1.0000   1.0000   1.0000
     1.0000   1.0000   1.0000   1.0000   1.0000

          k = 0.1250 0.2165-0.3931 (  3678 PWs)   bands (ev):

  -115.3242 -69.6858 -69.6855 -69.6801 -64.7592 -31.7534 -31.7353 -31.7300
    -9.4151  -8.8575   1.9189   2.2764   2.2981   2.6529   3.1125   4.7099
     4.9674   6.0064   6.1754   6.5277   7.4846

     occupation numbers 
     1.0000   1.0000   1.0000   1.0000   1.0000   1.0000   1.0000   1.0000
     1.0000   1.0000   1.0000   1.0000   1.0000   1.0000   1.0000   1.0000
     1.0000   1.0000   1.0000   1.0000   1.0000

          k = 0.1250 0.2165-0.2948 (  3691 PWs)   bands (ev):

  -115.3242 -69.6858 -69.6855 -69.6801 -64.7592 -31.7532 -31.7353 -31.7300
    -9.4829  -8.7979   1.9438   2.2785   2.3416   2.7342   3.1339   4.6134
     5.0823   5.8930   6.0521   6.6234   7.4585

     occupation numbers 
     1.0000   1.0000   1.0000   1.0000   1.0000   1.0000   1.0000   1.0000
     1.0000   1.0000   1.0000   1.0000   1.0000   1.0000   1.0000   1.0000
     1.0000   1.0000   1.0000   1.0000   1.0000

          k = 0.1250 0.2165-0.1966 (  3675 PWs)   bands (ev):

  -115.3242 -69.6858 -69.6855 -69.6801 -64.7592 -31.7527 -31.7354 -31.7300
    -9.6103  -8.6905   1.9805   2.2750   2.5029   2.9545   3.1876   4.4289
     5.2384   5.7224   5.8139   6.7760   7.3199

     occupation numbers 
     1.0000   1.0000   1.0000   1.0000   1.0000   1.0000   1.0000   1.0000
     1.0000   1.0000   1.0000   1.0000   1.0000   1.0000   1.0000   1.0000
     1.0000   1.0000   1.0000   1.0000   1.0000

          k = 0.1250 0.2165-0.0983 (  3671 PWs)   bands (ev):

  -115.3242 -69.6858 -69.6855 -69.6801 -64.7592 -31.7523 -31.7354 -31.7300
    -9.7117  -8.6094   1.9966   2.2713   2.7148   3.2447   3.2835   4.1579
     5.1681   5.5368   5.9359   6.8802   7.0314

     occupation numbers 
     1.0000   1.0000   1.0000   1.0000   1.0000   1.0000   1.0000   1.0000
     1.0000   1.0000   1.0000   1.0000   1.0000   1.0000   1.0000   1.0000
     1.0000   1.0000   1.0000   1.0000   1.0000

          k = 0.1250 0.3608-0.0000 (  3688 PWs)   bands (ev):

  -115.3242 -69.6861 -69.6857 -69.6801 -64.7589 -31.7515 -31.7416 -31.7321
    -9.5122  -8.6061   2.0523   2.5206   2.7325   3.2449   3.5358   4.3173
     4.5300   5.0249   5.5316   6.4839   6.5754

     occupation numbers 
     1.0000   1.0000   1.0000   1.0000   1.0000   1.0000   1.0000   1.0000
     1.0000   1.0000   1.0000   1.0000   1.0000   1.0000   1.0000   1.0000
     1.0000   1.0000   1.0000   1.0000   1.0000

          k = 0.1250 0.3608 0.0983 (  3683 PWs)   bands (ev):

  -115.3242 -69.6861 -69.6857 -69.6801 -64.7589 -31.7517 -31.7416 -31.7321
    -9.4840  -8.6200   2.0508   2.5134   2.6475   3.2155   3.2997   4.2191
     4.6863   5.2661   5.4350   6.5062   6.7640

     occupation numbers 
     1.0000   1.0000   1.0000   1.0000   1.0000   1.0000   1.0000   1.0000
     1.0000   1.0000   1.0000   1.0000   1.0000   1.0000   1.0000   1.0000
     1.0000   1.0000   1.0000   1.0000   1.0000

          k = 0.1250 0.3608 0.1966 (  3680 PWs)   bands (ev):

  -115.3242 -69.6861 -69.6856 -69.6801 -64.7589 -31.7521 -31.7416 -31.7321
    -9.4097  -8.6596   2.0318   2.4237   2.5548   2.8644   3.1520   4.1958
     4.7924   5.3897   5.7435   6.3533   7.2218

     occupation numbers 
     1.0000   1.0000   1.0000   1.0000   1.0000   1.0000   1.0000   1.0000
     1.0000   1.0000   1.0000   1.0000   1.0000   1.0000   1.0000   1.0000
     1.0000   1.0000   1.0000   1.0000   1.0000

          k = 0.1250 0.3608 0.2948 (  3684 PWs)   bands (ev):

  -115.3242 -69.6861 -69.6857 -69.6801 -64.7589 -31.7526 -31.7415 -31.7321
    -9.3230  -8.7116   1.9774   2.3074   2.5156   2.5651   3.0906   4.2032
     4.8136   5.5494   6.0506   6.1908   7.5594

     occupation numbers 
     1.0000   1.0000   1.0000   1.0000   1.0000   1.0000   1.0000   1.0000
     1.0000   1.0000   1.0000   1.0000   1.0000   1.0000   1.0000   1.0000
     1.0000   1.0000   1.0000   1.0000   1.0000

          k = 0.1250 0.3608-0.3931 (  3678 PWs)   bands (ev):

  -115.3242 -69.6861 -69.6857 -69.6801 -64.7589 -31.7527 -31.7415 -31.7321
    -9.2813  -8.7390   1.9442   2.2666   2.4097   2.5580   3.0655   4.2011
     4.8199   5.7531   5.8802   6.2903   7.6674

     occupation numbers 
     1.0000   1.0000   1.0000   1.0000   1.0000   1.0000   1.0000   1.0000
     1.0000   1.0000   1.0000   1.0000   1.0000   1.0000   1.0000   1.0000
     1.0000   1.0000   1.0000   1.0000   1.0000

          k = 0.1250 0.3608-0.2948 (  3684 PWs)   bands (ev):

  -115.3242 -69.6861 -69.6857 -69.6801 -64.7589 -31.7526 -31.7415 -31.7321
    -9.3230  -8.7116   1.9857   2.2899   2.5202   2.5716   3.0892   4.1843
     4.8459   5.5387   6.0442   6.2035   7.5457

     occupation numbers 
     1.0000   1.0000   1.0000   1.0000   1.0000   1.0000   1.0000   1.0000
     1.0000   1.0000   1.0000   1.0000   1.0000   1.0000   1.0000   1.0000
     1.0000   1.0000   1.0000   1.0000   1.0000

          k = 0.1250 0.3608-0.1966 (  3680 PWs)   bands (ev):

  -115.3242 -69.6861 -69.6856 -69.6801 -64.7589 -31.7521 -31.7416 -31.7321
    -9.4097  -8.6597   2.0319   2.4274   2.5525   2.8680   3.1500   4.1616
     4.8332   5.3858   5.7538   6.3533   7.2003

     occupation numbers 
     1.0000   1.0000   1.0000   1.0000   1.0000   1.0000   1.0000   1.0000
     1.0000   1.0000   1.0000   1.0000   1.0000   1.0000   1.0000   1.0000
     1.0000   1.0000   1.0000   1.0000   1.0000

          k = 0.1250 0.3608-0.0983 (  3683 PWs)   bands (ev):

  -115.3242 -69.6861 -69.6857 -69.6801 -64.7589 -31.7517 -31.7416 -31.7321
    -9.4839  -8.6200   2.0480   2.5177   2.6492   3.2152   3.3077   4.1751
     4.7037   5.2733   5.4688   6.4891   6.7527

     occupation numbers 
     1.0000   1.0000   1.0000   1.0000   1.0000   1.0000   1.0000   1.0000
     1.0000   1.0000   1.0000   1.0000   1.0000   1.0000   1.0000   1.0000
     1.0000   1.0000   1.0000   1.0000   1.0000

          k = 0.1250 0.5052-0.0000 (  3686 PWs)   bands (ev):

  -115.3242 -69.6863 -69.6858 -69.6801 -64.7586 -31.7511 -31.7460 -31.7337
    -9.3066  -8.6594   2.1798   2.6891   2.7627   3.2290   3.3724   4.1445
     4.6914   4.8588   5.0125   6.1895   6.3623

     occupation numbers 
     1.0000   1.0000   1.0000   1.0000   1.0000   1.0000   1.0000   1.0000
     1.0000   1.0000   1.0000   1.0000   1.0000   1.0000   1.0000   1.0000
     1.0000   1.0000   1.0000   1.0000   1.0000

          k = 0.1250 0.5052 0.0983 (  3685 PWs)   bands (ev):

  -115.3242 -69.6863 -69.6858 -69.6801 -64.7586 -31.7513 -31.7460 -31.7336
    -9.2898  -8.6576   2.1768   2.5854   2.7720   3.1972   3.2971   3.8387
     4.5082   4.9782   5.4560   6.2867   6.4696

     occupation numbers 
     1.0000   1.0000   1.0000   1.0000   1.0000   1.0000   1.0000   1.0000
     1.0000   1.0000   1.0000   1.0000   1.0000   1.0000   1.0000   1.0000
     1.0000   1.0000   1.0000   1.0000   1.0000

          k = 0.1250 0.5052 0.1966 (  3682 PWs)   bands (ev):

  -115.3242 -69.6863 -69.6858 -69.6801 -64.7586 -31.7517 -31.7459 -31.7336
    -9.2477  -8.6544   2.1449   2.4098   2.7771   2.8903   3.1321   3.6120
     4.6277   5.0216   5.9103   6.1552   7.0604

     occupation numbers 
     1.0000   1.0000   1.0000   1.0000   1.0000   1.0000   1.0000   1.0000
     1.0000   1.0000   1.0000   1.0000   1.0000   1.0000   1.0000   1.0000
[...]
    -9.2476  -8.6545   2.1381   2.4211   2.7759   2.8941   3.1318   3.5986
     4.6280   5.0270   5.9260   6.1542   7.0430

     occupation numbers 
     1.0000   1.0000   1.0000   1.0000   1.0000   1.0000   1.0000   1.0000
     1.0000   1.0000   1.0000   1.0000   1.0000   1.0000   1.0000   1.0000
     1.0000   1.0000   1.0000   1.0000   1.0000

          k =-0.5000-0.1443-0.0983 (  3685 PWs)   bands (ev):

  -115.3242 -69.6863 -69.6858 -69.6801 -64.7586 -31.7513 -31.7460 -31.7336
    -9.2897  -8.6577   2.1702   2.5980   2.7698   3.1965   3.3104   3.8149
     4.4911   4.9909   5.4939   6.2627   6.4654

     occupation numbers 
     1.0000   1.0000   1.0000   1.0000   1.0000   1.0000   1.0000   1.0000
     1.0000   1.0000   1.0000   1.0000   1.0000   1.0000   1.0000   1.0000
     1.0000   1.0000   1.0000   1.0000   1.0000

          k =-0.5000 0.0000-0.0000 (  3669 PWs)   bands (ev):

  -115.3242 -69.6862 -69.6858 -69.6801 -64.7586 -31.7511 -31.7443 -31.7353
    -9.3109  -8.6558   2.2517   2.6936   2.7750   3.2041   3.4124   4.1061
     4.5801   4.8383   5.1710   6.1263   6.2125

     occupation numbers 
     1.0000   1.0000   1.0000   1.0000   1.0000   1.0000   1.0000   1.0000
     1.0000   1.0000   1.0000   1.0000   1.0000   1.0000   1.0000   1.0000
     1.0000   1.0000   1.0000   1.0000   1.0000

          k =-0.5000-0.0000 0.0983 (  3681 PWs)   bands (ev):

  -115.3242 -69.6862 -69.6858 -69.6801 -64.7586 -31.7513 -31.7443 -31.7353
    -9.2936  -8.6546   2.2533   2.5959   2.7827   3.1637   3.3140   4.0084
     4.1891   5.0700   5.5260   6.0779   6.4622

     occupation numbers 
     1.0000   1.0000   1.0000   1.0000   1.0000   1.0000   1.0000   1.0000
     1.0000   1.0000   1.0000   1.0000   1.0000   1.0000   1.0000   1.0000
     1.0000   1.0000   1.0000   1.0000   1.0000

          k =-0.5000-0.0000 0.1966 (  3674 PWs)   bands (ev):

  -115.3242 -69.6862 -69.6858 -69.6801 -64.7586 -31.7517 -31.7442 -31.7353
    -9.2505  -8.6529   2.2502   2.4007   2.7865   2.8841   3.0948   3.7774
     4.3792   5.0189   5.8705   6.0709   7.0882

     occupation numbers 
     1.0000   1.0000   1.0000   1.0000   1.0000   1.0000   1.0000   1.0000
     1.0000   1.0000   1.0000   1.0000   1.0000   1.0000   1.0000   1.0000
     1.0000   1.0000   1.0000   1.0000   1.0000

          k =-0.5000-0.0000 0.2948 (  3684 PWs)   bands (ev):

  -115.3242 -69.6862 -69.6858 -69.6801 -64.7586 -31.7521 -31.7442 -31.7353
    -9.2050  -8.6531   2.1954   2.2500   2.5131   2.7933   3.0269   3.7440
     4.6235   4.9687   5.6569   6.3827   7.6494

     occupation numbers 
     1.0000   1.0000   1.0000   1.0000   1.0000   1.0000   1.0000   1.0000
     1.0000   1.0000   1.0000   1.0000   1.0000   1.0000   1.0000   1.0000
     1.0000   1.0000   1.0000   1.0000   1.0000

          k =-0.5000 0.0000-0.3931 (  3674 PWs)   bands (ev):

  -115.3242 -69.6862 -69.6858 -69.6800 -64.7586 -31.7523 -31.7442 -31.7353
    -9.1853  -8.6539   2.1349   2.1904   2.4196   2.7950   3.0013   3.7393
     4.7704   4.9364   5.5292   6.5008   7.8626

     occupation numbers 
     1.0000   1.0000   1.0000   1.0000   1.0000   1.0000   1.0000   1.0000
     1.0000   1.0000   1.0000   1.0000   1.0000   1.0000   1.0000   1.0000
     1.0000   1.0000   1.0000   1.0000   1.0000

          k =-0.5000 0.0000-0.2948 (  3684 PWs)   bands (ev):

  -115.3242 -69.6862 -69.6858 -69.6801 -64.7586 -31.7521 -31.7442 -31.7353
    -9.2050  -8.6531   2.1954   2.2500   2.5131   2.7933   3.0269   3.7440
     4.6235   4.9687   5.6569   6.3827   7.6494

     occupation numbers 
     1.0000   1.0000   1.0000   1.0000   1.0000   1.0000   1.0000   1.0000
     1.0000   1.0000   1.0000   1.0000   1.0000   1.0000   1.0000   1.0000
     1.0000   1.0000   1.0000   1.0000   1.0000

          k =-0.5000 0.0000-0.1966 (  3674 PWs)   bands (ev):

  -115.3242 -69.6862 -69.6858 -69.6801 -64.7586 -31.7517 -31.7442 -31.7353
    -9.2505  -8.6529   2.2502   2.4007   2.7865   2.8841   3.0948   3.7774
     4.3792   5.0189   5.8705   6.0709   7.0882

     occupation numbers 
     1.0000   1.0000   1.0000   1.0000   1.0000   1.0000   1.0000   1.0000
     1.0000   1.0000   1.0000   1.0000   1.0000   1.0000   1.0000   1.0000
     1.0000   1.0000   1.0000   1.0000   1.0000

          k =-0.5000 0.0000-0.0983 (  3681 PWs)   bands (ev):

  -115.3242 -69.6862 -69.6858 -69.6801 -64.7586 -31.7513 -31.7443 -31.7353
    -9.2936  -8.6546   2.2533   2.5959   2.7827   3.1637   3.3140   4.0084
     4.1891   5.0700   5.5260   6.0779   6.4622

     occupation numbers 
     1.0000   1.0000   1.0000   1.0000   1.0000   1.0000   1.0000   1.0000
     1.0000   1.0000   1.0000   1.0000   1.0000   1.0000   1.0000   1.0000
     1.0000   1.0000   1.0000   1.0000   1.0000

          k =-0.5000 0.1443-0.0000 (  3686 PWs)   bands (ev):

  -115.3242 -69.6863 -69.6858 -69.6801 -64.7586 -31.7511 -31.7460 -31.7337
    -9.3066  -8.6594   2.1798   2.6891   2.7627   3.2290   3.3724   4.1445
     4.6914   4.8588   5.0125   6.1895   6.3623

     occupation numbers 
     1.0000   1.0000   1.0000   1.0000   1.0000   1.0000   1.0000   1.0000
     1.0000   1.0000   1.0000   1.0000   1.0000   1.0000   1.0000   1.0000
     1.0000   1.0000   1.0000   1.0000   1.0000

          k =-0.5000 0.1443 0.0983 (  3685 PWs)   bands (ev):

  -115.3242 -69.6863 -69.6858 -69.6801 -64.7586 -31.7513 -31.7460 -31.7336
    -9.2897  -8.6577   2.1702   2.5980   2.7698   3.1965   3.3104   3.8149
     4.4911   4.9909   5.4939   6.2627   6.4654

     occupation numbers 
     1.0000   1.0000   1.0000   1.0000   1.0000   1.0000   1.0000   1.0000
     1.0000   1.0000   1.0000   1.0000   1.0000   1.0000   1.0000   1.0000
     1.0000   1.0000   1.0000   1.0000   1.0000

          k =-0.5000 0.1443 0.1966 (  3682 PWs)   bands (ev):

  -115.3242 -69.6863 -69.6858 -69.6801 -64.7586 -31.7517 -31.7459 -31.7336
    -9.2476  -8.6545   2.1381   2.4211   2.7759   2.8941   3.1318   3.5986
     4.6280   5.0270   5.9260   6.1542   7.0430

     occupation numbers 
     1.0000   1.0000   1.0000   1.0000   1.0000   1.0000   1.0000   1.0000
     1.0000   1.0000   1.0000   1.0000   1.0000   1.0000   1.0000   1.0000
     1.0000   1.0000   1.0000   1.0000   1.0000

          k =-0.5000 0.1443 0.2948 (  3684 PWs)   bands (ev):

  -115.3242 -69.6863 -69.6858 -69.6801 -64.7586 -31.7521 -31.7459 -31.7336
    -9.2033  -8.6531   2.0816   2.2586   2.5137   2.7867   3.0702   3.5785
     4.7497   5.1432   5.8642   6.2972   7.5633

     occupation numbers 
     1.0000   1.0000   1.0000   1.0000   1.0000   1.0000   1.0000   1.0000
     1.0000   1.0000   1.0000   1.0000   1.0000   1.0000   1.0000   1.0000
     1.0000   1.0000   1.0000   1.0000   1.0000

          k =-0.5000 0.1443-0.3931 (  3682 PWs)   bands (ev):

  -115.3242 -69.6863 -69.6858 -69.6801 -64.7586 -31.7523 -31.7459 -31.7336
    -9.1842  -8.6531   2.0552   2.1587   2.4197   2.7894   3.0463   3.5781
     4.7771   5.2637   5.7259   6.4032   7.7574

     occupation numbers 
     1.0000   1.0000   1.0000   1.0000   1.0000   1.0000   1.0000   1.0000
     1.0000   1.0000   1.0000   1.0000   1.0000   1.0000   1.0000   1.0000
     1.0000   1.0000   1.0000   1.0000   1.0000

          k =-0.5000 0.1443-0.2948 (  3684 PWs)   bands (ev):

  -115.3242 -69.6863 -69.6858 -69.6801 -64.7586 -31.7521 -31.7459 -31.7336
    -9.2034  -8.6530   2.0734   2.2746   2.5043   2.7861   3.0710   3.5830
     4.7438   5.1452   5.8649   6.2904   7.5730

     occupation numbers 
     1.0000   1.0000   1.0000   1.0000   1.0000   1.0000   1.0000   1.0000
     1.0000   1.0000   1.0000   1.0000   1.0000   1.0000   1.0000   1.0000
     1.0000   1.0000   1.0000   1.0000   1.0000

          k =-0.5000 0.1443-0.1966 (  3682 PWs)   bands (ev):

  -115.3242 -69.6863 -69.6858 -69.6801 -64.7586 -31.7517 -31.7459 -31.7336
    -9.2477  -8.6544   2.1449   2.4098   2.7771   2.8903   3.1321   3.6120
     4.6277   5.0216   5.9103   6.1552   7.0604

     occupation numbers 
     1.0000   1.0000   1.0000   1.0000   1.0000   1.0000   1.0000   1.0000
     1.0000   1.0000   1.0000   1.0000   1.0000   1.0000   1.0000   1.0000
     1.0000   1.0000   1.0000   1.0000   1.0000

          k =-0.5000 0.1443-0.0983 (  3685 PWs)   bands (ev):

  -115.3242 -69.6863 -69.6858 -69.6801 -64.7586 -31.7513 -31.7460 -31.7336
    -9.2898  -8.6576   2.1768   2.5854   2.7720   3.1972   3.2971   3.8387
     4.5082   4.9782   5.4560   6.2867   6.4696

     occupation numbers 
     1.0000   1.0000   1.0000   1.0000   1.0000   1.0000   1.0000   1.0000
     1.0000   1.0000   1.0000   1.0000   1.0000   1.0000   1.0000   1.0000
     1.0000   1.0000   1.0000   1.0000   1.0000

          k =-0.5000-0.8660 0.0000 (  3670 PWs)   bands (ev):

  -115.3242 -69.6864 -69.6857 -69.6801 -64.7586 -31.7511 -31.7473 -31.7323
    -9.3023  -8.6630   2.1123   2.6796   2.7564   3.2542   3.3468   4.1674
     4.7453   4.8334   4.9942   6.1881   6.5406

     occupation numbers 
     1.0000   1.0000   1.0000   1.0000   1.0000   1.0000   1.0000   1.0000
     1.0000   1.0000   1.0000   1.0000   1.0000   1.0000   1.0000   1.0000
     1.0000   1.0000   1.0000   1.0000   1.0000

          k =-0.5000-0.8660 0.0983 (  3682 PWs)   bands (ev):

  -115.3242 -69.6864 -69.6857 -69.6801 -64.7586 -31.7513 -31.7473 -31.7323
    -9.2858  -8.6607   2.1004   2.5874   2.7576   3.2286   3.2962   3.7616
     4.6013   5.0626   5.3762   6.4276   6.4922

     occupation numbers 
     1.0000   1.0000   1.0000   1.0000   1.0000   1.0000   1.0000   1.0000
     1.0000   1.0000   1.0000   1.0000   1.0000   1.0000   1.0000   1.0000
     1.0000   1.0000   1.0000   1.0000   1.0000

          k =-0.5000-0.8660 0.1966 (  3678 PWs)   bands (ev):

  -115.3242 -69.6864 -69.6857 -69.6801 -64.7586 -31.7517 -31.7472 -31.7323
    -9.2448  -8.6561   2.0557   2.4168   2.7609   2.8946   3.1709   3.5104
     4.6710   5.2431   5.7893   6.3557   6.9941

     occupation numbers 
     1.0000   1.0000   1.0000   1.0000   1.0000   1.0000   1.0000   1.0000
     1.0000   1.0000   1.0000   1.0000   1.0000   1.0000   1.0000   1.0000
     1.0000   1.0000   1.0000   1.0000   1.0000

          k =-0.5000-0.8660 0.2948 (  3674 PWs)   bands (ev):

  -115.3242 -69.6864 -69.6857 -69.6801 -64.7586 -31.7521 -31.7472 -31.7323
    -9.2017  -8.6530   1.9948   2.2551   2.5067   2.7649   3.1173   3.4870
     4.7194   5.4759   6.0732   6.1620   7.4592

     occupation numbers 
     1.0000   1.0000   1.0000   1.0000   1.0000   1.0000   1.0000   1.0000
     1.0000   1.0000   1.0000   1.0000   1.0000   1.0000   1.0000   1.0000
     1.0000   1.0000   1.0000   1.0000   1.0000

          k =-0.5000-0.8660-0.3931 (  3656 PWs)   bands (ev):

  -115.3242 -69.6863 -69.6857 -69.6800 -64.7586 -31.7523 -31.7472 -31.7323
    -9.1832  -8.6523   1.9849   2.1271   2.4194   2.7669   3.0961   3.4842
     4.7327   5.6249   6.0280   6.1874   7.6192

     occupation numbers 
     1.0000   1.0000   1.0000   1.0000   1.0000   1.0000   1.0000   1.0000
     1.0000   1.0000   1.0000   1.0000   1.0000   1.0000   1.0000   1.0000
     1.0000   1.0000   1.0000   1.0000   1.0000

     highest occupied level (ev):     7.9273

!    total energy              =    -651.12754176 Ry
     Harris-Foulkes estimate   =    -651.12754165 Ry
     estimated scf accuracy    <       0.00000042 Ry

     The total energy is the sum of the following terms:

     one-electron contribution =    -523.40044444 Ry
     hartree contribution      =     275.85684188 Ry
     xc contribution           =     -73.09961767 Ry
     ewald contribution        =    -330.48432154 Ry

     convergence has been achieved in   7 iterations

     Forces acting on atoms (cartesian axes, Ry/au):

     atom    1 type  3   force =    -0.00000051    0.00000012    0.00770322
     atom    2 type  3   force =    -0.00000067    0.00000020    0.00620080
     atom    3 type  2   force =     0.00000110    0.00000112   -0.00132677
     atom    4 type  1   force =     0.00000008   -0.00000145   -0.01257725
     The non-local contrib.  to forces
     atom    1 type  3   force =    -0.00000016   -0.00000198   -0.09527347
     atom    2 type  3   force =     0.00000001    0.00000149   -0.03470585
     atom    3 type  2   force =     0.00000115   -0.00000625   -0.22174381
     atom    4 type  1   force =     0.00000112   -0.00000157   -0.10233045
     The ionic contribution  to forces
     atom    1 type  3   force =    -0.00000654    0.00002861    2.24524189
     atom    2 type  3   force =    -0.00000592    0.00002239   -0.27161931
     atom    3 type  2   force =     0.00000383   -0.00003479   -0.92305256
     atom    4 type  1   force =     0.00000863   -0.00001621   -1.05057001
     The local contribution  to forces
     atom    1 type  3   force =     0.00000606   -0.00002532   -2.14279956
     atom    2 type  3   force =     0.00000531   -0.00002249    0.31253766
     atom    3 type  2   force =    -0.00000488    0.00003981    1.14317544
     atom    4 type  1   force =    -0.00000945    0.00001638    1.14051170
     The core correction contribution to forces
     atom    1 type  3   force =     0.00000000    0.00000001    0.00058321
     atom    2 type  3   force =    -0.00000000   -0.00000001   -0.00017176
     atom    3 type  2   force =     0.00000000    0.00000000    0.00000000
     atom    4 type  1   force =     0.00000000    0.00000000    0.00000000
     The Hubbard contrib.    to forces
     atom    1 type  3   force =     0.00000000    0.00000000    0.00000000
     atom    2 type  3   force =     0.00000000    0.00000000    0.00000000
     atom    3 type  2   force =     0.00000000    0.00000000    0.00000000
     atom    4 type  1   force =     0.00000000    0.00000000    0.00000000
     The SCF correction term to forces
     atom    1 type  3   force =     0.00000000    0.00000000    0.00000000
     atom    2 type  3   force =     0.00000000    0.00000000    0.00000000
     atom    3 type  2   force =     0.00000000    0.00000000    0.00000000
     atom    4 type  1   force =     0.00000000    0.00000000    0.00000000

     Total force =     0.000000     Total SCF correction =     0.000000


     Computing stress (Cartesian axis) and pressure

          total   stress  (Ry/bohr**3)                   (kbar)     P=    6.32
   0.00004398   0.00000000   0.00000000          6.47      0.00      0.00
   0.00000000   0.00004398  -0.00000001          0.00      6.47     -0.00
   0.00000000  -0.00000001   0.00004100          0.00     -0.00      6.03

     kinetic stress (kbar)  27697.18      0.00      0.00
                                0.00  27697.18     -0.00
                                0.00     -0.00  27818.10

     local   stress (kbar)  -8163.00     -0.02     -0.01
                               -0.02  -8163.02     -0.01
                               -0.01     -0.01 -12344.01

     nonloc. stress (kbar)   1854.65      0.00     -0.00
                                0.00   1854.65      0.00
                               -0.00      0.00   1816.32

     hartree stress (kbar)  43883.01      0.01      0.00
                                0.01  43883.02      0.01
                                0.00      0.01  45489.43

     exc-cor stress (kbar) -10959.13      0.00      0.00
                                0.00 -10959.13      0.00
                                0.00      0.00 -10959.18

     corecor stress (kbar)   -261.02     -0.00     -0.00
                               -0.00   -261.02      0.00
                               -0.00      0.00   -261.24

     ewald   stress (kbar) -54045.22      0.01      0.00
                                0.01 -54045.21      0.00
                                0.00      0.00 -51553.39

     hubbard stress (kbar)      0.00      0.00      0.00
                                0.00      0.00      0.00
                                0.00      0.00      0.00

     london  stress (kbar)      0.00      0.00      0.00
                                0.00      0.00      0.00
                                0.00      0.00      0.00

     DFT-D3  stress (kbar)      0.00      0.00      0.00
                                0.00      0.00      0.00
                                0.00      0.00      0.00

     XDM     stress (kbar)      0.00      0.00      0.00
                                0.00      0.00      0.00
                                0.00      0.00      0.00

     dft-nl  stress (kbar)      0.00      0.00      0.00
                                0.00      0.00      0.00
                                0.00      0.00      0.00

     TS-vdW  stress (kbar)      0.00      0.00      0.00
                                0.00      0.00      0.00
                                0.00      0.00      0.00



     Writing output data file ZnO.save/
 
     init_run     :      0.49s CPU      0.76s WALL (       1 calls)
     electrons    :      5.67s CPU      6.09s WALL (       1 calls)
     forces       :      0.16s CPU      0.17s WALL (       1 calls)
     stress       :      0.28s CPU      0.30s WALL (       1 calls)

     Called by init_run:
     wfcinit      :      0.30s CPU      0.46s WALL (       1 calls)
     wfcinit:atom :      0.00s CPU      0.00s WALL (      65 calls)
     wfcinit:wfcr :      0.28s CPU      0.44s WALL (      65 calls)
     potinit      :      0.07s CPU      0.09s WALL (       1 calls)
     hinit0       :      0.11s CPU      0.17s WALL (       1 calls)

     Called by electrons:
     c_bands      :      4.72s CPU      5.08s WALL (       7 calls)
     sum_band     :      0.66s CPU      0.69s WALL (       7 calls)
     v_of_rho     :      0.24s CPU      0.26s WALL (       8 calls)
     v_h          :      0.00s CPU      0.00s WALL (       8 calls)
     v_xc         :      0.30s CPU      0.31s WALL (      10 calls)
     newd         :      0.06s CPU      0.07s WALL (       8 calls)
     mix_rho      :      0.01s CPU      0.01s WALL (       7 calls)

     Called by c_bands:
     init_us_2    :      0.08s CPU      0.09s WALL (    1105 calls)
     cegterg      :      4.36s CPU      4.60s WALL (     455 calls)

     Called by sum_band:
     sum_band:bec :      0.00s CPU      0.01s WALL (     455 calls)
     addusdens    :      0.05s CPU      0.06s WALL (       7 calls)

     Called by *egterg:
     h_psi        :      2.54s CPU      2.64s WALL (    1658 calls)
     s_psi        :      0.10s CPU      0.10s WALL (    1658 calls)
     g_psi        :      0.01s CPU      0.01s WALL (    1138 calls)
     cdiaghg      :      1.28s CPU      1.50s WALL (    1593 calls)
     cegterg:over :      0.33s CPU      0.39s WALL (    1138 calls)
     cegterg:upda :      0.16s CPU      0.17s WALL (    1138 calls)
     cegterg:last :      0.09s CPU      0.09s WALL (     455 calls)
     cdiaghg:chol :      0.11s CPU      0.21s WALL (    1593 calls)
     cdiaghg:inve :      0.02s CPU      0.03s WALL (    1593 calls)
     cdiaghg:para :      0.13s CPU      0.14s WALL (    3186 calls)

     Called by h_psi:
     h_psi:pot    :      2.53s CPU      2.63s WALL (    1658 calls)
     h_psi:calbec :      0.17s CPU      0.19s WALL (    1658 calls)
     vloc_psi     :      2.25s CPU      2.34s WALL (    1658 calls)
     add_vuspsi   :      0.10s CPU      0.10s WALL (    1658 calls)

     General routines
     calbec       :      0.28s CPU      0.29s WALL (    2438 calls)
     fft          :      0.04s CPU      0.07s WALL (     127 calls)
     ffts         :      0.00s CPU      0.00s WALL (      15 calls)
     fftw         :      2.57s CPU      2.66s WALL (   60399 calls)
     interpolate  :      0.00s CPU      0.01s WALL (       8 calls)
 
     Parallel routines
     fft_scatt_xy :      0.36s CPU      0.37s WALL (   60541 calls)
     fft_scatt_yz :      1.44s CPU      1.49s WALL (   60541 calls)
 
     PWSCF        :      6.94s CPU      8.88s WALL

 
   This run was terminated on:  20:11:50  16Jun2022            

=------------------------------------------------------------------------------=
   JOB DONE.
=------------------------------------------------------------------------------=
