
     Program PWSCF v.6.4.1 starts on 15Jun2022 at 20:54:19 

     This program is part of the open-source Quantum ESPRESSO suite
     for quantum simulation of materials; please cite
         "P. Giannozzi et al., J. Phys.:Condens. Matter 21 395502 (2009);
         "P. Giannozzi et al., J. Phys.:Condens. Matter 29 465901 (2017);
          URL http://www.quantum-espresso.org", 
     in publications or presentations arising from this work. More details at
     http://www.quantum-espresso.org/quote

     Parallel version (MPI), running on    64 processors

     MPI processes distributed on     1 nodes
     K-points division:     npool     =       4
     R & G space division:  proc/nbgrp/npool/nimage =      16
     Waiting for input...
     Reading input from standard input
Warning: card &IONS ignored
Warning: card   UPSCALE           = 100.D0, ignored
Warning: card / ignored
Warning: card &CELL ignored
Warning: card   CELL_DYNAMICS     = 'BFGS' ignored
Warning: card   PRESS_CONV_THR    = 0.5D0 ignored
Warning: card   CELL_DOFREE = 'ALL' ignored
Warning: card / ignored

     Current dimensions of program PWSCF are:
     Max number of different atomic species (ntypx) = 10
     Max number of k-points (npk) =  40000
     Max angular momentum in pseudopotentials (lmaxx) =  3

     Subspace diagonalization in iterative solution of the eigenvalue problem:
     one sub-group per band group will be used
     scalapack distributed-memory algorithm (size of sub-group:  2*  2 procs)

 
     Parallelization info
     --------------------
     sticks:   dense  smooth     PW     G-vecs:    dense   smooth      PW
     Min          95      51     15                 5007     1949     339
     Max          99      52     16                 5011     1954     346
     Sum        1531     817    253                80137    31221    5517
 


     bravais-lattice index     =            0
     lattice parameter (alat)  =       6.0782  a.u.
     unit-cell volume          =     322.7844 (a.u.)^3
     number of atoms/cell      =            4
     number of atomic types    =            2
     number of electrons       =        32.00
     number of Kohn-Sham states=           16
     kinetic-energy cutoff     =      80.0000  Ry
     charge density cutoff     =     600.0000  Ry
     convergence threshold     =      1.0E-06
     mixing beta               =       0.5000
     number of iterations used =            8  plain     mixing
     Exchange-correlation      = SLA  PW   PSX  PSC ( 1  4 10  8 0 0)
     Using LIBXC version       =    4   3   4

     celldm(1)=   6.078176  celldm(2)=   0.000000  celldm(3)=   0.000000
     celldm(4)=   0.000000  celldm(5)=   0.000000  celldm(6)=   0.000000

     crystal axes: (cart. coord. in units of alat)
               a(1) = (   1.000000   0.000000   0.000000 )  
               a(2) = (  -0.500000   0.866025  -0.000000 )  
               a(3) = (   0.000000  -0.000000   1.659824 )  

     reciprocal axes: (cart. coord. in units 2 pi/alat)
               b(1) = (  1.000000  0.577350 -0.000000 )  
               b(2) = ( -0.000000  1.154701  0.000000 )  
               b(3) = ( -0.000000  0.000000  0.602473 )  


     PseudoPot. # 1 for Mg read from file:
     ./GBRV_PBEsol/mg_pbesol_v1.4.uspp.F.UPF
     MD5 check sum: 4059f37963cf5867752dbf5ab2400678
     Pseudo is Ultrasoft, Zval = 10.0
     Generated by new atomic code, or converted to UPF format
     Using radial grid of  821 points,  7 beta functions with: 
                l(1) =   0
                l(2) =   0
                l(3) =   0
                l(4) =   1
                l(5) =   1
                l(6) =   2
                l(7) =   2
     Q(r) pseudized with  8 coefficients,  rinner =    1.200   1.200   1.200
                                                       1.200   1.200

     PseudoPot. # 2 for O  read from file:
     ./GBRV_PBEsol/o_pbesol_v1.2.uspp.F.UPF
     MD5 check sum: 501638753501ef6325af9037351f7734
     Pseudo is Ultrasoft + core correction, Zval =  6.0
     Generated by new atomic code, or converted to UPF format
     Using radial grid of  737 points,  5 beta functions with: 
                l(1) =   0
                l(2) =   0
                l(3) =   1
                l(4) =   1
                l(5) =   2
     Q(r) pseudized with  8 coefficients,  rinner =    0.900   0.900   0.900
                                                       0.900   0.900

     atomic species   valence    mass     pseudopotential
        Mg            10.00    24.30500     Mg( 1.00)
        O              6.00    15.99900     O ( 1.00)

     No symmetry found


                                    s                        frac. trans.

      isym =  1     identity                                     

 cryst.   s( 1) = (     1          0          0      )
                  (     0          1          0      )
                  (     0          0          1      )

 cart.    s( 1) = (  1.0000000  0.0000000 -0.0000000 )
                  ( -0.0000000  1.0000000  0.0000000 )
                  ( -0.0000000 -0.0000000  1.0000000 )


   Cartesian axes

     site n.     atom                  positions (alat units)
         1           O   tau(   1) = (   0.5000002   0.2886754   0.0121929  )
         2           O   tau(   2) = (   0.0000002   0.5773492   0.8421046  )
         3           Mg  tau(   3) = (   0.5000002   0.2886745   1.0728340  )
         4           Mg  tau(   4) = (   0.0000001   0.5773507   1.9027458  )

   Crystallographic axes

     site n.     atom                  positions (cryst. coord.)
         1           O   tau(   1) = (  0.6666670  0.3333337  0.0073459  )
         2           O   tau(   2) = (  0.3333329  0.6666657  0.5073458  )
         3           Mg  tau(   3) = (  0.6666664  0.3333329  0.6463540  )
         4           Mg  tau(   4) = (  0.3333336  0.6666677  1.1463539  )

     number of k points=   260
                       cart. coord. in units 2pi/alat
        k(    1) = (   0.0000000   0.0000000   0.0000000), wk =   0.0039062
        k(    2) = (  -0.0000000   0.0000000   0.0753092), wk =   0.0078125
        k(    3) = (  -0.0000000   0.0000000   0.1506184), wk =   0.0078125
        k(    4) = (  -0.0000000   0.0000001   0.2259275), wk =   0.0078125
        k(    5) = (   0.0000000  -0.0000001  -0.3012367), wk =   0.0039062
        k(    6) = (  -0.0000000   0.1443376   0.0000000), wk =   0.0078125
        k(    7) = (  -0.0000000   0.1443376   0.0753092), wk =   0.0078125
        k(    8) = (  -0.0000000   0.1443376   0.1506184), wk =   0.0078125
        k(    9) = (  -0.0000000   0.1443376   0.2259276), wk =   0.0078125
        k(   10) = (   0.0000000   0.1443375  -0.3012367), wk =   0.0078125
        k(   11) = (   0.0000000   0.1443375  -0.2259275), wk =   0.0078125
        k(   12) = (   0.0000000   0.1443375  -0.1506183), wk =   0.0078125
        k(   13) = (   0.0000000   0.1443376  -0.0753092), wk =   0.0078125
        k(   14) = (  -0.0000000   0.2886752   0.0000001), wk =   0.0078125
        k(   15) = (  -0.0000000   0.2886752   0.0753092), wk =   0.0078125
        k(   16) = (  -0.0000000   0.2886752   0.1506184), wk =   0.0078125
        k(   17) = (  -0.0000000   0.2886752   0.2259276), wk =   0.0078125
        k(   18) = (   0.0000000   0.2886751  -0.3012367), wk =   0.0078125
        k(   19) = (   0.0000000   0.2886751  -0.2259275), wk =   0.0078125
        k(   20) = (   0.0000000   0.2886751  -0.1506183), wk =   0.0078125
        k(   21) = (   0.0000000   0.2886751  -0.0753091), wk =   0.0078125
        k(   22) = (  -0.0000000   0.4330127   0.0000001), wk =   0.0078125
        k(   23) = (  -0.0000000   0.4330128   0.0753093), wk =   0.0078125
        k(   24) = (  -0.0000000   0.4330128   0.1506185), wk =   0.0078125
        k(   25) = (  -0.0000001   0.4330128   0.2259276), wk =   0.0078125
        k(   26) = (   0.0000000   0.4330127  -0.3012366), wk =   0.0078125
        k(   27) = (   0.0000000   0.4330127  -0.2259275), wk =   0.0078125
        k(   28) = (   0.0000000   0.4330127  -0.1506183), wk =   0.0078125
        k(   29) = (  -0.0000000   0.4330127  -0.0753091), wk =   0.0078125
        k(   30) = (   0.0000000  -0.5773503  -0.0000001), wk =   0.0039062
        k(   31) = (   0.0000000  -0.5773503   0.0753091), wk =   0.0078125
        k(   32) = (  -0.0000000  -0.5773503   0.1506182), wk =   0.0078125
        k(   33) = (  -0.0000000  -0.5773503   0.2259274), wk =   0.0078125
        k(   34) = (   0.0000001  -0.5773504  -0.3012369), wk =   0.0039062
        k(   35) = (   0.1250000   0.0721688  -0.0000000), wk =   0.0078125
        k(   36) = (   0.1250000   0.0721688   0.0753092), wk =   0.0078125
        k(   37) = (   0.1250000   0.0721688   0.1506184), wk =   0.0078125
        k(   38) = (   0.1250000   0.0721688   0.2259275), wk =   0.0078125
        k(   39) = (   0.1250000   0.0721687  -0.3012367), wk =   0.0078125
        k(   40) = (   0.1250000   0.0721687  -0.2259276), wk =   0.0078125
        k(   41) = (   0.1250000   0.0721687  -0.1506184), wk =   0.0078125
        k(   42) = (   0.1250000   0.0721688  -0.0753092), wk =   0.0078125
        k(   43) = (   0.1250000   0.2165064   0.0000000), wk =   0.0078125
        k(   44) = (   0.1250000   0.2165064   0.0753092), wk =   0.0078125
        k(   45) = (   0.1250000   0.2165064   0.1506184), wk =   0.0078125
        k(   46) = (   0.1250000   0.2165064   0.2259276), wk =   0.0078125
        k(   47) = (   0.1250000   0.2165063  -0.3012367), wk =   0.0078125
        k(   48) = (   0.1250000   0.2165063  -0.2259275), wk =   0.0078125
        k(   49) = (   0.1250000   0.2165063  -0.1506183), wk =   0.0078125
        k(   50) = (   0.1250000   0.2165063  -0.0753092), wk =   0.0078125
        k(   51) = (   0.1250000   0.3608439   0.0000001), wk =   0.0078125
        k(   52) = (   0.1250000   0.3608440   0.0753092), wk =   0.0078125
        k(   53) = (   0.1250000   0.3608440   0.1506184), wk =   0.0078125
        k(   54) = (   0.1250000   0.3608440   0.2259276), wk =   0.0078125
        k(   55) = (   0.1250000   0.3608439  -0.3012367), wk =   0.0078125
        k(   56) = (   0.1250000   0.3608439  -0.2259275), wk =   0.0078125
        k(   57) = (   0.1250000   0.3608439  -0.1506183), wk =   0.0078125
        k(   58) = (   0.1250000   0.3608439  -0.0753091), wk =   0.0078125
        k(   59) = (   0.1250000   0.5051815   0.0000001), wk =   0.0078125
        k(   60) = (   0.1250000   0.5051815   0.0753093), wk =   0.0078125
        k(   61) = (   0.1250000   0.5051816   0.1506185), wk =   0.0078125
        k(   62) = (   0.1249999   0.5051816   0.2259276), wk =   0.0078125
        k(   63) = (   0.1250000   0.5051814  -0.3012366), wk =   0.0078125
        k(   64) = (   0.1250000   0.5051815  -0.2259275), wk =   0.0078125
        k(   65) = (   0.1250000   0.5051815  -0.1506183), wk =   0.0078125
        k(   66) = (   0.1250000   0.5051815  -0.0753091), wk =   0.0078125
        k(   67) = (   0.1250000  -0.5051815  -0.0000001), wk =   0.0078125
        k(   68) = (   0.1250000  -0.5051815   0.0753090), wk =   0.0078125
        k(   69) = (   0.1250000  -0.5051815   0.1506182), wk =   0.0078125
        k(   70) = (   0.1250000  -0.5051815   0.2259274), wk =   0.0078125
        k(   71) = (   0.1250001  -0.5051816  -0.3012369), wk =   0.0078125
        k(   72) = (   0.1250001  -0.5051816  -0.2259277), wk =   0.0078125
        k(   73) = (   0.1250000  -0.5051816  -0.1506185), wk =   0.0078125
        k(   74) = (   0.1250000  -0.5051816  -0.0753093), wk =   0.0078125
        k(   75) = (   0.1250000  -0.3608440  -0.0000001), wk =   0.0078125
        k(   76) = (   0.1250000  -0.3608439   0.0753091), wk =   0.0078125
        k(   77) = (   0.1250000  -0.3608439   0.1506183), wk =   0.0078125
        k(   78) = (   0.1250000  -0.3608439   0.2259274), wk =   0.0078125
        k(   79) = (   0.1250001  -0.3608440  -0.3012368), wk =   0.0078125
        k(   80) = (   0.1250000  -0.3608440  -0.2259277), wk =   0.0078125
        k(   81) = (   0.1250000  -0.3608440  -0.1506185), wk =   0.0078125
        k(   82) = (   0.1250000  -0.3608440  -0.0753093), wk =   0.0078125
        k(   83) = (   0.1250000  -0.2165064  -0.0000001), wk =   0.0078125
        k(   84) = (   0.1250000  -0.2165064   0.0753091), wk =   0.0078125
        k(   85) = (   0.1250000  -0.2165063   0.1506183), wk =   0.0078125
        k(   86) = (   0.1250000  -0.2165063   0.2259275), wk =   0.0078125
        k(   87) = (   0.1250001  -0.2165064  -0.3012368), wk =   0.0078125
        k(   88) = (   0.1250000  -0.2165064  -0.2259276), wk =   0.0078125
        k(   89) = (   0.1250000  -0.2165064  -0.1506184), wk =   0.0078125
        k(   90) = (   0.1250000  -0.2165064  -0.0753093), wk =   0.0078125
        k(   91) = (   0.1250000  -0.0721688  -0.0000000), wk =   0.0078125
        k(   92) = (   0.1250000  -0.0721688   0.0753091), wk =   0.0078125
        k(   93) = (   0.1250000  -0.0721688   0.1506183), wk =   0.0078125
        k(   94) = (   0.1250000  -0.0721687   0.2259275), wk =   0.0078125
        k(   95) = (   0.1250001  -0.0721689  -0.3012368), wk =   0.0078125
        k(   96) = (   0.1250000  -0.0721689  -0.2259276), wk =   0.0078125
        k(   97) = (   0.1250000  -0.0721688  -0.1506184), wk =   0.0078125
        k(   98) = (   0.1250000  -0.0721688  -0.0753092), wk =   0.0078125
        k(   99) = (   0.2500000   0.1443376  -0.0000000), wk =   0.0078125
        k(  100) = (   0.2500000   0.1443376   0.0753092), wk =   0.0078125
        k(  101) = (   0.2500000   0.1443376   0.1506184), wk =   0.0078125
        k(  102) = (   0.2500000   0.1443376   0.2259275), wk =   0.0078125
        k(  103) = (   0.2500000   0.1443375  -0.3012367), wk =   0.0078125
        k(  104) = (   0.2500000   0.1443375  -0.2259276), wk =   0.0078125
        k(  105) = (   0.2500000   0.1443375  -0.1506184), wk =   0.0078125
        k(  106) = (   0.2500000   0.1443376  -0.0753092), wk =   0.0078125
        k(  107) = (   0.2500000   0.2886751   0.0000000), wk =   0.0078125
        k(  108) = (   0.2500000   0.2886752   0.0753092), wk =   0.0078125
        k(  109) = (   0.2500000   0.2886752   0.1506184), wk =   0.0078125
        k(  110) = (   0.2500000   0.2886752   0.2259276), wk =   0.0078125
        k(  111) = (   0.2500000   0.2886751  -0.3012367), wk =   0.0078125
        k(  112) = (   0.2500000   0.2886751  -0.2259275), wk =   0.0078125
        k(  113) = (   0.2500000   0.2886751  -0.1506183), wk =   0.0078125
        k(  114) = (   0.2500000   0.2886751  -0.0753092), wk =   0.0078125
        k(  115) = (   0.2500000   0.4330127   0.0000001), wk =   0.0078125
        k(  116) = (   0.2500000   0.4330127   0.0753092), wk =   0.0078125
        k(  117) = (   0.2500000   0.4330128   0.1506184), wk =   0.0078125
        k(  118) = (   0.2499999   0.4330128   0.2259276), wk =   0.0078125
        k(  119) = (   0.2500000   0.4330127  -0.3012367), wk =   0.0078125
        k(  120) = (   0.2500000   0.4330127  -0.2259275), wk =   0.0078125
        k(  121) = (   0.2500000   0.4330127  -0.1506183), wk =   0.0078125
        k(  122) = (   0.2500000   0.4330127  -0.0753091), wk =   0.0078125
        k(  123) = (   0.2500000   0.5773503   0.0000001), wk =   0.0078125
        k(  124) = (   0.2500000   0.5773503   0.0753093), wk =   0.0078125
        k(  125) = (   0.2500000   0.5773503   0.1506185), wk =   0.0078125
        k(  126) = (   0.2499999   0.5773504   0.2259276), wk =   0.0078125
        k(  127) = (   0.2500000   0.5773502  -0.3012366), wk =   0.0078125
        k(  128) = (   0.2500000   0.5773503  -0.2259275), wk =   0.0078125
        k(  129) = (   0.2500000   0.5773503  -0.1506183), wk =   0.0078125
        k(  130) = (   0.2500000   0.5773503  -0.0753091), wk =   0.0078125
        k(  131) = (   0.2500000  -0.4330127  -0.0000001), wk =   0.0078125
        k(  132) = (   0.2500000  -0.4330127   0.0753090), wk =   0.0078125
        k(  133) = (   0.2500000  -0.4330127   0.1506182), wk =   0.0078125
        k(  134) = (   0.2500000  -0.4330127   0.2259274), wk =   0.0078125
        k(  135) = (   0.2500001  -0.4330128  -0.3012369), wk =   0.0078125
        k(  136) = (   0.2500001  -0.4330128  -0.2259277), wk =   0.0078125
        k(  137) = (   0.2500000  -0.4330128  -0.1506185), wk =   0.0078125
        k(  138) = (   0.2500000  -0.4330128  -0.0753093), wk =   0.0078125
        k(  139) = (   0.2500000  -0.2886752  -0.0000001), wk =   0.0078125
        k(  140) = (   0.2500000  -0.2886752   0.0753091), wk =   0.0078125
        k(  141) = (   0.2500000  -0.2886751   0.1506183), wk =   0.0078125
        k(  142) = (   0.2500000  -0.2886751   0.2259274), wk =   0.0078125
        k(  143) = (   0.2500001  -0.2886752  -0.3012368), wk =   0.0078125
        k(  144) = (   0.2500000  -0.2886752  -0.2259277), wk =   0.0078125
        k(  145) = (   0.2500000  -0.2886752  -0.1506185), wk =   0.0078125
        k(  146) = (   0.2500000  -0.2886752  -0.0753093), wk =   0.0078125
        k(  147) = (   0.2500000  -0.1443376  -0.0000001), wk =   0.0078125
        k(  148) = (   0.2500000  -0.1443376   0.0753091), wk =   0.0078125
        k(  149) = (   0.2500000  -0.1443376   0.1506183), wk =   0.0078125
        k(  150) = (   0.2500000  -0.1443375   0.2259275), wk =   0.0078125
        k(  151) = (   0.2500001  -0.1443377  -0.3012368), wk =   0.0078125
        k(  152) = (   0.2500000  -0.1443376  -0.2259276), wk =   0.0078125
        k(  153) = (   0.2500000  -0.1443376  -0.1506184), wk =   0.0078125
        k(  154) = (   0.2500000  -0.1443376  -0.0753093), wk =   0.0078125
        k(  155) = (   0.2500000  -0.0000000  -0.0000000), wk =   0.0078125
        k(  156) = (   0.2500000   0.0000000   0.0753091), wk =   0.0078125
        k(  157) = (   0.2500000   0.0000000   0.1506183), wk =   0.0078125
        k(  158) = (   0.2500000   0.0000000   0.2259275), wk =   0.0078125
        k(  159) = (   0.2500000  -0.0000001  -0.3012368), wk =   0.0078125
        k(  160) = (   0.2500000  -0.0000001  -0.2259276), wk =   0.0078125
        k(  161) = (   0.2500000  -0.0000000  -0.1506184), wk =   0.0078125
        k(  162) = (   0.2500000  -0.0000000  -0.0753092), wk =   0.0078125
        k(  163) = (   0.3750000   0.2165064  -0.0000000), wk =   0.0078125
        k(  164) = (   0.3750000   0.2165064   0.0753092), wk =   0.0078125
        k(  165) = (   0.3750000   0.2165064   0.1506184), wk =   0.0078125
        k(  166) = (   0.3750000   0.2165064   0.2259275), wk =   0.0078125
        k(  167) = (   0.3750000   0.2165063  -0.3012367), wk =   0.0078125
        k(  168) = (   0.3750000   0.2165063  -0.2259276), wk =   0.0078125
        k(  169) = (   0.3750000   0.2165063  -0.1506184), wk =   0.0078125
        k(  170) = (   0.3750000   0.2165063  -0.0753092), wk =   0.0078125
        k(  171) = (   0.3750000   0.3608439   0.0000000), wk =   0.0078125
        k(  172) = (   0.3750000   0.3608440   0.0753092), wk =   0.0078125
        k(  173) = (   0.3750000   0.3608440   0.1506184), wk =   0.0078125
        k(  174) = (   0.3750000   0.3608440   0.2259276), wk =   0.0078125
        k(  175) = (   0.3750000   0.3608439  -0.3012367), wk =   0.0078125
        k(  176) = (   0.3750000   0.3608439  -0.2259275), wk =   0.0078125
        k(  177) = (   0.3750000   0.3608439  -0.1506183), wk =   0.0078125
        k(  178) = (   0.3750000   0.3608439  -0.0753092), wk =   0.0078125
        k(  179) = (   0.3750000   0.5051815   0.0000001), wk =   0.0078125
        k(  180) = (   0.3750000   0.5051815   0.0753092), wk =   0.0078125
        k(  181) = (   0.3750000   0.5051816   0.1506184), wk =   0.0078125
        k(  182) = (   0.3749999   0.5051816   0.2259276), wk =   0.0078125
        k(  183) = (   0.3750000   0.5051814  -0.3012367), wk =   0.0078125
        k(  184) = (   0.3750000   0.5051815  -0.2259275), wk =   0.0078125
        k(  185) = (   0.3750000   0.5051815  -0.1506183), wk =   0.0078125
        k(  186) = (   0.3750000   0.5051815  -0.0753091), wk =   0.0078125
        k(  187) = (   0.3750000   0.6495191   0.0000001), wk =   0.0078125
        k(  188) = (   0.3750000   0.6495191   0.0753093), wk =   0.0078125
        k(  189) = (   0.3750000   0.6495191   0.1506185), wk =   0.0078125
        k(  190) = (   0.3749999   0.6495192   0.2259276), wk =   0.0078125
        k(  191) = (   0.3750000   0.6495190  -0.3012366), wk =   0.0078125
        k(  192) = (   0.3750000   0.6495190  -0.2259275), wk =   0.0078125
        k(  193) = (   0.3750000   0.6495191  -0.1506183), wk =   0.0078125
        k(  194) = (   0.3750000   0.6495191  -0.0753091), wk =   0.0078125
        k(  195) = (   0.3750000  -0.3608440  -0.0000001), wk =   0.0078125
        k(  196) = (   0.3750000  -0.3608439   0.0753090), wk =   0.0078125
        k(  197) = (   0.3750000  -0.3608439   0.1506182), wk =   0.0078125
        k(  198) = (   0.3750000  -0.3608439   0.2259274), wk =   0.0078125
        k(  199) = (   0.3750001  -0.3608440  -0.3012369), wk =   0.0078125
        k(  200) = (   0.3750000  -0.3608440  -0.2259277), wk =   0.0078125
        k(  201) = (   0.3750000  -0.3608440  -0.1506185), wk =   0.0078125
        k(  202) = (   0.3750000  -0.3608440  -0.0753093), wk =   0.0078125
        k(  203) = (   0.3750000  -0.2165064  -0.0000001), wk =   0.0078125
        k(  204) = (   0.3750000  -0.2165064   0.0753091), wk =   0.0078125
        k(  205) = (   0.3750000  -0.2165063   0.1506183), wk =   0.0078125
        k(  206) = (   0.3750000  -0.2165063   0.2259274), wk =   0.0078125
        k(  207) = (   0.3750001  -0.2165065  -0.3012368), wk =   0.0078125
        k(  208) = (   0.3750000  -0.2165064  -0.2259277), wk =   0.0078125
        k(  209) = (   0.3750000  -0.2165064  -0.1506185), wk =   0.0078125
        k(  210) = (   0.3750000  -0.2165064  -0.0753093), wk =   0.0078125
        k(  211) = (   0.3750000  -0.0721688  -0.0000001), wk =   0.0078125
        k(  212) = (   0.3750000  -0.0721688   0.0753091), wk =   0.0078125
        k(  213) = (   0.3750000  -0.0721688   0.1506183), wk =   0.0078125
        k(  214) = (   0.3750000  -0.0721687   0.2259275), wk =   0.0078125
        k(  215) = (   0.3750001  -0.0721689  -0.3012368), wk =   0.0078125
        k(  216) = (   0.3750000  -0.0721689  -0.2259276), wk =   0.0078125
        k(  217) = (   0.3750000  -0.0721688  -0.1506184), wk =   0.0078125
        k(  218) = (   0.3750000  -0.0721688  -0.0753093), wk =   0.0078125
        k(  219) = (   0.3750000   0.0721688  -0.0000000), wk =   0.0078125
        k(  220) = (   0.3750000   0.0721688   0.0753091), wk =   0.0078125
        k(  221) = (   0.3750000   0.0721688   0.1506183), wk =   0.0078125
        k(  222) = (   0.3750000   0.0721688   0.2259275), wk =   0.0078125
        k(  223) = (   0.3750000   0.0721687  -0.3012368), wk =   0.0078125
        k(  224) = (   0.3750000   0.0721687  -0.2259276), wk =   0.0078125
        k(  225) = (   0.3750000   0.0721687  -0.1506184), wk =   0.0078125
        k(  226) = (   0.3750000   0.0721688  -0.0753092), wk =   0.0078125
        k(  227) = (  -0.5000000  -0.2886751   0.0000000), wk =   0.0039062
        k(  228) = (  -0.5000000  -0.2886751   0.0753092), wk =   0.0078125
        k(  229) = (  -0.5000000  -0.2886751   0.1506184), wk =   0.0078125
        k(  230) = (  -0.5000000  -0.2886751   0.2259276), wk =   0.0078125
        k(  231) = (  -0.4999999  -0.2886752  -0.3012367), wk =   0.0039062
        k(  232) = (  -0.5000000  -0.1443376   0.0000000), wk =   0.0078125
        k(  233) = (  -0.5000000  -0.1443375   0.0753092), wk =   0.0078125
        k(  234) = (  -0.5000000  -0.1443375   0.1506184), wk =   0.0078125
        k(  235) = (  -0.5000000  -0.1443375   0.2259276), wk =   0.0078125
        k(  236) = (  -0.4999999  -0.1443376  -0.3012367), wk =   0.0078125
        k(  237) = (  -0.5000000  -0.1443376  -0.2259275), wk =   0.0078125
        k(  238) = (  -0.5000000  -0.1443376  -0.1506183), wk =   0.0078125
        k(  239) = (  -0.5000000  -0.1443376  -0.0753091), wk =   0.0078125
        k(  240) = (  -0.5000000   0.0000000   0.0000001), wk =   0.0078125
        k(  241) = (  -0.5000000   0.0000000   0.0753093), wk =   0.0078125
        k(  242) = (  -0.5000000   0.0000001   0.1506184), wk =   0.0078125
        k(  243) = (  -0.5000000   0.0000001   0.2259276), wk =   0.0078125
        k(  244) = (  -0.5000000  -0.0000001  -0.3012367), wk =   0.0078125
        k(  245) = (  -0.5000000  -0.0000000  -0.2259275), wk =   0.0078125
        k(  246) = (  -0.5000000  -0.0000000  -0.1506183), wk =   0.0078125
        k(  247) = (  -0.5000000   0.0000000  -0.0753091), wk =   0.0078125
        k(  248) = (  -0.5000000   0.1443376   0.0000001), wk =   0.0078125
        k(  249) = (  -0.5000000   0.1443376   0.0753093), wk =   0.0078125
        k(  250) = (  -0.5000000   0.1443376   0.1506185), wk =   0.0078125
        k(  251) = (  -0.5000000   0.1443377   0.2259277), wk =   0.0078125
        k(  252) = (  -0.5000000   0.1443375  -0.3012366), wk =   0.0078125
        k(  253) = (  -0.5000000   0.1443375  -0.2259274), wk =   0.0078125
        k(  254) = (  -0.5000000   0.1443376  -0.1506183), wk =   0.0078125
        k(  255) = (  -0.5000000   0.1443376  -0.0753091), wk =   0.0078125
        k(  256) = (  -0.5000000  -0.8660255  -0.0000001), wk =   0.0039062
        k(  257) = (  -0.5000000  -0.8660254   0.0753091), wk =   0.0078125
        k(  258) = (  -0.5000000  -0.8660254   0.1506182), wk =   0.0078125
        k(  259) = (  -0.5000000  -0.8660254   0.2259274), wk =   0.0078125
        k(  260) = (  -0.4999999  -0.8660255  -0.3012369), wk =   0.0039062

                       cryst. coord.
        k(    1) = (   0.0000000   0.0000000   0.0000000), wk =   0.0039062
        k(    2) = (  -0.0000000  -0.0000000   0.1250000), wk =   0.0078125
        k(    3) = (  -0.0000000  -0.0000000   0.2500000), wk =   0.0078125
        k(    4) = (  -0.0000000  -0.0000000   0.3750000), wk =   0.0078125
        k(    5) = (   0.0000000   0.0000000  -0.5000000), wk =   0.0039062
        k(    6) = (  -0.0000000   0.1250000   0.0000000), wk =   0.0078125
        k(    7) = (  -0.0000000   0.1250000   0.1250000), wk =   0.0078125
        k(    8) = (   0.0000000   0.1250000   0.2500000), wk =   0.0078125
        k(    9) = (  -0.0000000   0.1250000   0.3750000), wk =   0.0078125
        k(   10) = (  -0.0000000   0.1250000  -0.5000000), wk =   0.0078125
        k(   11) = (  -0.0000000   0.1250000  -0.3750000), wk =   0.0078125
        k(   12) = (   0.0000000   0.1250000  -0.2500000), wk =   0.0078125
        k(   13) = (   0.0000000   0.1250000  -0.1250000), wk =   0.0078125
        k(   14) = (  -0.0000000   0.2500000   0.0000000), wk =   0.0078125
        k(   15) = (  -0.0000000   0.2500000   0.1250000), wk =   0.0078125
        k(   16) = (  -0.0000000   0.2500000   0.2500000), wk =   0.0078125
        k(   17) = (  -0.0000000   0.2500000   0.3750000), wk =   0.0078125
        k(   18) = (   0.0000000   0.2500000  -0.5000000), wk =   0.0078125
        k(   19) = (   0.0000000   0.2500000  -0.3750000), wk =   0.0078125
        k(   20) = (   0.0000000   0.2500000  -0.2500000), wk =   0.0078125
        k(   21) = (  -0.0000000   0.2500000  -0.1250000), wk =   0.0078125
        k(   22) = (  -0.0000000   0.3750000   0.0000000), wk =   0.0078125
        k(   23) = (  -0.0000000   0.3750000   0.1250000), wk =   0.0078125
        k(   24) = (  -0.0000000   0.3750000   0.2500000), wk =   0.0078125
        k(   25) = (  -0.0000000   0.3750000   0.3750000), wk =   0.0078125
        k(   26) = (  -0.0000000   0.3750000  -0.5000000), wk =   0.0078125
        k(   27) = (  -0.0000000   0.3750000  -0.3750000), wk =   0.0078125
        k(   28) = (  -0.0000000   0.3750000  -0.2500000), wk =   0.0078125
        k(   29) = (  -0.0000000   0.3750000  -0.1250000), wk =   0.0078125
        k(   30) = (   0.0000000  -0.5000000  -0.0000000), wk =   0.0039062
        k(   31) = (   0.0000000  -0.5000000   0.1250000), wk =   0.0078125
        k(   32) = (   0.0000000  -0.5000000   0.2500000), wk =   0.0078125
        k(   33) = (   0.0000000  -0.5000000   0.3750000), wk =   0.0078125
        k(   34) = (   0.0000000  -0.5000000  -0.5000000), wk =   0.0039062
        k(   35) = (   0.1250000  -0.0000000   0.0000000), wk =   0.0078125
        k(   36) = (   0.1250000   0.0000000   0.1250000), wk =   0.0078125
        k(   37) = (   0.1250000   0.0000000   0.2500000), wk =   0.0078125
        k(   38) = (   0.1250000  -0.0000000   0.3750000), wk =   0.0078125
        k(   39) = (   0.1250000   0.0000000  -0.5000000), wk =   0.0078125
        k(   40) = (   0.1250000  -0.0000000  -0.3750000), wk =   0.0078125
        k(   41) = (   0.1250000  -0.0000000  -0.2500000), wk =   0.0078125
        k(   42) = (   0.1250000  -0.0000000  -0.1250000), wk =   0.0078125
        k(   43) = (   0.1250000   0.1250000   0.0000000), wk =   0.0078125
        k(   44) = (   0.1250000   0.1250000   0.1250000), wk =   0.0078125
        k(   45) = (   0.1250000   0.1250000   0.2500000), wk =   0.0078125
        k(   46) = (   0.1250000   0.1250000   0.3750000), wk =   0.0078125
        k(   47) = (   0.1250000   0.1250000  -0.5000000), wk =   0.0078125
        k(   48) = (   0.1250000   0.1250000  -0.3750000), wk =   0.0078125
        k(   49) = (   0.1250000   0.1250000  -0.2500000), wk =   0.0078125
        k(   50) = (   0.1250000   0.1250000  -0.1250000), wk =   0.0078125
        k(   51) = (   0.1250000   0.2500000   0.0000000), wk =   0.0078125
        k(   52) = (   0.1250000   0.2500000   0.1250000), wk =   0.0078125
        k(   53) = (   0.1250000   0.2500000   0.2500000), wk =   0.0078125
        k(   54) = (   0.1250000   0.2500000   0.3750000), wk =   0.0078125
        k(   55) = (   0.1250000   0.2500000  -0.5000000), wk =   0.0078125
        k(   56) = (   0.1250000   0.2500000  -0.3750000), wk =   0.0078125
        k(   57) = (   0.1250000   0.2500000  -0.2500000), wk =   0.0078125
        k(   58) = (   0.1250000   0.2500000  -0.1250000), wk =   0.0078125
        k(   59) = (   0.1250000   0.3750000   0.0000000), wk =   0.0078125
        k(   60) = (   0.1250000   0.3750000   0.1250000), wk =   0.0078125
        k(   61) = (   0.1250000   0.3750000   0.2500000), wk =   0.0078125
        k(   62) = (   0.1250000   0.3750000   0.3750000), wk =   0.0078125
        k(   63) = (   0.1250000   0.3750000  -0.5000000), wk =   0.0078125
        k(   64) = (   0.1250000   0.3750000  -0.3750000), wk =   0.0078125
        k(   65) = (   0.1250000   0.3750000  -0.2500000), wk =   0.0078125
        k(   66) = (   0.1250000   0.3750000  -0.1250000), wk =   0.0078125
        k(   67) = (   0.1250000  -0.5000000  -0.0000000), wk =   0.0078125
        k(   68) = (   0.1250000  -0.5000000   0.1250000), wk =   0.0078125
        k(   69) = (   0.1250000  -0.5000000   0.2500000), wk =   0.0078125
        k(   70) = (   0.1250000  -0.5000000   0.3750000), wk =   0.0078125
        k(   71) = (   0.1250000  -0.5000000  -0.5000000), wk =   0.0078125
        k(   72) = (   0.1250000  -0.5000000  -0.3750000), wk =   0.0078125
        k(   73) = (   0.1250000  -0.5000000  -0.2500000), wk =   0.0078125
        k(   74) = (   0.1250000  -0.5000000  -0.1250000), wk =   0.0078125
        k(   75) = (   0.1250000  -0.3750000  -0.0000000), wk =   0.0078125
        k(   76) = (   0.1250000  -0.3750000   0.1250000), wk =   0.0078125
        k(   77) = (   0.1250000  -0.3750000   0.2500000), wk =   0.0078125
        k(   78) = (   0.1250000  -0.3750000   0.3750000), wk =   0.0078125
        k(   79) = (   0.1250000  -0.3750000  -0.5000000), wk =   0.0078125
        k(   80) = (   0.1250000  -0.3750000  -0.3750000), wk =   0.0078125
        k(   81) = (   0.1250000  -0.3750000  -0.2500000), wk =   0.0078125
        k(   82) = (   0.1250000  -0.3750000  -0.1250000), wk =   0.0078125
        k(   83) = (   0.1250000  -0.2500000  -0.0000000), wk =   0.0078125
        k(   84) = (   0.1250000  -0.2500000   0.1250000), wk =   0.0078125
        k(   85) = (   0.1250000  -0.2500000   0.2500000), wk =   0.0078125
        k(   86) = (   0.1250000  -0.2500000   0.3750000), wk =   0.0078125
        k(   87) = (   0.1250000  -0.2500000  -0.5000000), wk =   0.0078125
        k(   88) = (   0.1250000  -0.2500000  -0.3750000), wk =   0.0078125
        k(   89) = (   0.1250000  -0.2500000  -0.2500000), wk =   0.0078125
        k(   90) = (   0.1250000  -0.2500000  -0.1250000), wk =   0.0078125
        k(   91) = (   0.1250000  -0.1250000  -0.0000000), wk =   0.0078125
        k(   92) = (   0.1250000  -0.1250000   0.1250000), wk =   0.0078125
        k(   93) = (   0.1250000  -0.1250000   0.2500000), wk =   0.0078125
        k(   94) = (   0.1250000  -0.1250000   0.3750000), wk =   0.0078125
        k(   95) = (   0.1250000  -0.1250000  -0.5000000), wk =   0.0078125
        k(   96) = (   0.1250000  -0.1250000  -0.3750000), wk =   0.0078125
        k(   97) = (   0.1250000  -0.1250000  -0.2500000), wk =   0.0078125
        k(   98) = (   0.1250000  -0.1250000  -0.1250000), wk =   0.0078125
        k(   99) = (   0.2500000  -0.0000000   0.0000000), wk =   0.0078125
        k(  100) = (   0.2500000  -0.0000000   0.1250000), wk =   0.0078125
        k(  101) = (   0.2500000   0.0000000   0.2500000), wk =   0.0078125
        k(  102) = (   0.2500000   0.0000000   0.3750000), wk =   0.0078125
        k(  103) = (   0.2500000  -0.0000000  -0.5000000), wk =   0.0078125
        k(  104) = (   0.2500000  -0.0000000  -0.3750000), wk =   0.0078125
        k(  105) = (   0.2500000  -0.0000000  -0.2500000), wk =   0.0078125
        k(  106) = (   0.2500000  -0.0000000  -0.1250000), wk =   0.0078125
        k(  107) = (   0.2500000   0.1250000   0.0000000), wk =   0.0078125
        k(  108) = (   0.2500000   0.1250000   0.1250000), wk =   0.0078125
        k(  109) = (   0.2500000   0.1250000   0.2500000), wk =   0.0078125
        k(  110) = (   0.2500000   0.1250000   0.3750000), wk =   0.0078125
        k(  111) = (   0.2500000   0.1250000  -0.5000000), wk =   0.0078125
        k(  112) = (   0.2500000   0.1250000  -0.3750000), wk =   0.0078125
        k(  113) = (   0.2500000   0.1250000  -0.2500000), wk =   0.0078125
        k(  114) = (   0.2500000   0.1250000  -0.1250000), wk =   0.0078125
        k(  115) = (   0.2500000   0.2500000   0.0000000), wk =   0.0078125
        k(  116) = (   0.2500000   0.2500000   0.1250000), wk =   0.0078125
        k(  117) = (   0.2500000   0.2500000   0.2500000), wk =   0.0078125
        k(  118) = (   0.2500000   0.2500000   0.3750000), wk =   0.0078125
        k(  119) = (   0.2500000   0.2500000  -0.5000000), wk =   0.0078125
        k(  120) = (   0.2500000   0.2500000  -0.3750000), wk =   0.0078125
        k(  121) = (   0.2500000   0.2500000  -0.2500000), wk =   0.0078125
        k(  122) = (   0.2500000   0.2500000  -0.1250000), wk =   0.0078125
        k(  123) = (   0.2500000   0.3750000   0.0000000), wk =   0.0078125
        k(  124) = (   0.2500000   0.3750000   0.1250000), wk =   0.0078125
        k(  125) = (   0.2500000   0.3750000   0.2500000), wk =   0.0078125
        k(  126) = (   0.2500000   0.3750000   0.3750000), wk =   0.0078125
        k(  127) = (   0.2500000   0.3750000  -0.5000000), wk =   0.0078125
        k(  128) = (   0.2500000   0.3750000  -0.3750000), wk =   0.0078125
        k(  129) = (   0.2500000   0.3750000  -0.2500000), wk =   0.0078125
        k(  130) = (   0.2500000   0.3750000  -0.1250000), wk =   0.0078125
        k(  131) = (   0.2500000  -0.5000000  -0.0000000), wk =   0.0078125
        k(  132) = (   0.2500000  -0.5000000   0.1250000), wk =   0.0078125
        k(  133) = (   0.2500000  -0.5000000   0.2500000), wk =   0.0078125
        k(  134) = (   0.2500000  -0.5000000   0.3750000), wk =   0.0078125
        k(  135) = (   0.2500000  -0.5000000  -0.5000000), wk =   0.0078125
        k(  136) = (   0.2500000  -0.5000000  -0.3750000), wk =   0.0078125
        k(  137) = (   0.2500000  -0.5000000  -0.2500000), wk =   0.0078125
        k(  138) = (   0.2500000  -0.5000000  -0.1250000), wk =   0.0078125
        k(  139) = (   0.2500000  -0.3750000  -0.0000000), wk =   0.0078125
        k(  140) = (   0.2500000  -0.3750000   0.1250000), wk =   0.0078125
        k(  141) = (   0.2500000  -0.3750000   0.2500000), wk =   0.0078125
        k(  142) = (   0.2500000  -0.3750000   0.3750000), wk =   0.0078125
        k(  143) = (   0.2500000  -0.3750000  -0.5000000), wk =   0.0078125
        k(  144) = (   0.2500000  -0.3750000  -0.3750000), wk =   0.0078125
        k(  145) = (   0.2500000  -0.3750000  -0.2500000), wk =   0.0078125
        k(  146) = (   0.2500000  -0.3750000  -0.1250000), wk =   0.0078125
        k(  147) = (   0.2500000  -0.2500000  -0.0000000), wk =   0.0078125
        k(  148) = (   0.2500000  -0.2500000   0.1250000), wk =   0.0078125
        k(  149) = (   0.2500000  -0.2500000   0.2500000), wk =   0.0078125
        k(  150) = (   0.2500000  -0.2500000   0.3750000), wk =   0.0078125
        k(  151) = (   0.2500000  -0.2500000  -0.5000000), wk =   0.0078125
        k(  152) = (   0.2500000  -0.2500000  -0.3750000), wk =   0.0078125
        k(  153) = (   0.2500000  -0.2500000  -0.2500000), wk =   0.0078125
        k(  154) = (   0.2500000  -0.2500000  -0.1250000), wk =   0.0078125
        k(  155) = (   0.2500000  -0.1250000  -0.0000000), wk =   0.0078125
        k(  156) = (   0.2500000  -0.1250000   0.1250000), wk =   0.0078125
        k(  157) = (   0.2500000  -0.1250000   0.2500000), wk =   0.0078125
        k(  158) = (   0.2500000  -0.1250000   0.3750000), wk =   0.0078125
        k(  159) = (   0.2500000  -0.1250000  -0.5000000), wk =   0.0078125
        k(  160) = (   0.2500000  -0.1250000  -0.3750000), wk =   0.0078125
        k(  161) = (   0.2500000  -0.1250000  -0.2500000), wk =   0.0078125
        k(  162) = (   0.2500000  -0.1250000  -0.1250000), wk =   0.0078125
        k(  163) = (   0.3750000  -0.0000000   0.0000000), wk =   0.0078125
        k(  164) = (   0.3750000  -0.0000000   0.1250000), wk =   0.0078125
        k(  165) = (   0.3750000  -0.0000000   0.2500000), wk =   0.0078125
        k(  166) = (   0.3750000  -0.0000000   0.3750000), wk =   0.0078125
        k(  167) = (   0.3750000  -0.0000000  -0.5000000), wk =   0.0078125
        k(  168) = (   0.3750000  -0.0000000  -0.3750000), wk =   0.0078125
        k(  169) = (   0.3750000  -0.0000000  -0.2500000), wk =   0.0078125
        k(  170) = (   0.3750000  -0.0000000  -0.1250000), wk =   0.0078125
        k(  171) = (   0.3750000   0.1250000   0.0000000), wk =   0.0078125
        k(  172) = (   0.3750000   0.1250000   0.1250000), wk =   0.0078125
        k(  173) = (   0.3750000   0.1250000   0.2500000), wk =   0.0078125
        k(  174) = (   0.3750000   0.1250000   0.3750000), wk =   0.0078125
        k(  175) = (   0.3750000   0.1250000  -0.5000000), wk =   0.0078125
        k(  176) = (   0.3750000   0.1250000  -0.3750000), wk =   0.0078125
        k(  177) = (   0.3750000   0.1250000  -0.2500000), wk =   0.0078125
        k(  178) = (   0.3750000   0.1250000  -0.1250000), wk =   0.0078125
        k(  179) = (   0.3750000   0.2500000   0.0000000), wk =   0.0078125
        k(  180) = (   0.3750000   0.2500000   0.1250000), wk =   0.0078125
        k(  181) = (   0.3750000   0.2500000   0.2500000), wk =   0.0078125
        k(  182) = (   0.3750000   0.2500000   0.3750000), wk =   0.0078125
        k(  183) = (   0.3750000   0.2500000  -0.5000000), wk =   0.0078125
        k(  184) = (   0.3750000   0.2500000  -0.3750000), wk =   0.0078125
        k(  185) = (   0.3750000   0.2500000  -0.2500000), wk =   0.0078125
        k(  186) = (   0.3750000   0.2500000  -0.1250000), wk =   0.0078125
        k(  187) = (   0.3750000   0.3750000   0.0000000), wk =   0.0078125
        k(  188) = (   0.3750000   0.3750000   0.1250000), wk =   0.0078125
        k(  189) = (   0.3750000   0.3750000   0.2500000), wk =   0.0078125
        k(  190) = (   0.3750000   0.3750000   0.3750000), wk =   0.0078125
        k(  191) = (   0.3750000   0.3750000  -0.5000000), wk =   0.0078125
        k(  192) = (   0.3750000   0.3750000  -0.3750000), wk =   0.0078125
        k(  193) = (   0.3750000   0.3750000  -0.2500000), wk =   0.0078125
        k(  194) = (   0.3750000   0.3750000  -0.1250000), wk =   0.0078125
        k(  195) = (   0.3750000  -0.5000000  -0.0000000), wk =   0.0078125
        k(  196) = (   0.3750000  -0.5000000   0.1250000), wk =   0.0078125
        k(  197) = (   0.3750000  -0.5000000   0.2500000), wk =   0.0078125
        k(  198) = (   0.3750000  -0.5000000   0.3750000), wk =   0.0078125
        k(  199) = (   0.3750000  -0.5000000  -0.5000000), wk =   0.0078125
        k(  200) = (   0.3750000  -0.5000000  -0.3750000), wk =   0.0078125
        k(  201) = (   0.3750000  -0.5000000  -0.2500000), wk =   0.0078125
        k(  202) = (   0.3750000  -0.5000000  -0.1250000), wk =   0.0078125
        k(  203) = (   0.3750000  -0.3750000  -0.0000000), wk =   0.0078125
        k(  204) = (   0.3750000  -0.3750000   0.1250000), wk =   0.0078125
        k(  205) = (   0.3750000  -0.3750000   0.2500000), wk =   0.0078125
        k(  206) = (   0.3750000  -0.3750000   0.3750000), wk =   0.0078125
        k(  207) = (   0.3750000  -0.3750000  -0.5000000), wk =   0.0078125
        k(  208) = (   0.3750000  -0.3750000  -0.3750000), wk =   0.0078125
        k(  209) = (   0.3750000  -0.3750000  -0.2500000), wk =   0.0078125
        k(  210) = (   0.3750000  -0.3750000  -0.1250000), wk =   0.0078125
        k(  211) = (   0.3750000  -0.2500000  -0.0000000), wk =   0.0078125
        k(  212) = (   0.3750000  -0.2500000   0.1250000), wk =   0.0078125
        k(  213) = (   0.3750000  -0.2500000   0.2500000), wk =   0.0078125
        k(  214) = (   0.3750000  -0.2500000   0.3750000), wk =   0.0078125
        k(  215) = (   0.3750000  -0.2500000  -0.5000000), wk =   0.0078125
        k(  216) = (   0.3750000  -0.2500000  -0.3750000), wk =   0.0078125
        k(  217) = (   0.3750000  -0.2500000  -0.2500000), wk =   0.0078125
        k(  218) = (   0.3750000  -0.2500000  -0.1250000), wk =   0.0078125
        k(  219) = (   0.3750000  -0.1250000  -0.0000000), wk =   0.0078125
        k(  220) = (   0.3750000  -0.1250000   0.1250000), wk =   0.0078125
        k(  221) = (   0.3750000  -0.1250000   0.2500000), wk =   0.0078125
        k(  222) = (   0.3750000  -0.1250000   0.3750000), wk =   0.0078125
        k(  223) = (   0.3750000  -0.1250000  -0.5000000), wk =   0.0078125
        k(  224) = (   0.3750000  -0.1250000  -0.3750000), wk =   0.0078125
        k(  225) = (   0.3750000  -0.1250000  -0.2500000), wk =   0.0078125
        k(  226) = (   0.3750000  -0.1250000  -0.1250000), wk =   0.0078125
        k(  227) = (  -0.5000000   0.0000000  -0.0000000), wk =   0.0039062
        k(  228) = (  -0.5000000  -0.0000000   0.1250000), wk =   0.0078125
        k(  229) = (  -0.5000000   0.0000000   0.2500000), wk =   0.0078125
        k(  230) = (  -0.5000000   0.0000000   0.3750000), wk =   0.0078125
        k(  231) = (  -0.5000000  -0.0000000  -0.5000000), wk =   0.0039062
        k(  232) = (  -0.5000000   0.1250000  -0.0000000), wk =   0.0078125
        k(  233) = (  -0.5000000   0.1250000   0.1250000), wk =   0.0078125
        k(  234) = (  -0.5000000   0.1250000   0.2500000), wk =   0.0078125
        k(  235) = (  -0.5000000   0.1250000   0.3750000), wk =   0.0078125
        k(  236) = (  -0.5000000   0.1250000  -0.5000000), wk =   0.0078125
        k(  237) = (  -0.5000000   0.1250000  -0.3750000), wk =   0.0078125
        k(  238) = (  -0.5000000   0.1250000  -0.2500000), wk =   0.0078125
        k(  239) = (  -0.5000000   0.1250000  -0.1250000), wk =   0.0078125
        k(  240) = (  -0.5000000   0.2500000   0.0000000), wk =   0.0078125
        k(  241) = (  -0.5000000   0.2500000   0.1250000), wk =   0.0078125
        k(  242) = (  -0.5000000   0.2500000   0.2500000), wk =   0.0078125
        k(  243) = (  -0.5000000   0.2500000   0.3750000), wk =   0.0078125
        k(  244) = (  -0.5000000   0.2500000  -0.5000000), wk =   0.0078125
        k(  245) = (  -0.5000000   0.2500000  -0.3750000), wk =   0.0078125
        k(  246) = (  -0.5000000   0.2500000  -0.2500000), wk =   0.0078125
        k(  247) = (  -0.5000000   0.2500000  -0.1250000), wk =   0.0078125
        k(  248) = (  -0.5000000   0.3750000   0.0000000), wk =   0.0078125
        k(  249) = (  -0.5000000   0.3750000   0.1250000), wk =   0.0078125
        k(  250) = (  -0.5000000   0.3750000   0.2500000), wk =   0.0078125
        k(  251) = (  -0.5000000   0.3750000   0.3750000), wk =   0.0078125
        k(  252) = (  -0.5000000   0.3750000  -0.5000000), wk =   0.0078125
        k(  253) = (  -0.5000000   0.3750000  -0.3750000), wk =   0.0078125
        k(  254) = (  -0.5000000   0.3750000  -0.2500000), wk =   0.0078125
        k(  255) = (  -0.5000000   0.3750000  -0.1250000), wk =   0.0078125
        k(  256) = (  -0.5000000  -0.5000000  -0.0000000), wk =   0.0039062
        k(  257) = (  -0.5000000  -0.5000000   0.1250000), wk =   0.0078125
        k(  258) = (  -0.5000000  -0.5000000   0.2500000), wk =   0.0078125
        k(  259) = (  -0.5000000  -0.5000000   0.3750000), wk =   0.0078125
        k(  260) = (  -0.5000000  -0.5000000  -0.5000000), wk =   0.0039062

     Dense  grid:    80137 G-vectors     FFT dimensions: (  48,  48,  80)

     Smooth grid:    31221 G-vectors     FFT dimensions: (  36,  36,  60)

     Dynamical RAM for                 wfc:       0.06 MB

     Dynamical RAM for     wfc (w. buffer):       3.92 MB

     Dynamical RAM for           str. fact:       0.15 MB

     Dynamical RAM for           local pot:       0.00 MB

     Dynamical RAM for          nlocal pot:       0.24 MB

     Dynamical RAM for                qrad:       5.07 MB

     Dynamical RAM for          rho,v,vnew:       0.49 MB

     Dynamical RAM for               rhoin:       0.16 MB

     Dynamical RAM for            rho*nmix:       1.22 MB

     Dynamical RAM for           G-vectors:       0.30 MB

     Dynamical RAM for          h,s,v(r/c):       0.05 MB

     Dynamical RAM for          <psi|beta>:       0.02 MB

     Dynamical RAM for                 psi:       0.24 MB

     Dynamical RAM for                hpsi:       0.24 MB

     Dynamical RAM for                spsi:       0.24 MB

     Dynamical RAM for      wfcinit/wfcrot:       0.14 MB

     Dynamical RAM for           addusdens:       4.01 MB

     Dynamical RAM for          addusforce:       4.16 MB

     Dynamical RAM for         addusstress:       4.23 MB

     Estimated static dynamical RAM per process >      12.23 MB

     Estimated max dynamical RAM per process >      16.46 MB

     Estimated total dynamical RAM >       1.03 GB

     Check: negative core charge=   -0.000003

     Initial potential from superposition of free atoms

     starting charge   31.39954, renormalised to   32.00000
     Starting wfcs are   18 randomized atomic wfcs

     total cpu time spent up to now is        1.6 secs

     Self-consistent Calculation

     iteration #  1     ecut=    80.00 Ry     beta= 0.50
     Davidson diagonalization with overlap
     ethr =  1.00E-02,  avg # of iterations =  2.0

     total cpu time spent up to now is        2.3 secs

     total energy              =    -314.88245808 Ry
     Harris-Foulkes estimate   =    -315.45568463 Ry
     estimated scf accuracy    <       0.90704247 Ry

     iteration #  2     ecut=    80.00 Ry     beta= 0.50
     Davidson diagonalization with overlap
     ethr =  2.83E-03,  avg # of iterations =  3.0

     total cpu time spent up to now is        3.2 secs

     total energy              =    -315.12458387 Ry
     Harris-Foulkes estimate   =    -315.24182545 Ry
     estimated scf accuracy    <       0.27119191 Ry

     iteration #  3     ecut=    80.00 Ry     beta= 0.50
     Davidson diagonalization with overlap
     ethr =  8.47E-04,  avg # of iterations =  2.0

     total cpu time spent up to now is        3.9 secs

     total energy              =    -315.17111224 Ry
     Harris-Foulkes estimate   =    -315.17407703 Ry
     estimated scf accuracy    <       0.00986143 Ry

     iteration #  4     ecut=    80.00 Ry     beta= 0.50
     Davidson diagonalization with overlap
     ethr =  3.08E-05,  avg # of iterations =  2.0

     total cpu time spent up to now is        4.6 secs

     total energy              =    -315.17174655 Ry
     Harris-Foulkes estimate   =    -315.17177262 Ry
     estimated scf accuracy    <       0.00051417 Ry

     iteration #  5     ecut=    80.00 Ry     beta= 0.50
     Davidson diagonalization with overlap
     ethr =  1.61E-06,  avg # of iterations =  1.9

     total cpu time spent up to now is        5.3 secs

     total energy              =    -315.17180255 Ry
     Harris-Foulkes estimate   =    -315.17180298 Ry
     estimated scf accuracy    <       0.00002123 Ry

     iteration #  6     ecut=    80.00 Ry     beta= 0.50
     Davidson diagonalization with overlap
     ethr =  6.64E-08,  avg # of iterations =  2.3

     total cpu time spent up to now is        6.1 secs

     End of self-consistent calculation

          k = 0.0000 0.0000 0.0000 (  3887 PWs)   bands (ev):

   -66.9191 -66.9161 -33.9156 -33.8963 -33.8963 -33.8907 -33.8907 -33.8727
   -11.5219 -10.8300   1.0957   4.1134   4.1500   4.1500   4.3348   4.3348

     occupation numbers 
     1.0000   1.0000   1.0000   1.0000   1.0000   1.0000   1.0000   1.0000
     1.0000   1.0000   1.0000   1.0000   1.0000   1.0000   1.0000   1.0000

          k =-0.0000 0.0000 0.0753 (  3911 PWs)   bands (ev):

   -66.9190 -66.9162 -33.9140 -33.8961 -33.8961 -33.8909 -33.8909 -33.8744
   -11.4973 -10.8583   1.1773   3.9140   4.1568   4.1568   4.3275   4.3275

     occupation numbers 
     1.0000   1.0000   1.0000   1.0000   1.0000   1.0000   1.0000   1.0000
     1.0000   1.0000   1.0000   1.0000   1.0000   1.0000   1.0000   1.0000

          k =-0.0000 0.0000 0.1506 (  3887 PWs)   bands (ev):

   -66.9186 -66.9165 -33.9093 -33.8954 -33.8954 -33.8915 -33.8915 -33.8790
   -11.4267 -10.9380   1.4161   3.4342   4.1763   4.1763   4.3070   4.3070

     occupation numbers 
     1.0000   1.0000   1.0000   1.0000   1.0000   1.0000   1.0000   1.0000
     1.0000   1.0000   1.0000   1.0000   1.0000   1.0000   1.0000   1.0000

          k =-0.0000 0.0000 0.2259 (  3892 PWs)   bands (ev):

   -66.9182 -66.9170 -33.9024 -33.8945 -33.8945 -33.8924 -33.8924 -33.8860
   -11.3190 -11.0548   1.7954   2.8551   4.2058   4.2058   4.2765   4.2765

     occupation numbers 
     1.0000   1.0000   1.0000   1.0000   1.0000   1.0000   1.0000   1.0000
     1.0000   1.0000   1.0000   1.0000   1.0000   1.0000   1.0000   1.0000

          k = 0.0000-0.0000-0.3012 (  3892 PWs)   bands (ev):

   -66.9176 -66.9176 -33.8942 -33.8942 -33.8935 -33.8935 -33.8935 -33.8935
   -11.1892 -11.1882   2.2878   2.2885   4.2404   4.2404   4.2415   4.2415

     occupation numbers 
     1.0000   1.0000   1.0000   1.0000   1.0000   1.0000   1.0000   1.0000
     1.0000   1.0000   1.0000   1.0000   1.0000   1.0000   1.0000   1.0000

          k =-0.0000 0.1443 0.0000 (  3903 PWs)   bands (ev):

   -66.9186 -66.9159 -33.9141 -33.9004 -33.8976 -33.8956 -33.8915 -33.8735
   -11.4355 -10.7890   1.2640   3.6471   3.8514   4.0448   4.0952   4.3167

     occupation numbers 
     1.0000   1.0000   1.0000   1.0000   1.0000   1.0000   1.0000   1.0000
     1.0000   1.0000   1.0000   1.0000   1.0000   1.0000   1.0000   1.0000

          k =-0.0000 0.1443 0.0753 (  3906 PWs)   bands (ev):

   -66.9185 -66.9160 -33.9128 -33.8999 -33.8974 -33.8960 -33.8917 -33.8749
   -11.4123 -10.8152   1.3336   3.5469   3.8037   4.0547   4.1085   4.3059

     occupation numbers 
     1.0000   1.0000   1.0000   1.0000   1.0000   1.0000   1.0000   1.0000
     1.0000   1.0000   1.0000   1.0000   1.0000   1.0000   1.0000   1.0000

          k =-0.0000 0.1443 0.1506 (  3906 PWs)   bands (ev):

   -66.9182 -66.9163 -33.9095 -33.8985 -33.8970 -33.8967 -33.8924 -33.8788
   -11.3458 -10.8891   1.5373   3.1992   3.8201   4.0831   4.0921   4.2753

     occupation numbers 
     1.0000   1.0000   1.0000   1.0000   1.0000   1.0000   1.0000   1.0000
     1.0000   1.0000   1.0000   1.0000   1.0000   1.0000   1.0000   1.0000

          k =-0.0000 0.1443 0.2259 (  3908 PWs)   bands (ev):

   -66.9178 -66.9167 -33.9051 -33.8988 -33.8957 -33.8954 -33.8934 -33.8844
   -11.2446 -10.9976   1.8593   2.7402   3.8830   4.0369   4.1261   4.2300

     occupation numbers 
     1.0000   1.0000   1.0000   1.0000   1.0000   1.0000   1.0000   1.0000
     1.0000   1.0000   1.0000   1.0000   1.0000   1.0000   1.0000   1.0000

          k = 0.0000 0.1443-0.3012 (  3908 PWs)   bands (ev):

   -66.9173 -66.9173 -33.9014 -33.9014 -33.8946 -33.8945 -33.8905 -33.8905
   -11.1231 -11.1221   2.2731   2.2737   3.9608   3.9617   4.1771   4.1781

     occupation numbers 
     1.0000   1.0000   1.0000   1.0000   1.0000   1.0000   1.0000   1.0000
     1.0000   1.0000   1.0000   1.0000   1.0000   1.0000   1.0000   1.0000

          k = 0.0000 0.1443-0.2259 (  3908 PWs)   bands (ev):

   -66.9178 -66.9167 -33.9051 -33.8988 -33.8957 -33.8954 -33.8934 -33.8844
   -11.2446 -10.9976   1.8593   2.7402   3.8830   4.0369   4.1261   4.2300

     occupation numbers 
     1.0000   1.0000   1.0000   1.0000   1.0000   1.0000   1.0000   1.0000
     1.0000   1.0000   1.0000   1.0000   1.0000   1.0000   1.0000   1.0000

          k = 0.0000 0.1443-0.1506 (  3906 PWs)   bands (ev):

   -66.9182 -66.9163 -33.9095 -33.8985 -33.8970 -33.8967 -33.8924 -33.8788
   -11.3458 -10.8891   1.5373   3.1992   3.8201   4.0831   4.0921   4.2753

     occupation numbers 
     1.0000   1.0000   1.0000   1.0000   1.0000   1.0000   1.0000   1.0000
     1.0000   1.0000   1.0000   1.0000   1.0000   1.0000   1.0000   1.0000

          k = 0.0000 0.1443-0.0753 (  3906 PWs)   bands (ev):

   -66.9185 -66.9160 -33.9128 -33.8999 -33.8974 -33.8960 -33.8917 -33.8749
   -11.4123 -10.8152   1.3336   3.5469   3.8037   4.0547   4.1085   4.3059

     occupation numbers 
     1.0000   1.0000   1.0000   1.0000   1.0000   1.0000   1.0000   1.0000
     1.0000   1.0000   1.0000   1.0000   1.0000   1.0000   1.0000   1.0000

          k =-0.0000 0.2887 0.0000 (  3905 PWs)   bands (ev):

   -66.9176 -66.9154 -33.9153 -33.9078 -33.9046 -33.9007 -33.8936 -33.8759
   -11.2122 -10.6956   1.7257   2.5958   3.0973   3.8362   4.0007   4.2376

     occupation numbers 
     1.0000   1.0000   1.0000   1.0000   1.0000   1.0000   1.0000   1.0000
     1.0000   1.0000   1.0000   1.0000   1.0000   1.0000   1.0000   1.0000

          k =-0.0000 0.2887 0.0753 (  3921 PWs)   bands (ev):

   -66.9175 -66.9155 -33.9156 -33.9083 -33.9030 -33.9005 -33.8939 -33.8768
   -11.1932 -10.7159   1.7398   2.5840   3.0954   3.8505   3.9890   4.2213

     occupation numbers 
     1.0000   1.0000   1.0000   1.0000   1.0000   1.0000   1.0000   1.0000
     1.0000   1.0000   1.0000   1.0000   1.0000   1.0000   1.0000   1.0000

          k =-0.0000 0.2887 0.1506 (  3920 PWs)   bands (ev):

   -66.9173 -66.9157 -33.9158 -33.9096 -33.8997 -33.8990 -33.8947 -33.8793
   -11.1387 -10.7735   1.7932   2.4816   3.1752   3.8916   3.9301   4.1752

     occupation numbers 
     1.0000   1.0000   1.0000   1.0000   1.0000   1.0000   1.0000   1.0000
     1.0000   1.0000   1.0000   1.0000   1.0000   1.0000   1.0000   1.0000

          k =-0.0000 0.2887 0.2259 (  3907 PWs)   bands (ev):

   -66.9169 -66.9161 -33.9151 -33.9116 -33.8985 -33.8958 -33.8937 -33.8833
   -11.0565 -10.8589   1.9038   2.2841   3.3671   3.7961   3.9542   4.1076

     occupation numbers 
     1.0000   1.0000   1.0000   1.0000   1.0000   1.0000   1.0000   1.0000
     1.0000   1.0000   1.0000   1.0000   1.0000   1.0000   1.0000   1.0000

          k = 0.0000 0.2887-0.3012 (  3888 PWs)   bands (ev):

   -66.9165 -66.9165 -33.9136 -33.9136 -33.8972 -33.8972 -33.8883 -33.8883
   -10.9589 -10.9578   2.0742   2.0742   3.5951   3.5953   4.0294   4.0304

     occupation numbers 
     1.0000   1.0000   1.0000   1.0000   1.0000   1.0000   1.0000   1.0000
     1.0000   1.0000   1.0000   1.0000   1.0000   1.0000   1.0000   1.0000

          k = 0.0000 0.2887-0.2259 (  3907 PWs)   bands (ev):

   -66.9169 -66.9161 -33.9151 -33.9116 -33.8985 -33.8958 -33.8937 -33.8833
   -11.0565 -10.8589   1.9038   2.2841   3.3671   3.7961   3.9542   4.1076

     occupation numbers 
     1.0000   1.0000   1.0000   1.0000   1.0000   1.0000   1.0000   1.0000
     1.0000   1.0000   1.0000   1.0000   1.0000   1.0000   1.0000   1.0000

          k = 0.0000 0.2887-0.1506 (  3920 PWs)   bands (ev):

   -66.9173 -66.9157 -33.9158 -33.9096 -33.8997 -33.8990 -33.8947 -33.8793
   -11.1387 -10.7735   1.7932   2.4816   3.1752   3.8916   3.9301   4.1752

     occupation numbers 
     1.0000   1.0000   1.0000   1.0000   1.0000   1.0000   1.0000   1.0000
     1.0000   1.0000   1.0000   1.0000   1.0000   1.0000   1.0000   1.0000

          k = 0.0000 0.2887-0.0753 (  3921 PWs)   bands (ev):

   -66.9175 -66.9155 -33.9156 -33.9083 -33.9030 -33.9005 -33.8939 -33.8768
   -11.1932 -10.7159   1.7398   2.5840   3.0954   3.8505   3.9890   4.2213

     occupation numbers 
     1.0000   1.0000   1.0000   1.0000   1.0000   1.0000   1.0000   1.0000
     1.0000   1.0000   1.0000   1.0000   1.0000   1.0000   1.0000   1.0000

          k =-0.0000 0.4330 0.0000 (  3909 PWs)   bands (ev):

   -66.9164 -66.9150 -33.9251 -33.9194 -33.9038 -33.8995 -33.8958 -33.8796
   -10.9542 -10.6229   1.7751   2.3301   2.4773   3.6556   3.7798   4.1431

     occupation numbers 
     1.0000   1.0000   1.0000   1.0000   1.0000   1.0000   1.0000   1.0000
     1.0000   1.0000   1.0000   1.0000   1.0000   1.0000   1.0000   1.0000

          k =-0.0000 0.4330 0.0753 (  3904 PWs)   bands (ev):

   -66.9164 -66.9150 -33.9255 -33.9200 -33.9035 -33.8982 -33.8961 -33.8800
   -10.9413 -10.6352   1.7150   2.2149   2.6446   3.6727   3.8051   4.1229

     occupation numbers 
     1.0000   1.0000   1.0000   1.0000   1.0000   1.0000   1.0000   1.0000
     1.0000   1.0000   1.0000   1.0000   1.0000   1.0000   1.0000   1.0000

          k =-0.0000 0.4330 0.1506 (  3905 PWs)   bands (ev):

   -66.9162 -66.9152 -33.9261 -33.9216 -33.9026 -33.8970 -33.8948 -33.8812
   -10.9049 -10.6705   1.6268   2.0169   2.9490   3.7220   3.8259   4.0662

     occupation numbers 
     1.0000   1.0000   1.0000   1.0000   1.0000   1.0000   1.0000   1.0000
     1.0000   1.0000   1.0000   1.0000   1.0000   1.0000   1.0000   1.0000

          k =-0.0000 0.4330 0.2259 (  3898 PWs)   bands (ev):

   -66.9160 -66.9154 -33.9261 -33.9236 -33.9013 -33.8983 -33.8906 -33.8834
   -10.8505 -10.7236   1.6025   1.8162   3.2789   3.7567   3.7974   3.9835

     occupation numbers 
     1.0000   1.0000   1.0000   1.0000   1.0000   1.0000   1.0000   1.0000
     1.0000   1.0000   1.0000   1.0000   1.0000   1.0000   1.0000   1.0000

          k = 0.0000 0.4330-0.3012 (  3886 PWs)   bands (ev):

   -66.9157 -66.9157 -33.9253 -33.9253 -33.8998 -33.8998 -33.8866 -33.8866
   -10.7873 -10.7863   1.6677   1.6681   3.5659   3.5664   3.8884   3.8894

     occupation numbers 
     1.0000   1.0000   1.0000   1.0000   1.0000   1.0000   1.0000   1.0000
     1.0000   1.0000   1.0000   1.0000   1.0000   1.0000   1.0000   1.0000

          k = 0.0000 0.4330-0.2259 (  3898 PWs)   bands (ev):

   -66.9160 -66.9154 -33.9261 -33.9236 -33.9013 -33.8983 -33.8906 -33.8834
   -10.8505 -10.7236   1.6025   1.8162   3.2789   3.7567   3.7974   3.9835

     occupation numbers 
     1.0000   1.0000   1.0000   1.0000   1.0000   1.0000   1.0000   1.0000
     1.0000   1.0000   1.0000   1.0000   1.0000   1.0000   1.0000   1.0000

          k = 0.0000 0.4330-0.1506 (  3905 PWs)   bands (ev):

   -66.9162 -66.9152 -33.9261 -33.9216 -33.9026 -33.8970 -33.8948 -33.8812
   -10.9049 -10.6705   1.6268   2.0169   2.9490   3.7220   3.8259   4.0662

     occupation numbers 
     1.0000   1.0000   1.0000   1.0000   1.0000   1.0000   1.0000   1.0000
     1.0000   1.0000   1.0000   1.0000   1.0000   1.0000   1.0000   1.0000

          k =-0.0000 0.4330-0.0753 (  3904 PWs)   bands (ev):

   -66.9164 -66.9150 -33.9255 -33.9200 -33.9035 -33.8982 -33.8961 -33.8800
   -10.9413 -10.6352   1.7150   2.2149   2.6446   3.6727   3.8051   4.1229

     occupation numbers 
     1.0000   1.0000   1.0000   1.0000   1.0000   1.0000   1.0000   1.0000
     1.0000   1.0000   1.0000   1.0000   1.0000   1.0000   1.0000   1.0000

          k = 0.0000-0.5774-0.0000 (  3918 PWs)   bands (ev):

   -66.9159 -66.9149 -33.9296 -33.9242 -33.9051 -33.8967 -33.8959 -33.8822
   -10.8210 -10.6145   1.4767   2.2054   2.7505   3.5595   3.5858   4.1022

     occupation numbers 
     1.0000   1.0000   1.0000   1.0000   1.0000   1.0000   1.0000   1.0000
     1.0000   1.0000   1.0000   1.0000   1.0000   1.0000   1.0000   1.0000

          k = 0.0000-0.5774 0.0753 (  3916 PWs)   bands (ev):

   -66.9158 -66.9149 -33.9300 -33.9249 -33.9047 -33.8970 -33.8948 -33.8823
   -10.8125 -10.6217   1.4442   2.0998   2.8488   3.6039   3.6256   4.0807

     occupation numbers 
     1.0000   1.0000   1.0000   1.0000   1.0000   1.0000   1.0000   1.0000
     1.0000   1.0000   1.0000   1.0000   1.0000   1.0000   1.0000   1.0000

          k =-0.0000-0.5774 0.1506 (  3892 PWs)   bands (ev):

   -66.9157 -66.9150 -33.9306 -33.9265 -33.9038 -33.8979 -33.8921 -33.8827
   -10.7887 -10.6425   1.3924   1.8707   3.0882   3.6559   3.7286   4.0204

     occupation numbers 
     1.0000   1.0000   1.0000   1.0000   1.0000   1.0000   1.0000   1.0000
     1.0000   1.0000   1.0000   1.0000   1.0000   1.0000   1.0000   1.0000

          k =-0.0000-0.5774 0.2259 (  3900 PWs)   bands (ev):

   -66.9156 -66.9152 -33.9308 -33.9285 -33.9025 -33.8993 -33.8889 -33.8839
   -10.7536 -10.6745   1.3897   1.6394   3.3703   3.7355   3.7384   3.9326

     occupation numbers 
     1.0000   1.0000   1.0000   1.0000   1.0000   1.0000   1.0000   1.0000
     1.0000   1.0000   1.0000   1.0000   1.0000   1.0000   1.0000   1.0000

          k = 0.0000-0.5774-0.3012 (  3896 PWs)   bands (ev):

   -66.9154 -66.9154 -33.9301 -33.9300 -33.9009 -33.9009 -33.8859 -33.8859
   -10.7139 -10.7128   1.4705   1.4710   3.6092   3.6098   3.8318   3.8328

     occupation numbers 
     1.0000   1.0000   1.0000   1.0000   1.0000   1.0000   1.0000   1.0000
     1.0000   1.0000   1.0000   1.0000   1.0000   1.0000   1.0000   1.0000

          k = 0.1250 0.0722-0.0000 (  3903 PWs)   bands (ev):

   -66.9186 -66.9159 -33.9141 -33.9004 -33.8976 -33.8956 -33.8915 -33.8735
   -11.4355 -10.7890   1.2640   3.6471   3.8514   4.0448   4.0952   4.3167

     occupation numbers 
     1.0000   1.0000   1.0000   1.0000   1.0000   1.0000   1.0000   1.0000
     1.0000   1.0000   1.0000   1.0000   1.0000   1.0000   1.0000   1.0000

          k = 0.1250 0.0722 0.0753 (  3906 PWs)   bands (ev):

   -66.9185 -66.9160 -33.9128 -33.8999 -33.8974 -33.8960 -33.8917 -33.8749
   -11.4123 -10.8152   1.3336   3.5469   3.8037   4.0547   4.1085   4.3059

     occupation numbers 
     1.0000   1.0000   1.0000   1.0000   1.0000   1.0000   1.0000   1.0000
     1.0000   1.0000   1.0000   1.0000   1.0000   1.0000   1.0000   1.0000

          k = 0.1250 0.0722 0.1506 (  3906 PWs)   bands (ev):

   -66.9182 -66.9163 -33.9095 -33.8985 -33.8970 -33.8967 -33.8924 -33.8788
   -11.3458 -10.8891   1.5373   3.1992   3.8201   4.0831   4.0921   4.2753

     occupation numbers 
     1.0000   1.0000   1.0000   1.0000   1.0000   1.0000   1.0000   1.0000
     1.0000   1.0000   1.0000   1.0000   1.0000   1.0000   1.0000   1.0000

          k = 0.1250 0.0722 0.2259 (  3908 PWs)   bands (ev):

   -66.9178 -66.9167 -33.9051 -33.8988 -33.8957 -33.8954 -33.8934 -33.8844
   -11.2446 -10.9976   1.8593   2.7402   3.8830   4.0369   4.1261   4.2300

     occupation numbers 
     1.0000   1.0000   1.0000   1.0000   1.0000   1.0000   1.0000   1.0000
     1.0000   1.0000   1.0000   1.0000   1.0000   1.0000   1.0000   1.0000

          k = 0.1250 0.0722-0.3012 (  3908 PWs)   bands (ev):

   -66.9173 -66.9173 -33.9014 -33.9014 -33.8946 -33.8945 -33.8905 -33.8905
   -11.1231 -11.1221   2.2731   2.2737   3.9608   3.9617   4.1771   4.1781

     occupation numbers 
     1.0000   1.0000   1.0000   1.0000   1.0000   1.0000   1.0000   1.0000
     1.0000   1.0000   1.0000   1.0000   1.0000   1.0000   1.0000   1.0000

          k = 0.1250 0.0722-0.2259 (  3908 PWs)   bands (ev):

   -66.9178 -66.9167 -33.9051 -33.8988 -33.8957 -33.8954 -33.8934 -33.8844
   -11.2446 -10.9976   1.8593   2.7402   3.8830   4.0369   4.1261   4.2300

     occupation numbers 
     1.0000   1.0000   1.0000   1.0000   1.0000   1.0000   1.0000   1.0000
     1.0000   1.0000   1.0000   1.0000   1.0000   1.0000   1.0000   1.0000

          k = 0.1250 0.0722-0.1506 (  3906 PWs)   bands (ev):

   -66.9182 -66.9163 -33.9095 -33.8985 -33.8970 -33.8967 -33.8924 -33.8788
   -11.3458 -10.8891   1.5373   3.1992   3.8201   4.0831   4.0922   4.2753

     occupation numbers 
     1.0000   1.0000   1.0000   1.0000   1.0000   1.0000   1.0000   1.0000
     1.0000   1.0000   1.0000   1.0000   1.0000   1.0000   1.0000   1.0000

          k = 0.1250 0.0722-0.0753 (  3906 PWs)   bands (ev):

   -66.9185 -66.9160 -33.9128 -33.8999 -33.8974 -33.8960 -33.8917 -33.8749
   -11.4123 -10.8152   1.3336   3.5469   3.8037   4.0547   4.1085   4.3059

     occupation numbers 
     1.0000   1.0000   1.0000   1.0000   1.0000   1.0000   1.0000   1.0000
     1.0000   1.0000   1.0000   1.0000   1.0000   1.0000   1.0000   1.0000

          k = 0.1250 0.2165 0.0000 (  3915 PWs)   bands (ev):

   -66.9179 -66.9155 -33.9133 -33.9048 -33.9044 -33.8993 -33.8938 -33.8751
   -11.2803 -10.7217   1.5797   2.9487   3.2544   3.9348   4.0392   4.1656

     occupation numbers 
     1.0000   1.0000   1.0000   1.0000   1.0000   1.0000   1.0000   1.0000
     1.0000   1.0000   1.0000   1.0000   1.0000   1.0000   1.0000   1.0000

          k = 0.1250 0.2165 0.0753 (  3908 PWs)   bands (ev):

   -66.9178 -66.9156 -33.9132 -33.9050 -33.9030 -33.8993 -33.8940 -33.8761
   -11.2600 -10.7439   1.6192   2.8865   3.2919   3.8739   4.0748   4.1514

     occupation numbers 
     1.0000   1.0000   1.0000   1.0000   1.0000   1.0000   1.0000   1.0000
     1.0000   1.0000   1.0000   1.0000   1.0000   1.0000   1.0000   1.0000

          k = 0.1250 0.2165 0.1506 (  3909 PWs)   bands (ev):

   -66.9176 -66.9159 -33.9127 -33.9060 -33.8993 -33.8989 -33.8947 -33.8790
   -11.2016 -10.8067   1.7366   2.7072   3.3950   3.8060   4.0815   4.1133

     occupation numbers 
     1.0000   1.0000   1.0000   1.0000   1.0000   1.0000   1.0000   1.0000
     1.0000   1.0000   1.0000   1.0000   1.0000   1.0000   1.0000   1.0000

          k = 0.1250 0.2165 0.2259 (  3904 PWs)   bands (ev):

   -66.9172 -66.9163 -33.9115 -33.9077 -33.8982 -33.8960 -33.8941 -33.8834
   -11.1132 -10.8996   1.9262   2.4497   3.5365   3.7578   4.0473   4.0653

     occupation numbers 
     1.0000   1.0000   1.0000   1.0000   1.0000   1.0000   1.0000   1.0000
     1.0000   1.0000   1.0000   1.0000   1.0000   1.0000   1.0000   1.0000

          k = 0.1250 0.2165-0.3012 (  3918 PWs)   bands (ev):

   -66.9167 -66.9167 -33.9097 -33.9096 -33.8971 -33.8970 -33.8887 -33.8887
   -11.0078 -11.0067   2.1734   2.1736   3.6728   3.6732   4.0328   4.0338

     occupation numbers 
     1.0000   1.0000   1.0000   1.0000   1.0000   1.0000   1.0000   1.0000
     1.0000   1.0000   1.0000   1.0000   1.0000   1.0000   1.0000   1.0000

          k = 0.1250 0.2165-0.2259 (  3904 PWs)   bands (ev):

   -66.9172 -66.9163 -33.9115 -33.9077 -33.8982 -33.8960 -33.8941 -33.8834
   -11.1132 -10.8996   1.9262   2.4497   3.5365   3.7578   4.0473   4.0653

     occupation numbers 
     1.0000   1.0000   1.0000   1.0000   1.0000   1.0000   1.0000   1.0000
     1.0000   1.0000   1.0000   1.0000   1.0000   1.0000   1.0000   1.0000

          k = 0.1250 0.2165-0.1506 (  3909 PWs)   bands (ev):

   -66.9176 -66.9159 -33.9127 -33.9060 -33.8993 -33.8989 -33.8947 -33.8790
   -11.2016 -10.8067   1.7366   2.7072   3.3950   3.8060   4.0815   4.1133

     occupation numbers 
     1.0000   1.0000   1.0000   1.0000   1.0000   1.0000   1.0000   1.0000
     1.0000   1.0000   1.0000   1.0000   1.0000   1.0000   1.0000   1.0000

          k = 0.1250 0.2165-0.0753 (  3908 PWs)   bands (ev):

   -66.9178 -66.9156 -33.9132 -33.9050 -33.9030 -33.8993 -33.8940 -33.8761
   -11.2600 -10.7439   1.6192   2.8865   3.2919   3.8739   4.0748   4.1514

     occupation numbers 
     1.0000   1.0000   1.0000   1.0000   1.0000   1.0000   1.0000   1.0000
     1.0000   1.0000   1.0000   1.0000   1.0000   1.0000   1.0000   1.0000

          k = 0.1250 0.3608 0.0000 (  3880 PWs)   bands (ev):

   -66.9168 -66.9151 -33.9199 -33.9153 -33.9040 -33.9013 -33.8970 -33.8783
   -11.0373 -10.6392   2.0988   2.1665   2.6965   3.6043   3.8821   3.9829

     occupation numbers 
     1.0000   1.0000   1.0000   1.0000   1.0000   1.0000   1.0000   1.0000
     1.0000   1.0000   1.0000   1.0000   1.0000   1.0000   1.0000   1.0000

          k = 0.1250 0.3608 0.0753 (  3897 PWs)   bands (ev):

   -66.9167 -66.9151 -33.9204 -33.9158 -33.9039 -33.8998 -33.8972 -33.8788
   -11.0222 -10.6544   1.9859   2.1971   2.7959   3.5746   3.8913   3.9917

     occupation numbers 
     1.0000   1.0000   1.0000   1.0000   1.0000   1.0000   1.0000   1.0000
     1.0000   1.0000   1.0000   1.0000   1.0000   1.0000   1.0000   1.0000

          k = 0.1250 0.3608 0.1506 (  3900 PWs)   bands (ev):

   -66.9165 -66.9153 -33.9211 -33.9171 -33.9033 -33.8984 -33.8957 -33.8803
   -10.9792 -10.6976   1.8763   2.1242   3.0315   3.5501   3.8528   4.0136

     occupation numbers 
     1.0000   1.0000   1.0000   1.0000   1.0000   1.0000   1.0000   1.0000
     1.0000   1.0000   1.0000   1.0000   1.0000   1.0000   1.0000   1.0000

          k = 0.1250 0.3608 0.2259 (  3904 PWs)   bands (ev):

   -66.9163 -66.9156 -33.9211 -33.9188 -33.9023 -33.8996 -33.8912 -33.8830
   -10.9147 -10.7622   1.8420   1.9979   3.2825   3.5474   3.8139   3.9752

     occupation numbers 
     1.0000   1.0000   1.0000   1.0000   1.0000   1.0000   1.0000   1.0000
     1.0000   1.0000   1.0000   1.0000   1.0000   1.0000   1.0000   1.0000

          k = 0.1250 0.3608-0.3012 (  3902 PWs)   bands (ev):

   -66.9159 -66.9159 -33.9203 -33.9203 -33.9010 -33.9009 -33.8867 -33.8867
   -10.8390 -10.8379   1.8889   1.8892   3.4665   3.4667   3.8753   3.8759

     occupation numbers 
     1.0000   1.0000   1.0000   1.0000   1.0000   1.0000   1.0000   1.0000
     1.0000   1.0000   1.0000   1.0000   1.0000   1.0000   1.0000   1.0000

          k = 0.1250 0.3608-0.2259 (  3904 PWs)   bands (ev):

   -66.9163 -66.9156 -33.9211 -33.9188 -33.9023 -33.8996 -33.8912 -33.8830
   -10.9147 -10.7622   1.8419   1.9979   3.2825   3.5474   3.8139   3.9752

     occupation numbers 
     1.0000   1.0000   1.0000   1.0000   1.0000   1.0000   1.0000   1.0000
     1.0000   1.0000   1.0000   1.0000   1.0000   1.0000   1.0000   1.0000

          k = 0.1250 0.3608-0.1506 (  3900 PWs)   bands (ev):

   -66.9165 -66.9153 -33.9211 -33.9171 -33.9033 -33.8984 -33.8957 -33.8803
   -10.9792 -10.6976   1.8763   2.1242   3.0315   3.5502   3.8527   4.0136

     occupation numbers 
     1.0000   1.0000   1.0000   1.0000   1.0000   1.0000   1.0000   1.0000
     1.0000   1.0000   1.0000   1.0000   1.0000   1.0000   1.0000   1.0000

          k = 0.1250 0.3608-0.0753 (  3897 PWs)   bands (ev):

   -66.9167 -66.9151 -33.9204 -33.9158 -33.9039 -33.8998 -33.8972 -33.8788
   -11.0222 -10.6544   1.9859   2.1971   2.7959   3.5746   3.8913   3.9917

     occupation numbers 
     1.0000   1.0000   1.0000   1.0000   1.0000   1.0000   1.0000   1.0000
     1.0000   1.0000   1.0000   1.0000   1.0000   1.0000   1.0000   1.0000

          k = 0.1250 0.5052 0.0000 (  3904 PWs)   bands (ev):

   -66.9159 -66.9149 -33.9269 -33.9221 -33.9075 -33.8993 -33.8957 -33.8822
   -10.8274 -10.6104   1.6503   2.3406   2.7093   3.3566   3.6106   3.8607

     occupation numbers 
     1.0000   1.0000   1.0000   1.0000   1.0000   1.0000   1.0000   1.0000
     1.0000   1.0000   1.0000   1.0000   1.0000   1.0000   1.0000   1.0000

          k = 0.1250 0.5052 0.0753 (  3904 PWs)   bands (ev):

   -66.9158 -66.9149 -33.9273 -33.9227 -33.9073 -33.8996 -33.8945 -33.8822
   -10.8186 -10.6180   1.6205   2.2155   2.8162   3.3812   3.6508   3.8630

     occupation numbers 
     1.0000   1.0000   1.0000   1.0000   1.0000   1.0000   1.0000   1.0000
     1.0000   1.0000   1.0000   1.0000   1.0000   1.0000   1.0000   1.0000

          k = 0.1250 0.5052 0.1506 (  3892 PWs)   bands (ev):

   -66.9157 -66.9150 -33.9280 -33.9243 -33.9065 -33.9006 -33.8917 -33.8825
   -10.7936 -10.6400   1.5695   1.9895   2.9949   3.4785   3.6477   3.9122

     occupation numbers 
     1.0000   1.0000   1.0000   1.0000   1.0000   1.0000   1.0000   1.0000
     1.0000   1.0000   1.0000   1.0000   1.0000   1.0000   1.0000   1.0000

          k = 0.1250 0.5052 0.2259 (  3897 PWs)   bands (ev):

   -66.9156 -66.9152 -33.9282 -33.9262 -33.9053 -33.9021 -33.8884 -33.8835
   -10.7570 -10.6738   1.5597   1.7768   3.1677   3.4748   3.7168   3.9405

     occupation numbers 
     1.0000   1.0000   1.0000   1.0000   1.0000   1.0000   1.0000   1.0000
     1.0000   1.0000   1.0000   1.0000   1.0000   1.0000   1.0000   1.0000

          k = 0.1250 0.5052-0.3012 (  3900 PWs)   bands (ev):

   -66.9154 -66.9154 -33.9276 -33.9276 -33.9037 -33.9037 -33.8855 -33.8855
   -10.7153 -10.7142   1.6266   1.6271   3.3319   3.3321   3.8681   3.8683

     occupation numbers 
     1.0000   1.0000   1.0000   1.0000   1.0000   1.0000   1.0000   1.0000
     1.0000   1.0000   1.0000   1.0000   1.0000   1.0000   1.0000   1.0000

          k = 0.1250 0.5052-0.2259 (  3897 PWs)   bands (ev):

   -66.9156 -66.9152 -33.9282 -33.9262 -33.9053 -33.9021 -33.8884 -33.8835
   -10.7570 -10.6738   1.5597   1.7768   3.1677   3.4748   3.7168   3.9405

     occupation numbers 
     1.0000   1.0000   1.0000   1.0000   1.0000   1.0000   1.0000   1.0000
     1.0000   1.0000   1.0000   1.0000   1.0000   1.0000   1.0000   1.0000

          k = 0.1250 0.5052-0.1506 (  3892 PWs)   bands (ev):

   -66.9157 -66.9150 -33.9280 -33.9243 -33.9065 -33.9006 -33.8917 -33.8825
   -10.7936 -10.6400   1.5695   1.9896   2.9949   3.4786   3.6477   3.9122

     occupation numbers 
     1.0000   1.0000   1.0000   1.0000   1.0000   1.0000   1.0000   1.0000
     1.0000   1.0000   1.0000   1.0000   1.0000   1.0000   1.0000   1.0000

          k = 0.1250 0.5052-0.0753 (  3904 PWs)   bands (ev):

   -66.9158 -66.9149 -33.9273 -33.9227 -33.9073 -33.8996 -33.8945 -33.8822
   -10.8186 -10.6180   1.6205   2.2155   2.8161   3.3812   3.6508   3.8630

     occupation numbers 
     1.0000   1.0000   1.0000   1.0000   1.0000   1.0000   1.0000   1.0000
     1.0000   1.0000   1.0000   1.0000   1.0000   1.0000   1.0000   1.0000

          k = 0.1250-0.5052-0.0000 (  3904 PWs)   bands (ev):

   -66.9159 -66.9149 -33.9269 -33.9221 -33.9075 -33.8993 -33.8957 -33.8822
   -10.8274 -10.6104   1.6503   2.3406   2.7093   3.3566   3.6106   3.8607

     occupation numbers 
     1.0000   1.0000   1.0000   1.0000   1.0000   1.0000   1.0000   1.0000
     1.0000   1.0000   1.0000   1.0000   1.0000   1.0000   1.0000   1.0000

          k = 0.1250-0.5052 0.0753 (  3904 PWs)   bands (ev):

   -66.9158 -66.9149 -33.9273 -33.9227 -33.9073 -33.8996 -33.8945 -33.8822
   -10.8186 -10.6180   1.6205   2.2155   2.8161   3.3812   3.6508   3.8630

     occupation numbers 
     1.0000   1.0000   1.0000   1.0000   1.0000   1.0000   1.0000   1.0000
     1.0000   1.0000   1.0000   1.0000   1.0000   1.0000   1.0000   1.0000

          k = 0.1250-0.5052 0.1506 (  3892 PWs)   bands (ev):

   -66.9157 -66.9150 -33.9280 -33.9243 -33.9065 -33.9006 -33.8917 -33.8825
   -10.7936 -10.6400   1.5695   1.9896   2.9949   3.4786   3.6477   3.9122

     occupation numbers 
     1.0000   1.0000   1.0000   1.0000   1.0000   1.0000   1.0000   1.0000
     1.0000   1.0000   1.0000   1.0000   1.0000   1.0000   1.0000   1.0000

          k = 0.1250-0.5052 0.2259 (  3897 PWs)   bands (ev):

   -66.9156 -66.9152 -33.9282 -33.9262 -33.9053 -33.9021 -33.8884 -33.8835
   -10.7570 -10.6738   1.5597   1.7768   3.1677   3.4748   3.7168   3.9405

     occupation numbers 
     1.0000   1.0000   1.0000   1.0000   1.0000   1.0000   1.0000   1.0000
     1.0000   1.0000   1.0000   1.0000   1.0000   1.0000   1.0000   1.0000

          k = 0.1250-0.5052-0.3012 (  3900 PWs)   bands (ev):

   -66.9154 -66.9154 -33.9276 -33.9276 -33.9037 -33.9037 -33.8855 -33.8855
   -10.7153 -10.7142   1.6266   1.6271   3.3319   3.3321   3.8681   3.8683

     occupation numbers 
     1.0000   1.0000   1.0000   1.0000   1.0000   1.0000   1.0000   1.0000
     1.0000   1.0000   1.0000   1.0000   1.0000   1.0000   1.0000   1.0000

          k = 0.1250-0.5052-0.2259 (  3897 PWs)   bands (ev):

   -66.9156 -66.9152 -33.9282 -33.9262 -33.9053 -33.9021 -33.8884 -33.8835
   -10.7570 -10.6738   1.5597   1.7768   3.1677   3.4748   3.7168   3.9405

     occupation numbers 
     1.0000   1.0000   1.0000   1.0000   1.0000   1.0000   1.0000   1.0000
     1.0000   1.0000   1.0000   1.0000   1.0000   1.0000   1.0000   1.0000

          k = 0.1250-0.5052-0.1506 (  3892 PWs)   bands (ev):

   -66.9157 -66.9150 -33.9280 -33.9243 -33.9065 -33.9006 -33.8917 -33.8825
   -10.7936 -10.6400   1.5695   1.9895   2.9949   3.4785   3.6477   3.9122

     occupation numbers 
     1.0000   1.0000   1.0000   1.0000   1.0000   1.0000   1.0000   1.0000
     1.0000   1.0000   1.0000   1.0000   1.0000   1.0000   1.0000   1.0000

          k = 0.1250-0.5052-0.0753 (  3904 PWs)   bands (ev):

   -66.9158 -66.9149 -33.9273 -33.9227 -33.9073 -33.8996 -33.8945 -33.8822
   -10.8186 -10.6180   1.6205   2.2155   2.8162   3.3812   3.6508   3.8630

     occupation numbers 
     1.0000   1.0000   1.0000   1.0000   1.0000   1.0000   1.0000   1.0000
     1.0000   1.0000   1.0000   1.0000   1.0000   1.0000   1.0000   1.0000

          k = 0.1250-0.3608-0.0000 (  3880 PWs)   bands (ev):

   -66.9168 -66.9151 -33.9199 -33.9153 -33.9040 -33.9013 -33.8970 -33.8783
   -11.0373 -10.6392   2.0988   2.1665   2.6965   3.6043   3.8821   3.9829

     occupation numbers 
     1.0000   1.0000   1.0000   1.0000   1.0000   1.0000   1.0000   1.0000
     1.0000   1.0000   1.0000   1.0000   1.0000   1.0000   1.0000   1.0000

          k = 0.1250-0.3608 0.0753 (  3897 PWs)   bands (ev):

   -66.9167 -66.9151 -33.9204 -33.9158 -33.9039 -33.8998 -33.8972 -33.8788
   -11.0222 -10.6544   1.9859   2.1971   2.7959   3.5746   3.8913   3.9917

     occupation numbers 
     1.0000   1.0000   1.0000   1.0000   1.0000   1.0000   1.0000   1.0000
     1.0000   1.0000   1.0000   1.0000   1.0000   1.0000   1.0000   1.0000

          k = 0.1250-0.3608 0.1506 (  3900 PWs)   bands (ev):

   -66.9165 -66.9153 -33.9211 -33.9171 -33.9033 -33.8984 -33.8957 -33.8803
   -10.9792 -10.6976   1.8763   2.1242   3.0315   3.5502   3.8527   4.0136

     occupation numbers 
     1.0000   1.0000   1.0000   1.0000   1.0000   1.0000   1.0000   1.0000
     1.0000   1.0000   1.0000   1.0000   1.0000   1.0000   1.0000   1.0000

          k = 0.1250-0.3608 0.2259 (  3904 PWs)   bands (ev):

   -66.9163 -66.9156 -33.9211 -33.9188 -33.9023 -33.8996 -33.8912 -33.8830
   -10.9147 -10.7622   1.8419   1.9979   3.2825   3.5474   3.8139   3.9752

     occupation numbers 
     1.0000   1.0000   1.0000   1.0000   1.0000   1.0000   1.0000   1.0000
     1.0000   1.0000   1.0000   1.0000   1.0000   1.0000   1.0000   1.0000

          k = 0.1250-0.3608-0.3012 (  3902 PWs)   bands (ev):

   -66.9159 -66.9159 -33.9203 -33.9203 -33.9010 -33.9009 -33.8867 -33.8867
   -10.8390 -10.8379   1.8889   1.8892   3.4665   3.4667   3.8753   3.8759

[...]
     1.0000   1.0000   1.0000   1.0000   1.0000   1.0000   1.0000   1.0000

          k =-0.5000-0.1443 0.0753 (  3904 PWs)   bands (ev):

   -66.9158 -66.9149 -33.9273 -33.9227 -33.9073 -33.8996 -33.8945 -33.8822
   -10.8186 -10.6180   1.6205   2.2155   2.8162   3.3812   3.6508   3.8630

     occupation numbers 
     1.0000   1.0000   1.0000   1.0000   1.0000   1.0000   1.0000   1.0000
     1.0000   1.0000   1.0000   1.0000   1.0000   1.0000   1.0000   1.0000

          k =-0.5000-0.1443 0.1506 (  3892 PWs)   bands (ev):

   -66.9157 -66.9150 -33.9280 -33.9243 -33.9065 -33.9006 -33.8917 -33.8825
   -10.7936 -10.6400   1.5695   1.9895   2.9949   3.4785   3.6477   3.9122

     occupation numbers 
     1.0000   1.0000   1.0000   1.0000   1.0000   1.0000   1.0000   1.0000
     1.0000   1.0000   1.0000   1.0000   1.0000   1.0000   1.0000   1.0000

          k =-0.5000-0.1443 0.2259 (  3897 PWs)   bands (ev):

   -66.9156 -66.9152 -33.9282 -33.9262 -33.9053 -33.9021 -33.8884 -33.8835
   -10.7570 -10.6738   1.5597   1.7768   3.1677   3.4748   3.7168   3.9405

     occupation numbers 
     1.0000   1.0000   1.0000   1.0000   1.0000   1.0000   1.0000   1.0000
     1.0000   1.0000   1.0000   1.0000   1.0000   1.0000   1.0000   1.0000

          k =-0.5000-0.1443-0.3012 (  3900 PWs)   bands (ev):

   -66.9154 -66.9154 -33.9276 -33.9276 -33.9037 -33.9037 -33.8855 -33.8855
   -10.7153 -10.7142   1.6266   1.6270   3.3319   3.3321   3.8681   3.8683

     occupation numbers 
     1.0000   1.0000   1.0000   1.0000   1.0000   1.0000   1.0000   1.0000
     1.0000   1.0000   1.0000   1.0000   1.0000   1.0000   1.0000   1.0000

          k =-0.5000-0.1443-0.2259 (  3897 PWs)   bands (ev):

   -66.9156 -66.9152 -33.9282 -33.9262 -33.9053 -33.9021 -33.8884 -33.8835
   -10.7570 -10.6738   1.5597   1.7768   3.1677   3.4748   3.7168   3.9405

     occupation numbers 
     1.0000   1.0000   1.0000   1.0000   1.0000   1.0000   1.0000   1.0000
     1.0000   1.0000   1.0000   1.0000   1.0000   1.0000   1.0000   1.0000

          k =-0.5000-0.1443-0.1506 (  3892 PWs)   bands (ev):

   -66.9157 -66.9150 -33.9280 -33.9243 -33.9065 -33.9006 -33.8917 -33.8825
   -10.7936 -10.6400   1.5695   1.9895   2.9949   3.4786   3.6477   3.9122

     occupation numbers 
     1.0000   1.0000   1.0000   1.0000   1.0000   1.0000   1.0000   1.0000
     1.0000   1.0000   1.0000   1.0000   1.0000   1.0000   1.0000   1.0000

          k =-0.5000-0.1443-0.0753 (  3904 PWs)   bands (ev):

   -66.9158 -66.9149 -33.9273 -33.9227 -33.9073 -33.8996 -33.8945 -33.8822
   -10.8186 -10.6180   1.6205   2.2155   2.8162   3.3812   3.6508   3.8630

     occupation numbers 
     1.0000   1.0000   1.0000   1.0000   1.0000   1.0000   1.0000   1.0000
     1.0000   1.0000   1.0000   1.0000   1.0000   1.0000   1.0000   1.0000

          k =-0.5000 0.0000 0.0000 (  3895 PWs)   bands (ev):

   -66.9159 -66.9149 -33.9222 -33.9211 -33.9100 -33.9028 -33.8955 -33.8822
   -10.8335 -10.6065   1.9047   2.4416   2.7050   3.1394   3.5289   3.6621

     occupation numbers 
     1.0000   1.0000   1.0000   1.0000   1.0000   1.0000   1.0000   1.0000
     1.0000   1.0000   1.0000   1.0000   1.0000   1.0000   1.0000   1.0000

          k =-0.5000 0.0000 0.0753 (  3890 PWs)   bands (ev):

   -66.9158 -66.9149 -33.9227 -33.9214 -33.9099 -33.9031 -33.8943 -33.8822
   -10.8243 -10.6146   1.8997   2.2462   2.9301   3.0611   3.5055   3.7547

     occupation numbers 
     1.0000   1.0000   1.0000   1.0000   1.0000   1.0000   1.0000   1.0000
     1.0000   1.0000   1.0000   1.0000   1.0000   1.0000   1.0000   1.0000

          k =-0.5000 0.0000 0.1506 (  3889 PWs)   bands (ev):

   -66.9157 -66.9150 -33.9239 -33.9224 -33.9095 -33.9042 -33.8914 -33.8824
   -10.7984 -10.6377   1.8795   2.0277   2.9620   3.1654   3.5066   3.8940

     occupation numbers 
     1.0000   1.0000   1.0000   1.0000   1.0000   1.0000   1.0000   1.0000
     1.0000   1.0000   1.0000   1.0000   1.0000   1.0000   1.0000   1.0000

          k =-0.5000 0.0000 0.2259 (  3893 PWs)   bands (ev):

   -66.9156 -66.9152 -33.9246 -33.9236 -33.9086 -33.9056 -33.8881 -33.8833
   -10.7602 -10.6732   1.8475   1.8899   2.9516   3.1415   3.6931   3.9502

     occupation numbers 
     1.0000   1.0000   1.0000   1.0000   1.0000   1.0000   1.0000   1.0000
     1.0000   1.0000   1.0000   1.0000   1.0000   1.0000   1.0000   1.0000

          k =-0.5000-0.0000-0.3012 (  3894 PWs)   bands (ev):

   -66.9154 -66.9154 -33.9245 -33.9245 -33.9072 -33.9071 -33.8852 -33.8852
   -10.7167 -10.7156   1.8370   1.8374   3.0287   3.0293   3.8787   3.8788

     occupation numbers 
     1.0000   1.0000   1.0000   1.0000   1.0000   1.0000   1.0000   1.0000
     1.0000   1.0000   1.0000   1.0000   1.0000   1.0000   1.0000   1.0000

          k =-0.5000-0.0000-0.2259 (  3893 PWs)   bands (ev):

   -66.9156 -66.9152 -33.9246 -33.9236 -33.9086 -33.9056 -33.8881 -33.8833
   -10.7602 -10.6732   1.8475   1.8899   2.9516   3.1415   3.6931   3.9502

     occupation numbers 
     1.0000   1.0000   1.0000   1.0000   1.0000   1.0000   1.0000   1.0000
     1.0000   1.0000   1.0000   1.0000   1.0000   1.0000   1.0000   1.0000

          k =-0.5000-0.0000-0.1506 (  3889 PWs)   bands (ev):

   -66.9157 -66.9150 -33.9239 -33.9224 -33.9095 -33.9041 -33.8914 -33.8824
   -10.7984 -10.6377   1.8795   2.0277   2.9620   3.1654   3.5066   3.8940

     occupation numbers 
     1.0000   1.0000   1.0000   1.0000   1.0000   1.0000   1.0000   1.0000
     1.0000   1.0000   1.0000   1.0000   1.0000   1.0000   1.0000   1.0000

          k =-0.5000 0.0000-0.0753 (  3890 PWs)   bands (ev):

   -66.9158 -66.9149 -33.9227 -33.9214 -33.9099 -33.9031 -33.8943 -33.8822
   -10.8243 -10.6146   1.8997   2.2462   2.9301   3.0611   3.5055   3.7547

     occupation numbers 
     1.0000   1.0000   1.0000   1.0000   1.0000   1.0000   1.0000   1.0000
     1.0000   1.0000   1.0000   1.0000   1.0000   1.0000   1.0000   1.0000

          k =-0.5000 0.1443 0.0000 (  3904 PWs)   bands (ev):

   -66.9159 -66.9149 -33.9269 -33.9221 -33.9075 -33.8993 -33.8957 -33.8822
   -10.8274 -10.6104   1.6503   2.3406   2.7093   3.3566   3.6105   3.8607

     occupation numbers 
     1.0000   1.0000   1.0000   1.0000   1.0000   1.0000   1.0000   1.0000
     1.0000   1.0000   1.0000   1.0000   1.0000   1.0000   1.0000   1.0000

          k =-0.5000 0.1443 0.0753 (  3904 PWs)   bands (ev):

   -66.9158 -66.9149 -33.9273 -33.9228 -33.9073 -33.8996 -33.8945 -33.8822
   -10.8186 -10.6180   1.6205   2.2155   2.8162   3.3812   3.6508   3.8630

     occupation numbers 
     1.0000   1.0000   1.0000   1.0000   1.0000   1.0000   1.0000   1.0000
     1.0000   1.0000   1.0000   1.0000   1.0000   1.0000   1.0000   1.0000

          k =-0.5000 0.1443 0.1506 (  3892 PWs)   bands (ev):

   -66.9157 -66.9150 -33.9280 -33.9243 -33.9065 -33.9006 -33.8917 -33.8825
   -10.7936 -10.6400   1.5695   1.9895   2.9949   3.4786   3.6477   3.9122

     occupation numbers 
     1.0000   1.0000   1.0000   1.0000   1.0000   1.0000   1.0000   1.0000
     1.0000   1.0000   1.0000   1.0000   1.0000   1.0000   1.0000   1.0000

          k =-0.5000 0.1443 0.2259 (  3897 PWs)   bands (ev):

   -66.9156 -66.9152 -33.9282 -33.9262 -33.9053 -33.9021 -33.8884 -33.8835
   -10.7570 -10.6738   1.5597   1.7768   3.1677   3.4748   3.7168   3.9405

     occupation numbers 
     1.0000   1.0000   1.0000   1.0000   1.0000   1.0000   1.0000   1.0000
     1.0000   1.0000   1.0000   1.0000   1.0000   1.0000   1.0000   1.0000

          k =-0.5000 0.1443-0.3012 (  3900 PWs)   bands (ev):

   -66.9154 -66.9154 -33.9276 -33.9276 -33.9037 -33.9037 -33.8855 -33.8855
   -10.7153 -10.7142   1.6266   1.6270   3.3319   3.3321   3.8681   3.8683

     occupation numbers 
     1.0000   1.0000   1.0000   1.0000   1.0000   1.0000   1.0000   1.0000
     1.0000   1.0000   1.0000   1.0000   1.0000   1.0000   1.0000   1.0000

          k =-0.5000 0.1443-0.2259 (  3897 PWs)   bands (ev):

   -66.9156 -66.9152 -33.9282 -33.9262 -33.9053 -33.9021 -33.8884 -33.8835
   -10.7570 -10.6738   1.5597   1.7768   3.1677   3.4748   3.7168   3.9405

     occupation numbers 
     1.0000   1.0000   1.0000   1.0000   1.0000   1.0000   1.0000   1.0000
     1.0000   1.0000   1.0000   1.0000   1.0000   1.0000   1.0000   1.0000

          k =-0.5000 0.1443-0.1506 (  3892 PWs)   bands (ev):

   -66.9157 -66.9150 -33.9280 -33.9243 -33.9065 -33.9006 -33.8917 -33.8825
   -10.7936 -10.6400   1.5695   1.9895   2.9949   3.4785   3.6477   3.9122

     occupation numbers 
     1.0000   1.0000   1.0000   1.0000   1.0000   1.0000   1.0000   1.0000
     1.0000   1.0000   1.0000   1.0000   1.0000   1.0000   1.0000   1.0000

          k =-0.5000 0.1443-0.0753 (  3904 PWs)   bands (ev):

   -66.9158 -66.9149 -33.9273 -33.9227 -33.9073 -33.8996 -33.8945 -33.8822
   -10.8186 -10.6180   1.6205   2.2155   2.8162   3.3812   3.6508   3.8630

     occupation numbers 
     1.0000   1.0000   1.0000   1.0000   1.0000   1.0000   1.0000   1.0000
     1.0000   1.0000   1.0000   1.0000   1.0000   1.0000   1.0000   1.0000

          k =-0.5000-0.8660-0.0000 (  3918 PWs)   bands (ev):

   -66.9159 -66.9149 -33.9296 -33.9242 -33.9051 -33.8967 -33.8959 -33.8822
   -10.8210 -10.6145   1.4767   2.2054   2.7505   3.5595   3.5858   4.1022

     occupation numbers 
     1.0000   1.0000   1.0000   1.0000   1.0000   1.0000   1.0000   1.0000
     1.0000   1.0000   1.0000   1.0000   1.0000   1.0000   1.0000   1.0000

          k =-0.5000-0.8660 0.0753 (  3916 PWs)   bands (ev):

   -66.9158 -66.9149 -33.9300 -33.9249 -33.9047 -33.8970 -33.8948 -33.8823
   -10.8125 -10.6217   1.4442   2.0998   2.8488   3.6039   3.6256   4.0807

     occupation numbers 
     1.0000   1.0000   1.0000   1.0000   1.0000   1.0000   1.0000   1.0000
     1.0000   1.0000   1.0000   1.0000   1.0000   1.0000   1.0000   1.0000

          k =-0.5000-0.8660 0.1506 (  3892 PWs)   bands (ev):

   -66.9157 -66.9150 -33.9306 -33.9265 -33.9038 -33.8979 -33.8921 -33.8827
   -10.7887 -10.6425   1.3924   1.8707   3.0882   3.6559   3.7286   4.0204

     occupation numbers 
     1.0000   1.0000   1.0000   1.0000   1.0000   1.0000   1.0000   1.0000
     1.0000   1.0000   1.0000   1.0000   1.0000   1.0000   1.0000   1.0000

          k =-0.5000-0.8660 0.2259 (  3900 PWs)   bands (ev):

   -66.9156 -66.9152 -33.9308 -33.9285 -33.9025 -33.8993 -33.8889 -33.8839
   -10.7536 -10.6745   1.3897   1.6394   3.3703   3.7355   3.7384   3.9326

     occupation numbers 
     1.0000   1.0000   1.0000   1.0000   1.0000   1.0000   1.0000   1.0000
     1.0000   1.0000   1.0000   1.0000   1.0000   1.0000   1.0000   1.0000

          k =-0.5000-0.8660-0.3012 (  3896 PWs)   bands (ev):

   -66.9154 -66.9154 -33.9301 -33.9300 -33.9009 -33.9009 -33.8859 -33.8859
   -10.7139 -10.7128   1.4705   1.4710   3.6092   3.6098   3.8318   3.8328

     occupation numbers 
     1.0000   1.0000   1.0000   1.0000   1.0000   1.0000   1.0000   1.0000
     1.0000   1.0000   1.0000   1.0000   1.0000   1.0000   1.0000   1.0000

     highest occupied level (ev):     4.3348

!    total energy              =    -315.17180735 Ry
     Harris-Foulkes estimate   =    -315.17180658 Ry
     estimated scf accuracy    <       0.00000074 Ry

     The total energy is the sum of the following terms:

     one-electron contribution =    -213.69157338 Ry
     hartree contribution      =     112.97307964 Ry
     xc contribution           =     -48.04756374 Ry
     ewald contribution        =    -166.40574987 Ry

     convergence has been achieved in   6 iterations

     Forces acting on atoms (cartesian axes, Ry/au):

     atom    1 type  2   force =    -0.00000091   -0.00000034    0.02739197
     atom    2 type  2   force =    -0.00000164    0.00000018    0.02739729
     atom    3 type  1   force =     0.00000109   -0.00000055   -0.02744938
     atom    4 type  1   force =     0.00000146    0.00000070   -0.02733988
     The non-local contrib.  to forces
     atom    1 type  2   force =    -0.00000018   -0.00000083    0.05439043
     atom    2 type  2   force =    -0.00000068    0.00000216    0.05440912
     atom    3 type  1   force =    -0.00000095   -0.00000073   -0.02433118
     atom    4 type  1   force =     0.00000030    0.00000042   -0.02430132
     The ionic contribution  to forces
     atom    1 type  2   force =    -0.00000282    0.00001402    0.09532167
     atom    2 type  2   force =     0.00000206   -0.00000620    0.09532394
     atom    3 type  1   force =    -0.00000152   -0.00000866   -0.09532444
     atom    4 type  1   force =     0.00000229    0.00000084   -0.09532117
     The local contribution  to forces
     atom    1 type  2   force =     0.00000421   -0.00001420   -0.12167633
     atom    2 type  2   force =    -0.00000161    0.00000430   -0.12167750
     atom    3 type  1   force =     0.00000106    0.00001017    0.09236244
     atom    4 type  1   force =    -0.00000469   -0.00000248    0.09209935
     The core correction contribution to forces
     atom    1 type  2   force =     0.00000001   -0.00000001   -0.00058497
     atom    2 type  2   force =     0.00000001   -0.00000002   -0.00058516
     atom    3 type  1   force =     0.00000000    0.00000000    0.00000000
     atom    4 type  1   force =     0.00000000    0.00000000    0.00000000
     The Hubbard contrib.    to forces
     atom    1 type  2   force =     0.00000000    0.00000000    0.00000000
     atom    2 type  2   force =     0.00000000    0.00000000    0.00000000
     atom    3 type  1   force =     0.00000000    0.00000000    0.00000000
     atom    4 type  1   force =     0.00000000    0.00000000    0.00000000
     The SCF correction term to forces
     atom    1 type  2   force =     0.00000000    0.00000000    0.00000000
     atom    2 type  2   force =     0.00000000    0.00000000    0.00000000
     atom    3 type  1   force =     0.00000000    0.00000000    0.00000000
     atom    4 type  1   force =     0.00000000    0.00000000    0.00000000

     Total force =     0.000000     Total SCF correction =     0.000000


     Computing stress (Cartesian axis) and pressure

          total   stress  (Ry/bohr**3)                   (kbar)     P=    4.45
   0.00003053  -0.00000000  -0.00000000          4.49     -0.00     -0.00
  -0.00000000   0.00003053   0.00000000         -0.00      4.49      0.00
  -0.00000000   0.00000000   0.00002973         -0.00      0.00      4.37

     kinetic stress (kbar)  18844.75      0.00     -0.00
                                0.00  18844.75     -0.00
                               -0.00     -0.00  18796.00

     local   stress (kbar)  -6923.54     -0.01     -0.02
                               -0.01  -6923.56      0.05
                               -0.02      0.05 -12956.59

     nonloc. stress (kbar)   5153.42     -0.00      0.00
                               -0.00   5153.42     -0.00
                                0.00     -0.00   5183.91

     hartree stress (kbar)  16365.63      0.01      0.01
                                0.01  16365.64     -0.02
                                0.01     -0.02  18754.85

     exc-cor stress (kbar)  -6690.54      0.00      0.00
                                0.00  -6690.54     -0.00
                                0.00     -0.00  -6687.06

     corecor stress (kbar)   -246.60      0.00      0.00
                                0.00   -246.60     -0.00
                                0.00     -0.00   -246.57

     ewald   stress (kbar) -26498.62      0.01      0.01
                                0.01 -26498.61     -0.03
                                0.01     -0.03 -22840.17

     hubbard stress (kbar)      0.00      0.00      0.00
                                0.00      0.00      0.00
                                0.00      0.00      0.00

     london  stress (kbar)      0.00      0.00      0.00
                                0.00      0.00      0.00
                                0.00      0.00      0.00

     DFT-D3  stress (kbar)      0.00      0.00      0.00
                                0.00      0.00      0.00
                                0.00      0.00      0.00

     XDM     stress (kbar)      0.00      0.00      0.00
                                0.00      0.00      0.00
                                0.00      0.00      0.00

     dft-nl  stress (kbar)      0.00      0.00      0.00
                                0.00      0.00      0.00
                                0.00      0.00      0.00

     TS-vdW  stress (kbar)      0.00      0.00      0.00
                                0.00      0.00      0.00
                                0.00      0.00      0.00



     Writing output data file ZnO.save/
 
     init_run     :      0.43s CPU      0.83s WALL (       1 calls)
     electrons    :      4.14s CPU      4.59s WALL (       1 calls)
     forces       :      0.13s CPU      0.23s WALL (       1 calls)
     stress       :      0.27s CPU      0.33s WALL (       1 calls)

     Called by init_run:
     wfcinit      :      0.29s CPU      0.45s WALL (       1 calls)
     wfcinit:atom :      0.00s CPU      0.01s WALL (      65 calls)
     wfcinit:wfcr :      0.27s CPU      0.41s WALL (      65 calls)
     potinit      :      0.06s CPU      0.08s WALL (       1 calls)
     hinit0       :      0.07s CPU      0.15s WALL (       1 calls)

     Called by electrons:
     c_bands      :      3.39s CPU      3.69s WALL (       6 calls)
     sum_band     :      0.53s CPU      0.60s WALL (       6 calls)
     v_of_rho     :      0.19s CPU      0.22s WALL (       7 calls)
     v_h          :      0.00s CPU      0.00s WALL (       7 calls)
     v_xc         :      0.24s CPU      0.26s WALL (       9 calls)
     newd         :      0.03s CPU      0.05s WALL (       7 calls)
     mix_rho      :      0.01s CPU      0.02s WALL (       6 calls)

     Called by c_bands:
     init_us_2    :      0.07s CPU      0.09s WALL (     975 calls)
     cegterg      :      3.08s CPU      3.28s WALL (     390 calls)

     Called by sum_band:
     sum_band:bec :      0.00s CPU      0.01s WALL (     390 calls)
     addusdens    :      0.03s CPU      0.04s WALL (       6 calls)

     Called by *egterg:
     h_psi        :      1.93s CPU      2.01s WALL (    1324 calls)
     s_psi        :      0.07s CPU      0.07s WALL (    1324 calls)
     g_psi        :      0.00s CPU      0.00s WALL (     869 calls)
     cdiaghg      :      0.83s CPU      1.01s WALL (    1259 calls)
     cegterg:over :      0.24s CPU      0.28s WALL (     869 calls)
     cegterg:upda :      0.10s CPU      0.11s WALL (     869 calls)
     cegterg:last :      0.05s CPU      0.06s WALL (     390 calls)
     cdiaghg:chol :      0.05s CPU      0.11s WALL (    1259 calls)
     cdiaghg:inve :      0.02s CPU      0.05s WALL (    1259 calls)
     cdiaghg:para :      0.08s CPU      0.09s WALL (    2518 calls)

     Called by h_psi:
     h_psi:pot    :      1.92s CPU      2.01s WALL (    1324 calls)
     h_psi:calbec :      0.12s CPU      0.14s WALL (    1324 calls)
     vloc_psi     :      1.72s CPU      1.79s WALL (    1324 calls)
     add_vuspsi   :      0.07s CPU      0.08s WALL (    1324 calls)

     General routines
     calbec       :      0.21s CPU      0.23s WALL (    2039 calls)
     fft          :      0.03s CPU      0.06s WALL (     114 calls)
     ffts         :      0.01s CPU      0.01s WALL (      13 calls)
     fftw         :      1.98s CPU      2.06s WALL (   38698 calls)
     interpolate  :      0.00s CPU      0.00s WALL (       7 calls)
 
     Parallel routines
     fft_scatt_xy :      0.29s CPU      0.30s WALL (   38825 calls)
     fft_scatt_yz :      1.00s CPU      1.05s WALL (   38825 calls)
 
     PWSCF        :      5.21s CPU      7.97s WALL

 
   This run was terminated on:  20:54:27  15Jun2022            

=------------------------------------------------------------------------------=
   JOB DONE.
=------------------------------------------------------------------------------=
