
     Program PWSCF v.6.4.1 starts on 15Jun2022 at 20:44:21 

     This program is part of the open-source Quantum ESPRESSO suite
     for quantum simulation of materials; please cite
         "P. Giannozzi et al., J. Phys.:Condens. Matter 21 395502 (2009);
         "P. Giannozzi et al., J. Phys.:Condens. Matter 29 465901 (2017);
          URL http://www.quantum-espresso.org", 
     in publications or presentations arising from this work. More details at
     http://www.quantum-espresso.org/quote

     Parallel version (MPI), running on    64 processors

     MPI processes distributed on     1 nodes
     K-points division:     npool     =       4
     R & G space division:  proc/nbgrp/npool/nimage =      16
     Waiting for input...
     Reading input from standard input
Warning: card &IONS ignored
Warning: card   UPSCALE           = 100.D0, ignored
Warning: card / ignored
Warning: card &CELL ignored
Warning: card   CELL_DYNAMICS     = 'BFGS' ignored
Warning: card   PRESS_CONV_THR    = 0.5D0 ignored
Warning: card   CELL_DOFREE = 'ALL' ignored
Warning: card / ignored

     Current dimensions of program PWSCF are:
     Max number of different atomic species (ntypx) = 10
     Max number of k-points (npk) =  40000
     Max angular momentum in pseudopotentials (lmaxx) =  3

     Subspace diagonalization in iterative solution of the eigenvalue problem:
     one sub-group per band group will be used
     scalapack distributed-memory algorithm (size of sub-group:  2*  2 procs)

 
     Parallelization info
     --------------------
     sticks:   dense  smooth     PW     G-vecs:    dense   smooth      PW
     Min         100      52     16                 4914     1914     334
     Max         102      53     18                 4918     1923     335
     Sum        1615     847    265                78643    30731    5347
 


     bravais-lattice index     =            0
     lattice parameter (alat)  =       6.2217  a.u.
     unit-cell volume          =     317.7757 (a.u.)^3
     number of atoms/cell      =            4
     number of atomic types    =            2
     number of electrons       =        52.00
     number of Kohn-Sham states=           26
     kinetic-energy cutoff     =      80.0000  Ry
     charge density cutoff     =     600.0000  Ry
     convergence threshold     =      1.0E-06
     mixing beta               =       0.5000
     number of iterations used =            8  plain     mixing
     Exchange-correlation      = SLA  PW   PSX  PSC ( 1  4 10  8 0 0)
     Using LIBXC version       =    4   3   4

     celldm(1)=   6.221675  celldm(2)=   0.000000  celldm(3)=   0.000000
     celldm(4)=   0.000000  celldm(5)=   0.000000  celldm(6)=   0.000000

     crystal axes: (cart. coord. in units of alat)
               a(1) = (   1.000000   0.000000  -0.000000 )  
               a(2) = (  -0.500000   0.866025   0.000000 )  
               a(3) = (  -0.000000   0.000000   1.523591 )  

     reciprocal axes: (cart. coord. in units 2 pi/alat)
               b(1) = (  1.000000  0.577350 -0.000000 )  
               b(2) = ( -0.000000  1.154701 -0.000000 )  
               b(3) = (  0.000000 -0.000000  0.656344 )  


     PseudoPot. # 1 for Zn read from file:
     ./GBRV_PBEsol/zn_pbesol_v1.uspp.F.UPF
     MD5 check sum: 7d8615e52efe7c1e2b1899de8658bae2
     Pseudo is Ultrasoft, Zval = 20.0
     Generated by new atomic code, or converted to UPF format
     Using radial grid of  943 points,  6 beta functions with: 
                l(1) =   0
                l(2) =   0
                l(3) =   1
                l(4) =   1
                l(5) =   2
                l(6) =   2
     Q(r) pseudized with  8 coefficients,  rinner =    1.100   1.100   1.100
                                                       1.100   1.100

     PseudoPot. # 2 for O  read from file:
     ./GBRV_PBEsol/o_pbesol_v1.2.uspp.F.UPF
     MD5 check sum: 501638753501ef6325af9037351f7734
     Pseudo is Ultrasoft + core correction, Zval =  6.0
     Generated by new atomic code, or converted to UPF format
     Using radial grid of  737 points,  5 beta functions with: 
                l(1) =   0
                l(2) =   0
                l(3) =   1
                l(4) =   1
                l(5) =   2
     Q(r) pseudized with  8 coefficients,  rinner =    0.900   0.900   0.900
                                                       0.900   0.900

     atomic species   valence    mass     pseudopotential
        Zn            20.00    65.38000     Zn( 1.00)
        O              6.00    15.99900     O ( 1.00)

     No symmetry found


                                    s                        frac. trans.

      isym =  1     identity                                     

 cryst.   s( 1) = (     1          0          0      )
                  (     0          1          0      )
                  (     0          0          1      )

 cart.    s( 1) = (  1.0000000  0.0000000  0.0000000 )
                  (  0.0000000  1.0000000 -0.0000000 )
                  (  0.0000000 -0.0000000  1.0000000 )


   Cartesian axes

     site n.     atom                  positions (alat units)
         1           O   tau(   1) = (   0.5000002   0.2886755   0.0111922  )
         2           O   tau(   2) = (   0.0000001   0.5773495   0.7729874  )
         3           Zn  tau(   3) = (   0.5000000   0.2886749   0.6343534  )
         4           Zn  tau(   4) = (  -0.0000003   0.5773514   1.3961487  )

   Crystallographic axes

     site n.     atom                  positions (cryst. coord.)
         1           O   tau(   1) = (  0.6666670  0.3333337  0.0073459  )
         2           O   tau(   2) = (  0.3333329  0.6666657  0.5073458  )
         3           Zn  tau(   3) = (  0.6666664  0.3333329  0.4163542  )
         4           Zn  tau(   4) = (  0.3333336  0.6666677  0.9163542  )

     number of k points=   260
                       cart. coord. in units 2pi/alat
        k(    1) = (   0.0000000   0.0000000   0.0000000), wk =   0.0039062
        k(    2) = (   0.0000000  -0.0000000   0.0820430), wk =   0.0078125
        k(    3) = (   0.0000000  -0.0000000   0.1640861), wk =   0.0078125
        k(    4) = (   0.0000000  -0.0000001   0.2461291), wk =   0.0078125
        k(    5) = (  -0.0000000   0.0000001  -0.3281722), wk =   0.0039062
        k(    6) = (  -0.0000000   0.1443376  -0.0000000), wk =   0.0078125
        k(    7) = (  -0.0000000   0.1443376   0.0820430), wk =   0.0078125
        k(    8) = (  -0.0000000   0.1443375   0.1640861), wk =   0.0078125
        k(    9) = (  -0.0000000   0.1443375   0.2461291), wk =   0.0078125
        k(   10) = (  -0.0000000   0.1443377  -0.3281722), wk =   0.0078125
        k(   11) = (  -0.0000000   0.1443377  -0.2461292), wk =   0.0078125
        k(   12) = (  -0.0000000   0.1443376  -0.1640861), wk =   0.0078125
        k(   13) = (  -0.0000000   0.1443376  -0.0820431), wk =   0.0078125
        k(   14) = (  -0.0000000   0.2886752  -0.0000001), wk =   0.0078125
        k(   15) = (  -0.0000000   0.2886751   0.0820430), wk =   0.0078125
        k(   16) = (  -0.0000000   0.2886751   0.1640860), wk =   0.0078125
        k(   17) = (  -0.0000000   0.2886751   0.2461291), wk =   0.0078125
        k(   18) = (  -0.0000000   0.2886753  -0.3281722), wk =   0.0078125
        k(   19) = (  -0.0000000   0.2886752  -0.2461292), wk =   0.0078125
        k(   20) = (  -0.0000000   0.2886752  -0.1640861), wk =   0.0078125
        k(   21) = (  -0.0000000   0.2886752  -0.0820431), wk =   0.0078125
        k(   22) = (  -0.0000000   0.4330128  -0.0000001), wk =   0.0078125
        k(   23) = (  -0.0000000   0.4330127   0.0820430), wk =   0.0078125
        k(   24) = (  -0.0000000   0.4330127   0.1640860), wk =   0.0078125
        k(   25) = (  -0.0000000   0.4330127   0.2461290), wk =   0.0078125
        k(   26) = (  -0.0000000   0.4330128  -0.3281722), wk =   0.0078125
        k(   27) = (  -0.0000000   0.4330128  -0.2461292), wk =   0.0078125
        k(   28) = (  -0.0000000   0.4330128  -0.1640862), wk =   0.0078125
        k(   29) = (  -0.0000000   0.4330128  -0.0820431), wk =   0.0078125
        k(   30) = (   0.0000000  -0.5773503   0.0000001), wk =   0.0039062
        k(   31) = (   0.0000000  -0.5773504   0.0820432), wk =   0.0078125
        k(   32) = (   0.0000001  -0.5773504   0.1640862), wk =   0.0078125
        k(   33) = (   0.0000001  -0.5773504   0.2461292), wk =   0.0078125
        k(   34) = (   0.0000000  -0.5773502  -0.3281721), wk =   0.0039062
        k(   35) = (   0.1250000   0.0721688  -0.0000000), wk =   0.0078125
        k(   36) = (   0.1250000   0.0721688   0.0820430), wk =   0.0078125
        k(   37) = (   0.1250000   0.0721687   0.1640861), wk =   0.0078125
        k(   38) = (   0.1250000   0.0721687   0.2461291), wk =   0.0078125
        k(   39) = (   0.1250000   0.0721689  -0.3281722), wk =   0.0078125
        k(   40) = (   0.1250000   0.0721689  -0.2461291), wk =   0.0078125
        k(   41) = (   0.1250000   0.0721688  -0.1640861), wk =   0.0078125
        k(   42) = (   0.1250000   0.0721688  -0.0820430), wk =   0.0078125
        k(   43) = (   0.1250000   0.2165064  -0.0000000), wk =   0.0078125
        k(   44) = (   0.1250000   0.2165063   0.0820430), wk =   0.0078125
        k(   45) = (   0.1250000   0.2165063   0.1640861), wk =   0.0078125
        k(   46) = (   0.1250000   0.2165063   0.2461291), wk =   0.0078125
        k(   47) = (   0.1250000   0.2165065  -0.3281722), wk =   0.0078125
        k(   48) = (   0.1250000   0.2165064  -0.2461292), wk =   0.0078125
        k(   49) = (   0.1250000   0.2165064  -0.1640861), wk =   0.0078125
        k(   50) = (   0.1250000   0.2165064  -0.0820431), wk =   0.0078125
        k(   51) = (   0.1250000   0.3608440  -0.0000001), wk =   0.0078125
        k(   52) = (   0.1250000   0.3608439   0.0820430), wk =   0.0078125
        k(   53) = (   0.1250000   0.3608439   0.1640860), wk =   0.0078125
        k(   54) = (   0.1250000   0.3608439   0.2461291), wk =   0.0078125
        k(   55) = (   0.1250000   0.3608440  -0.3281722), wk =   0.0078125
        k(   56) = (   0.1250000   0.3608440  -0.2461292), wk =   0.0078125
        k(   57) = (   0.1250000   0.3608440  -0.1640861), wk =   0.0078125
        k(   58) = (   0.1250000   0.3608440  -0.0820431), wk =   0.0078125
        k(   59) = (   0.1250000   0.5051815  -0.0000001), wk =   0.0078125
        k(   60) = (   0.1250000   0.5051815   0.0820430), wk =   0.0078125
        k(   61) = (   0.1250000   0.5051815   0.1640860), wk =   0.0078125
        k(   62) = (   0.1250000   0.5051815   0.2461290), wk =   0.0078125
        k(   63) = (   0.1249999   0.5051816  -0.3281723), wk =   0.0078125
        k(   64) = (   0.1250000   0.5051816  -0.2461292), wk =   0.0078125
        k(   65) = (   0.1250000   0.5051816  -0.1640862), wk =   0.0078125
        k(   66) = (   0.1250000   0.5051816  -0.0820431), wk =   0.0078125
        k(   67) = (   0.1250000  -0.5051816   0.0000001), wk =   0.0078125
        k(   68) = (   0.1250000  -0.5051816   0.0820431), wk =   0.0078125
        k(   69) = (   0.1250000  -0.5051816   0.1640862), wk =   0.0078125
        k(   70) = (   0.1250000  -0.5051816   0.2461292), wk =   0.0078125
        k(   71) = (   0.1250000  -0.5051815  -0.3281721), wk =   0.0078125
        k(   72) = (   0.1250000  -0.5051815  -0.2461290), wk =   0.0078125
        k(   73) = (   0.1250000  -0.5051815  -0.1640860), wk =   0.0078125
        k(   74) = (   0.1250000  -0.5051815  -0.0820429), wk =   0.0078125
        k(   75) = (   0.1250000  -0.3608440   0.0000001), wk =   0.0078125
        k(   76) = (   0.1250000  -0.3608440   0.0820431), wk =   0.0078125
        k(   77) = (   0.1250000  -0.3608440   0.1640862), wk =   0.0078125
        k(   78) = (   0.1250000  -0.3608440   0.2461292), wk =   0.0078125
        k(   79) = (   0.1250000  -0.3608439  -0.3281721), wk =   0.0078125
        k(   80) = (   0.1250000  -0.3608439  -0.2461290), wk =   0.0078125
        k(   81) = (   0.1250000  -0.3608439  -0.1640860), wk =   0.0078125
        k(   82) = (   0.1250000  -0.3608439  -0.0820430), wk =   0.0078125
        k(   83) = (   0.1250000  -0.2165064   0.0000000), wk =   0.0078125
        k(   84) = (   0.1250000  -0.2165064   0.0820431), wk =   0.0078125
        k(   85) = (   0.1250000  -0.2165064   0.1640861), wk =   0.0078125
        k(   86) = (   0.1250000  -0.2165065   0.2461292), wk =   0.0078125
        k(   87) = (   0.1250000  -0.2165063  -0.3281721), wk =   0.0078125
        k(   88) = (   0.1250000  -0.2165063  -0.2461291), wk =   0.0078125
        k(   89) = (   0.1250000  -0.2165063  -0.1640860), wk =   0.0078125
        k(   90) = (   0.1250000  -0.2165064  -0.0820430), wk =   0.0078125
        k(   91) = (   0.1250000  -0.0721688   0.0000000), wk =   0.0078125
        k(   92) = (   0.1250000  -0.0721688   0.0820431), wk =   0.0078125
        k(   93) = (   0.1250000  -0.0721688   0.1640861), wk =   0.0078125
        k(   94) = (   0.1250000  -0.0721689   0.2461291), wk =   0.0078125
        k(   95) = (   0.1250000  -0.0721687  -0.3281721), wk =   0.0078125
        k(   96) = (   0.1250000  -0.0721687  -0.2461291), wk =   0.0078125
        k(   97) = (   0.1250000  -0.0721688  -0.1640861), wk =   0.0078125
        k(   98) = (   0.1250000  -0.0721688  -0.0820430), wk =   0.0078125
        k(   99) = (   0.2500000   0.1443376  -0.0000000), wk =   0.0078125
        k(  100) = (   0.2500000   0.1443375   0.0820430), wk =   0.0078125
        k(  101) = (   0.2500000   0.1443375   0.1640861), wk =   0.0078125
        k(  102) = (   0.2500000   0.1443375   0.2461291), wk =   0.0078125
        k(  103) = (   0.2500000   0.1443377  -0.3281722), wk =   0.0078125
        k(  104) = (   0.2500000   0.1443376  -0.2461291), wk =   0.0078125
        k(  105) = (   0.2500000   0.1443376  -0.1640861), wk =   0.0078125
        k(  106) = (   0.2500000   0.1443376  -0.0820431), wk =   0.0078125
        k(  107) = (   0.2500000   0.2886752  -0.0000000), wk =   0.0078125
        k(  108) = (   0.2500000   0.2886751   0.0820430), wk =   0.0078125
        k(  109) = (   0.2500000   0.2886751   0.1640860), wk =   0.0078125
        k(  110) = (   0.2500000   0.2886751   0.2461291), wk =   0.0078125
        k(  111) = (   0.2500000   0.2886752  -0.3281722), wk =   0.0078125
        k(  112) = (   0.2500000   0.2886752  -0.2461292), wk =   0.0078125
        k(  113) = (   0.2500000   0.2886752  -0.1640861), wk =   0.0078125
        k(  114) = (   0.2500000   0.2886752  -0.0820431), wk =   0.0078125
        k(  115) = (   0.2500000   0.4330127  -0.0000001), wk =   0.0078125
        k(  116) = (   0.2500000   0.4330127   0.0820430), wk =   0.0078125
        k(  117) = (   0.2500000   0.4330127   0.1640860), wk =   0.0078125
        k(  118) = (   0.2500000   0.4330127   0.2461291), wk =   0.0078125
        k(  119) = (   0.2500000   0.4330128  -0.3281722), wk =   0.0078125
        k(  120) = (   0.2500000   0.4330128  -0.2461292), wk =   0.0078125
        k(  121) = (   0.2500000   0.4330128  -0.1640861), wk =   0.0078125
        k(  122) = (   0.2500000   0.4330128  -0.0820431), wk =   0.0078125
        k(  123) = (   0.2500000   0.5773503  -0.0000001), wk =   0.0078125
        k(  124) = (   0.2500000   0.5773503   0.0820430), wk =   0.0078125
        k(  125) = (   0.2500000   0.5773503   0.1640860), wk =   0.0078125
        k(  126) = (   0.2500000   0.5773502   0.2461290), wk =   0.0078125
        k(  127) = (   0.2499999   0.5773504  -0.3281723), wk =   0.0078125
        k(  128) = (   0.2499999   0.5773504  -0.2461292), wk =   0.0078125
        k(  129) = (   0.2499999   0.5773504  -0.1640862), wk =   0.0078125
        k(  130) = (   0.2500000   0.5773503  -0.0820431), wk =   0.0078125
        k(  131) = (   0.2500000  -0.4330128   0.0000001), wk =   0.0078125
        k(  132) = (   0.2500000  -0.4330128   0.0820431), wk =   0.0078125
        k(  133) = (   0.2500000  -0.4330128   0.1640862), wk =   0.0078125
        k(  134) = (   0.2500000  -0.4330128   0.2461292), wk =   0.0078125
        k(  135) = (   0.2500000  -0.4330127  -0.3281721), wk =   0.0078125
        k(  136) = (   0.2500000  -0.4330127  -0.2461290), wk =   0.0078125
        k(  137) = (   0.2500000  -0.4330127  -0.1640860), wk =   0.0078125
        k(  138) = (   0.2500000  -0.4330128  -0.0820429), wk =   0.0078125
        k(  139) = (   0.2500000  -0.2886752   0.0000001), wk =   0.0078125
        k(  140) = (   0.2500000  -0.2886752   0.0820431), wk =   0.0078125
        k(  141) = (   0.2500000  -0.2886752   0.1640862), wk =   0.0078125
        k(  142) = (   0.2500000  -0.2886753   0.2461292), wk =   0.0078125
        k(  143) = (   0.2500000  -0.2886751  -0.3281721), wk =   0.0078125
        k(  144) = (   0.2500000  -0.2886751  -0.2461291), wk =   0.0078125
        k(  145) = (   0.2500000  -0.2886751  -0.1640860), wk =   0.0078125
        k(  146) = (   0.2500000  -0.2886752  -0.0820430), wk =   0.0078125
        k(  147) = (   0.2500000  -0.1443376   0.0000000), wk =   0.0078125
        k(  148) = (   0.2500000  -0.1443376   0.0820431), wk =   0.0078125
        k(  149) = (   0.2500000  -0.1443377   0.1640861), wk =   0.0078125
        k(  150) = (   0.2500000  -0.1443377   0.2461292), wk =   0.0078125
        k(  151) = (   0.2500000  -0.1443375  -0.3281721), wk =   0.0078125
        k(  152) = (   0.2500000  -0.1443375  -0.2461291), wk =   0.0078125
        k(  153) = (   0.2500000  -0.1443376  -0.1640860), wk =   0.0078125
        k(  154) = (   0.2500000  -0.1443376  -0.0820430), wk =   0.0078125
        k(  155) = (   0.2500000  -0.0000000   0.0000000), wk =   0.0078125
        k(  156) = (   0.2500000  -0.0000000   0.0820431), wk =   0.0078125
        k(  157) = (   0.2500000  -0.0000001   0.1640861), wk =   0.0078125
        k(  158) = (   0.2500000  -0.0000001   0.2461291), wk =   0.0078125
        k(  159) = (   0.2500000   0.0000001  -0.3281721), wk =   0.0078125
        k(  160) = (   0.2500000   0.0000001  -0.2461291), wk =   0.0078125
        k(  161) = (   0.2500000   0.0000000  -0.1640861), wk =   0.0078125
        k(  162) = (   0.2500000   0.0000000  -0.0820430), wk =   0.0078125
        k(  163) = (   0.3750000   0.2165063  -0.0000000), wk =   0.0078125
        k(  164) = (   0.3750000   0.2165063   0.0820430), wk =   0.0078125
        k(  165) = (   0.3750000   0.2165063   0.1640861), wk =   0.0078125
        k(  166) = (   0.3750000   0.2165063   0.2461291), wk =   0.0078125
        k(  167) = (   0.3750000   0.2165064  -0.3281722), wk =   0.0078125
        k(  168) = (   0.3750000   0.2165064  -0.2461291), wk =   0.0078125
        k(  169) = (   0.3750000   0.2165064  -0.1640861), wk =   0.0078125
        k(  170) = (   0.3750000   0.2165064  -0.0820431), wk =   0.0078125
        k(  171) = (   0.3750000   0.3608439  -0.0000000), wk =   0.0078125
        k(  172) = (   0.3750000   0.3608439   0.0820430), wk =   0.0078125
        k(  173) = (   0.3750000   0.3608439   0.1640860), wk =   0.0078125
        k(  174) = (   0.3750000   0.3608439   0.2461291), wk =   0.0078125
        k(  175) = (   0.3750000   0.3608440  -0.3281722), wk =   0.0078125
        k(  176) = (   0.3750000   0.3608440  -0.2461292), wk =   0.0078125
        k(  177) = (   0.3750000   0.3608440  -0.1640861), wk =   0.0078125
        k(  178) = (   0.3750000   0.3608440  -0.0820431), wk =   0.0078125
        k(  179) = (   0.3750000   0.5051815  -0.0000001), wk =   0.0078125
        k(  180) = (   0.3750000   0.5051815   0.0820430), wk =   0.0078125
        k(  181) = (   0.3750000   0.5051815   0.1640860), wk =   0.0078125
        k(  182) = (   0.3750000   0.5051814   0.2461291), wk =   0.0078125
        k(  183) = (   0.3749999   0.5051816  -0.3281722), wk =   0.0078125
        k(  184) = (   0.3750000   0.5051816  -0.2461292), wk =   0.0078125
        k(  185) = (   0.3750000   0.5051816  -0.1640862), wk =   0.0078125
        k(  186) = (   0.3750000   0.5051815  -0.0820431), wk =   0.0078125
        k(  187) = (   0.3749999   0.6495191  -0.0000001), wk =   0.0078125
        k(  188) = (   0.3750000   0.6495191   0.0820429), wk =   0.0078125
        k(  189) = (   0.3750000   0.6495191   0.1640860), wk =   0.0078125
        k(  190) = (   0.3750000   0.6495190   0.2461290), wk =   0.0078125
        k(  191) = (   0.3749999   0.6495192  -0.3281723), wk =   0.0078125
        k(  192) = (   0.3749999   0.6495192  -0.2461292), wk =   0.0078125
        k(  193) = (   0.3749999   0.6495192  -0.1640862), wk =   0.0078125
        k(  194) = (   0.3749999   0.6495191  -0.0820431), wk =   0.0078125
        k(  195) = (   0.3750000  -0.3608440   0.0000001), wk =   0.0078125
        k(  196) = (   0.3750000  -0.3608440   0.0820431), wk =   0.0078125
        k(  197) = (   0.3750000  -0.3608440   0.1640862), wk =   0.0078125
        k(  198) = (   0.3750000  -0.3608441   0.2461292), wk =   0.0078125
        k(  199) = (   0.3750000  -0.3608439  -0.3281721), wk =   0.0078125
        k(  200) = (   0.3750000  -0.3608439  -0.2461290), wk =   0.0078125
        k(  201) = (   0.3750000  -0.3608439  -0.1640860), wk =   0.0078125
        k(  202) = (   0.3750000  -0.3608440  -0.0820429), wk =   0.0078125
        k(  203) = (   0.3750000  -0.2165064   0.0000001), wk =   0.0078125
        k(  204) = (   0.3750000  -0.2165064   0.0820431), wk =   0.0078125
        k(  205) = (   0.3750000  -0.2165065   0.1640862), wk =   0.0078125
        k(  206) = (   0.3750000  -0.2165065   0.2461292), wk =   0.0078125
        k(  207) = (   0.3750000  -0.2165063  -0.3281721), wk =   0.0078125
        k(  208) = (   0.3750000  -0.2165063  -0.2461291), wk =   0.0078125
        k(  209) = (   0.3750000  -0.2165064  -0.1640860), wk =   0.0078125
        k(  210) = (   0.3750000  -0.2165064  -0.0820430), wk =   0.0078125
        k(  211) = (   0.3750000  -0.0721688   0.0000000), wk =   0.0078125
        k(  212) = (   0.3750000  -0.0721688   0.0820431), wk =   0.0078125
        k(  213) = (   0.3750000  -0.0721689   0.1640861), wk =   0.0078125
        k(  214) = (   0.3750000  -0.0721689   0.2461292), wk =   0.0078125
        k(  215) = (   0.3750000  -0.0721687  -0.3281721), wk =   0.0078125
        k(  216) = (   0.3750000  -0.0721688  -0.2461291), wk =   0.0078125
        k(  217) = (   0.3750000  -0.0721688  -0.1640860), wk =   0.0078125
        k(  218) = (   0.3750000  -0.0721688  -0.0820430), wk =   0.0078125
        k(  219) = (   0.3750000   0.0721688   0.0000000), wk =   0.0078125
        k(  220) = (   0.3750000   0.0721687   0.0820431), wk =   0.0078125
        k(  221) = (   0.3750000   0.0721687   0.1640861), wk =   0.0078125
        k(  222) = (   0.3750000   0.0721687   0.2461291), wk =   0.0078125
        k(  223) = (   0.3750000   0.0721689  -0.3281722), wk =   0.0078125
        k(  224) = (   0.3750000   0.0721688  -0.2461291), wk =   0.0078125
        k(  225) = (   0.3750000   0.0721688  -0.1640861), wk =   0.0078125
        k(  226) = (   0.3750000   0.0721688  -0.0820430), wk =   0.0078125
        k(  227) = (  -0.5000000  -0.2886751   0.0000000), wk =   0.0039062
        k(  228) = (  -0.5000000  -0.2886752   0.0820431), wk =   0.0078125
        k(  229) = (  -0.5000000  -0.2886752   0.1640861), wk =   0.0078125
        k(  230) = (  -0.5000000  -0.2886752   0.2461291), wk =   0.0078125
        k(  231) = (  -0.5000000  -0.2886750  -0.3281721), wk =   0.0039062
        k(  232) = (  -0.5000000  -0.1443375  -0.0000000), wk =   0.0078125
        k(  233) = (  -0.5000000  -0.1443376   0.0820430), wk =   0.0078125
        k(  234) = (  -0.5000000  -0.1443376   0.1640861), wk =   0.0078125
        k(  235) = (  -0.5000000  -0.1443376   0.2461291), wk =   0.0078125
        k(  236) = (  -0.5000000  -0.1443375  -0.3281722), wk =   0.0078125
        k(  237) = (  -0.5000000  -0.1443375  -0.2461291), wk =   0.0078125
        k(  238) = (  -0.5000000  -0.1443375  -0.1640861), wk =   0.0078125
        k(  239) = (  -0.5000000  -0.1443375  -0.0820430), wk =   0.0078125
        k(  240) = (  -0.5000000   0.0000000  -0.0000000), wk =   0.0078125
        k(  241) = (  -0.5000000   0.0000000   0.0820430), wk =   0.0078125
        k(  242) = (  -0.5000000  -0.0000000   0.1640860), wk =   0.0078125
        k(  243) = (  -0.5000000  -0.0000000   0.2461291), wk =   0.0078125
        k(  244) = (  -0.5000000   0.0000001  -0.3281722), wk =   0.0078125
        k(  245) = (  -0.5000000   0.0000001  -0.2461292), wk =   0.0078125
        k(  246) = (  -0.5000000   0.0000001  -0.1640861), wk =   0.0078125
        k(  247) = (  -0.5000000   0.0000001  -0.0820431), wk =   0.0078125
        k(  248) = (  -0.5000000   0.1443376  -0.0000001), wk =   0.0078125
        k(  249) = (  -0.5000000   0.1443376   0.0820430), wk =   0.0078125
        k(  250) = (  -0.5000000   0.1443376   0.1640860), wk =   0.0078125
        k(  251) = (  -0.5000000   0.1443376   0.2461291), wk =   0.0078125
        k(  252) = (  -0.5000000   0.1443377  -0.3281722), wk =   0.0078125
        k(  253) = (  -0.5000000   0.1443377  -0.2461292), wk =   0.0078125
        k(  254) = (  -0.5000000   0.1443377  -0.1640861), wk =   0.0078125
        k(  255) = (  -0.5000000   0.1443376  -0.0820431), wk =   0.0078125
        k(  256) = (  -0.4999999  -0.8660255   0.0000001), wk =   0.0039062
        k(  257) = (  -0.4999999  -0.8660255   0.0820432), wk =   0.0078125
        k(  258) = (  -0.4999999  -0.8660255   0.1640862), wk =   0.0078125
        k(  259) = (  -0.4999999  -0.8660255   0.2461293), wk =   0.0078125
        k(  260) = (  -0.4999999  -0.8660254  -0.3281720), wk =   0.0039062

                       cryst. coord.
        k(    1) = (   0.0000000   0.0000000   0.0000000), wk =   0.0039062
        k(    2) = (   0.0000000  -0.0000000   0.1250000), wk =   0.0078125
        k(    3) = (   0.0000000  -0.0000000   0.2500000), wk =   0.0078125
        k(    4) = (   0.0000000  -0.0000000   0.3750000), wk =   0.0078125
        k(    5) = (  -0.0000000   0.0000000  -0.5000000), wk =   0.0039062
        k(    6) = (   0.0000000   0.1250000   0.0000000), wk =   0.0078125
        k(    7) = (   0.0000000   0.1250000   0.1250000), wk =   0.0078125
        k(    8) = (   0.0000000   0.1250000   0.2500000), wk =   0.0078125
        k(    9) = (   0.0000000   0.1250000   0.3750000), wk =   0.0078125
        k(   10) = (  -0.0000000   0.1250000  -0.5000000), wk =   0.0078125
        k(   11) = (  -0.0000000   0.1250000  -0.3750000), wk =   0.0078125
        k(   12) = (   0.0000000   0.1250000  -0.2500000), wk =   0.0078125
        k(   13) = (  -0.0000000   0.1250000  -0.1250000), wk =   0.0078125
        k(   14) = (   0.0000000   0.2500000   0.0000000), wk =   0.0078125
        k(   15) = (  -0.0000000   0.2500000   0.1250000), wk =   0.0078125
        k(   16) = (   0.0000000   0.2500000   0.2500000), wk =   0.0078125
        k(   17) = (   0.0000000   0.2500000   0.3750000), wk =   0.0078125
        k(   18) = (   0.0000000   0.2500000  -0.5000000), wk =   0.0078125
        k(   19) = (  -0.0000000   0.2500000  -0.3750000), wk =   0.0078125
        k(   20) = (  -0.0000000   0.2500000  -0.2500000), wk =   0.0078125
        k(   21) = (   0.0000000   0.2500000  -0.1250000), wk =   0.0078125
        k(   22) = (   0.0000000   0.3750000   0.0000000), wk =   0.0078125
        k(   23) = (   0.0000000   0.3750000   0.1250000), wk =   0.0078125
        k(   24) = (   0.0000000   0.3750000   0.2500000), wk =   0.0078125
        k(   25) = (   0.0000000   0.3750000   0.3750000), wk =   0.0078125
        k(   26) = (   0.0000000   0.3750000  -0.5000000), wk =   0.0078125
        k(   27) = (   0.0000000   0.3750000  -0.3750000), wk =   0.0078125
        k(   28) = (   0.0000000   0.3750000  -0.2500000), wk =   0.0078125
        k(   29) = (   0.0000000   0.3750000  -0.1250000), wk =   0.0078125
        k(   30) = (  -0.0000000  -0.5000000  -0.0000000), wk =   0.0039062
        k(   31) = (  -0.0000000  -0.5000000   0.1250000), wk =   0.0078125
        k(   32) = (  -0.0000000  -0.5000000   0.2500000), wk =   0.0078125
        k(   33) = (  -0.0000000  -0.5000000   0.3750000), wk =   0.0078125
        k(   34) = (  -0.0000000  -0.5000000  -0.5000000), wk =   0.0039062
        k(   35) = (   0.1250000  -0.0000000  -0.0000000), wk =   0.0078125
        k(   36) = (   0.1250000   0.0000000   0.1250000), wk =   0.0078125
        k(   37) = (   0.1250000   0.0000000   0.2500000), wk =   0.0078125
        k(   38) = (   0.1250000  -0.0000000   0.3750000), wk =   0.0078125
        k(   39) = (   0.1250000  -0.0000000  -0.5000000), wk =   0.0078125
        k(   40) = (   0.1250000   0.0000000  -0.3750000), wk =   0.0078125
        k(   41) = (   0.1250000  -0.0000000  -0.2500000), wk =   0.0078125
        k(   42) = (   0.1250000  -0.0000000  -0.1250000), wk =   0.0078125
        k(   43) = (   0.1250000   0.1250000   0.0000000), wk =   0.0078125
        k(   44) = (   0.1250000   0.1250000   0.1250000), wk =   0.0078125
        k(   45) = (   0.1250000   0.1250000   0.2500000), wk =   0.0078125
        k(   46) = (   0.1250000   0.1250000   0.3750000), wk =   0.0078125
        k(   47) = (   0.1250000   0.1250000  -0.5000000), wk =   0.0078125
        k(   48) = (   0.1250000   0.1250000  -0.3750000), wk =   0.0078125
        k(   49) = (   0.1250000   0.1250000  -0.2500000), wk =   0.0078125
        k(   50) = (   0.1250000   0.1250000  -0.1250000), wk =   0.0078125
        k(   51) = (   0.1250000   0.2500000   0.0000000), wk =   0.0078125
        k(   52) = (   0.1250000   0.2500000   0.1250000), wk =   0.0078125
        k(   53) = (   0.1250000   0.2500000   0.2500000), wk =   0.0078125
        k(   54) = (   0.1250000   0.2500000   0.3750000), wk =   0.0078125
        k(   55) = (   0.1250000   0.2500000  -0.5000000), wk =   0.0078125
        k(   56) = (   0.1250000   0.2500000  -0.3750000), wk =   0.0078125
        k(   57) = (   0.1250000   0.2500000  -0.2500000), wk =   0.0078125
        k(   58) = (   0.1250000   0.2500000  -0.1250000), wk =   0.0078125
        k(   59) = (   0.1250000   0.3750000  -0.0000000), wk =   0.0078125
        k(   60) = (   0.1250000   0.3750000   0.1250000), wk =   0.0078125
        k(   61) = (   0.1250000   0.3750000   0.2500000), wk =   0.0078125
        k(   62) = (   0.1250000   0.3750000   0.3750000), wk =   0.0078125
        k(   63) = (   0.1250000   0.3750000  -0.5000000), wk =   0.0078125
        k(   64) = (   0.1250000   0.3750000  -0.3750000), wk =   0.0078125
        k(   65) = (   0.1250000   0.3750000  -0.2500000), wk =   0.0078125
        k(   66) = (   0.1250000   0.3750000  -0.1250000), wk =   0.0078125
        k(   67) = (   0.1250000  -0.5000000  -0.0000000), wk =   0.0078125
        k(   68) = (   0.1250000  -0.5000000   0.1250000), wk =   0.0078125
        k(   69) = (   0.1250000  -0.5000000   0.2500000), wk =   0.0078125
        k(   70) = (   0.1250000  -0.5000000   0.3750000), wk =   0.0078125
        k(   71) = (   0.1250000  -0.5000000  -0.5000000), wk =   0.0078125
        k(   72) = (   0.1250000  -0.5000000  -0.3750000), wk =   0.0078125
        k(   73) = (   0.1250000  -0.5000000  -0.2500000), wk =   0.0078125
        k(   74) = (   0.1250000  -0.5000000  -0.1250000), wk =   0.0078125
        k(   75) = (   0.1250000  -0.3750000  -0.0000000), wk =   0.0078125
        k(   76) = (   0.1250000  -0.3750000   0.1250000), wk =   0.0078125
        k(   77) = (   0.1250000  -0.3750000   0.2500000), wk =   0.0078125
        k(   78) = (   0.1250000  -0.3750000   0.3750000), wk =   0.0078125
        k(   79) = (   0.1250000  -0.3750000  -0.5000000), wk =   0.0078125
        k(   80) = (   0.1250000  -0.3750000  -0.3750000), wk =   0.0078125
        k(   81) = (   0.1250000  -0.3750000  -0.2500000), wk =   0.0078125
        k(   82) = (   0.1250000  -0.3750000  -0.1250000), wk =   0.0078125
        k(   83) = (   0.1250000  -0.2500000  -0.0000000), wk =   0.0078125
        k(   84) = (   0.1250000  -0.2500000   0.1250000), wk =   0.0078125
        k(   85) = (   0.1250000  -0.2500000   0.2500000), wk =   0.0078125
        k(   86) = (   0.1250000  -0.2500000   0.3750000), wk =   0.0078125
        k(   87) = (   0.1250000  -0.2500000  -0.5000000), wk =   0.0078125
        k(   88) = (   0.1250000  -0.2500000  -0.3750000), wk =   0.0078125
        k(   89) = (   0.1250000  -0.2500000  -0.2500000), wk =   0.0078125
        k(   90) = (   0.1250000  -0.2500000  -0.1250000), wk =   0.0078125
        k(   91) = (   0.1250000  -0.1250000   0.0000000), wk =   0.0078125
        k(   92) = (   0.1250000  -0.1250000   0.1250000), wk =   0.0078125
        k(   93) = (   0.1250000  -0.1250000   0.2500000), wk =   0.0078125
        k(   94) = (   0.1250000  -0.1250000   0.3750000), wk =   0.0078125
        k(   95) = (   0.1250000  -0.1250000  -0.5000000), wk =   0.0078125
        k(   96) = (   0.1250000  -0.1250000  -0.3750000), wk =   0.0078125
        k(   97) = (   0.1250000  -0.1250000  -0.2500000), wk =   0.0078125
        k(   98) = (   0.1250000  -0.1250000  -0.1250000), wk =   0.0078125
        k(   99) = (   0.2500000  -0.0000000  -0.0000000), wk =   0.0078125
        k(  100) = (   0.2500000  -0.0000000   0.1250000), wk =   0.0078125
        k(  101) = (   0.2500000   0.0000000   0.2500000), wk =   0.0078125
        k(  102) = (   0.2500000   0.0000000   0.3750000), wk =   0.0078125
        k(  103) = (   0.2500000  -0.0000000  -0.5000000), wk =   0.0078125
        k(  104) = (   0.2500000  -0.0000000  -0.3750000), wk =   0.0078125
        k(  105) = (   0.2500000  -0.0000000  -0.2500000), wk =   0.0078125
        k(  106) = (   0.2500000  -0.0000000  -0.1250000), wk =   0.0078125
        k(  107) = (   0.2500000   0.1250000  -0.0000000), wk =   0.0078125
        k(  108) = (   0.2500000   0.1250000   0.1250000), wk =   0.0078125
        k(  109) = (   0.2500000   0.1250000   0.2500000), wk =   0.0078125
        k(  110) = (   0.2500000   0.1250000   0.3750000), wk =   0.0078125
        k(  111) = (   0.2500000   0.1250000  -0.5000000), wk =   0.0078125
        k(  112) = (   0.2500000   0.1250000  -0.3750000), wk =   0.0078125
        k(  113) = (   0.2500000   0.1250000  -0.2500000), wk =   0.0078125
        k(  114) = (   0.2500000   0.1250000  -0.1250000), wk =   0.0078125
        k(  115) = (   0.2500000   0.2500000   0.0000000), wk =   0.0078125
        k(  116) = (   0.2500000   0.2500000   0.1250000), wk =   0.0078125
        k(  117) = (   0.2500000   0.2500000   0.2500000), wk =   0.0078125
        k(  118) = (   0.2500000   0.2500000   0.3750000), wk =   0.0078125
        k(  119) = (   0.2500000   0.2500000  -0.5000000), wk =   0.0078125
        k(  120) = (   0.2500000   0.2500000  -0.3750000), wk =   0.0078125
        k(  121) = (   0.2500000   0.2500000  -0.2500000), wk =   0.0078125
        k(  122) = (   0.2500000   0.2500000  -0.1250000), wk =   0.0078125
        k(  123) = (   0.2500000   0.3750000   0.0000000), wk =   0.0078125
        k(  124) = (   0.2500000   0.3750000   0.1250000), wk =   0.0078125
        k(  125) = (   0.2500000   0.3750000   0.2500000), wk =   0.0078125
        k(  126) = (   0.2500000   0.3750000   0.3750000), wk =   0.0078125
        k(  127) = (   0.2500000   0.3750000  -0.5000000), wk =   0.0078125
        k(  128) = (   0.2500000   0.3750000  -0.3750000), wk =   0.0078125
        k(  129) = (   0.2500000   0.3750000  -0.2500000), wk =   0.0078125
        k(  130) = (   0.2500000   0.3750000  -0.1250000), wk =   0.0078125
        k(  131) = (   0.2500000  -0.5000000  -0.0000000), wk =   0.0078125
        k(  132) = (   0.2500000  -0.5000000   0.1250000), wk =   0.0078125
        k(  133) = (   0.2500000  -0.5000000   0.2500000), wk =   0.0078125
        k(  134) = (   0.2500000  -0.5000000   0.3750000), wk =   0.0078125
        k(  135) = (   0.2500000  -0.5000000  -0.5000000), wk =   0.0078125
        k(  136) = (   0.2500000  -0.5000000  -0.3750000), wk =   0.0078125
        k(  137) = (   0.2500000  -0.5000000  -0.2500000), wk =   0.0078125
        k(  138) = (   0.2500000  -0.5000000  -0.1250000), wk =   0.0078125
        k(  139) = (   0.2500000  -0.3750000  -0.0000000), wk =   0.0078125
        k(  140) = (   0.2500000  -0.3750000   0.1250000), wk =   0.0078125
        k(  141) = (   0.2500000  -0.3750000   0.2500000), wk =   0.0078125
        k(  142) = (   0.2500000  -0.3750000   0.3750000), wk =   0.0078125
        k(  143) = (   0.2500000  -0.3750000  -0.5000000), wk =   0.0078125
        k(  144) = (   0.2500000  -0.3750000  -0.3750000), wk =   0.0078125
        k(  145) = (   0.2500000  -0.3750000  -0.2500000), wk =   0.0078125
        k(  146) = (   0.2500000  -0.3750000  -0.1250000), wk =   0.0078125
        k(  147) = (   0.2500000  -0.2500000   0.0000000), wk =   0.0078125
        k(  148) = (   0.2500000  -0.2500000   0.1250000), wk =   0.0078125
        k(  149) = (   0.2500000  -0.2500000   0.2500000), wk =   0.0078125
        k(  150) = (   0.2500000  -0.2500000   0.3750000), wk =   0.0078125
        k(  151) = (   0.2500000  -0.2500000  -0.5000000), wk =   0.0078125
        k(  152) = (   0.2500000  -0.2500000  -0.3750000), wk =   0.0078125
        k(  153) = (   0.2500000  -0.2500000  -0.2500000), wk =   0.0078125
        k(  154) = (   0.2500000  -0.2500000  -0.1250000), wk =   0.0078125
        k(  155) = (   0.2500000  -0.1250000  -0.0000000), wk =   0.0078125
        k(  156) = (   0.2500000  -0.1250000   0.1250000), wk =   0.0078125
        k(  157) = (   0.2500000  -0.1250000   0.2500000), wk =   0.0078125
        k(  158) = (   0.2500000  -0.1250000   0.3750000), wk =   0.0078125
        k(  159) = (   0.2500000  -0.1250000  -0.5000000), wk =   0.0078125
        k(  160) = (   0.2500000  -0.1250000  -0.3750000), wk =   0.0078125
        k(  161) = (   0.2500000  -0.1250000  -0.2500000), wk =   0.0078125
        k(  162) = (   0.2500000  -0.1250000  -0.1250000), wk =   0.0078125
        k(  163) = (   0.3750000   0.0000000  -0.0000000), wk =   0.0078125
        k(  164) = (   0.3750000  -0.0000000   0.1250000), wk =   0.0078125
        k(  165) = (   0.3750000   0.0000000   0.2500000), wk =   0.0078125
        k(  166) = (   0.3750000   0.0000000   0.3750000), wk =   0.0078125
        k(  167) = (   0.3750000  -0.0000000  -0.5000000), wk =   0.0078125
        k(  168) = (   0.3750000  -0.0000000  -0.3750000), wk =   0.0078125
        k(  169) = (   0.3750000   0.0000000  -0.2500000), wk =   0.0078125
        k(  170) = (   0.3750000   0.0000000  -0.1250000), wk =   0.0078125
        k(  171) = (   0.3750000   0.1250000   0.0000000), wk =   0.0078125
        k(  172) = (   0.3750000   0.1250000   0.1250000), wk =   0.0078125
        k(  173) = (   0.3750000   0.1250000   0.2500000), wk =   0.0078125
        k(  174) = (   0.3750000   0.1250000   0.3750000), wk =   0.0078125
        k(  175) = (   0.3750000   0.1250000  -0.5000000), wk =   0.0078125
        k(  176) = (   0.3750000   0.1250000  -0.3750000), wk =   0.0078125
        k(  177) = (   0.3750000   0.1250000  -0.2500000), wk =   0.0078125
        k(  178) = (   0.3750000   0.1250000  -0.1250000), wk =   0.0078125
        k(  179) = (   0.3750000   0.2500000  -0.0000000), wk =   0.0078125
        k(  180) = (   0.3750000   0.2500000   0.1250000), wk =   0.0078125
        k(  181) = (   0.3750000   0.2500000   0.2500000), wk =   0.0078125
        k(  182) = (   0.3750000   0.2500000   0.3750000), wk =   0.0078125
        k(  183) = (   0.3750000   0.2500000  -0.5000000), wk =   0.0078125
        k(  184) = (   0.3750000   0.2500000  -0.3750000), wk =   0.0078125
        k(  185) = (   0.3750000   0.2500000  -0.2500000), wk =   0.0078125
        k(  186) = (   0.3750000   0.2500000  -0.1250000), wk =   0.0078125
        k(  187) = (   0.3750000   0.3750000  -0.0000000), wk =   0.0078125
        k(  188) = (   0.3750000   0.3750000   0.1250000), wk =   0.0078125
        k(  189) = (   0.3750000   0.3750000   0.2500000), wk =   0.0078125
        k(  190) = (   0.3750000   0.3750000   0.3750000), wk =   0.0078125
        k(  191) = (   0.3750000   0.3750000  -0.5000000), wk =   0.0078125
        k(  192) = (   0.3750000   0.3750000  -0.3750000), wk =   0.0078125
        k(  193) = (   0.3750000   0.3750000  -0.2500000), wk =   0.0078125
        k(  194) = (   0.3750000   0.3750000  -0.1250000), wk =   0.0078125
        k(  195) = (   0.3750000  -0.5000000  -0.0000000), wk =   0.0078125
        k(  196) = (   0.3750000  -0.5000000   0.1250000), wk =   0.0078125
        k(  197) = (   0.3750000  -0.5000000   0.2500000), wk =   0.0078125
        k(  198) = (   0.3750000  -0.5000000   0.3750000), wk =   0.0078125
        k(  199) = (   0.3750000  -0.5000000  -0.5000000), wk =   0.0078125
        k(  200) = (   0.3750000  -0.5000000  -0.3750000), wk =   0.0078125
        k(  201) = (   0.3750000  -0.5000000  -0.2500000), wk =   0.0078125
        k(  202) = (   0.3750000  -0.5000000  -0.1250000), wk =   0.0078125
        k(  203) = (   0.3750000  -0.3750000  -0.0000000), wk =   0.0078125
        k(  204) = (   0.3750000  -0.3750000   0.1250000), wk =   0.0078125
        k(  205) = (   0.3750000  -0.3750000   0.2500000), wk =   0.0078125
        k(  206) = (   0.3750000  -0.3750000   0.3750000), wk =   0.0078125
        k(  207) = (   0.3750000  -0.3750000  -0.5000000), wk =   0.0078125
        k(  208) = (   0.3750000  -0.3750000  -0.3750000), wk =   0.0078125
        k(  209) = (   0.3750000  -0.3750000  -0.2500000), wk =   0.0078125
        k(  210) = (   0.3750000  -0.3750000  -0.1250000), wk =   0.0078125
        k(  211) = (   0.3750000  -0.2500000  -0.0000000), wk =   0.0078125
        k(  212) = (   0.3750000  -0.2500000   0.1250000), wk =   0.0078125
        k(  213) = (   0.3750000  -0.2500000   0.2500000), wk =   0.0078125
        k(  214) = (   0.3750000  -0.2500000   0.3750000), wk =   0.0078125
        k(  215) = (   0.3750000  -0.2500000  -0.5000000), wk =   0.0078125
        k(  216) = (   0.3750000  -0.2500000  -0.3750000), wk =   0.0078125
        k(  217) = (   0.3750000  -0.2500000  -0.2500000), wk =   0.0078125
        k(  218) = (   0.3750000  -0.2500000  -0.1250000), wk =   0.0078125
        k(  219) = (   0.3750000  -0.1250000  -0.0000000), wk =   0.0078125
        k(  220) = (   0.3750000  -0.1250000   0.1250000), wk =   0.0078125
        k(  221) = (   0.3750000  -0.1250000   0.2500000), wk =   0.0078125
        k(  222) = (   0.3750000  -0.1250000   0.3750000), wk =   0.0078125
        k(  223) = (   0.3750000  -0.1250000  -0.5000000), wk =   0.0078125
        k(  224) = (   0.3750000  -0.1250000  -0.3750000), wk =   0.0078125
        k(  225) = (   0.3750000  -0.1250000  -0.2500000), wk =   0.0078125
        k(  226) = (   0.3750000  -0.1250000  -0.1250000), wk =   0.0078125
        k(  227) = (  -0.5000000   0.0000000   0.0000000), wk =   0.0039062
        k(  228) = (  -0.5000000   0.0000000   0.1250000), wk =   0.0078125
        k(  229) = (  -0.5000000   0.0000000   0.2500000), wk =   0.0078125
        k(  230) = (  -0.5000000   0.0000000   0.3750000), wk =   0.0078125
        k(  231) = (  -0.5000000  -0.0000000  -0.5000000), wk =   0.0039062
        k(  232) = (  -0.5000000   0.1250000   0.0000000), wk =   0.0078125
        k(  233) = (  -0.5000000   0.1250000   0.1250000), wk =   0.0078125
        k(  234) = (  -0.5000000   0.1250000   0.2500000), wk =   0.0078125
        k(  235) = (  -0.5000000   0.1250000   0.3750000), wk =   0.0078125
        k(  236) = (  -0.5000000   0.1250000  -0.5000000), wk =   0.0078125
        k(  237) = (  -0.5000000   0.1250000  -0.3750000), wk =   0.0078125
        k(  238) = (  -0.5000000   0.1250000  -0.2500000), wk =   0.0078125
        k(  239) = (  -0.5000000   0.1250000  -0.1250000), wk =   0.0078125
        k(  240) = (  -0.5000000   0.2500000   0.0000000), wk =   0.0078125
        k(  241) = (  -0.5000000   0.2500000   0.1250000), wk =   0.0078125
        k(  242) = (  -0.5000000   0.2500000   0.2500000), wk =   0.0078125
        k(  243) = (  -0.5000000   0.2500000   0.3750000), wk =   0.0078125
        k(  244) = (  -0.5000000   0.2500000  -0.5000000), wk =   0.0078125
        k(  245) = (  -0.5000000   0.2500000  -0.3750000), wk =   0.0078125
        k(  246) = (  -0.5000000   0.2500000  -0.2500000), wk =   0.0078125
        k(  247) = (  -0.5000000   0.2500000  -0.1250000), wk =   0.0078125
        k(  248) = (  -0.5000000   0.3750000   0.0000000), wk =   0.0078125
        k(  249) = (  -0.5000000   0.3750000   0.1250000), wk =   0.0078125
        k(  250) = (  -0.5000000   0.3750000   0.2500000), wk =   0.0078125
        k(  251) = (  -0.5000000   0.3750000   0.3750000), wk =   0.0078125
        k(  252) = (  -0.5000000   0.3750000  -0.5000000), wk =   0.0078125
        k(  253) = (  -0.5000000   0.3750000  -0.3750000), wk =   0.0078125
        k(  254) = (  -0.5000000   0.3750000  -0.2500000), wk =   0.0078125
        k(  255) = (  -0.5000000   0.3750000  -0.1250000), wk =   0.0078125
        k(  256) = (  -0.5000000  -0.5000000  -0.0000000), wk =   0.0039062
        k(  257) = (  -0.5000000  -0.5000000   0.1250000), wk =   0.0078125
        k(  258) = (  -0.5000000  -0.5000000   0.2500000), wk =   0.0078125
        k(  259) = (  -0.5000000  -0.5000000   0.3750000), wk =   0.0078125
        k(  260) = (  -0.5000000  -0.5000000  -0.5000000), wk =   0.0039062

     Dense  grid:    78643 G-vectors     FFT dimensions: (  50,  50,  80)

     Smooth grid:    30731 G-vectors     FFT dimensions: (  36,  36,  54)

     Dynamical RAM for                 wfc:       0.10 MB

     Dynamical RAM for     wfc (w. buffer):       6.28 MB

     Dynamical RAM for           str. fact:       0.15 MB

     Dynamical RAM for           local pot:       0.00 MB

     Dynamical RAM for          nlocal pot:       0.23 MB

     Dynamical RAM for                qrad:       3.89 MB

     Dynamical RAM for          rho,v,vnew:       0.51 MB

     Dynamical RAM for               rhoin:       0.17 MB

     Dynamical RAM for            rho*nmix:       1.20 MB

     Dynamical RAM for           G-vectors:       0.30 MB

     Dynamical RAM for          h,s,v(r/c):       0.12 MB

     Dynamical RAM for          <psi|beta>:       0.02 MB

     Dynamical RAM for                 psi:       0.38 MB

     Dynamical RAM for                hpsi:       0.38 MB

     Dynamical RAM for                spsi:       0.38 MB

     Dynamical RAM for      wfcinit/wfcrot:       0.28 MB

     Dynamical RAM for           addusdens:       3.58 MB

     Dynamical RAM for          addusforce:       3.73 MB

     Dynamical RAM for         addusstress:       3.80 MB

     Estimated static dynamical RAM per process >      13.43 MB

     Estimated max dynamical RAM per process >      17.23 MB

     Estimated total dynamical RAM >       1.08 GB

     Check: negative core charge=   -0.000003

     Initial potential from superposition of free atoms

     starting charge   51.99974, renormalised to   52.00000
     Starting wfcs are   34 randomized atomic wfcs

     total cpu time spent up to now is        1.7 secs

     Self-consistent Calculation

     iteration #  1     ecut=    80.00 Ry     beta= 0.50
     Davidson diagonalization with overlap
     ethr =  1.00E-02,  avg # of iterations =  1.0

     total cpu time spent up to now is        2.6 secs

     total energy              =    -986.76374553 Ry
     Harris-Foulkes estimate   =    -987.28581859 Ry
     estimated scf accuracy    <       0.82132030 Ry

     iteration #  2     ecut=    80.00 Ry     beta= 0.50
     Davidson diagonalization with overlap
     ethr =  1.58E-03,  avg # of iterations =  3.0

     total cpu time spent up to now is        4.0 secs

     total energy              =    -987.00540565 Ry
     Harris-Foulkes estimate   =    -987.17426639 Ry
     estimated scf accuracy    <       0.39024947 Ry

     iteration #  3     ecut=    80.00 Ry     beta= 0.50
     Davidson diagonalization with overlap
     ethr =  7.50E-04,  avg # of iterations =  2.1

     total cpu time spent up to now is        5.1 secs

     total energy              =    -987.07558380 Ry
     Harris-Foulkes estimate   =    -987.07787145 Ry
     estimated scf accuracy    <       0.00685564 Ry

     iteration #  4     ecut=    80.00 Ry     beta= 0.50
     Davidson diagonalization with overlap
     ethr =  1.32E-05,  avg # of iterations =  2.0

     total cpu time spent up to now is        6.3 secs

     total energy              =    -987.07616972 Ry
     Harris-Foulkes estimate   =    -987.07662357 Ry
     estimated scf accuracy    <       0.00154003 Ry

     iteration #  5     ecut=    80.00 Ry     beta= 0.50
     Davidson diagonalization with overlap
     ethr =  2.96E-06,  avg # of iterations =  2.0

     total cpu time spent up to now is        7.5 secs

     total energy              =    -987.07633103 Ry
     Harris-Foulkes estimate   =    -987.07634082 Ry
     estimated scf accuracy    <       0.00001903 Ry

     iteration #  6     ecut=    80.00 Ry     beta= 0.50
     Davidson diagonalization with overlap
     ethr =  3.66E-08,  avg # of iterations =  2.0

     total cpu time spent up to now is        8.6 secs

     total energy              =    -987.07633413 Ry
     Harris-Foulkes estimate   =    -987.07633335 Ry
     estimated scf accuracy    <       0.00000365 Ry

     iteration #  7     ecut=    80.00 Ry     beta= 0.50
     Davidson diagonalization with overlap
     ethr =  7.02E-09,  avg # of iterations =  2.0

     total cpu time spent up to now is        9.6 secs

     End of self-consistent calculation

          k = 0.0000 0.0000 0.0000 (  3825 PWs)   bands (ev):

  -114.2913-114.2910 -68.6748 -68.6708 -68.6380 -68.6380 -68.6372 -68.6372
    -9.2196  -8.3743   2.9694   2.9694   3.0618   3.0618   3.3735   3.4533
     4.2406   4.2406   4.4901   4.4901   4.8594   8.0970   8.0970   8.5514
     8.8125   8.8125

     occupation numbers 
     1.0000   1.0000   1.0000   1.0000   1.0000   1.0000   1.0000   1.0000
     1.0000   1.0000   1.0000   1.0000   1.0000   1.0000   1.0000   1.0000
     1.0000   1.0000   1.0000   1.0000   1.0000   1.0000   1.0000   1.0000
     1.0000   1.0000

          k = 0.0000-0.0000 0.0820 (  3831 PWs)   bands (ev):

  -114.2913-114.2910 -68.6746 -68.6710 -68.6380 -68.6380 -68.6372 -68.6372
    -9.1890  -8.4079   2.9684   2.9684   3.0537   3.0537   3.2828   3.4104
     4.2547   4.2547   4.4853   4.4853   5.0571   8.1255   8.1255   8.2223
     8.7869   8.7869

     occupation numbers 
     1.0000   1.0000   1.0000   1.0000   1.0000   1.0000   1.0000   1.0000
     1.0000   1.0000   1.0000   1.0000   1.0000   1.0000   1.0000   1.0000
     1.0000   1.0000   1.0000   1.0000   1.0000   1.0000   1.0000   1.0000
     1.0000   1.0000

          k = 0.0000-0.0000 0.1641 (  3849 PWs)   bands (ev):

  -114.2912-114.2910 -68.6742 -68.6714 -68.6379 -68.6379 -68.6374 -68.6373
    -9.1010  -8.5032   2.9675   2.9675   3.0328   3.0328   3.1318   3.2995
     4.2927   4.2927   4.4694   4.4694   5.5137   7.6906   8.2061   8.2061
     8.7131   8.7131

     occupation numbers 
     1.0000   1.0000   1.0000   1.0000   1.0000   1.0000   1.0000   1.0000
     1.0000   1.0000   1.0000   1.0000   1.0000   1.0000   1.0000   1.0000
     1.0000   1.0000   1.0000   1.0000   1.0000   1.0000   1.0000   1.0000
     1.0000   1.0000

          k = 0.0000-0.0000 0.2461 (  3849 PWs)   bands (ev):

  -114.2912-114.2911 -68.6736 -68.6721 -68.6378 -68.6378 -68.6375 -68.6375
    -8.9676  -8.6440   2.9718   2.9718   3.0071   3.0071   3.0496   3.1667
     4.3440   4.3440   4.4397   4.4397   6.0602   7.1557   8.3256   8.3256
     8.6004   8.6004

     occupation numbers 
     1.0000   1.0000   1.0000   1.0000   1.0000   1.0000   1.0000   1.0000
     1.0000   1.0000   1.0000   1.0000   1.0000   1.0000   1.0000   1.0000
     1.0000   1.0000   1.0000   1.0000   1.0000   1.0000   1.0000   1.0000
     1.0000   1.0000

          k =-0.0000 0.0000-0.3282 (  3854 PWs)   bands (ev):

  -114.2912-114.2911 -68.6729 -68.6728 -68.6377 -68.6377 -68.6376 -68.6376
    -8.8074  -8.8073   2.9851   2.9851   2.9851   2.9851   3.0679   3.0680
     4.3962   4.3962   4.3963   4.3963   6.6155   6.6156   8.4644   8.4644
     8.4645   8.4645

     occupation numbers 
     1.0000   1.0000   1.0000   1.0000   1.0000   1.0000   1.0000   1.0000
     1.0000   1.0000   1.0000   1.0000   1.0000   1.0000   1.0000   1.0000
     1.0000   1.0000   1.0000   1.0000   1.0000   1.0000   1.0000   1.0000
     1.0000   1.0000

          k =-0.0000 0.1443-0.0000 (  3819 PWs)   bands (ev):

  -114.2912-114.2910 -68.6746 -68.6709 -68.6383 -68.6381 -68.6375 -68.6372
    -9.1321  -8.3407   2.8877   3.0380   3.0556   3.1399   3.4213   3.4941
     4.2068   4.2303   4.4996   4.6218   4.8496   7.5277   7.8597   7.9893
     8.4725   8.6648

     occupation numbers 
     1.0000   1.0000   1.0000   1.0000   1.0000   1.0000   1.0000   1.0000
     1.0000   1.0000   1.0000   1.0000   1.0000   1.0000   1.0000   1.0000
     1.0000   1.0000   1.0000   1.0000   1.0000   1.0000   1.0000   1.0000
     1.0000   1.0000

          k =-0.0000 0.1443 0.0820 (  3831 PWs)   bands (ev):

  -114.2912-114.2910 -68.6745 -68.6711 -68.6383 -68.6381 -68.6375 -68.6373
    -9.1031  -8.3718   2.8810   3.0253   3.0373   3.1314   3.3465   3.4530
     4.2274   4.2446   4.4934   4.5653   5.0959   7.5522   7.8118   7.8918
     8.5242   8.6359

     occupation numbers 
     1.0000   1.0000   1.0000   1.0000   1.0000   1.0000   1.0000   1.0000
     1.0000   1.0000   1.0000   1.0000   1.0000   1.0000   1.0000   1.0000
     1.0000   1.0000   1.0000   1.0000   1.0000   1.0000   1.0000   1.0000
     1.0000   1.0000

          k =-0.0000 0.1443 0.1641 (  3827 PWs)   bands (ev):

  -114.2912-114.2910 -68.6741 -68.6715 -68.6382 -68.6380 -68.6376 -68.6374
    -9.0198  -8.4598   2.8612   2.9394   3.0375   3.1093   3.2426   3.3557
     4.2796   4.2836   4.4740   4.5160   5.5719   7.3953   7.7268   7.9827
     8.4988   8.5527

     occupation numbers 
     1.0000   1.0000   1.0000   1.0000   1.0000   1.0000   1.0000   1.0000
     1.0000   1.0000   1.0000   1.0000   1.0000   1.0000   1.0000   1.0000
     1.0000   1.0000   1.0000   1.0000   1.0000   1.0000   1.0000   1.0000
     1.0000   1.0000

          k =-0.0000 0.1443 0.2461 (  3829 PWs)   bands (ev):

  -114.2912-114.2910 -68.6735 -68.6721 -68.6380 -68.6379 -68.6377 -68.6375
    -8.8938  -8.5906   2.8325   2.8569   3.0432   3.0820   3.1960   3.2570
     4.3368   4.3459   4.4398   4.4691   6.0947   7.0136   7.8971   8.1172
     8.3453   8.4260

     occupation numbers 
     1.0000   1.0000   1.0000   1.0000   1.0000   1.0000   1.0000   1.0000
     1.0000   1.0000   1.0000   1.0000   1.0000   1.0000   1.0000   1.0000
     1.0000   1.0000   1.0000   1.0000   1.0000   1.0000   1.0000   1.0000
     1.0000   1.0000

          k =-0.0000 0.1443-0.3282 (  3826 PWs)   bands (ev):

  -114.2912-114.2911 -68.6729 -68.6728 -68.6379 -68.6378 -68.6377 -68.6376
    -8.7433  -8.7432   2.8223   2.8224   3.0582   3.0582   3.2004   3.2005
     4.3922   4.3922   4.4120   4.4121   6.5823   6.5823   8.1227   8.1227
     8.2731   8.2732

     occupation numbers 
     1.0000   1.0000   1.0000   1.0000   1.0000   1.0000   1.0000   1.0000
     1.0000   1.0000   1.0000   1.0000   1.0000   1.0000   1.0000   1.0000
     1.0000   1.0000   1.0000   1.0000   1.0000   1.0000   1.0000   1.0000
     1.0000   1.0000

          k =-0.0000 0.1443-0.2461 (  3829 PWs)   bands (ev):

  -114.2912-114.2910 -68.6735 -68.6721 -68.6380 -68.6379 -68.6377 -68.6375
    -8.8938  -8.5906   2.8324   2.8569   3.0432   3.0820   3.1960   3.2570
     4.3368   4.3459   4.4398   4.4691   6.0947   7.0136   7.8971   8.1172
     8.3453   8.4260

     occupation numbers 
     1.0000   1.0000   1.0000   1.0000   1.0000   1.0000   1.0000   1.0000
     1.0000   1.0000   1.0000   1.0000   1.0000   1.0000   1.0000   1.0000
     1.0000   1.0000   1.0000   1.0000   1.0000   1.0000   1.0000   1.0000
     1.0000   1.0000

          k =-0.0000 0.1443-0.1641 (  3827 PWs)   bands (ev):

  -114.2912-114.2910 -68.6741 -68.6715 -68.6382 -68.6380 -68.6376 -68.6374
    -9.0198  -8.4598   2.8612   2.9394   3.0375   3.1093   3.2426   3.3557
     4.2796   4.2836   4.4740   4.5160   5.5719   7.3953   7.7267   7.9827
     8.4988   8.5527

     occupation numbers 
     1.0000   1.0000   1.0000   1.0000   1.0000   1.0000   1.0000   1.0000
     1.0000   1.0000   1.0000   1.0000   1.0000   1.0000   1.0000   1.0000
     1.0000   1.0000   1.0000   1.0000   1.0000   1.0000   1.0000   1.0000
     1.0000   1.0000

          k =-0.0000 0.1443-0.0820 (  3831 PWs)   bands (ev):

  -114.2912-114.2910 -68.6745 -68.6711 -68.6383 -68.6381 -68.6375 -68.6373
    -9.1031  -8.3718   2.8810   3.0253   3.0373   3.1314   3.3465   3.4530
     4.2274   4.2446   4.4934   4.5653   5.0959   7.5522   7.8118   7.8918
     8.5242   8.6359

     occupation numbers 
     1.0000   1.0000   1.0000   1.0000   1.0000   1.0000   1.0000   1.0000
     1.0000   1.0000   1.0000   1.0000   1.0000   1.0000   1.0000   1.0000
     1.0000   1.0000   1.0000   1.0000   1.0000   1.0000   1.0000   1.0000
     1.0000   1.0000

          k =-0.0000 0.2887-0.0000 (  3831 PWs)   bands (ev):

  -114.2912-114.2910 -68.6742 -68.6713 -68.6389 -68.6383 -68.6382 -68.6373
    -8.9050  -8.2689   2.7475   3.0432   3.2077   3.3486   3.5414   3.6423
     4.1368   4.2334   4.5174   4.7904   4.9855   6.3701   6.9943   7.2902
     8.2312   8.2888

     occupation numbers 
     1.0000   1.0000   1.0000   1.0000   1.0000   1.0000   1.0000   1.0000
     1.0000   1.0000   1.0000   1.0000   1.0000   1.0000   1.0000   1.0000
     1.0000   1.0000   1.0000   1.0000   1.0000   1.0000   1.0000   1.0000
     1.0000   1.0000

          k =-0.0000 0.2887 0.0820 (  3837 PWs)   bands (ev):

  -114.2912-114.2910 -68.6741 -68.6714 -68.6389 -68.6383 -68.6382 -68.6374
    -8.8806  -8.2926   2.7338   2.9918   3.2088   3.3386   3.4812   3.5807
     4.1784   4.2465   4.5085   4.6884   5.2538   6.4274   6.9289   7.3309
     8.2532   8.2668

     occupation numbers 
     1.0000   1.0000   1.0000   1.0000   1.0000   1.0000   1.0000   1.0000
     1.0000   1.0000   1.0000   1.0000   1.0000   1.0000   1.0000   1.0000
     1.0000   1.0000   1.0000   1.0000   1.0000   1.0000   1.0000   1.0000
     1.0000   1.0000

          k =-0.0000 0.2887 0.1641 (  3827 PWs)   bands (ev):

  -114.2912-114.2910 -68.6738 -68.6717 -68.6388 -68.6383 -68.6382 -68.6375
    -8.8111  -8.3605   2.6971   2.8601   3.2137   3.3125   3.3855   3.4740
     4.2667   4.2827   4.4823   4.6070   5.6547   6.5204   6.9033   7.4457
     8.1508   8.2652

     occupation numbers 
     1.0000   1.0000   1.0000   1.0000   1.0000   1.0000   1.0000   1.0000
     1.0000   1.0000   1.0000   1.0000   1.0000   1.0000   1.0000   1.0000
     1.0000   1.0000   1.0000   1.0000   1.0000   1.0000   1.0000   1.0000
     1.0000   1.0000

          k =-0.0000 0.2887 0.2461 (  3838 PWs)   bands (ev):

  -114.2912-114.2910 -68.6733 -68.6722 -68.6387 -68.6384 -68.6381 -68.6377
    -8.7072  -8.4630   2.6590   2.7290   3.2261   3.2793   3.3364   3.3855
     4.3336   4.3645   4.4412   4.5364   5.9741   6.4050   7.2434   7.6137
     7.9950   8.0845

     occupation numbers 
     1.0000   1.0000   1.0000   1.0000   1.0000   1.0000   1.0000   1.0000
     1.0000   1.0000   1.0000   1.0000   1.0000   1.0000   1.0000   1.0000
     1.0000   1.0000   1.0000   1.0000   1.0000   1.0000   1.0000   1.0000
     1.0000   1.0000

          k =-0.0000 0.2887-0.3282 (  3838 PWs)   bands (ev):

  -114.2911-114.2910 -68.6728 -68.6727 -68.6386 -68.6385 -68.6379 -68.6378
    -8.5848  -8.5847   2.6598   2.6598   3.2485   3.2485   3.3376   3.3377
     4.3893   4.3894   4.4563   4.4563   6.2094   6.2094   7.7105   7.7105
     7.8068   7.8068

     occupation numbers 
     1.0000   1.0000   1.0000   1.0000   1.0000   1.0000   1.0000   1.0000
     1.0000   1.0000   1.0000   1.0000   1.0000   1.0000   1.0000   1.0000
     1.0000   1.0000   1.0000   1.0000   1.0000   1.0000   1.0000   1.0000
     1.0000   1.0000

          k =-0.0000 0.2887-0.2461 (  3838 PWs)   bands (ev):

  -114.2912-114.2910 -68.6733 -68.6722 -68.6387 -68.6384 -68.6381 -68.6377
    -8.7072  -8.4630   2.6590   2.7290   3.2261   3.2793   3.3364   3.3855
     4.3336   4.3645   4.4412   4.5364   5.9741   6.4050   7.2434   7.6137
     7.9950   8.0845

     occupation numbers 
     1.0000   1.0000   1.0000   1.0000   1.0000   1.0000   1.0000   1.0000
     1.0000   1.0000   1.0000   1.0000   1.0000   1.0000   1.0000   1.0000
     1.0000   1.0000   1.0000   1.0000   1.0000   1.0000   1.0000   1.0000
     1.0000   1.0000

          k =-0.0000 0.2887-0.1641 (  3827 PWs)   bands (ev):

  -114.2912-114.2910 -68.6738 -68.6717 -68.6388 -68.6383 -68.6382 -68.6375
    -8.8111  -8.3605   2.6971   2.8600   3.2137   3.3125   3.3854   3.4740
     4.2668   4.2827   4.4823   4.6070   5.6547   6.5205   6.9033   7.4457
     8.1509   8.2652

     occupation numbers 
     1.0000   1.0000   1.0000   1.0000   1.0000   1.0000   1.0000   1.0000
     1.0000   1.0000   1.0000   1.0000   1.0000   1.0000   1.0000   1.0000
     1.0000   1.0000   1.0000   1.0000   1.0000   1.0000   1.0000   1.0000
     1.0000   1.0000

          k =-0.0000 0.2887-0.0820 (  3837 PWs)   bands (ev):

  -114.2912-114.2910 -68.6741 -68.6714 -68.6389 -68.6383 -68.6382 -68.6374
    -8.8806  -8.2926   2.7338   2.9918   3.2088   3.3386   3.4812   3.5807
     4.1784   4.2465   4.5085   4.6884   5.2538   6.4274   6.9288   7.3309
     8.2532   8.2668

     occupation numbers 
     1.0000   1.0000   1.0000   1.0000   1.0000   1.0000   1.0000   1.0000
     1.0000   1.0000   1.0000   1.0000   1.0000   1.0000   1.0000   1.0000
     1.0000   1.0000   1.0000   1.0000   1.0000   1.0000   1.0000   1.0000
     1.0000   1.0000

          k =-0.0000 0.4330-0.0000 (  3844 PWs)   bands (ev):

  -114.2911-114.2910 -68.6736 -68.6717 -68.6395 -68.6390 -68.6386 -68.6375
    -8.6386  -8.2258   2.7333   3.0066   3.3638   3.6099   3.6246   3.9884
     4.1016   4.3000   4.5325   4.7364   5.0570   5.5995   6.1558   6.6880
     7.8671   7.8832

     occupation numbers 
     1.0000   1.0000   1.0000   1.0000   1.0000   1.0000   1.0000   1.0000
     1.0000   1.0000   1.0000   1.0000   1.0000   1.0000   1.0000   1.0000
     1.0000   1.0000   1.0000   1.0000   1.0000   1.0000   1.0000   1.0000
     1.0000   1.0000

          k =-0.0000 0.4330 0.0820 (  3837 PWs)   bands (ev):

  -114.2911-114.2910 -68.6736 -68.6718 -68.6395 -68.6390 -68.6385 -68.6375
    -8.6214  -8.2396   2.7106   2.9526   3.3695   3.5732   3.5963   3.8598
     4.1944   4.3080   4.5211   4.7047   5.1267   5.6539   6.2527   6.7398
     7.8417   7.9325

     occupation numbers 
     1.0000   1.0000   1.0000   1.0000   1.0000   1.0000   1.0000   1.0000
     1.0000   1.0000   1.0000   1.0000   1.0000   1.0000   1.0000   1.0000
     1.0000   1.0000   1.0000   1.0000   1.0000   1.0000   1.0000   1.0000
     1.0000   1.0000

          k =-0.0000 0.4330 0.1641 (  3850 PWs)   bands (ev):

  -114.2911-114.2910 -68.6734 -68.6720 -68.6394 -68.6390 -68.6384 -68.6377
    -8.5728  -8.2800   2.6527   2.8154   3.3871   3.4957   3.5597   3.6920
     4.3106   4.3306   4.4908   4.6504   5.2351   5.6473   6.6459   6.8831
     7.7225   8.0308

     occupation numbers 
     1.0000   1.0000   1.0000   1.0000   1.0000   1.0000   1.0000   1.0000
     1.0000   1.0000   1.0000   1.0000   1.0000   1.0000   1.0000   1.0000
     1.0000   1.0000   1.0000   1.0000   1.0000   1.0000   1.0000   1.0000
     1.0000   1.0000

          k =-0.0000 0.4330 0.2461 (  3850 PWs)   bands (ev):

  -114.2911-114.2910 -68.6731 -68.6723 -68.6393 -68.6391 -68.6383 -68.6378
    -8.5018  -8.3429   2.5967   2.6729   3.4176   3.4660   3.5105   3.5662
     4.3648   4.4163   4.4500   4.5859   5.3425   5.5582   7.0881   7.1965
     7.5404   7.9808

     occupation numbers 
     1.0000   1.0000   1.0000   1.0000   1.0000   1.0000   1.0000   1.0000
     1.0000   1.0000   1.0000   1.0000   1.0000   1.0000   1.0000   1.0000
     1.0000   1.0000   1.0000   1.0000   1.0000   1.0000   1.0000   1.0000
     1.0000   1.0000

          k =-0.0000 0.4330-0.3282 (  3842 PWs)   bands (ev):

  -114.2911-114.2910 -68.6728 -68.6727 -68.6393 -68.6392 -68.6381 -68.6380
    -8.4207  -8.4206   2.5941   2.5941   3.4601   3.4602   3.4908   3.4908
     4.4061   4.4062   4.5083   4.5083   5.4510   5.4511   7.3188   7.3189
     7.6875   7.6876

     occupation numbers 
     1.0000   1.0000   1.0000   1.0000   1.0000   1.0000   1.0000   1.0000
     1.0000   1.0000   1.0000   1.0000   1.0000   1.0000   1.0000   1.0000
     1.0000   1.0000   1.0000   1.0000   1.0000   1.0000   1.0000   1.0000
     1.0000   1.0000

          k =-0.0000 0.4330-0.2461 (  3850 PWs)   bands (ev):

  -114.2911-114.2910 -68.6731 -68.6723 -68.6393 -68.6391 -68.6383 -68.6378
    -8.5018  -8.3429   2.5967   2.6729   3.4176   3.4660   3.5105   3.5662
     4.3648   4.4164   4.4500   4.5859   5.3425   5.5582   7.0881   7.1965
     7.5404   7.9808

     occupation numbers 
     1.0000   1.0000   1.0000   1.0000   1.0000   1.0000   1.0000   1.0000
     1.0000   1.0000   1.0000   1.0000   1.0000   1.0000   1.0000   1.0000
     1.0000   1.0000   1.0000   1.0000   1.0000   1.0000   1.0000   1.0000
     1.0000   1.0000

          k =-0.0000 0.4330-0.1641 (  3850 PWs)   bands (ev):

  -114.2911-114.2910 -68.6734 -68.6720 -68.6394 -68.6390 -68.6384 -68.6377
    -8.5728  -8.2800   2.6527   2.8154   3.3871   3.4957   3.5597   3.6921
     4.3106   4.3306   4.4908   4.6503   5.2351   5.6473   6.6459   6.8831
     7.7225   8.0308

     occupation numbers 
     1.0000   1.0000   1.0000   1.0000   1.0000   1.0000   1.0000   1.0000
     1.0000   1.0000   1.0000   1.0000   1.0000   1.0000   1.0000   1.0000
     1.0000   1.0000   1.0000   1.0000   1.0000   1.0000   1.0000   1.0000
     1.0000   1.0000

          k =-0.0000 0.4330-0.0820 (  3837 PWs)   bands (ev):

  -114.2911-114.2910 -68.6736 -68.6718 -68.6395 -68.6390 -68.6385 -68.6375
    -8.6214  -8.2396   2.7106   2.9526   3.3695   3.5731   3.5963   3.8598
     4.1944   4.3080   4.5210   4.7047   5.1267   5.6539   6.2527   6.7398
     7.8417   7.9325

     occupation numbers 
     1.0000   1.0000   1.0000   1.0000   1.0000   1.0000   1.0000   1.0000
     1.0000   1.0000   1.0000   1.0000   1.0000   1.0000   1.0000   1.0000
     1.0000   1.0000   1.0000   1.0000   1.0000   1.0000   1.0000   1.0000
     1.0000   1.0000

          k = 0.0000-0.5774 0.0000 (  3852 PWs)   bands (ev):

  -114.2911-114.2910 -68.6733 -68.6720 -68.6398 -68.6392 -68.6387 -68.6376
    -8.4985  -8.2345   2.8668   2.8927   3.4182   3.6674   3.7424   4.0751
     4.3426   4.3623   4.5385   4.5626   4.9159   5.1890   6.1134   6.4113
     7.6361   7.7035

     occupation numbers 
     1.0000   1.0000   1.0000   1.0000   1.0000   1.0000   1.0000   1.0000
     1.0000   1.0000   1.0000   1.0000   1.0000   1.0000   1.0000   1.0000
     1.0000   1.0000   1.0000   1.0000   1.0000   1.0000   1.0000   1.0000
     1.0000   1.0000

          k = 0.0000-0.5774 0.0820 (  3852 PWs)   bands (ev):

  -114.2911-114.2910 -68.6733 -68.6721 -68.6398 -68.6393 -68.6386 -68.6376
    -8.4863  -8.2421   2.8316   2.8464   3.4269   3.6240   3.7260   3.9970
     4.3665   4.3779   4.5256   4.5694   4.9371   5.1460   6.3181   6.4699
     7.6597   7.7180

     occupation numbers 
     1.0000   1.0000   1.0000   1.0000   1.0000   1.0000   1.0000   1.0000
     1.0000   1.0000   1.0000   1.0000   1.0000   1.0000   1.0000   1.0000
     1.0000   1.0000   1.0000   1.0000   1.0000   1.0000   1.0000   1.0000
     1.0000   1.0000

          k = 0.0000-0.5774 0.1641 (  3846 PWs)   bands (ev):

  -114.2911-114.2910 -68.6732 -68.6722 -68.6397 -68.6393 -68.6385 -68.6377
    -8.4524  -8.2650   2.7331   2.7410   3.4531   3.5661   3.6811   3.8399
     4.3788   4.4421   4.4944   4.5729   4.9771   5.0871   6.6300   6.7843
     7.5335   7.8749

     occupation numbers 
     1.0000   1.0000   1.0000   1.0000   1.0000   1.0000   1.0000   1.0000
     1.0000   1.0000   1.0000   1.0000   1.0000   1.0000   1.0000   1.0000
     1.0000   1.0000   1.0000   1.0000   1.0000   1.0000   1.0000   1.0000
     1.0000   1.0000

          k = 0.0000-0.5774 0.2461 (  3830 PWs)   bands (ev):

  -114.2911-114.2910 -68.6729 -68.6724 -68.6396 -68.6393 -68.6383 -68.6379
    -8.4040  -8.3024   2.6261   2.6412   3.4962   3.5578   3.6191   3.6982
     4.3986   4.4582   4.4974   4.5623   5.0098   5.0529   6.8547   7.3060
     7.3402   7.9196

     occupation numbers 
     1.0000   1.0000   1.0000   1.0000   1.0000   1.0000   1.0000   1.0000
     1.0000   1.0000   1.0000   1.0000   1.0000   1.0000   1.0000   1.0000
     1.0000   1.0000   1.0000   1.0000   1.0000   1.0000   1.0000   1.0000
     1.0000   1.0000

          k = 0.0000-0.5774-0.3282 (  3832 PWs)   bands (ev):

  -114.2911-114.2910 -68.6727 -68.6726 -68.6395 -68.6394 -68.6382 -68.6381
    -8.3510  -8.3509   2.5910   2.5911   3.5537   3.5537   3.6029   3.6030
     4.4252   4.4253   4.5372   4.5373   5.0322   5.0323   7.1036   7.1037
     7.7239   7.7240

     occupation numbers 
     1.0000   1.0000   1.0000   1.0000   1.0000   1.0000   1.0000   1.0000
     1.0000   1.0000   1.0000   1.0000   1.0000   1.0000   1.0000   1.0000
     1.0000   1.0000   1.0000   1.0000   1.0000   1.0000   1.0000   1.0000
     1.0000   1.0000

          k = 0.1250 0.0722-0.0000 (  3819 PWs)   bands (ev):

  -114.2912-114.2910 -68.6746 -68.6709 -68.6383 -68.6381 -68.6375 -68.6372
    -9.1321  -8.3407   2.8877   3.0380   3.0556   3.1399   3.4213   3.4941
     4.2068   4.2303   4.4996   4.6218   4.8496   7.5277   7.8597   7.9893
     8.4725   8.6648

     occupation numbers 
     1.0000   1.0000   1.0000   1.0000   1.0000   1.0000   1.0000   1.0000
     1.0000   1.0000   1.0000   1.0000   1.0000   1.0000   1.0000   1.0000
     1.0000   1.0000   1.0000   1.0000   1.0000   1.0000   1.0000   1.0000
     1.0000   1.0000

          k = 0.1250 0.0722 0.0820 (  3831 PWs)   bands (ev):

  -114.2912-114.2910 -68.6745 -68.6711 -68.6383 -68.6381 -68.6375 -68.6373
    -9.1031  -8.3718   2.8810   3.0253   3.0373   3.1314   3.3465   3.4530
     4.2274   4.2446   4.4934   4.5653   5.0959   7.5522   7.8117   7.8918
     8.5242   8.6359

     occupation numbers 
     1.0000   1.0000   1.0000   1.0000   1.0000   1.0000   1.0000   1.0000
     1.0000   1.0000   1.0000   1.0000   1.0000   1.0000   1.0000   1.0000
     1.0000   1.0000   1.0000   1.0000   1.0000   1.0000   1.0000   1.0000
     1.0000   1.0000

          k = 0.1250 0.0722 0.1641 (  3827 PWs)   bands (ev):

  -114.2912-114.2910 -68.6741 -68.6715 -68.6382 -68.6380 -68.6376 -68.6374
    -9.0198  -8.4598   2.8612   2.9394   3.0375   3.1093   3.2426   3.3557
     4.2796   4.2836   4.4740   4.5160   5.5719   7.3953   7.7267   7.9827
     8.4988   8.5527

     occupation numbers 
     1.0000   1.0000   1.0000   1.0000   1.0000   1.0000   1.0000   1.0000
     1.0000   1.0000   1.0000   1.0000   1.0000   1.0000   1.0000   1.0000
     1.0000   1.0000   1.0000   1.0000   1.0000   1.0000   1.0000   1.0000
     1.0000   1.0000

          k = 0.1250 0.0722 0.2461 (  3829 PWs)   bands (ev):

  -114.2912-114.2910 -68.6735 -68.6721 -68.6380 -68.6379 -68.6377 -68.6375
    -8.8938  -8.5906   2.8324   2.8569   3.0432   3.0820   3.1960   3.2570
     4.3368   4.3459   4.4398   4.4691   6.0947   7.0136   7.8971   8.1172
     8.3453   8.4260

     occupation numbers 
     1.0000   1.0000   1.0000   1.0000   1.0000   1.0000   1.0000   1.0000
     1.0000   1.0000   1.0000   1.0000   1.0000   1.0000   1.0000   1.0000
     1.0000   1.0000   1.0000   1.0000   1.0000   1.0000   1.0000   1.0000
     1.0000   1.0000

          k = 0.1250 0.0722-0.3282 (  3826 PWs)   bands (ev):

  -114.2912-114.2911 -68.6729 -68.6728 -68.6379 -68.6378 -68.6377 -68.6376
    -8.7433  -8.7432   2.8223   2.8224   3.0582   3.0582   3.2004   3.2005
     4.3922   4.3922   4.4120   4.4121   6.5823   6.5823   8.1227   8.1227
     8.2731   8.2732

     occupation numbers 
     1.0000   1.0000   1.0000   1.0000   1.0000   1.0000   1.0000   1.0000
     1.0000   1.0000   1.0000   1.0000   1.0000   1.0000   1.0000   1.0000
     1.0000   1.0000   1.0000   1.0000   1.0000   1.0000   1.0000   1.0000
     1.0000   1.0000

          k = 0.1250 0.0722-0.2461 (  3829 PWs)   bands (ev):

  -114.2912-114.2910 -68.6735 -68.6721 -68.6380 -68.6379 -68.6377 -68.6375
    -8.8938  -8.5906   2.8325   2.8569   3.0432   3.0820   3.1960   3.2570
     4.3368   4.3459   4.4398   4.4691   6.0947   7.0136   7.8971   8.1172
     8.3453   8.4260

     occupation numbers 
     1.0000   1.0000   1.0000   1.0000   1.0000   1.0000   1.0000   1.0000
     1.0000   1.0000   1.0000   1.0000   1.0000   1.0000   1.0000   1.0000
     1.0000   1.0000   1.0000   1.0000   1.0000   1.0000   1.0000   1.0000
     1.0000   1.0000

          k = 0.1250 0.0722-0.1641 (  3827 PWs)   bands (ev):

  -114.2912-114.2910 -68.6741 -68.6715 -68.6382 -68.6380 -68.6376 -68.6374
    -9.0198  -8.4598   2.8612   2.9394   3.0375   3.1093   3.2426   3.3557
     4.2796   4.2836   4.4740   4.5160   5.5719   7.3953   7.7268   7.9827
     8.4988   8.5527

     occupation numbers 
     1.0000   1.0000   1.0000   1.0000   1.0000   1.0000   1.0000   1.0000
     1.0000   1.0000   1.0000   1.0000   1.0000   1.0000   1.0000   1.0000
     1.0000   1.0000   1.0000   1.0000   1.0000   1.0000   1.0000   1.0000
     1.0000   1.0000

          k = 0.1250 0.0722-0.0820 (  3831 PWs)   bands (ev):

  -114.2912-114.2910 -68.6745 -68.6711 -68.6383 -68.6381 -68.6375 -68.6373
    -9.1031  -8.3718   2.8810   3.0253   3.0373   3.1314   3.3465   3.4530
     4.2274   4.2446   4.4934   4.5653   5.0959   7.5522   7.8118   7.8918
     8.5242   8.6359

     occupation numbers 
     1.0000   1.0000   1.0000   1.0000   1.0000   1.0000   1.0000   1.0000
     1.0000   1.0000   1.0000   1.0000   1.0000   1.0000   1.0000   1.0000
     1.0000   1.0000   1.0000   1.0000   1.0000   1.0000   1.0000   1.0000
     1.0000   1.0000

          k = 0.1250 0.2165-0.0000 (  3819 PWs)   bands (ev):

  -114.2912-114.2910 -68.6744 -68.6711 -68.6386 -68.6384 -68.6379 -68.6374
    -8.9745  -8.2881   2.8055   3.0647   3.1195   3.2634   3.5428   3.5671
     4.1641   4.2199   4.5113   4.7926   4.8996   6.8348   7.0617   7.5081
     8.3235   8.3315

     occupation numbers 
     1.0000   1.0000   1.0000   1.0000   1.0000   1.0000   1.0000   1.0000
     1.0000   1.0000   1.0000   1.0000   1.0000   1.0000   1.0000   1.0000
     1.0000   1.0000   1.0000   1.0000   1.0000   1.0000   1.0000   1.0000
     1.0000   1.0000

          k = 0.1250 0.2165 0.0820 (  3829 PWs)   bands (ev):

  -114.2912-114.2910 -68.6742 -68.6713 -68.6386 -68.6384 -68.6379 -68.6374
    -8.9486  -8.3142   2.7943   3.0037   3.1329   3.2520   3.4707   3.5251
     4.1965   4.2356   4.5032   4.6663   5.2041   6.8954   7.0168   7.4894
     8.2959   8.3599

     occupation numbers 
     1.0000   1.0000   1.0000   1.0000   1.0000   1.0000   1.0000   1.0000
     1.0000   1.0000   1.0000   1.0000   1.0000   1.0000   1.0000   1.0000
     1.0000   1.0000   1.0000   1.0000   1.0000   1.0000   1.0000   1.0000
     1.0000   1.0000

          k = 0.1250 0.2165 0.1641 (  3832 PWs)   bands (ev):

  -114.2912-114.2910 -68.6739 -68.6717 -68.6386 -68.6383 -68.6380 -68.6375
    -8.8746  -8.3885   2.7628   2.8738   3.1433   3.2228   3.3679   3.4358
     4.2718   4.2757   4.4790   4.5863   5.6571   6.8637   7.0874   7.5328
     8.1942   8.3508

     occupation numbers 
     1.0000   1.0000   1.0000   1.0000   1.0000   1.0000   1.0000   1.0000
     1.0000   1.0000   1.0000   1.0000   1.0000   1.0000   1.0000   1.0000
     1.0000   1.0000   1.0000   1.0000   1.0000   1.0000   1.0000   1.0000
     1.0000   1.0000

          k = 0.1250 0.2165 0.2461 (  3829 PWs)   bands (ev):

  -114.2912-114.2910 -68.6734 -68.6722 -68.6384 -68.6382 -68.6380 -68.6377
    -8.7634  -8.5001   2.7235   2.7569   3.1513   3.1888   3.3166   3.3565
     4.3295   4.3595   4.4399   4.5202   6.0697   6.6438   7.4155   7.6662
     8.0423   8.1723

     occupation numbers 
     1.0000   1.0000   1.0000   1.0000   1.0000   1.0000   1.0000   1.0000
     1.0000   1.0000   1.0000   1.0000   1.0000   1.0000   1.0000   1.0000
     1.0000   1.0000   1.0000   1.0000   1.0000   1.0000   1.0000   1.0000
     1.0000   1.0000

          k = 0.1250 0.2165-0.3282 (  3838 PWs)   bands (ev):

  -114.2912-114.2910 -68.6728 -68.6727 -68.6384 -68.6383 -68.6379 -68.6378
    -8.6319  -8.6318   2.7089   2.7089   3.1643   3.1643   3.3145   3.3145
     4.3860   4.3861   4.4465   4.4465   6.3877   6.3877   7.7758   7.7758
     7.9003   7.9003

     occupation numbers 
     1.0000   1.0000   1.0000   1.0000   1.0000   1.0000   1.0000   1.0000
     1.0000   1.0000   1.0000   1.0000   1.0000   1.0000   1.0000   1.0000
     1.0000   1.0000   1.0000   1.0000   1.0000   1.0000   1.0000   1.0000
     1.0000   1.0000

          k = 0.1250 0.2165-0.2461 (  3829 PWs)   bands (ev):

  -114.2912-114.2910 -68.6734 -68.6722 -68.6384 -68.6382 -68.6380 -68.6377
    -8.7634  -8.5001   2.7235   2.7569   3.1513   3.1888   3.3166   3.3565
     4.3295   4.3595   4.4399   4.5202   6.0697   6.6438   7.4155   7.6662
     8.0423   8.1723

     occupation numbers 
     1.0000   1.0000   1.0000   1.0000   1.0000   1.0000   1.0000   1.0000
     1.0000   1.0000   1.0000   1.0000   1.0000   1.0000   1.0000   1.0000
     1.0000   1.0000   1.0000   1.0000   1.0000   1.0000   1.0000   1.0000
     1.0000   1.0000

          k = 0.1250 0.2165-0.1641 (  3832 PWs)   bands (ev):

  -114.2912-114.2910 -68.6739 -68.6717 -68.6386 -68.6383 -68.6380 -68.6375
    -8.8746  -8.3885   2.7628   2.8738   3.1433   3.2228   3.3679   3.4358
     4.2718   4.2757   4.4790   4.5863   5.6571   6.8637   7.0874   7.5328
     8.1942   8.3508

     occupation numbers 
     1.0000   1.0000   1.0000   1.0000   1.0000   1.0000   1.0000   1.0000
     1.0000   1.0000   1.0000   1.0000   1.0000   1.0000   1.0000   1.0000
     1.0000   1.0000   1.0000   1.0000   1.0000   1.0000   1.0000   1.0000
     1.0000   1.0000

          k = 0.1250 0.2165-0.0820 (  3829 PWs)   bands (ev):

  -114.2912-114.2910 -68.6742 -68.6713 -68.6386 -68.6384 -68.6379 -68.6374
    -8.9486  -8.3142   2.7943   3.0037   3.1329   3.2520   3.4707   3.5251
     4.1965   4.2356   4.5032   4.6663   5.2041   6.8954   7.0168   7.4894
     8.2959   8.3599

     occupation numbers 
     1.0000   1.0000   1.0000   1.0000   1.0000   1.0000   1.0000   1.0000
     1.0000   1.0000   1.0000   1.0000   1.0000   1.0000   1.0000   1.0000
     1.0000   1.0000   1.0000   1.0000   1.0000   1.0000   1.0000   1.0000
     1.0000   1.0000

          k = 0.1250 0.3608-0.0000 (  3839 PWs)   bands (ev):

  -114.2912-114.2910 -68.6739 -68.6716 -68.6392 -68.6388 -68.6384 -68.6376
    -8.7250  -8.2324   2.7814   3.0808   3.2691   3.4493   3.6707   3.7863
     4.1293   4.2599   4.5273   4.7703   5.1744   5.9213   6.3654   6.6571
     7.8309   8.0127

     occupation numbers 
     1.0000   1.0000   1.0000   1.0000   1.0000   1.0000   1.0000   1.0000
     1.0000   1.0000   1.0000   1.0000   1.0000   1.0000   1.0000   1.0000
     1.0000   1.0000   1.0000   1.0000   1.0000   1.0000   1.0000   1.0000
     1.0000   1.0000

          k = 0.1250 0.3608 0.0820 (  3837 PWs)   bands (ev):

  -114.2912-114.2910 -68.6738 -68.6717 -68.6392 -68.6388 -68.6384 -68.6376
    -8.7051  -8.2496   2.7630   3.0211   3.2774   3.4304   3.6135   3.7068
     4.1835   4.2763   4.5170   4.7236   5.3146   6.0101   6.3788   6.6903
     7.7853   8.0720

     occupation numbers 
     1.0000   1.0000   1.0000   1.0000   1.0000   1.0000   1.0000   1.0000
     1.0000   1.0000   1.0000   1.0000   1.0000   1.0000   1.0000   1.0000
     1.0000   1.0000   1.0000   1.0000   1.0000   1.0000   1.0000   1.0000
     1.0000   1.0000

[...]

  -114.2911-114.2910 -68.6731 -68.6722 -68.6393 -68.6392 -68.6387 -68.6381
    -8.4617  -8.2611   2.9114   2.9989   3.3941   3.4333   3.5954   3.7412
     4.3119   4.3677   4.5237   4.7240   5.1648   5.5371   5.8763   6.7510
     7.0942   7.8951

     occupation numbers 
     1.0000   1.0000   1.0000   1.0000   1.0000   1.0000   1.0000   1.0000
     1.0000   1.0000   1.0000   1.0000   1.0000   1.0000   1.0000   1.0000
     1.0000   1.0000   1.0000   1.0000   1.0000   1.0000   1.0000   1.0000
     1.0000   1.0000

          k =-0.5000-0.0000 0.2461 (  3850 PWs)   bands (ev):

  -114.2911-114.2910 -68.6729 -68.6724 -68.6392 -68.6391 -68.6386 -68.6383
    -8.4105  -8.3017   2.8242   2.8628   3.3892   3.3980   3.5479   3.6471
     4.3647   4.3781   4.5515   4.6706   5.2704   5.4581   6.1118   6.6564
     7.4566   7.9764

     occupation numbers 
     1.0000   1.0000   1.0000   1.0000   1.0000   1.0000   1.0000   1.0000
     1.0000   1.0000   1.0000   1.0000   1.0000   1.0000   1.0000   1.0000
     1.0000   1.0000   1.0000   1.0000   1.0000   1.0000   1.0000   1.0000
     1.0000   1.0000

          k =-0.5000 0.0000-0.3282 (  3840 PWs)   bands (ev):

  -114.2911-114.2910 -68.6727 -68.6726 -68.6392 -68.6391 -68.6385 -68.6384
    -8.3540  -8.3538   2.7959   2.7959   3.3872   3.3873   3.5754   3.5755
     4.3796   4.3797   4.6092   4.6092   5.3671   5.3671   6.3908   6.3909
     7.8281   7.8282

     occupation numbers 
     1.0000   1.0000   1.0000   1.0000   1.0000   1.0000   1.0000   1.0000
     1.0000   1.0000   1.0000   1.0000   1.0000   1.0000   1.0000   1.0000
     1.0000   1.0000   1.0000   1.0000   1.0000   1.0000   1.0000   1.0000
     1.0000   1.0000

          k =-0.5000 0.0000-0.2461 (  3850 PWs)   bands (ev):

  -114.2911-114.2910 -68.6729 -68.6724 -68.6392 -68.6391 -68.6386 -68.6383
    -8.4105  -8.3017   2.8242   2.8628   3.3892   3.3980   3.5479   3.6471
     4.3647   4.3781   4.5515   4.6706   5.2704   5.4581   6.1118   6.6564
     7.4566   7.9764

     occupation numbers 
     1.0000   1.0000   1.0000   1.0000   1.0000   1.0000   1.0000   1.0000
     1.0000   1.0000   1.0000   1.0000   1.0000   1.0000   1.0000   1.0000
     1.0000   1.0000   1.0000   1.0000   1.0000   1.0000   1.0000   1.0000
     1.0000   1.0000

          k =-0.5000 0.0000-0.1641 (  3849 PWs)   bands (ev):

  -114.2911-114.2910 -68.6731 -68.6722 -68.6393 -68.6392 -68.6387 -68.6381
    -8.4617  -8.2611   2.9114   2.9989   3.3941   3.4333   3.5954   3.7412
     4.3119   4.3677   4.5237   4.7240   5.1648   5.5371   5.8763   6.7510
     7.0942   7.8951

     occupation numbers 
     1.0000   1.0000   1.0000   1.0000   1.0000   1.0000   1.0000   1.0000
     1.0000   1.0000   1.0000   1.0000   1.0000   1.0000   1.0000   1.0000
     1.0000   1.0000   1.0000   1.0000   1.0000   1.0000   1.0000   1.0000
     1.0000   1.0000

          k =-0.5000 0.0000-0.0820 (  3840 PWs)   bands (ev):

  -114.2911-114.2910 -68.6733 -68.6721 -68.6393 -68.6392 -68.6387 -68.6380
    -8.4975  -8.2360   2.9919   3.1104   3.4037   3.4877   3.7368   3.8359
     4.2269   4.3461   4.5302   4.7641   5.0528   5.5521   5.7666   6.4193
     7.1435   7.7156

     occupation numbers 
     1.0000   1.0000   1.0000   1.0000   1.0000   1.0000   1.0000   1.0000
     1.0000   1.0000   1.0000   1.0000   1.0000   1.0000   1.0000   1.0000
     1.0000   1.0000   1.0000   1.0000   1.0000   1.0000   1.0000   1.0000
     1.0000   1.0000

          k =-0.5000 0.1443-0.0000 (  3854 PWs)   bands (ev):

  -114.2911-114.2910 -68.6733 -68.6720 -68.6397 -68.6391 -68.6388 -68.6377
    -8.5045  -8.2309   2.8992   3.0726   3.3723   3.5838   3.7904   4.0989
     4.1650   4.3408   4.5398   4.6563   4.9456   5.4107   5.9022   6.3504
     7.4262   7.6521

     occupation numbers 
     1.0000   1.0000   1.0000   1.0000   1.0000   1.0000   1.0000   1.0000
     1.0000   1.0000   1.0000   1.0000   1.0000   1.0000   1.0000   1.0000
     1.0000   1.0000   1.0000   1.0000   1.0000   1.0000   1.0000   1.0000
     1.0000   1.0000

          k =-0.5000 0.1443 0.0820 (  3850 PWs)   bands (ev):

  -114.2911-114.2910 -68.6733 -68.6721 -68.6396 -68.6392 -68.6387 -68.6378
    -8.4920  -8.2390   2.8687   3.0186   3.3804   3.5565   3.7527   3.9540
     4.2580   4.3576   4.5301   4.6604   4.9697   5.3760   6.0108   6.4965
     7.3859   7.7292

     occupation numbers 
     1.0000   1.0000   1.0000   1.0000   1.0000   1.0000   1.0000   1.0000
     1.0000   1.0000   1.0000   1.0000   1.0000   1.0000   1.0000   1.0000
     1.0000   1.0000   1.0000   1.0000   1.0000   1.0000   1.0000   1.0000
     1.0000   1.0000

          k =-0.5000 0.1443 0.1641 (  3843 PWs)   bands (ev):

  -114.2911-114.2910 -68.6732 -68.6722 -68.6396 -68.6392 -68.6386 -68.6379
    -8.4571  -8.2630   2.7894   2.8828   3.4039   3.5184   3.6730   3.7810
     4.3426   4.3814   4.5173   4.6508   5.0282   5.3089   6.2298   6.8922
     7.2558   7.8919

     occupation numbers 
     1.0000   1.0000   1.0000   1.0000   1.0000   1.0000   1.0000   1.0000
     1.0000   1.0000   1.0000   1.0000   1.0000   1.0000   1.0000   1.0000
     1.0000   1.0000   1.0000   1.0000   1.0000   1.0000   1.0000   1.0000
     1.0000   1.0000

          k =-0.5000 0.1443 0.2461 (  3839 PWs)   bands (ev):

  -114.2911-114.2910 -68.6729 -68.6724 -68.6395 -68.6392 -68.6385 -68.6381
    -8.4073  -8.3020   2.7065   2.7470   3.4413   3.5131   3.5884   3.6577
     4.3826   4.4007   4.5327   4.6201   5.0984   5.2388   6.4864   7.0138
     7.4089   7.9573

     occupation numbers 
     1.0000   1.0000   1.0000   1.0000   1.0000   1.0000   1.0000   1.0000
     1.0000   1.0000   1.0000   1.0000   1.0000   1.0000   1.0000   1.0000
     1.0000   1.0000   1.0000   1.0000   1.0000   1.0000   1.0000   1.0000
     1.0000   1.0000

          k =-0.5000 0.1443-0.3282 (  3836 PWs)   bands (ev):

  -114.2911-114.2910 -68.6727 -68.6726 -68.6394 -68.6393 -68.6383 -68.6382
    -8.3525  -8.3523   2.6818   2.6818   3.4901   3.4902   3.5807   3.5808
     4.3984   4.3985   4.5764   4.5764   5.1693   5.1693   6.7592   6.7593
     7.7921   7.7922

     occupation numbers 
     1.0000   1.0000   1.0000   1.0000   1.0000   1.0000   1.0000   1.0000
     1.0000   1.0000   1.0000   1.0000   1.0000   1.0000   1.0000   1.0000
     1.0000   1.0000   1.0000   1.0000   1.0000   1.0000   1.0000   1.0000
     1.0000   1.0000

          k =-0.5000 0.1443-0.2461 (  3839 PWs)   bands (ev):

  -114.2911-114.2910 -68.6729 -68.6724 -68.6395 -68.6392 -68.6385 -68.6381
    -8.4073  -8.3020   2.7064   2.7470   3.4413   3.5132   3.5884   3.6576
     4.3826   4.4007   4.5327   4.6201   5.0984   5.2388   6.4864   7.0138
     7.4089   7.9573

     occupation numbers 
     1.0000   1.0000   1.0000   1.0000   1.0000   1.0000   1.0000   1.0000
     1.0000   1.0000   1.0000   1.0000   1.0000   1.0000   1.0000   1.0000
     1.0000   1.0000   1.0000   1.0000   1.0000   1.0000   1.0000   1.0000
     1.0000   1.0000

          k =-0.5000 0.1443-0.1641 (  3843 PWs)   bands (ev):

  -114.2911-114.2910 -68.6732 -68.6722 -68.6396 -68.6392 -68.6386 -68.6379
    -8.4571  -8.2630   2.7894   2.8828   3.4039   3.5184   3.6729   3.7810
     4.3426   4.3814   4.5172   4.6508   5.0282   5.3088   6.2298   6.8923
     7.2558   7.8919

     occupation numbers 
     1.0000   1.0000   1.0000   1.0000   1.0000   1.0000   1.0000   1.0000
     1.0000   1.0000   1.0000   1.0000   1.0000   1.0000   1.0000   1.0000
     1.0000   1.0000   1.0000   1.0000   1.0000   1.0000   1.0000   1.0000
     1.0000   1.0000

          k =-0.5000 0.1443-0.0820 (  3850 PWs)   bands (ev):

  -114.2911-114.2910 -68.6733 -68.6721 -68.6396 -68.6392 -68.6387 -68.6378
    -8.4920  -8.2390   2.8687   3.0186   3.3804   3.5565   3.7527   3.9540
     4.2580   4.3576   4.5301   4.6604   4.9697   5.3760   6.0108   6.4965
     7.3859   7.7292

     occupation numbers 
     1.0000   1.0000   1.0000   1.0000   1.0000   1.0000   1.0000   1.0000
     1.0000   1.0000   1.0000   1.0000   1.0000   1.0000   1.0000   1.0000
     1.0000   1.0000   1.0000   1.0000   1.0000   1.0000   1.0000   1.0000
     1.0000   1.0000

          k =-0.5000-0.8660 0.0000 (  3852 PWs)   bands (ev):

  -114.2911-114.2910 -68.6733 -68.6720 -68.6398 -68.6392 -68.6387 -68.6376
    -8.4985  -8.2345   2.8668   2.8927   3.4181   3.6674   3.7424   4.0751
     4.3426   4.3623   4.5385   4.5626   4.9159   5.1890   6.1134   6.4113
     7.6361   7.7035

     occupation numbers 
     1.0000   1.0000   1.0000   1.0000   1.0000   1.0000   1.0000   1.0000
     1.0000   1.0000   1.0000   1.0000   1.0000   1.0000   1.0000   1.0000
     1.0000   1.0000   1.0000   1.0000   1.0000   1.0000   1.0000   1.0000
     1.0000   1.0000

          k =-0.5000-0.8660 0.0820 (  3852 PWs)   bands (ev):

  -114.2911-114.2910 -68.6733 -68.6721 -68.6398 -68.6393 -68.6386 -68.6376
    -8.4863  -8.2421   2.8316   2.8464   3.4269   3.6240   3.7260   3.9970
     4.3665   4.3779   4.5256   4.5694   4.9371   5.1460   6.3181   6.4699
     7.6597   7.7180

     occupation numbers 
     1.0000   1.0000   1.0000   1.0000   1.0000   1.0000   1.0000   1.0000
     1.0000   1.0000   1.0000   1.0000   1.0000   1.0000   1.0000   1.0000
     1.0000   1.0000   1.0000   1.0000   1.0000   1.0000   1.0000   1.0000
     1.0000   1.0000

          k =-0.5000-0.8660 0.1641 (  3846 PWs)   bands (ev):

  -114.2911-114.2910 -68.6732 -68.6722 -68.6397 -68.6393 -68.6385 -68.6377
    -8.4524  -8.2650   2.7331   2.7410   3.4531   3.5661   3.6811   3.8399
     4.3788   4.4421   4.4944   4.5729   4.9771   5.0871   6.6300   6.7843
     7.5335   7.8749

     occupation numbers 
     1.0000   1.0000   1.0000   1.0000   1.0000   1.0000   1.0000   1.0000
     1.0000   1.0000   1.0000   1.0000   1.0000   1.0000   1.0000   1.0000
     1.0000   1.0000   1.0000   1.0000   1.0000   1.0000   1.0000   1.0000
     1.0000   1.0000

          k =-0.5000-0.8660 0.2461 (  3830 PWs)   bands (ev):

  -114.2911-114.2910 -68.6729 -68.6724 -68.6396 -68.6393 -68.6383 -68.6379
    -8.4040  -8.3024   2.6261   2.6412   3.4962   3.5578   3.6191   3.6982
     4.3986   4.4582   4.4974   4.5623   5.0098   5.0529   6.8547   7.3060
     7.3402   7.9196

     occupation numbers 
     1.0000   1.0000   1.0000   1.0000   1.0000   1.0000   1.0000   1.0000
     1.0000   1.0000   1.0000   1.0000   1.0000   1.0000   1.0000   1.0000
     1.0000   1.0000   1.0000   1.0000   1.0000   1.0000   1.0000   1.0000
     1.0000   1.0000

          k =-0.5000-0.8660-0.3282 (  3832 PWs)   bands (ev):

  -114.2911-114.2910 -68.6727 -68.6726 -68.6395 -68.6394 -68.6382 -68.6381
    -8.3510  -8.3509   2.5910   2.5911   3.5537   3.5537   3.6029   3.6030
     4.4252   4.4253   4.5372   4.5373   5.0322   5.0322   7.1036   7.1037
     7.7239   7.7240

     occupation numbers 
     1.0000   1.0000   1.0000   1.0000   1.0000   1.0000   1.0000   1.0000
     1.0000   1.0000   1.0000   1.0000   1.0000   1.0000   1.0000   1.0000
     1.0000   1.0000   1.0000   1.0000   1.0000   1.0000   1.0000   1.0000
     1.0000   1.0000

     highest occupied level (ev):     8.8125

!    total energy              =    -987.07633432 Ry
     Harris-Foulkes estimate   =    -987.07633435 Ry
     estimated scf accuracy    <       0.00000007 Ry

     The total energy is the sum of the following terms:

     one-electron contribution =    -802.40588357 Ry
     hartree contribution      =     422.70849998 Ry
     xc contribution           =     -98.07807954 Ry
     ewald contribution        =    -509.30087118 Ry

     convergence has been achieved in   7 iterations

     Forces acting on atoms (cartesian axes, Ry/au):

     atom    1 type  2   force =    -0.00000044   -0.00000150    0.01210790
     atom    2 type  2   force =     0.00000077   -0.00000092    0.01211431
     atom    3 type  1   force =    -0.00000044    0.00000197   -0.01209323
     atom    4 type  1   force =     0.00000012    0.00000045   -0.01212898
     The non-local contrib.  to forces
     atom    1 type  2   force =     0.00000058   -0.00000289    0.01550612
     atom    2 type  2   force =     0.00000076    0.00000099    0.01550981
     atom    3 type  1   force =     0.00000061   -0.00000296    0.06285958
     atom    4 type  1   force =     0.00000084   -0.00000088    0.06284244
     The ionic contribution  to forces
     atom    1 type  2   force =    -0.00001208    0.00003848   -0.29345646
     atom    2 type  2   force =    -0.00000490   -0.00000173   -0.29345404
     atom    3 type  1   force =     0.00000549   -0.00001215    0.29345883
     atom    4 type  1   force =     0.00001149   -0.00002460    0.29345166
     The local contribution  to forces
     atom    1 type  2   force =     0.00001185   -0.00003575    0.29021282
     atom    2 type  2   force =     0.00000483   -0.00000141    0.29019686
     atom    3 type  1   force =    -0.00000792    0.00001513   -0.36853504
     atom    4 type  1   force =    -0.00001297    0.00002483   -0.36847516
     The core correction contribution to forces
     atom    1 type  2   force =     0.00000000    0.00000001   -0.00007723
     atom    2 type  2   force =     0.00000001   -0.00000002   -0.00007727
     atom    3 type  1   force =     0.00000000    0.00000000    0.00000000
     atom    4 type  1   force =     0.00000000    0.00000000    0.00000000
     The Hubbard contrib.    to forces
     atom    1 type  2   force =     0.00000000    0.00000000    0.00000000
     atom    2 type  2   force =     0.00000000    0.00000000    0.00000000
     atom    3 type  1   force =     0.00000000    0.00000000    0.00000000
     atom    4 type  1   force =     0.00000000    0.00000000    0.00000000
     The SCF correction term to forces
     atom    1 type  2   force =     0.00000000    0.00000000    0.00000000
     atom    2 type  2   force =     0.00000000    0.00000000    0.00000000
     atom    3 type  1   force =     0.00000000    0.00000000    0.00000000
     atom    4 type  1   force =     0.00000000    0.00000000    0.00000000

     Total force =     0.000000     Total SCF correction =     0.000000


     Computing stress (Cartesian axis) and pressure

          total   stress  (Ry/bohr**3)                   (kbar)     P=   -2.77
  -0.00001490  -0.00000000  -0.00000000         -2.19     -0.00     -0.00
  -0.00000000  -0.00001490  -0.00000002         -0.00     -2.19     -0.00
  -0.00000000  -0.00000002  -0.00002663         -0.00     -0.00     -3.92

     kinetic stress (kbar)  33917.64     -0.00      0.00
                               -0.00  33917.64     -0.00
                                0.00     -0.00  34181.74

     local   stress (kbar)  -4562.43     -0.04      0.03
                               -0.04  -4562.58     -0.08
                                0.03     -0.08  -4374.28

     nonloc. stress (kbar)  -1660.41      0.00     -0.00
                                0.00  -1660.41      0.00
                               -0.00      0.00  -1769.75

     hartree stress (kbar)  64970.02      0.02     -0.01
                                0.02  64970.08      0.03
                               -0.01      0.03  65740.54

     exc-cor stress (kbar) -14198.61      0.00     -0.00
                                0.00 -14198.61      0.00
                               -0.00      0.00 -14203.01

     corecor stress (kbar)   -249.77     -0.00     -0.00
                               -0.00   -249.77      0.00
                               -0.00      0.00   -250.27

     ewald   stress (kbar) -78218.64      0.02     -0.02
                                0.02 -78218.55      0.05
                               -0.02      0.05 -79328.88

     hubbard stress (kbar)      0.00      0.00      0.00
                                0.00      0.00      0.00
                                0.00      0.00      0.00

     london  stress (kbar)      0.00      0.00      0.00
                                0.00      0.00      0.00
                                0.00      0.00      0.00

     DFT-D3  stress (kbar)      0.00      0.00      0.00
                                0.00      0.00      0.00
                                0.00      0.00      0.00

     XDM     stress (kbar)      0.00      0.00      0.00
                                0.00      0.00      0.00
                                0.00      0.00      0.00

     dft-nl  stress (kbar)      0.00      0.00      0.00
                                0.00      0.00      0.00
                                0.00      0.00      0.00

     TS-vdW  stress (kbar)      0.00      0.00      0.00
                                0.00      0.00      0.00
                                0.00      0.00      0.00



     Writing output data file ZnO.save/
 
     init_run     :      0.56s CPU      1.09s WALL (       1 calls)
     electrons    :      7.50s CPU      7.96s WALL (       1 calls)
     forces       :      0.16s CPU      0.17s WALL (       1 calls)
     stress       :      0.31s CPU      0.32s WALL (       1 calls)

     Called by init_run:
     wfcinit      :      0.41s CPU      0.56s WALL (       1 calls)
     wfcinit:atom :      0.00s CPU      0.00s WALL (      65 calls)
     wfcinit:wfcr :      0.39s CPU      0.53s WALL (      65 calls)
     potinit      :      0.06s CPU      0.14s WALL (       1 calls)
     hinit0       :      0.07s CPU      0.31s WALL (       1 calls)

     Called by electrons:
     c_bands      :      6.31s CPU      6.70s WALL (       7 calls)
     sum_band     :      0.90s CPU      0.94s WALL (       7 calls)
     v_of_rho     :      0.24s CPU      0.30s WALL (       8 calls)
     v_h          :      0.00s CPU      0.00s WALL (       8 calls)
     v_xc         :      0.30s CPU      0.36s WALL (      10 calls)
     newd         :      0.04s CPU      0.10s WALL (       8 calls)
     mix_rho      :      0.01s CPU      0.02s WALL (       7 calls)

     Called by c_bands:
     init_us_2    :      0.08s CPU      0.08s WALL (    1105 calls)
     cegterg      :      5.89s CPU      6.15s WALL (     455 calls)

     Called by sum_band:
     sum_band:bec :      0.01s CPU      0.01s WALL (     455 calls)
     addusdens    :      0.03s CPU      0.04s WALL (       7 calls)

     Called by *egterg:
     h_psi        :      3.69s CPU      3.87s WALL (    1449 calls)
     s_psi        :      0.12s CPU      0.12s WALL (    1449 calls)
     g_psi        :      0.01s CPU      0.01s WALL (     929 calls)
     cdiaghg      :      1.61s CPU      1.74s WALL (    1384 calls)
     cegterg:over :      0.35s CPU      0.41s WALL (     929 calls)
     cegterg:upda :      0.20s CPU      0.20s WALL (     929 calls)
     cegterg:last :      0.13s CPU      0.13s WALL (     455 calls)
     cdiaghg:chol :      0.09s CPU      0.12s WALL (    1384 calls)
     cdiaghg:inve :      0.03s CPU      0.03s WALL (    1384 calls)
     cdiaghg:para :      0.15s CPU      0.17s WALL (    2768 calls)

     Called by h_psi:
     h_psi:pot    :      3.68s CPU      3.86s WALL (    1449 calls)
     h_psi:calbec :      0.19s CPU      0.24s WALL (    1449 calls)
     vloc_psi     :      3.37s CPU      3.49s WALL (    1449 calls)
     add_vuspsi   :      0.12s CPU      0.13s WALL (    1449 calls)

     General routines
     calbec       :      0.31s CPU      0.36s WALL (    2229 calls)
     fft          :      0.04s CPU      0.22s WALL (     127 calls)
     ffts         :      0.00s CPU      0.02s WALL (      15 calls)
     fftw         :      3.86s CPU      4.00s WALL (   73856 calls)
     interpolate  :      0.00s CPU      0.02s WALL (       8 calls)
 
     Parallel routines
     fft_scatt_xy :      0.56s CPU      0.58s WALL (   73998 calls)
     fft_scatt_yz :      1.93s CPU      2.01s WALL (   73998 calls)
 
     PWSCF        :      8.82s CPU     11.08s WALL

 
   This run was terminated on:  20:44:32  15Jun2022            

=------------------------------------------------------------------------------=
   JOB DONE.
=------------------------------------------------------------------------------=
