 ANIMSTEPS  17
 CRYSTAL 
 PRIMVEC 
  3.2334300000  0.0000000000  0.0000000000
 -1.6167100000  2.8002240000  0.0000000000
  0.0000000000  0.0000000000  5.2182700000
 PRIMCOORD   1
    4  1
 O    1.6167328338    0.9333986659    0.0383542845   -0.0000121242    0.0000046186    0.0001641847
 O   -0.0000128338    1.8668253341    2.6474892845    0.0000070601   -0.0000084705    0.0001775214
Zn    1.6167328338    0.9333986659    2.0160786145   -0.0000044927    0.0000119206   -0.0001021145
Zn   -0.0000128338    1.8668253341    4.6252136145    0.0000095568   -0.0000080687   -0.0002395915
 PRIMCOORD   2
    4  1
 O    1.6153275488    0.9322792981    0.1127767839    0.0000422089    0.0000730033    0.0004907958
 O    0.0013763208    1.8679361308    2.7212677786   -0.0000150698   -0.0000558456   -0.0002296573
Zn    1.6183443461    0.9345865556    2.0939005091   -0.0024076042   -0.0013179077   -0.0092229804
Zn   -0.0016085988    1.8656460155    4.6960603640    0.0023804651    0.0013007500    0.0089618419
 PRIMCOORD   3
    4  1
 O    1.6118997238    0.9317444423    0.1892682822   -0.0000855114    0.0001415103   -0.0002792131
 O    0.0048751077    1.8684954573    2.7970004696    0.0000472653   -0.0001527146    0.0003062950
Zn    1.6230637144    0.9349584061    2.1675160570   -0.0041385566   -0.0002862222    0.0017270130
Zn   -0.0063993213    1.8652496943    4.7739652856    0.0041768027    0.0002974265   -0.0017540950
 PRIMCOORD   4
    4  1
 O    1.6157882700    0.9336068027    0.2656005055   -0.0000092026    0.0001886050    0.0019285493
 O    0.0009081727    1.8666509787    2.8733206698   -0.0000572240    0.0000262973    0.0023140891
Zn    1.6178990554    0.9327260979    2.2454980554    0.0035025538   -0.0070861834   -0.0061702788
Zn   -0.0011566711    1.8674641207    4.8513569883   -0.0034361272    0.0068712810    0.0019276404
 PRIMCOORD   5
    4  1
 O    1.6172084394    0.9315844327    0.3369784935   -0.0001504770   -0.0003151714    0.0037496345
 O   -0.0004953103    1.8685576079    2.9474975306    0.0001518751    0.0003794797    0.0033074353
Zn    1.6166394913    0.9369624648    2.3290984008   -0.0006084849   -0.0034856407    0.0022040099
Zn    0.0000857960    1.8633434946    4.9404694388    0.0006070868    0.0034213324   -0.0092610797
 PRIMCOORD   6
    4  1
 O    1.6174355371    0.9328058075    0.2668917219   -0.0002945994    0.0002652765    0.0225298348
 O   -0.0007404487    1.8674322535    2.8748534663    0.0003053053   -0.0002690894    0.0226927456
Zn    1.6166599389    0.9334173569    2.4088115219   -0.0002862538    0.0001848543   -0.0185898305
Zn    0.0000833560    1.8667925821    5.0291178147    0.0002755479   -0.0001810414   -0.0266327498
 PRIMCOORD   7
    4  1
 O    1.6163452372    0.9339618171    0.1911945213    0.0000115034   -0.0000316603    0.0228628137
 O    0.0003543366    1.8662791133    2.7982341083    0.0000102774    0.0000144019    0.0227509998
Zn    1.6171482118    0.9328201364    2.4867808014   -0.0000649331    0.0000582370   -0.0221249344
Zn   -0.0004094023    1.8673869333    5.1034651106    0.0000431523   -0.0000409786   -0.0234888791
 PRIMCOORD   8
    4  1
 O    1.6161909305    0.9341135558    0.1138079941    0.0000593519   -0.0000982765    0.0133945580
 O    0.0005280515    1.8661112280    2.7234038167   -0.0000587482    0.0000969543    0.0140064821
Zn    1.6171985697    0.9328037961    2.5718516358   -0.0001766967    0.0001480525   -0.0121995096
Zn   -0.0004791685    1.8674194201    5.1706111013    0.0001760930   -0.0001467303   -0.0152015305
 PRIMCOORD   9
    4  1
 O    1.6180819436    0.9323043232    0.0330862262   -0.0000455003    0.0000461456   -0.0003468981
 O   -0.0013620963    1.8679191646    2.6488918106    0.0000438480   -0.0000450651    0.0005813116
Zn    1.6153022557    0.9345421338    2.6565357704    0.0001689499   -0.0001058517   -0.0000555147
Zn    0.0014162804    1.8656823785    5.2411607454   -0.0001672975    0.0001047713   -0.0001788988
 PRIMCOORD  10
    4  1
 O    1.6171655673    0.9334995638   -0.0418840739    0.0000658279   -0.0001531233   -0.0139261897
 O   -0.0004430197    1.8667219237    2.5686833416   -0.0000660281    0.0001513877   -0.0131355267
Zn    1.6161055072    0.9335789078    2.7280437285   -0.0007137487    0.0008474303    0.0171038259
Zn    0.0006103284    1.8666476048    5.3248315666    0.0007139490   -0.0008456947    0.0099578905
 PRIMCOORD  11
    4  1
 O    1.6169046378    0.9342141859   -0.1172022019    0.0002660411   -0.0003531430   -0.0230849201
 O   -0.0001564494    1.8659941306    2.4897256092   -0.0002924009    0.0003680852   -0.0225275892
Zn    1.6159061090    0.9332595147    2.8002182499    0.0001652919   -0.0001347418    0.0232857697
Zn    0.0007840858    1.8669801689    5.4069329196   -0.0001389321    0.0001197995    0.0223267396
 PRIMCOORD  12
    4  1
 O    1.6186556296    0.9334152964   -0.1941871478   -0.0006877244    0.0002671545   -0.0228534334
 O   -0.0019831183    1.8667732011    2.4131753974    0.0007319062   -0.0002399124   -0.0223329473
Zn    1.6162923146    0.9327049844    2.8738310894    0.0000211491    0.0003998318    0.0248781497
Zn    0.0004735574    1.8675545181    5.4868552741   -0.0000653309   -0.0004270740    0.0203082311
 PRIMCOORD  13
    4  1
 O    1.6158591080    0.9316901299   -0.2670151038   -0.0002875189   -0.0002745486   -0.0032780626
 O    0.0009117200    1.8685993582    2.3433468032    0.0002250769    0.0002018616   -0.0037911525
Zn    1.6187243341    0.9364479154    2.9593481497   -0.0028061717   -0.0030267831    0.0094872528
Zn   -0.0020568111    1.8637105965    5.5689782957    0.0028686137    0.0030994701   -0.0024180377
 PRIMCOORD  14
    4  1
 O    1.6172673524    0.9333003539   -0.1910749249    0.0002841886   -0.0000993233   -0.0015617600
 O   -0.0005223245    1.8669179067    2.4153720468   -0.0002891569    0.0000996952   -0.0006442424
Zn    1.6149467820    0.9339183488    3.0476018973    0.0005180923   -0.0001574504   -0.0035545795
Zn    0.0017461300    1.8663113906    5.6510048899   -0.0005131240    0.0001570785    0.0057605819
 PRIMCOORD  15
    4  1
 O    1.6141655331    0.9344772301   -0.1164000676    0.0002508775   -0.0001130836   -0.0002403931
 O    0.0025601272    1.8657424336    2.4919034314   -0.0002580324    0.0001167777   -0.0000502158
Zn    1.6189919651    0.9324886550    3.1245935457    0.0000832641   -0.0000584428   -0.0040238377
Zn   -0.0022800846    1.8677396812    5.7318193214   -0.0000761092    0.0000547487    0.0043144467
 PRIMCOORD  16
    4  1
 O    1.6196311644    0.9406467243   -0.0410475455   -0.0003206952   -0.0008755848   -0.0006491223
 O   -0.0028212319    1.8597514205    2.5670416948    0.0002595642    0.0007586864    0.0001227090
Zn    1.6141244168    0.9273644750    3.1980616173    0.0000750295   -0.0000471529   -0.0010824116
Zn    0.0025028034    1.8726853802    5.8085577893   -0.0000138985    0.0001640513    0.0016088249
 PRIMCOORD  17
    4  1
 O    1.6167166667    0.9334098668    0.0331412328    0.0000007915   -0.0000000491   -0.0001680956
 O    0.0000033333    1.8668141332    2.6422762328    0.0000002026   -0.0000021336   -0.0001724276
Zn    1.6167150500    0.9334070666    3.2736712480    0.0000020531    0.0000063874    0.0001503438
Zn    0.0000017166    1.8668169334    5.8828114662   -0.0000030473   -0.0000042047    0.0001901795
