 ANIMSTEPS  17
 CRYSTAL 
 PRIMVEC 
  3.2698310000  0.0000000000  0.0000000000
 -1.6349150000  2.8317560000 -0.0000020000
  0.0000010000 -0.0000050000  5.1182820000
 PRIMCOORD   1
    4  1
 O    1.6349173147    0.9439233207    0.0670641824   -0.0000009758   -0.0000012819    0.0000251192
 O   -0.0000007932    1.8878244085    2.6018210203   -0.0000009063    0.0000038311    0.0001869908
Zn    1.6349146581    0.9439145911    3.2057073070    0.0000013287   -0.0000048056   -0.0002925099
Mg    0.0000030879    1.8878326791    5.7305858606    0.0000005534    0.0000022564    0.0000803999
 PRIMCOORD   2
    4  1
 O    1.6349074255    0.9439193482   -0.0080091409    0.0000001927   -0.0000001127   -0.0005162782
 O    0.0000025626    1.8878310167    2.5282582172    0.0000018203   -0.0000006948   -0.0017679078
Zn    1.6349300542    0.9439110623    3.1352968022   -0.0000024570    0.0000009700    0.0034774048
Mg   -0.0000056360    1.8878342015    5.6541333869    0.0000004439   -0.0000001626   -0.0011932188
 PRIMCOORD   3
    4  1
 O    1.6349223078    0.9439263306   -0.0825813963   -0.0000012176   -0.0000015152   -0.0007338996
 O   -0.0000033063    1.8878249170    2.4539325809   -0.0000022590   -0.0000013922   -0.0021359276
Zn    1.6349054014    0.9439039656    3.0605177830    0.0000051508    0.0000047794    0.0038536213
Mg    0.0000101440    1.8878410519    5.5790227942   -0.0000016742   -0.0000018720   -0.0009837940
 PRIMCOORD   4
    4  1
 O    1.6348381293    0.9435771051   -0.1536298812    0.0000151479    0.0000680637   -0.0003275581
 O    0.0000171690    1.8879215330    2.3802190577    0.0000427607    0.0001773977    0.0011047470
Zn    1.6350646914    0.9445473259    2.9761268103   -0.0000873489   -0.0003695575   -0.0005835889
Mg   -0.0000853032    1.8874509343    5.5107955301    0.0000294403    0.0001240961   -0.0001936000
 PRIMCOORD   5
    4  1
 O    1.6372001008    0.9516787281   -0.2314729377   -0.0003847274   -0.0014547249   -0.0022631758
 O   -0.0012259715    1.8823950102    2.3051064606   -0.0006659768   -0.0016439036   -0.0032845313
Zn    1.6314535593    0.9336007558    2.9055893120    0.0016315291    0.0052348203    0.0071875597
Mg    0.0024071427    1.8958230601    5.4262770761   -0.0005808249   -0.0021361918   -0.0016398527
 PRIMCOORD   6
    4  1
 O    1.6351930524    0.9451407602   -0.1693063513    0.0005260723    0.0004133147   -0.0235649524
 O   -0.0001104633    1.8866653267    2.3743533784    0.0004137554    0.0005605273   -0.0238911314
Zn    1.6344233627    0.9425818590    2.8201687033   -0.0017184224   -0.0016089062    0.0283405521
Mg    0.0003288947    1.8891096765    5.3482705275    0.0007785947    0.0006350642    0.0191155318
 PRIMCOORD   7
    4  1
 O    1.6366009315    0.9469039347   -0.0986566293    0.0000007385   -0.0007447934   -0.0249012893
 O    0.0006488100    1.8873130850    2.4464680058   -0.0023837598   -0.0031762131   -0.0247094809
Zn    1.6303490411    0.9378146411    2.7409880096    0.0022664540    0.0050476487    0.0307338027
Mg    0.0022360640    1.8914659624    5.2843038215    0.0001165672   -0.0011266422    0.0188769676
 PRIMCOORD   8
    4  1
 O    1.6348484054    0.9442836460   -0.0269152673    0.0000331065   -0.0000650847   -0.0150945248
 O   -0.0002035977    1.8859103890    2.5156539922    0.0003561907    0.0019061330   -0.0149557533
Zn    1.6353122945    0.9454480193    2.6593977898   -0.0005123921   -0.0021649342    0.0206115602
Mg   -0.0001222555    1.8878555693    5.2248542228    0.0001230949    0.0003238859    0.0094387179
 PRIMCOORD   9
    4  1
 O    1.6362083531    0.9501695453    0.0417044557    0.0001457594    0.0005130641    0.0019521126
 O   -0.0003936762    1.8853941361    2.5863065850   -0.0007183734   -0.0033065844    0.0008088513
Zn    1.6325306613    0.9330024614    2.5782392050    0.0005098704    0.0026771699   -0.0051685207
Mg    0.0014895084    1.8949314808    5.1666494532    0.0000627436    0.0001163504    0.0024075568
 PRIMCOORD  10
    4  1
 O    1.6362013262    0.9472375312    0.1039567690   -0.0008849993   -0.0010610243    0.0123706053
 O   -0.0019522437    1.8822630815    2.6643198401    0.0003139953    0.0026919030    0.0145529673
Zn    1.6344034929    0.9432791139    2.5214533103    0.0025722934    0.0014164561   -0.0116466816
Mg    0.0011822714    1.8907178972    5.0830804797   -0.0020012895   -0.0030473347   -0.0152768910
 PRIMCOORD  11
    4  1
 O    1.6377856237    0.9504511718    0.1699652415    0.0005848483    0.0001634662    0.0207594384
 O   -0.0021937601    1.8821948082    2.7402441023    0.0003564363    0.0003521451    0.0238486548
Zn    1.6311591329    0.9361731725    2.4533665351   -0.0016339679   -0.0004708343   -0.0207172056
Mg    0.0030838503    1.8946784717    5.0091178782    0.0006926833   -0.0000447770   -0.0238908876
 PRIMCOORD  12
    4  1
 O    1.6377578656    0.9461683730    0.2423743444   -0.0008032884   -0.0008889782    0.0197810216
 O   -0.0022351114    1.8828431377    2.8164361553   -0.0007482525    0.0020109894    0.0215141286
Zn    1.6314476456    0.9450566129    2.3678106972    0.0026087860   -0.0005521484   -0.0196587747
Mg    0.0028644472    1.8894295010    4.9458216141   -0.0010572451   -0.0005698627   -0.0216363754
 PRIMCOORD  13
    4  1
 O    1.6398717038    0.9409283934    0.3016328841   -0.0004891107    0.0002813955    0.0012674239
 O   -0.0034599141    1.8910167585    2.8838781334   -0.0006177720   -0.0003120069    0.0019597067
Zn    1.6283081655    0.9466896772    2.2828292875    0.0018212880   -0.0002764788   -0.0032722295
Mg    0.0051149035    1.8848628487    4.8791437825   -0.0007144053    0.0003070902    0.0000450989
 PRIMCOORD  14
    4  1
 O    1.6351107993    0.9438275074    0.2281960227   -0.0001381687   -0.0006610299    0.0000416004
 O   -0.0004109887    1.8860330262    2.8124404573    0.0000324223    0.0005065710    0.0005602647
Zn    1.6349770257    0.9461880550    2.1977676241    0.0002773493    0.0009224170   -0.0005055740
Mg    0.0001581656    1.8874497381    4.8043588179   -0.0001716028   -0.0007679581   -0.0000962910
 PRIMCOORD  15
    4  1
 O    1.6349158321    0.9439001732    0.1525803721    0.0000006322    0.0000007844    0.0013007794
 O    0.0000017944    1.8878361300    2.7344753524    0.0000014110    0.0000087274    0.0025302525
Zn    1.6349177769    0.9439529090    2.1286126467   -0.0000032641   -0.0000124649   -0.0057317648
Mg   -0.0000002608    1.8878097522    4.7276333280    0.0000012209    0.0000029532    0.0019007329
 PRIMCOORD  16
    4  1
 O    1.6349176347    0.9439245227    0.0790279716    0.0000032565   -0.0000021383    0.0010539655
 O    0.0000032898    1.8878283502    2.6614399621    0.0000018609   -0.0000013923    0.0024041904
Zn    1.6349119947    0.9439096116    2.0509097119   -0.0000097457    0.0000066686   -0.0051163302
Mg    0.0000023633    1.8878371137    4.6542408094    0.0000046283   -0.0000031379    0.0016581743
 PRIMCOORD  17
    4  1
 O    1.6349173021    0.9439177200    0.0028450981    0.0000005243   -0.0000000551    0.0000823945
 O    0.0000008387    1.8878385822    2.5865992496   -0.0000009402   -0.0000000134   -0.0002061973
Zn    1.6349144191    0.9439157859    1.9827091779    0.0000013239   -0.0000018009    0.0002863562
Mg    0.0000028623    1.8878281432    4.5762494846   -0.0000009080    0.0000018694   -0.0001625534
