
     Program PWSCF v.6.4.1 starts on 15Jul2022 at  2:11: 2 

     This program is part of the open-source Quantum ESPRESSO suite
     for quantum simulation of materials; please cite
         "P. Giannozzi et al., J. Phys.:Condens. Matter 21 395502 (2009);
         "P. Giannozzi et al., J. Phys.:Condens. Matter 29 465901 (2017);
          URL http://www.quantum-espresso.org", 
     in publications or presentations arising from this work. More details at
     http://www.quantum-espresso.org/quote

     Parallel version (MPI), running on   128 processors

     MPI processes distributed on     2 nodes
     R & G space division:  proc/nbgrp/npool/nimage =     128
     Waiting for input...
     Reading input from standard input
Warning: card &IONS ignored
Warning: card   UPSCALE           = 100.D0, ignored
Warning: card / ignored
Warning: card &CELL ignored
Warning: card   CELL_DYNAMICS     = 'BFGS' ignored
Warning: card   PRESS_CONV_THR    = 0.5D0 ignored
Warning: card   CELL_DOFREE = 'ALL' ignored
Warning: card / ignored

     Current dimensions of program PWSCF are:
     Max number of different atomic species (ntypx) = 10
     Max number of k-points (npk) =  40000
     Max angular momentum in pseudopotentials (lmaxx) =  3

     Atomic positions and unit cell read from directory:
     ./temp/ZnO.save/
 

     Subspace diagonalization in iterative solution of the eigenvalue problem:
     one sub-group per band group will be used
     scalapack distributed-memory algorithm (size of sub-group:  8*  8 procs)

 
     Parallelization info
     --------------------
     sticks:   dense  smooth     PW     G-vecs:    dense   smooth      PW
     Min          90      43     12                 8397     2789     414
     Max          91      44     14                 8408     2796     419
     Sum       11641    5599   1573              1075689   357531   53299
 


     bravais-lattice index     =            0
     lattice parameter (alat)  =      18.3770  a.u.
     unit-cell volume          =    5696.2126 (a.u.)^3
     number of atoms/cell      =           72
     number of atomic types    =            3
     number of electrons       =       876.00
     number of Kohn-Sham states=          438
     kinetic-energy cutoff     =      60.0000  Ry
     charge density cutoff     =     500.0000  Ry
     Exchange-correlation      = SLA  PW   PSX  PSC ( 1  4 10  8 0 0)
     Using LIBXC version       =    4   3   4

     celldm(1)=  18.377017  celldm(2)=   0.000000  celldm(3)=   0.000000
     celldm(4)=   0.000000  celldm(5)=   0.000000  celldm(6)=   0.000000

     crystal axes: (cart. coord. in units of alat)
               a(1) = (   1.000000   0.000006   0.000017 )  
               a(2) = (  -0.499993   0.865992  -0.000022 )  
               a(3) = (   0.000019  -0.000017   1.059854 )  

     reciprocal axes: (cart. coord. in units 2 pi/alat)
               b(1) = (  0.999997  0.577363 -0.000009 )  
               b(2) = ( -0.000007  1.154742  0.000018 )  
               b(3) = ( -0.000016  0.000015  0.943526 )  


     PseudoPot. # 1 for Zn read from file:
     ./GBRV_PBEsol/zn_pbesol_v1.uspp.F.UPF
     MD5 check sum: 7d8615e52efe7c1e2b1899de8658bae2
     Pseudo is Ultrasoft, Zval = 20.0
     Generated by new atomic code, or converted to UPF format
     Using radial grid of  943 points,  6 beta functions with: 
                l(1) =   0
                l(2) =   0
                l(3) =   1
                l(4) =   1
                l(5) =   2
                l(6) =   2
     Q(r) pseudized with  8 coefficients,  rinner =    1.100   1.100   1.100
                                                       1.100   1.100

     PseudoPot. # 2 for O  read from file:
     ./GBRV_PBEsol/o_pbesol_v1.2.uspp.F.UPF
     MD5 check sum: 501638753501ef6325af9037351f7734
     Pseudo is Ultrasoft + core correction, Zval =  6.0
     Generated by new atomic code, or converted to UPF format
     Using radial grid of  737 points,  5 beta functions with: 
                l(1) =   0
                l(2) =   0
                l(3) =   1
                l(4) =   1
                l(5) =   2
     Q(r) pseudized with  8 coefficients,  rinner =    0.900   0.900   0.900
                                                       0.900   0.900

     PseudoPot. # 3 for Mg read from file:
     ./GBRV_PBEsol/mg_pbesol_v1.4.uspp.F.UPF
     MD5 check sum: 4059f37963cf5867752dbf5ab2400678
     Pseudo is Ultrasoft, Zval = 10.0
     Generated by new atomic code, or converted to UPF format
     Using radial grid of  821 points,  7 beta functions with: 
                l(1) =   0
                l(2) =   0
                l(3) =   0
                l(4) =   1
                l(5) =   1
                l(6) =   2
                l(7) =   2
     Q(r) pseudized with  8 coefficients,  rinner =    1.200   1.200   1.200
                                                       1.200   1.200

     atomic species   valence    mass     pseudopotential
        Zn            20.00    65.38000     Zn( 1.00)
        O              6.00    15.99900     O ( 1.00)
        Mg            10.00    24.30500     Mg( 1.00)

     No symmetry found


                                    s                        frac. trans.

      isym =  1     identity                                     

 cryst.   s( 1) = (     1          0          0      )
                  (     0          1          0      )
                  (     0          0          1      )

 cart.    s( 1) = (  1.0000000  0.0000000 -0.0000000 )
                  ( -0.0000000  1.0000000 -0.0000000 )
                  ( -0.0000000 -0.0000000  1.0000000 )


   Cartesian axes

     site n.     atom                  positions (alat units)
         1           Zn  tau(   1) = (   0.1666050   0.0975619   0.2059665  )
         2           Zn  tau(   2) = (   0.4998354   0.0952595   0.2054524  )
         3           Zn  tau(   3) = (   0.8332389   0.0975612   0.2040313  )
         4           Zn  tau(   4) = (   0.0000116   0.3847926   0.2048348  )
         5           Zn  tau(   5) = (   0.3333219   0.3847947   0.2065491  )
         6           Zn  tau(   6) = (   0.6668820   0.3848909   0.2064276  )
         7           Zn  tau(   7) = (  -0.1645946   0.6732744   0.2056518  )
         8           Zn  tau(   8) = (   0.1646151   0.6732663   0.2058738  )
         9           Zn  tau(   9) = (   0.5002366   0.6725782   0.2033169  )
        10           Zn  tau(  10) = (   0.1657420   0.0949893   0.7361265  )
        11           Zn  tau(  11) = (   0.4994442   0.0979205   0.7361960  )
        12           Zn  tau(  12) = (   0.3339908   0.3847603   0.7367360  )
        13           Zn  tau(  13) = (   0.6660356   0.3846960   0.7367695  )
        14           Zn  tau(  14) = (  -0.1690300   0.6738959   0.7355889  )
        15           Zn  tau(  15) = (   0.1704000   0.6740009   0.7358954  )
        16           Zn  tau(  16) = (  -0.0008393   0.1929369   0.4708422  )
        17           Zn  tau(  17) = (   0.3335732   0.1926231   0.4718007  )
        18           Zn  tau(  18) = (   0.6666847   0.1923712   0.4708827  )
        19           Zn  tau(  19) = (  -0.1664249   0.4809153   0.4713994  )
        20           Zn  tau(  20) = (   0.1666438   0.4810623   0.4713144  )
        21           Zn  tau(  21) = (   0.5000957   0.4816775   0.4707084  )
        22           Zn  tau(  22) = (  -0.3339468   0.7689143   0.4689213  )
        23           Zn  tau(  23) = (   0.3341304   0.7697478   0.4681389  )
        24           Zn  tau(  24) = (   0.0005951   0.1920585   0.9993380  )
        25           Zn  tau(  25) = (   0.3328211   0.1929707   1.0014390  )
        26           Zn  tau(  26) = (   0.6659954   0.1932968   1.0007919  )
        27           Zn  tau(  27) = (  -0.1668641   0.4816155   1.0003805  )
        28           Zn  tau(  28) = (   0.1670939   0.4814722   1.0008871  )
        29           Zn  tau(  29) = (   0.5002121   0.4811405   1.0009622  )
        30           Zn  tau(  30) = (   0.0001016   0.7686098   0.9988845  )
        31           Mg  tau(  31) = (   0.8325411   0.0950400   0.7364730  )
        32           Mg  tau(  32) = (   0.0011440   0.3854740   0.7371367  )
        33           Mg  tau(  33) = (   0.4998139   0.6731040   0.7356623  )
        34           Mg  tau(  34) = (   0.0000951   0.7698369   0.4732412  )
        35           Mg  tau(  35) = (  -0.3314550   0.7699701   1.0023320  )
        36           Mg  tau(  36) = (   0.3318306   0.7684942   1.0024063  )
        37           O   tau(  37) = (   0.1666079   0.0962571   0.0030190  )
        38           O   tau(  38) = (   0.4996707   0.0954657   0.0023554  )
        39           O   tau(  39) = (   0.8330946   0.0958887   0.0007629  )
        40           O   tau(  40) = (   0.0000253   0.3846136   0.0014421  )
        41           O   tau(  41) = (   0.3336045   0.3851720   0.0034819  )
        42           O   tau(  42) = (   0.6667565   0.3852177   0.0034142  )
        43           O   tau(  43) = (  -0.1658215   0.6734878   0.0028976  )
        44           O   tau(  44) = (   0.1657161   0.6732973   0.0031963  )
        45           O   tau(  45) = (   0.5004719   0.6744651   0.0001582  )
        46           O   tau(  46) = (   0.1662964   0.0956700   0.5322992  )
        47           O   tau(  47) = (   0.5000642   0.0963012   0.5330769  )
        48           O   tau(  48) = (   0.8331026   0.0956169   0.5337488  )
        49           O   tau(  49) = (   0.0001585   0.3850247   0.5346387  )
        50           O   tau(  50) = (   0.3335184   0.3850733   0.5332127  )
        51           O   tau(  51) = (   0.6666310   0.3848720   0.5329700  )
        52           O   tau(  52) = (  -0.1670955   0.6737408   0.5323113  )
        53           O   tau(  53) = (   0.1674933   0.6739282   0.5323110  )
        54           O   tau(  54) = (   0.4998447   0.6738936   0.5333296  )
        55           O   tau(  55) = (  -0.0004268   0.1927463   0.2678226  )
        56           O   tau(  56) = (   0.3336776   0.1924026   0.2683318  )
        57           O   tau(  57) = (   0.6664380   0.1922332   0.2675906  )
        58           O   tau(  58) = (  -0.1662556   0.4809018   0.2680540  )
        59           O   tau(  59) = (   0.1663695   0.4808298   0.2680254  )
        60           O   tau(  60) = (   0.5000833   0.4812565   0.2677965  )
        61           O   tau(  61) = (  -0.3330851   0.7696161   0.2653531  )
        62           O   tau(  62) = (   0.0000148   0.7700700   0.2708654  )
        63           O   tau(  63) = (   0.3333117   0.7698819   0.2646647  )
        64           O   tau(  64) = (  -0.0010590   0.1926853   0.7961445  )
        65           O   tau(  65) = (   0.3321899   0.1922064   0.7981961  )
        66           O   tau(  66) = (   0.6668072   0.1922938   0.7977499  )
        67           O   tau(  67) = (  -0.1664097   0.4809825   0.7973088  )
        68           O   tau(  68) = (   0.1673559   0.4815413   0.7978849  )
        69           O   tau(  69) = (   0.5001172   0.4812942   0.7977187  )
        70           O   tau(  70) = (  -0.3345307   0.7692953   0.7999477  )
        71           O   tau(  71) = (   0.0003904   0.7693917   0.7950938  )
        72           O   tau(  72) = (   0.3351721   0.7701497   0.8001165  )

   Crystallographic axes

     site n.     atom                  positions (cryst. coord.)
         1           Zn  tau(   1) = (  0.2229314  0.1126615  0.1943335  )
         2           Zn  tau(   2) = (  0.5548313  0.1100004  0.1938429  )
         3           Zn  tau(   3) = (  0.8895626  0.1126561  0.1924967  )
         4           Zn  tau(   4) = (  0.2221749  0.4443398  0.1932726  )
         5           Zn  tau(   5) = (  0.5554854  0.4443400  0.1948846  )
         6           Zn  tau(   6) = (  0.8890998  0.4444488  0.1947645  )
         7           Zn  tau(   7) = (  0.2241281  0.7774629  0.1940504  )
         8           Zn  tau(   8) = (  0.5533320  0.7774514  0.1942545  )
         9           Zn  tau(   9) = (  0.8885552  0.7766545  0.1918364  )
        10           Zn  tau(  10) = (  0.2205784  0.1097004  0.6945533  )
        11           Zn  tau(  11) = (  0.5559718  0.1130829  0.6946135  )
        12           Zn  tau(  12) = (  0.5561298  0.4443099  0.6951298  )
        13           Zn  tau(  13) = (  0.8881364  0.4442334  0.6951560  )
        14           Zn  tau(  14) = (  0.2200469  0.7781902  0.6940600  )
        15           Zn  tau(  15) = (  0.5595365  0.7783092  0.6943436  )
        16           Zn  tau(  16) = (  0.1105513  0.2228008  0.4442548  )
        17           Zn  tau(  17) = (  0.4447815  0.2224363  0.4451537  )
        18           Zn  tau(  18) = (  0.7777465  0.2221432  0.4442820  )
        19           Zn  tau(  19) = (  0.1112345  0.5553427  0.4447874  )
        20           Zn  tau(  20) = (  0.4443869  0.5555101  0.4447017  )
        21           Zn  tau(  21) = (  0.7781929  0.5562183  0.4441245  )
        22           Zn  tau(  22) = (  0.1099932  0.8879083  0.4424562  )
        23           Zn  tau(  23) = (  0.7785494  0.8888662  0.4417071  )
        24           Zn  tau(  24) = (  0.1114739  0.2217960  0.9429044  )
        25           Zn  tau(  25) = (  0.4442255  0.2228472  0.9448813  )
        26           Zn  tau(  26) = (  0.7775870  0.2232216  0.9442653  )
        27           Zn  tau(  27) = (  0.1111950  0.5561608  0.9438949  )
        28           Zn  tau(  28) = (  0.4450691  0.5559930  0.9443675  )
        29           Zn  tau(  29) = (  0.7779946  0.5556077  0.9444329  )
        30           Zn  tau(  30) = (  0.4438600  0.8875639  0.9424849  )
        31           Mg  tau(  31) = (  0.8874045  0.1097544  0.6948693  )
        32           Mg  tau(  32) = (  0.2236961  0.4451363  0.6955134  )
        33           Mg  tau(  33) = (  0.8884314  0.7772713  0.6941182  )
        34           Mg  tau(  34) = (  0.4445666  0.8889714  0.4465267  )
        35           Mg  tau(  35) = (  0.1130899  0.8891371  0.9457432  )
        36           Mg  tau(  36) = (  0.7755211  0.8874283  0.9458024  )
        37           O   tau(  37) = (  0.2221827  0.1111510  0.0028472  )
        38           O   tau(  38) = (  0.5547874  0.1102350  0.0022155  )
        39           O   tau(  39) = (  0.8884544  0.1107211  0.0007075  )
        40           O   tau(  40) = (  0.2220870  0.4441294  0.0013663  )
        41           O   tau(  41) = (  0.5559875  0.4447721  0.0032854  )
        42           O   tau(  42) = (  0.8891649  0.4448227  0.0032161  )
        43           O   tau(  43) = (  0.2230262  0.7777057  0.0027465  )
        44           O   tau(  44) = (  0.5544527  0.7774836  0.0030229  )
        45           O   tau(  45) = (  0.8898816  0.7788297  0.0001509  )
        46           O   tau(  46) = (  0.2215276  0.1104826  0.5022369  )
        47           O   tau(  47) = (  0.5556587  0.1112093  0.5029652  )
        48           O   tau(  48) = (  0.8883009  0.1104169  0.5035937  )
        49           O   tau(  49) = (  0.2224530  0.4446138  0.5044512  )
        50           O   tau(  50) = (  0.5558399  0.4446677  0.5031003  )
        51           O   tau(  51) = (  0.8888351  0.4444330  0.5028658  )
        52           O   tau(  52) = (  0.2218937  0.7780074  0.5022622  )
        53           O   tau(  53) = (  0.5565896  0.7782217  0.5022565  )
        54           O   tau(  54) = (  0.8889198  0.7781794  0.5032121  )
        55           O   tau(  55) = (  0.1108555  0.2225771  0.2527005  )
        56           O   tau(  56) = (  0.4447603  0.2221779  0.2531754  )
        57           O   tau(  57) = (  0.7774218  0.2219800  0.2524706  )
        58           O   tau(  58) = (  0.1113976  0.5553233  0.2529257  )
        59           O   tau(  59) = (  0.4439801  0.5552380  0.2528932  )
        60           O   tau(  60) = (  0.7779391  0.5557285  0.2526718  )
        61           O   tau(  61) = (  0.1112618  0.8887150  0.2503842  )
        62           O   tau(  62) = (  0.4446226  0.8892369  0.2555799  )
        63           O   tau(  63) = (  0.7778099  0.8890174  0.2497238  )
        64           O   tau(  64) = (  0.1101835  0.2225161  0.7511860  )
        65           O   tau(  65) = (  0.4431547  0.2219610  0.7531163  )
        66           O   tau(  66) = (  0.7778214  0.2220596  0.7526898  )
        67           O   tau(  67) = (  0.1112856  0.5554261  0.7522915  )
        68           O   tau(  68) = (  0.4453728  0.5560692  0.7528296  )
        69           O   tau(  69) = (  0.7779902  0.5557816  0.7526673  )
        70           O   tau(  70) = (  0.1096263  0.8883542  0.7547883  )
        71           O   tau(  71) = (  0.4446021  0.8884632  0.7502030  )
        72           O   tau(  72) = (  0.7798203  0.8893363  0.7549366  )

     number of k points=    80
                       cart. coord. in units 2pi/alat
        k(    1) = (   0.0000000   0.0000000   0.0000000), wk =   0.0156250
        k(    2) = (  -0.0000023   0.0000021   0.1347895), wk =   0.0156250
        k(    3) = (  -0.0000047   0.0000042   0.2695789), wk =   0.0156250
        k(    4) = (  -0.0000070   0.0000062   0.4043684), wk =   0.0156250
        k(    5) = (  -0.0000094   0.0000083   0.5391578), wk =   0.0156250
        k(    6) = (  -0.0000117   0.0000104   0.6739473), wk =   0.0156250
        k(    7) = (  -0.0000141   0.0000125   0.8087368), wk =   0.0156250
        k(    8) = (  -0.0000164   0.0000146   0.9435262), wk =   0.0156250
        k(    9) = (  -0.0000017   0.2886855   0.0000045), wk =   0.0312500
        k(   10) = (  -0.0000040   0.2886875   0.1347940), wk =   0.0312500
        k(   11) = (  -0.0000064   0.2886896   0.2695834), wk =   0.0312500
        k(   12) = (  -0.0000087   0.2886917   0.4043729), wk =   0.0312500
        k(   13) = (  -0.0000111   0.2886938   0.5391624), wk =   0.0312500
        k(   14) = (  -0.0000134   0.2886959   0.6739518), wk =   0.0312500
        k(   15) = (  -0.0000158   0.2886979   0.8087413), wk =   0.0312500
        k(   16) = (  -0.0000181   0.2887000   0.9435307), wk =   0.0312500
        k(   17) = (   0.0000034  -0.5773709  -0.0000090), wk =   0.0156250
        k(   18) = (   0.0000010  -0.5773689   0.1347804), wk =   0.0156250
        k(   19) = (  -0.0000013  -0.5773668   0.2695699), wk =   0.0156250
        k(   20) = (  -0.0000037  -0.5773647   0.4043594), wk =   0.0156250
        k(   21) = (  -0.0000060  -0.5773626   0.5391488), wk =   0.0156250
        k(   22) = (  -0.0000084  -0.5773605   0.6739383), wk =   0.0156250
        k(   23) = (  -0.0000107  -0.5773585   0.8087277), wk =   0.0156250
        k(   24) = (  -0.0000131  -0.5773564   0.9435172), wk =   0.0156250
        k(   25) = (   0.2499992   0.1443408  -0.0000022), wk =   0.0312500
        k(   26) = (   0.2499968   0.1443429   0.1347873), wk =   0.0312500
        k(   27) = (   0.2499945   0.1443450   0.2695767), wk =   0.0312500
        k(   28) = (   0.2499921   0.1443471   0.4043662), wk =   0.0312500
        k(   29) = (   0.2499898   0.1443492   0.5391557), wk =   0.0312500
        k(   30) = (   0.2499874   0.1443512   0.6739451), wk =   0.0312500
        k(   31) = (   0.2499851   0.1443533   0.8087346), wk =   0.0312500
        k(   32) = (   0.2499827   0.1443554   0.9435240), wk =   0.0312500
        k(   33) = (   0.2499975   0.4330263   0.0000023), wk =   0.0312500
        k(   34) = (   0.2499951   0.4330284   0.1347918), wk =   0.0312500
        k(   35) = (   0.2499928   0.4330305   0.2695813), wk =   0.0312500
        k(   36) = (   0.2499904   0.4330325   0.4043707), wk =   0.0312500
        k(   37) = (   0.2499881   0.4330346   0.5391602), wk =   0.0312500
        k(   38) = (   0.2499858   0.4330367   0.6739496), wk =   0.0312500
        k(   39) = (   0.2499834   0.4330388   0.8087391), wk =   0.0312500
        k(   40) = (   0.2499811   0.4330409   0.9435286), wk =   0.0312500
        k(   41) = (   0.2500025  -0.4330301  -0.0000112), wk =   0.0312500
        k(   42) = (   0.2500002  -0.4330280   0.1347783), wk =   0.0312500
        k(   43) = (   0.2499978  -0.4330259   0.2695677), wk =   0.0312500
        k(   44) = (   0.2499955  -0.4330239   0.4043572), wk =   0.0312500
        k(   45) = (   0.2499931  -0.4330218   0.5391466), wk =   0.0312500
        k(   46) = (   0.2499908  -0.4330197   0.6739361), wk =   0.0312500
        k(   47) = (   0.2499884  -0.4330176   0.8087256), wk =   0.0312500
        k(   48) = (   0.2499861  -0.4330155   0.9435150), wk =   0.0312500
        k(   49) = (   0.2500008  -0.1443446  -0.0000067), wk =   0.0312500
        k(   50) = (   0.2499985  -0.1443426   0.1347828), wk =   0.0312500
        k(   51) = (   0.2499961  -0.1443405   0.2695722), wk =   0.0312500
        k(   52) = (   0.2499938  -0.1443384   0.4043617), wk =   0.0312500
        k(   53) = (   0.2499915  -0.1443363   0.5391512), wk =   0.0312500
        k(   54) = (   0.2499891  -0.1443342   0.6739406), wk =   0.0312500
        k(   55) = (   0.2499868  -0.1443322   0.8087301), wk =   0.0312500
        k(   56) = (   0.2499844  -0.1443301   0.9435195), wk =   0.0312500
        k(   57) = (  -0.4999983  -0.2886817   0.0000043), wk =   0.0156250
        k(   58) = (  -0.5000007  -0.2886796   0.1347938), wk =   0.0156250
        k(   59) = (  -0.5000030  -0.2886775   0.2695833), wk =   0.0156250
        k(   60) = (  -0.5000054  -0.2886754   0.4043727), wk =   0.0156250
        k(   61) = (  -0.5000077  -0.2886734   0.5391622), wk =   0.0156250
        k(   62) = (  -0.5000101  -0.2886713   0.6739516), wk =   0.0156250
        k(   63) = (  -0.5000124  -0.2886692   0.8087411), wk =   0.0156250
        k(   64) = (  -0.5000148  -0.2886671   0.9435306), wk =   0.0156250
        k(   65) = (  -0.5000000   0.0000038   0.0000089), wk =   0.0312500
        k(   66) = (  -0.5000023   0.0000059   0.1347983), wk =   0.0312500
        k(   67) = (  -0.5000047   0.0000080   0.2695878), wk =   0.0312500
        k(   68) = (  -0.5000070   0.0000100   0.4043772), wk =   0.0312500
        k(   69) = (  -0.5000094   0.0000121   0.5391667), wk =   0.0312500
        k(   70) = (  -0.5000117   0.0000142   0.6739562), wk =   0.0312500
        k(   71) = (  -0.5000141   0.0000163   0.8087456), wk =   0.0312500
        k(   72) = (  -0.5000164   0.0000184   0.9435351), wk =   0.0312500
        k(   73) = (  -0.4999950  -0.8660526  -0.0000047), wk =   0.0156250
        k(   74) = (  -0.4999973  -0.8660505   0.1347848), wk =   0.0156250
        k(   75) = (  -0.4999997  -0.8660484   0.2695742), wk =   0.0156250
        k(   76) = (  -0.5000020  -0.8660464   0.4043637), wk =   0.0156250
        k(   77) = (  -0.5000044  -0.8660443   0.5391532), wk =   0.0156250
        k(   78) = (  -0.5000067  -0.8660422   0.6739426), wk =   0.0156250
        k(   79) = (  -0.5000091  -0.8660401   0.8087321), wk =   0.0156250
        k(   80) = (  -0.5000114  -0.8660380   0.9435215), wk =   0.0156250

                       cryst. coord.
        k(    1) = (   0.0000000   0.0000000   0.0000000), wk =   0.0156250
        k(    2) = (  -0.0000000   0.0000000   0.1428571), wk =   0.0156250
        k(    3) = (  -0.0000000   0.0000000   0.2857143), wk =   0.0156250
        k(    4) = (   0.0000000  -0.0000000   0.4285714), wk =   0.0156250
        k(    5) = (  -0.0000000   0.0000000   0.5714286), wk =   0.0156250
        k(    6) = (  -0.0000000  -0.0000000   0.7142857), wk =   0.0156250
        k(    7) = (   0.0000000  -0.0000000   0.8571429), wk =   0.0156250
        k(    8) = (  -0.0000000  -0.0000000   1.0000000), wk =   0.0156250
        k(    9) = (   0.0000000   0.2500000  -0.0000000), wk =   0.0312500
        k(   10) = (   0.0000000   0.2500000   0.1428571), wk =   0.0312500
        k(   11) = (  -0.0000000   0.2500000   0.2857143), wk =   0.0312500
        k(   12) = (  -0.0000000   0.2500000   0.4285714), wk =   0.0312500
        k(   13) = (  -0.0000000   0.2500000   0.5714286), wk =   0.0312500
        k(   14) = (   0.0000000   0.2500000   0.7142857), wk =   0.0312500
        k(   15) = (  -0.0000000   0.2500000   0.8571429), wk =   0.0312500
        k(   16) = (  -0.0000000   0.2500000   1.0000000), wk =   0.0312500
        k(   17) = (  -0.0000000  -0.5000000   0.0000000), wk =   0.0156250
        k(   18) = (  -0.0000000  -0.5000000   0.1428571), wk =   0.0156250
        k(   19) = (  -0.0000000  -0.5000000   0.2857143), wk =   0.0156250
        k(   20) = (   0.0000000  -0.5000000   0.4285714), wk =   0.0156250
        k(   21) = (   0.0000000  -0.5000000   0.5714286), wk =   0.0156250
        k(   22) = (  -0.0000000  -0.5000000   0.7142857), wk =   0.0156250
        k(   23) = (  -0.0000000  -0.5000000   0.8571429), wk =   0.0156250
        k(   24) = (  -0.0000000  -0.5000000   1.0000000), wk =   0.0156250
        k(   25) = (   0.2500000   0.0000000  -0.0000000), wk =   0.0312500
        k(   26) = (   0.2500000   0.0000000   0.1428571), wk =   0.0312500
        k(   27) = (   0.2500000   0.0000000   0.2857143), wk =   0.0312500
        k(   28) = (   0.2500000   0.0000000   0.4285714), wk =   0.0312500
        k(   29) = (   0.2500000  -0.0000000   0.5714286), wk =   0.0312500
        k(   30) = (   0.2500000   0.0000000   0.7142857), wk =   0.0312500
        k(   31) = (   0.2500000   0.0000000   0.8571429), wk =   0.0312500
        k(   32) = (   0.2500000   0.0000000   1.0000000), wk =   0.0312500
        k(   33) = (   0.2500000   0.2500000  -0.0000000), wk =   0.0312500
        k(   34) = (   0.2500000   0.2500000   0.1428571), wk =   0.0312500
        k(   35) = (   0.2500000   0.2500000   0.2857143), wk =   0.0312500
        k(   36) = (   0.2500000   0.2500000   0.4285714), wk =   0.0312500
        k(   37) = (   0.2500000   0.2500000   0.5714286), wk =   0.0312500
        k(   38) = (   0.2500000   0.2500000   0.7142857), wk =   0.0312500
        k(   39) = (   0.2500000   0.2500000   0.8571429), wk =   0.0312500
        k(   40) = (   0.2500000   0.2500000   1.0000000), wk =   0.0312500
        k(   41) = (   0.2500000  -0.5000000   0.0000000), wk =   0.0312500
        k(   42) = (   0.2500000  -0.5000000   0.1428571), wk =   0.0312500
        k(   43) = (   0.2500000  -0.5000000   0.2857143), wk =   0.0312500
        k(   44) = (   0.2500000  -0.5000000   0.4285714), wk =   0.0312500
        k(   45) = (   0.2500000  -0.5000000   0.5714286), wk =   0.0312500
        k(   46) = (   0.2500000  -0.5000000   0.7142857), wk =   0.0312500
        k(   47) = (   0.2500000  -0.5000000   0.8571429), wk =   0.0312500
        k(   48) = (   0.2500000  -0.5000000   1.0000000), wk =   0.0312500
        k(   49) = (   0.2500000  -0.2500000  -0.0000000), wk =   0.0312500
        k(   50) = (   0.2500000  -0.2500000   0.1428571), wk =   0.0312500
        k(   51) = (   0.2500000  -0.2500000   0.2857143), wk =   0.0312500
        k(   52) = (   0.2500000  -0.2500000   0.4285714), wk =   0.0312500
        k(   53) = (   0.2500000  -0.2500000   0.5714286), wk =   0.0312500
        k(   54) = (   0.2500000  -0.2500000   0.7142857), wk =   0.0312500
        k(   55) = (   0.2500000  -0.2500000   0.8571429), wk =   0.0312500
        k(   56) = (   0.2500000  -0.2500000   1.0000000), wk =   0.0312500
        k(   57) = (  -0.5000000  -0.0000000   0.0000000), wk =   0.0156250
        k(   58) = (  -0.5000000  -0.0000000   0.1428571), wk =   0.0156250
        k(   59) = (  -0.5000000  -0.0000000   0.2857143), wk =   0.0156250
        k(   60) = (  -0.5000000  -0.0000000   0.4285714), wk =   0.0156250
        k(   61) = (  -0.5000000  -0.0000000   0.5714286), wk =   0.0156250
        k(   62) = (  -0.5000000  -0.0000000   0.7142857), wk =   0.0156250
        k(   63) = (  -0.5000000  -0.0000000   0.8571429), wk =   0.0156250
        k(   64) = (  -0.5000000  -0.0000000   1.0000000), wk =   0.0156250
        k(   65) = (  -0.5000000   0.2500000  -0.0000000), wk =   0.0312500
        k(   66) = (  -0.5000000   0.2500000   0.1428571), wk =   0.0312500
        k(   67) = (  -0.5000000   0.2500000   0.2857143), wk =   0.0312500
        k(   68) = (  -0.5000000   0.2500000   0.4285714), wk =   0.0312500
        k(   69) = (  -0.5000000   0.2500000   0.5714286), wk =   0.0312500
        k(   70) = (  -0.5000000   0.2500000   0.7142857), wk =   0.0312500
        k(   71) = (  -0.5000000   0.2500000   0.8571429), wk =   0.0312500
        k(   72) = (  -0.5000000   0.2500000   1.0000000), wk =   0.0312500
        k(   73) = (  -0.5000000  -0.5000000   0.0000000), wk =   0.0156250
        k(   74) = (  -0.5000000  -0.5000000   0.1428571), wk =   0.0156250
        k(   75) = (  -0.5000000  -0.5000000   0.2857143), wk =   0.0156250
        k(   76) = (  -0.5000000  -0.5000000   0.4285714), wk =   0.0156250
        k(   77) = (  -0.5000000  -0.5000000   0.5714286), wk =   0.0156250
        k(   78) = (  -0.5000000  -0.5000000   0.7142857), wk =   0.0156250
        k(   79) = (  -0.5000000  -0.5000000   0.8571429), wk =   0.0156250
        k(   80) = (  -0.5000000  -0.5000000   1.0000000), wk =   0.0156250

     Dense  grid:  1075689 G-vectors     FFT dimensions: ( 135, 135, 144)

     Smooth grid:   357531 G-vectors     FFT dimensions: (  96,  96, 100)

     Dynamical RAM for                 wfc:       2.33 MB

     Dynamical RAM for     wfc (w. buffer):     188.93 MB

     Dynamical RAM for           str. fact:       0.38 MB

     Dynamical RAM for           local pot:       0.00 MB

     Dynamical RAM for          nlocal pot:       5.98 MB

     Dynamical RAM for                qrad:      20.97 MB

     Dynamical RAM for          rho,v,vnew:       1.22 MB

     Dynamical RAM for           G-vectors:       0.50 MB

     Dynamical RAM for          h,s,v(r/c):       2.20 MB

     Dynamical RAM for          <psi|beta>:       7.50 MB

     Dynamical RAM for                 psi:       9.33 MB

     Dynamical RAM for                hpsi:       9.33 MB

     Dynamical RAM for                spsi:       9.33 MB

     Dynamical RAM for      wfcinit/wfcrot:      13.29 MB

     Dynamical RAM for           addusdens:      30.88 MB

     Estimated static dynamical RAM per process >     219.88 MB

     Estimated max dynamical RAM per process >     257.57 MB

     Estimated total dynamical RAM >      32.20 GB

     Check: negative core charge=   -0.000002

     The potential is recalculated from file :
     ./temp/ZnO.save/charge-density

     Starting wfcs are  564 randomized atomic wfcs

     Band Structure Calculation
     Davidson diagonalization with overlap

     Computing kpt #:     1
     total cpu time spent up to now is       21.9 secs

     Computing kpt #:     2
     total cpu time spent up to now is       37.0 secs

     Computing kpt #:     3
     total cpu time spent up to now is       51.9 secs

     Computing kpt #:     4
     total cpu time spent up to now is       66.7 secs

     Computing kpt #:     5
     total cpu time spent up to now is       81.6 secs

     Computing kpt #:     6
     total cpu time spent up to now is       96.5 secs

     Computing kpt #:     7
     total cpu time spent up to now is      111.6 secs

     Computing kpt #:     8
     total cpu time spent up to now is      126.6 secs

     Computing kpt #:     9
     total cpu time spent up to now is      141.7 secs

     Computing kpt #:    10
     total cpu time spent up to now is      156.5 secs

     Computing kpt #:    11
     total cpu time spent up to now is      171.3 secs

     Computing kpt #:    12
     total cpu time spent up to now is      185.9 secs

     Computing kpt #:    13
     total cpu time spent up to now is      200.8 secs

     Computing kpt #:    14
     total cpu time spent up to now is      215.6 secs

     Computing kpt #:    15
     total cpu time spent up to now is      230.4 secs

     Computing kpt #:    16
     total cpu time spent up to now is      245.4 secs

     Computing kpt #:    17
     total cpu time spent up to now is      260.2 secs

     Computing kpt #:    18
     total cpu time spent up to now is      274.9 secs

     Computing kpt #:    19
     total cpu time spent up to now is      289.6 secs

     Computing kpt #:    20
     total cpu time spent up to now is      304.3 secs

     Computing kpt #:    21
     total cpu time spent up to now is      319.0 secs

     Computing kpt #:    22
     total cpu time spent up to now is      333.7 secs

     Computing kpt #:    23
     total cpu time spent up to now is      348.5 secs

     Computing kpt #:    24
     total cpu time spent up to now is      363.2 secs

     Computing kpt #:    25
     total cpu time spent up to now is      378.4 secs

     Computing kpt #:    26
     total cpu time spent up to now is      393.2 secs

     Computing kpt #:    27
     total cpu time spent up to now is      408.0 secs

     Computing kpt #:    28
     total cpu time spent up to now is      422.7 secs

     Computing kpt #:    29
     total cpu time spent up to now is      437.5 secs

     Computing kpt #:    30
     total cpu time spent up to now is      452.3 secs

     Computing kpt #:    31
     total cpu time spent up to now is      467.3 secs

     Computing kpt #:    32
     total cpu time spent up to now is      482.3 secs

     Computing kpt #:    33
     total cpu time spent up to now is      497.1 secs

     Computing kpt #:    34
     total cpu time spent up to now is      511.8 secs

     Computing kpt #:    35
     total cpu time spent up to now is      526.4 secs

     Computing kpt #:    36
     total cpu time spent up to now is      541.0 secs

     Computing kpt #:    37
     total cpu time spent up to now is      555.8 secs

     Computing kpt #:    38
     total cpu time spent up to now is      570.5 secs

     Computing kpt #:    39
     total cpu time spent up to now is      585.2 secs

     Computing kpt #:    40
     total cpu time spent up to now is      600.0 secs

     Computing kpt #:    41
     total cpu time spent up to now is      614.9 secs

     Computing kpt #:    42
     total cpu time spent up to now is      629.6 secs

     Computing kpt #:    43
     total cpu time spent up to now is      644.3 secs

     Computing kpt #:    44
     total cpu time spent up to now is      658.9 secs

     Computing kpt #:    45
     total cpu time spent up to now is      673.7 secs

     Computing kpt #:    46
     total cpu time spent up to now is      688.4 secs

     Computing kpt #:    47
     total cpu time spent up to now is      703.1 secs

     Computing kpt #:    48
     total cpu time spent up to now is      717.9 secs

     Computing kpt #:    49
     total cpu time spent up to now is      733.0 secs

     Computing kpt #:    50
     total cpu time spent up to now is      747.9 secs

     Computing kpt #:    51
     total cpu time spent up to now is      762.6 secs

     Computing kpt #:    52
     total cpu time spent up to now is      777.4 secs

     Computing kpt #:    53
     total cpu time spent up to now is      792.1 secs

     Computing kpt #:    54
     total cpu time spent up to now is      807.2 secs

     Computing kpt #:    55
     total cpu time spent up to now is      822.0 secs

     Computing kpt #:    56
     total cpu time spent up to now is      837.0 secs

     Computing kpt #:    57
     total cpu time spent up to now is      851.8 secs

     Computing kpt #:    58
     total cpu time spent up to now is      866.6 secs

     Computing kpt #:    59
     total cpu time spent up to now is      881.2 secs

     Computing kpt #:    60
     total cpu time spent up to now is      895.9 secs

     Computing kpt #:    61
     total cpu time spent up to now is      910.6 secs

     Computing kpt #:    62
     total cpu time spent up to now is      925.4 secs

     Computing kpt #:    63
     total cpu time spent up to now is      940.0 secs

     Computing kpt #:    64
     total cpu time spent up to now is      954.7 secs

     Computing kpt #:    65
     total cpu time spent up to now is      969.4 secs

     Computing kpt #:    66
     total cpu time spent up to now is      984.2 secs

     Computing kpt #:    67
     total cpu time spent up to now is      998.8 secs

     Computing kpt #:    68
     total cpu time spent up to now is     1013.4 secs

     Computing kpt #:    69
     total cpu time spent up to now is     1028.1 secs

     Computing kpt #:    70
     total cpu time spent up to now is     1042.7 secs

     Computing kpt #:    71
     total cpu time spent up to now is     1057.4 secs

     Computing kpt #:    72
     total cpu time spent up to now is     1072.2 secs

     Computing kpt #:    73
     total cpu time spent up to now is     1087.0 secs

     Computing kpt #:    74
     total cpu time spent up to now is     1101.9 secs

     Computing kpt #:    75
     total cpu time spent up to now is     1116.6 secs

     Computing kpt #:    76
     total cpu time spent up to now is     1131.3 secs

     Computing kpt #:    77
     total cpu time spent up to now is     1146.0 secs

     Computing kpt #:    78
     total cpu time spent up to now is     1160.8 secs

     Computing kpt #:    79
     total cpu time spent up to now is     1175.6 secs

     Computing kpt #:    80
     total cpu time spent up to now is     1190.5 secs

     ethr =  1.14E-12,  avg # of iterations = 13.2

     total cpu time spent up to now is     1190.5 secs

     End of band structure calculation

          k = 0.0000 0.0000 0.0000 ( 44547 PWs)   bands (ev):

  -114.7334-114.7322-114.7320-114.7273-114.7267-114.7261-114.7256-114.7253
  -114.7248-114.7241-114.7236-114.7233-114.7210-114.7195-114.7186-114.7181
  -114.7178-114.7169-114.7125-114.7124-114.7122-114.7115-114.7108-114.7105
  -114.7100-114.7096-114.7091-114.7083-114.7078-114.6976 -69.0950 -69.0938
   -69.0923 -69.0906 -69.0904 -69.0891 -69.0886 -69.0885 -69.0882 -69.0875
   -69.0871 -69.0867 -69.0862 -69.0859 -69.0853 -69.0850 -69.0843 -69.0842
   -69.0839 -69.0838 -69.0835 -69.0833 -69.0831 -69.0825 -69.0823 -69.0820
   -69.0816 -69.0815 -69.0810 -69.0807 -69.0807 -69.0804 -69.0793 -69.0792
   -69.0785 -69.0784 -69.0784 -69.0783 -69.0781 -69.0780 -69.0772 -69.0767
   -69.0763 -69.0761 -69.0752 -69.0751 -69.0748 -69.0747 -69.0747 -69.0745
   -69.0744 -69.0742 -69.0738 -69.0734 -69.0732 -69.0728 -69.0727 -69.0722
   -69.0721 -69.0718 -69.0716 -69.0715 -69.0714 -69.0708 -69.0705 -69.0696
   -69.0692 -69.0682 -69.0679 -69.0674 -69.0670 -69.0667 -69.0663 -69.0661
   -69.0659 -69.0656 -69.0654 -69.0651 -69.0649 -69.0647 -69.0645 -69.0643
   -69.0633 -69.0626 -69.0617 -69.0610 -69.0605 -69.0601 -69.0540 -69.0504
   -64.1720 -64.1636 -64.1586 -64.1577 -64.1461 -64.1453 -31.1654 -31.1579
   -31.1573 -31.1567 -31.1562 -31.1517 -31.1502 -31.1491 -31.1487 -31.1472
   -31.1444 -31.1414 -31.1400 -31.1347 -31.1330 -31.1312 -31.1300 -31.1258
    -9.6050  -9.2344  -9.2172  -9.1505  -9.1349  -9.1270  -9.0872  -9.0728
    -9.0522  -8.9317  -8.9268  -8.9067  -8.8954  -8.8916  -8.8654  -8.8554
    -8.8176  -8.8089  -8.7996  -8.7835  -8.7799  -8.7768  -8.7644  -8.7376
    -8.7144  -8.6707  -8.6493  -8.6351  -8.6266  -8.6033  -8.5976  -8.5892
    -8.5516  -8.4939  -8.4459  -8.3133   2.2053   2.2154   2.2244   2.2371
     2.2499   2.2658   2.2725   2.2823   2.3061   2.3318   2.3530   2.3643
     2.3760   2.4126   2.4198   2.4511   2.4794   2.4977   2.5147   2.5749
     2.6351   2.6408   2.6503   2.6519   2.6679   2.6770   2.6923   2.7069
     2.7154   2.7404   2.7493   2.7560   2.7684   2.7697   2.7801   2.8000
     2.8185   2.8254   2.8431   2.8531   2.8551   2.8767   2.8822   2.8865
     2.9083   2.9141   2.9224   2.9344   2.9475   2.9523   2.9650   2.9745
     2.9945   2.9982   3.0080   3.0100   3.0146   3.0188   3.0239   3.0290
     3.0341   3.0375   3.0470   3.0555   3.0644   3.0826   3.0899   3.1014
     3.1067   3.1328   3.1341   3.1423   3.1625   3.1808   3.1934   3.2066
     3.2520   3.2830   3.3056   3.3211   3.3375   3.3617   3.3673   3.3854
     3.4103   3.4290   3.4424   3.4667   3.4831   3.4926   3.5035   3.5458
     3.5538   3.5712   3.6013   3.6285   3.6577   3.6604   3.6796   3.6955
     3.7092   3.7576   3.7728   3.7814   3.7902   3.7991   3.8136   3.8246
     3.8268   3.8496   3.8543   3.8686   3.8738   3.8874   3.8962   3.9019
     3.9056   3.9124   3.9236   3.9297   3.9384   3.9402   3.9484   3.9606
     3.9657   3.9712   3.9758   3.9800   3.9889   3.9904   3.9930   3.9930
     3.9980   4.0176   4.0217   4.0324   4.0384   4.0467   4.0557   4.0593
     4.0624   4.0671   4.0850   4.1005   4.1589   4.1835   4.2042   4.2126
     4.2229   4.2393   4.2665   4.3486   4.3548   4.3790   4.4315   4.4383
     4.4794   4.5239   4.5541   4.5856   4.6051   4.6262   4.6484   4.6653
     4.7126   4.8185   4.8485   4.8730   4.8994   4.9605   5.0110   5.0475
     5.0857   5.1054   5.1308   5.1433   5.1714   5.1892   5.2364   5.2538
     5.3087   5.3378   5.3736   5.4245   5.4648   5.5381   5.5615   5.5732
     5.5931   5.8365   5.8712   5.8942   5.9576   6.0042   6.0387   6.1106
     6.1411   6.2994   6.3156   6.3499   6.3550   6.3776   6.3929   6.4049
     6.4222   6.4701   6.4801   6.5206   6.5343   6.6525   6.7117   6.7395
     6.7800   6.8329   6.8610   6.8863   6.8997   6.9161   6.9624   6.9784
     7.0036   7.0167   7.0216   7.0473   7.0575   7.0717   7.0796   7.0822
     7.0919   7.1132   7.1253   7.1317   7.1524   7.1612   7.1749   7.1857
     7.1926   7.4100   7.4322   7.4430   7.4613   7.4764   7.5001   7.5127
     7.5429   7.5650   7.5866   7.6313   7.6593   7.7066   7.7155   7.8628
     7.8792   7.8896   7.8967   8.1834   8.2593   8.2657

     occupation numbers 
     1.0000   1.0000   1.0000   1.0000   1.0000   1.0000   1.0000   1.0000
     1.0000   1.0000   1.0000   1.0000   1.0000   1.0000   1.0000   1.0000
     1.0000   1.0000   1.0000   1.0000   1.0000   1.0000   1.0000   1.0000
     1.0000   1.0000   1.0000   1.0000   1.0000   1.0000   1.0000   1.0000
     1.0000   1.0000   1.0000   1.0000   1.0000   1.0000   1.0000   1.0000
     1.0000   1.0000   1.0000   1.0000   1.0000   1.0000   1.0000   1.0000
     1.0000   1.0000   1.0000   1.0000   1.0000   1.0000   1.0000   1.0000
     1.0000   1.0000   1.0000   1.0000   1.0000   1.0000   1.0000   1.0000
     1.0000   1.0000   1.0000   1.0000   1.0000   1.0000   1.0000   1.0000
     1.0000   1.0000   1.0000   1.0000   1.0000   1.0000   1.0000   1.0000
     1.0000   1.0000   1.0000   1.0000   1.0000   1.0000   1.0000   1.0000
     1.0000   1.0000   1.0000   1.0000   1.0000   1.0000   1.0000   1.0000
     1.0000   1.0000   1.0000   1.0000   1.0000   1.0000   1.0000   1.0000
     1.0000   1.0000   1.0000   1.0000   1.0000   1.0000   1.0000   1.0000
     1.0000   1.0000   1.0000   1.0000   1.0000   1.0000   1.0000   1.0000
     1.0000   1.0000   1.0000   1.0000   1.0000   1.0000   1.0000   1.0000
     1.0000   1.0000   1.0000   1.0000   1.0000   1.0000   1.0000   1.0000
     1.0000   1.0000   1.0000   1.0000   1.0000   1.0000   1.0000   1.0000
     1.0000   1.0000   1.0000   1.0000   1.0000   1.0000   1.0000   1.0000
     1.0000   1.0000   1.0000   1.0000   1.0000   1.0000   1.0000   1.0000
     1.0000   1.0000   1.0000   1.0000   1.0000   1.0000   1.0000   1.0000
     1.0000   1.0000   1.0000   1.0000   1.0000   1.0000   1.0000   1.0000
     1.0000   1.0000   1.0000   1.0000   1.0000   1.0000   1.0000   1.0000
     1.0000   1.0000   1.0000   1.0000   1.0000   1.0000   1.0000   1.0000
     1.0000   1.0000   1.0000   1.0000   1.0000   1.0000   1.0000   1.0000
     1.0000   1.0000   1.0000   1.0000   1.0000   1.0000   1.0000   1.0000
     1.0000   1.0000   1.0000   1.0000   1.0000   1.0000   1.0000   1.0000
     1.0000   1.0000   1.0000   1.0000   1.0000   1.0000   1.0000   1.0000
     1.0000   1.0000   1.0000   1.0000   1.0000   1.0000   1.0000   1.0000
     1.0000   1.0000   1.0000   1.0000   1.0000   1.0000   1.0000   1.0000
     1.0000   1.0000   1.0000   1.0000   1.0000   1.0000   1.0000   1.0000
     1.0000   1.0000   1.0000   1.0000   1.0000   1.0000   1.0000   1.0000
     1.0000   1.0000   1.0000   1.0000   1.0000   1.0000   1.0000   1.0000
     1.0000   1.0000   1.0000   1.0000   1.0000   1.0000   1.0000   1.0000
     1.0000   1.0000   1.0000   1.0000   1.0000   1.0000   1.0000   1.0000
     1.0000   1.0000   1.0000   1.0000   1.0000   1.0000   1.0000   1.0000
     1.0000   1.0000   1.0000   1.0000   1.0000   1.0000   1.0000   1.0000
     1.0000   1.0000   1.0000   1.0000   1.0000   1.0000   1.0000   1.0000
     1.0000   1.0000   1.0000   1.0000   1.0000   1.0000   1.0000   1.0000
     1.0000   1.0000   1.0000   1.0000   1.0000   1.0000   1.0000   1.0000
     1.0000   1.0000   1.0000   1.0000   1.0000   1.0000   1.0000   1.0000
     1.0000   1.0000   1.0000   1.0000   1.0000   1.0000   1.0000   1.0000
     1.0000   1.0000   1.0000   1.0000   1.0000   1.0000   1.0000   1.0000
     1.0000   1.0000   1.0000   1.0000   1.0000   1.0000   1.0000   1.0000
     1.0000   1.0000   1.0000   1.0000   1.0000   1.0000   1.0000   1.0000
     1.0000   1.0000   1.0000   1.0000   1.0000   1.0000   1.0000   1.0000
     1.0000   1.0000   1.0000   1.0000   1.0000   1.0000   1.0000   1.0000
     1.0000   1.0000   1.0000   1.0000   1.0000   1.0000   1.0000   1.0000
     1.0000   1.0000   1.0000   1.0000   1.0000   1.0000   1.0000   1.0000
     1.0000   1.0000   1.0000   1.0000   1.0000   1.0000   1.0000   1.0000
     1.0000   1.0000   1.0000   1.0000   1.0000   1.0000   1.0000   1.0000
     1.0000   1.0000   1.0000   1.0000   1.0000   1.0000   1.0000   1.0000
     1.0000   1.0000   1.0000   1.0000   1.0000   1.0000   1.0000   1.0000
     1.0000   1.0000   1.0000   1.0000   1.0000   1.0000   1.0000   1.0000
     1.0000   1.0000   1.0000   1.0000   1.0000   1.0000

          k =-0.0000 0.0000 0.1348 ( 44742 PWs)   bands (ev):

  -114.7334-114.7322-114.7320-114.7273-114.7267-114.7261-114.7256-114.7253
  -114.7248-114.7241-114.7236-114.7233-114.7210-114.7195-114.7186-114.7181
  -114.7178-114.7169-114.7125-114.7124-114.7122-114.7115-114.7108-114.7105
  -114.7100-114.7096-114.7091-114.7083-114.7078-114.6976 -69.0950 -69.0938
   -69.0923 -69.0906 -69.0904 -69.0891 -69.0886 -69.0885 -69.0882 -69.0875
   -69.0871 -69.0867 -69.0862 -69.0859 -69.0853 -69.0850 -69.0843 -69.0842
   -69.0839 -69.0838 -69.0835 -69.0833 -69.0831 -69.0825 -69.0823 -69.0820
   -69.0816 -69.0815 -69.0810 -69.0807 -69.0807 -69.0804 -69.0793 -69.0792
   -69.0785 -69.0784 -69.0784 -69.0783 -69.0781 -69.0780 -69.0772 -69.0767
   -69.0763 -69.0761 -69.0752 -69.0751 -69.0748 -69.0747 -69.0746 -69.0745
   -69.0744 -69.0742 -69.0738 -69.0734 -69.0732 -69.0728 -69.0727 -69.0722
   -69.0721 -69.0718 -69.0716 -69.0715 -69.0714 -69.0708 -69.0705 -69.0696
   -69.0692 -69.0682 -69.0679 -69.0674 -69.0670 -69.0667 -69.0663 -69.0661
   -69.0659 -69.0656 -69.0654 -69.0651 -69.0649 -69.0647 -69.0645 -69.0643
   -69.0633 -69.0626 -69.0617 -69.0610 -69.0605 -69.0601 -69.0540 -69.0504
   -64.1720 -64.1636 -64.1586 -64.1577 -64.1461 -64.1453 -31.1655 -31.1579
   -31.1573 -31.1567 -31.1562 -31.1517 -31.1502 -31.1491 -31.1487 -31.1472
   -31.1444 -31.1414 -31.1400 -31.1347 -31.1330 -31.1312 -31.1300 -31.1258
    -9.5966  -9.3040  -9.1604  -9.1423  -9.1290  -9.1179  -9.0833  -9.0695
    -9.0458  -8.9701  -8.9378  -8.9314  -8.9048  -8.8788  -8.8594  -8.8462
    -8.8267  -8.8084  -8.7925  -8.7812  -8.7775  -8.7604  -8.7499  -8.7330
    -8.7154  -8.6711  -8.6492  -8.6362  -8.6290  -8.6040  -8.6005  -8.5918
    -8.5525  -8.4959  -8.4470  -8.3139   2.2120   2.2190   2.2287   2.2442
     2.2545   2.2680   2.2858   2.2948   2.3157   2.3428   2.3621   2.3712
     2.3822   2.4117   2.4210   2.4520   2.4795   2.4923   2.5304   2.5809
     2.6359   2.6403   2.6507   2.6535   2.6692   2.6760   2.6857   2.7015
     2.7132   2.7314   2.7440   2.7512   2.7624   2.7683   2.7782   2.7913
     2.8071   2.8146   2.8407   2.8453   2.8547   2.8713   2.8781   2.8876
     2.9055   2.9142   2.9244   2.9334   2.9514   2.9535   2.9651   2.9799
     2.9918   3.0011   3.0047   3.0118   3.0131   3.0211   3.0265   3.0307
     3.0341   3.0400   3.0469   3.0523   3.0662   3.0816   3.0883   3.1007
     3.1084   3.1302   3.1335   3.1425   3.1621   3.1778   3.1899   3.2000
     3.2463   3.2737   3.2957   3.3060   3.3254   3.3407   3.3516   3.3708
     3.3829   3.4079   3.4221   3.4431   3.4547   3.4827   3.4966   3.5272
     3.5473   3.5711   3.6015   3.6247   3.6477   3.6677   3.6916   3.6955
     3.7203   3.7364   3.7471   3.7706   3.7888   3.8018   3.8066   3.8208
     3.8349   3.8487   3.8703   3.8778   3.8854   3.8925   3.8969   3.9051
     3.9144   3.9204   3.9233   3.9306   3.9363   3.9422   3.9501   3.9568
     3.9603   3.9650   3.9681   3.9768   3.9911   3.9951   4.0026   4.0111
     4.0194   4.0245   4.0269   4.0376   4.0397   4.0439   4.0530   4.0596
     4.0629   4.0751   4.0902   4.1111   4.1539   4.1646   4.1826   4.2051
     4.2132   4.2396   4.2907   4.3959   4.4204   4.4305   4.4583   4.4754
     4.5032   4.5489   4.5748   4.5916   4.6112   4.6317   4.6507   4.6783
     4.7128   4.8156   4.8484   4.8776   4.9059   4.9669   5.0244   5.0475
     5.0929   5.1088   5.1277   5.1477   5.1713   5.2030   5.2277   5.2616
     5.2999   5.3240   5.3791   5.4044   5.4160   5.4523   5.4961   5.6769
     5.7377   5.7539   5.8481   5.9031   5.9890   6.0037   6.0571   6.1007
     6.2033   6.2909   6.3374   6.3652   6.3716   6.3951   6.4164   6.4221
     6.4563   6.4709   6.4975   6.5068   6.5201   6.5548   6.6222   6.6520
     6.6691   6.7075   6.7317   6.8043   6.8323   6.8557   6.9084   6.9384
     6.9529   6.9590   6.9791   7.0392   7.0635   7.0867   7.1084   7.1319
     7.1644   7.1878   7.2017   7.2236   7.2311   7.2447   7.2504   7.2554
     7.2611   7.4272   7.4429   7.4564   7.4700   7.4934   7.5122   7.5230
     7.5518   7.5653   7.5835   7.6230   7.6490   7.6945   7.7022   7.8057
     7.8142   7.9492   7.9574   8.0696   8.2528   8.2590

     occupation numbers 
     1.0000   1.0000   1.0000   1.0000   1.0000   1.0000   1.0000   1.0000
     1.0000   1.0000   1.0000   1.0000   1.0000   1.0000   1.0000   1.0000
     1.0000   1.0000   1.0000   1.0000   1.0000   1.0000   1.0000   1.0000
     1.0000   1.0000   1.0000   1.0000   1.0000   1.0000   1.0000   1.0000
     1.0000   1.0000   1.0000   1.0000   1.0000   1.0000   1.0000   1.0000
     1.0000   1.0000   1.0000   1.0000   1.0000   1.0000   1.0000   1.0000
     1.0000   1.0000   1.0000   1.0000   1.0000   1.0000   1.0000   1.0000
     1.0000   1.0000   1.0000   1.0000   1.0000   1.0000   1.0000   1.0000
     1.0000   1.0000   1.0000   1.0000   1.0000   1.0000   1.0000   1.0000
     1.0000   1.0000   1.0000   1.0000   1.0000   1.0000   1.0000   1.0000
     1.0000   1.0000   1.0000   1.0000   1.0000   1.0000   1.0000   1.0000
     1.0000   1.0000   1.0000   1.0000   1.0000   1.0000   1.0000   1.0000
     1.0000   1.0000   1.0000   1.0000   1.0000   1.0000   1.0000   1.0000
     1.0000   1.0000   1.0000   1.0000   1.0000   1.0000   1.0000   1.0000
     1.0000   1.0000   1.0000   1.0000   1.0000   1.0000   1.0000   1.0000
     1.0000   1.0000   1.0000   1.0000   1.0000   1.0000   1.0000   1.0000
     1.0000   1.0000   1.0000   1.0000   1.0000   1.0000   1.0000   1.0000
     1.0000   1.0000   1.0000   1.0000   1.0000   1.0000   1.0000   1.0000
     1.0000   1.0000   1.0000   1.0000   1.0000   1.0000   1.0000   1.0000
     1.0000   1.0000   1.0000   1.0000   1.0000   1.0000   1.0000   1.0000
     1.0000   1.0000   1.0000   1.0000   1.0000   1.0000   1.0000   1.0000
     1.0000   1.0000   1.0000   1.0000   1.0000   1.0000   1.0000   1.0000
     1.0000   1.0000   1.0000   1.0000   1.0000   1.0000   1.0000   1.0000
     1.0000   1.0000   1.0000   1.0000   1.0000   1.0000   1.0000   1.0000
     1.0000   1.0000   1.0000   1.0000   1.0000   1.0000   1.0000   1.0000
     1.0000   1.0000   1.0000   1.0000   1.0000   1.0000   1.0000   1.0000
     1.0000   1.0000   1.0000   1.0000   1.0000   1.0000   1.0000   1.0000
     1.0000   1.0000   1.0000   1.0000   1.0000   1.0000   1.0000   1.0000
     1.0000   1.0000   1.0000   1.0000   1.0000   1.0000   1.0000   1.0000
     1.0000   1.0000   1.0000   1.0000   1.0000   1.0000   1.0000   1.0000
     1.0000   1.0000   1.0000   1.0000   1.0000   1.0000   1.0000   1.0000
     1.0000   1.0000   1.0000   1.0000   1.0000   1.0000   1.0000   1.0000
     1.0000   1.0000   1.0000   1.0000   1.0000   1.0000   1.0000   1.0000
     1.0000   1.0000   1.0000   1.0000   1.0000   1.0000   1.0000   1.0000
     1.0000   1.0000   1.0000   1.0000   1.0000   1.0000   1.0000   1.0000
     1.0000   1.0000   1.0000   1.0000   1.0000   1.0000   1.0000   1.0000
     1.0000   1.0000   1.0000   1.0000   1.0000   1.0000   1.0000   1.0000
     1.0000   1.0000   1.0000   1.0000   1.0000   1.0000   1.0000   1.0000
     1.0000   1.0000   1.0000   1.0000   1.0000   1.0000   1.0000   1.0000
     1.0000   1.0000   1.0000   1.0000   1.0000   1.0000   1.0000   1.0000
     1.0000   1.0000   1.0000   1.0000   1.0000   1.0000   1.0000   1.0000
     1.0000   1.0000   1.0000   1.0000   1.0000   1.0000   1.0000   1.0000
     1.0000   1.0000   1.0000   1.0000   1.0000   1.0000   1.0000   1.0000
     1.0000   1.0000   1.0000   1.0000   1.0000   1.0000   1.0000   1.0000
     1.0000   1.0000   1.0000   1.0000   1.0000   1.0000   1.0000   1.0000
     1.0000   1.0000   1.0000   1.0000   1.0000   1.0000   1.0000   1.0000
     1.0000   1.0000   1.0000   1.0000   1.0000   1.0000   1.0000   1.0000
     1.0000   1.0000   1.0000   1.0000   1.0000   1.0000   1.0000   1.0000
     1.0000   1.0000   1.0000   1.0000   1.0000   1.0000   1.0000   1.0000
     1.0000   1.0000   1.0000   1.0000   1.0000   1.0000   1.0000   1.0000
     1.0000   1.0000   1.0000   1.0000   1.0000   1.0000   1.0000   1.0000
     1.0000   1.0000   1.0000   1.0000   1.0000   1.0000   1.0000   1.0000
     1.0000   1.0000   1.0000   1.0000   1.0000   1.0000   1.0000   1.0000
     1.0000   1.0000   1.0000   1.0000   1.0000   1.0000   1.0000   1.0000
     1.0000   1.0000   1.0000   1.0000   1.0000   1.0000

          k =-0.0000 0.0000 0.2696 ( 44775 PWs)   bands (ev):

  -114.7334-114.7322-114.7320-114.7273-114.7267-114.7261-114.7256-114.7253
  -114.7248-114.7241-114.7236-114.7233-114.7210-114.7195-114.7186-114.7181
  -114.7178-114.7169-114.7125-114.7124-114.7122-114.7115-114.7108-114.7105
  -114.7100-114.7096-114.7091-114.7083-114.7078-114.6976 -69.0950 -69.0938
   -69.0923 -69.0906 -69.0904 -69.0891 -69.0886 -69.0885 -69.0882 -69.0875
   -69.0871 -69.0867 -69.0862 -69.0859 -69.0853 -69.0850 -69.0843 -69.0842
   -69.0839 -69.0838 -69.0835 -69.0833 -69.0831 -69.0825 -69.0823 -69.0820
   -69.0816 -69.0815 -69.0810 -69.0807 -69.0807 -69.0804 -69.0793 -69.0792
   -69.0785 -69.0784 -69.0784 -69.0783 -69.0781 -69.0780 -69.0772 -69.0767
   -69.0763 -69.0761 -69.0752 -69.0751 -69.0748 -69.0747 -69.0746 -69.0745
   -69.0743 -69.0742 -69.0738 -69.0734 -69.0732 -69.0728 -69.0727 -69.0722
   -69.0721 -69.0718 -69.0716 -69.0715 -69.0714 -69.0708 -69.0705 -69.0696
   -69.0692 -69.0682 -69.0679 -69.0674 -69.0670 -69.0667 -69.0663 -69.0661
   -69.0659 -69.0656 -69.0654 -69.0651 -69.0649 -69.0647 -69.0645 -69.0643
   -69.0633 -69.0626 -69.0617 -69.0610 -69.0605 -69.0601 -69.0540 -69.0504
   -64.1720 -64.1636 -64.1586 -64.1577 -64.1461 -64.1453 -31.1655 -31.1579
   -31.1573 -31.1567 -31.1562 -31.1517 -31.1502 -31.1491 -31.1487 -31.1472
   -31.1444 -31.1414 -31.1400 -31.1347 -31.1330 -31.1312 -31.1300 -31.1258
    -9.5730  -9.3776  -9.1342  -9.1251  -9.1151  -9.0817  -9.0730  -9.0609
    -9.0268  -9.0099  -8.9749  -8.9636  -8.9367  -8.8867  -8.8722  -8.8339
    -8.8202  -8.7999  -8.7775  -8.7736  -8.7647  -8.7416  -8.7346  -8.7169
    -8.7118  -8.6730  -8.6490  -8.6383  -8.6348  -8.6092  -8.6049  -8.5980
    -8.5541  -8.5007  -8.4496  -8.3151   2.2260   2.2320   2.2410   2.2594
     2.2651   2.2756   2.3146   2.3164   2.3341   2.3629   2.3777   2.3872
     2.4079   2.4270   2.4346   2.4652   2.4866   2.4915   2.5481   2.5972
     2.6239   2.6345   2.6397   2.6507   2.6536   2.6607   2.6759   2.6911
     2.6994   2.7105   2.7308   2.7486   2.7539   2.7632   2.7693   2.7837
     2.7922   2.8040   2.8252   2.8371   2.8528   2.8638   2.8771   2.8890
     2.9040   2.9092   2.9164   2.9293   2.9503   2.9598   2.9682   2.9720
     2.9807   2.9956   3.0048   3.0108   3.0167   3.0216   3.0243   3.0321
     3.0419   3.0457   3.0516   3.0656   3.0739   3.0860   3.0869   3.1003
     3.1156   3.1284   3.1335   3.1417   3.1579   3.1704   3.1765   3.1881
     3.2249   3.2396   3.2557   3.2678   3.2763   3.2906   3.3056   3.3307
     3.3618   3.3718   3.3983   3.4084   3.4319   3.4610   3.4886   3.5004
     3.5360   3.5640   3.5703   3.6253   3.6286   3.6470   3.6881   3.7102
     3.7162   3.7384   3.7608   3.7698   3.7893   3.8000   3.8153   3.8266
     3.8355   3.8506   3.8760   3.8804   3.8836   3.8940   3.8959   3.9065
     3.9133   3.9163   3.9224   3.9284   3.9330   3.9392   3.9442   3.9513
     3.9597   3.9662   3.9819   3.9877   4.0031   4.0091   4.0162   4.0257
     4.0299   4.0338   4.0392   4.0474   4.0499   4.0561   4.0606   4.0649
     4.0798   4.0897   4.0985   4.1178   4.1417   4.1477   4.1705   4.1913
     4.1990   4.2312   4.3679   4.4657   4.4802   4.4941   4.5181   4.5568
     4.5725   4.5958   4.6044   4.6375   4.6532   4.6666   4.6757   4.7086
     4.7274   4.8020   4.8335   4.8835   4.9175   4.9561   5.0325   5.0467
     5.0883   5.1045   5.1271   5.1443   5.1622   5.1878   5.2188   5.2550
     5.3013   5.3245   5.3701   5.3934   5.4488   5.4728   5.5008   5.5824
     5.8228   5.8709   5.8988   5.9435   5.9882   6.0049   6.0452   6.0819
     6.2087   6.2492   6.3024   6.3264   6.3643   6.3687   6.4025   6.4133
     6.4298   6.4517   6.4756   6.4927   6.5106   6.5252   6.5418   6.5562
     6.5757   6.5881   6.7085   6.7215   6.7392   6.7589   6.8129   6.8280
     6.8414   6.9241   6.9304   6.9670   7.0304   7.1181   7.1398   7.2049
     7.2327   7.2432   7.2929   7.3078   7.3330   7.3632   7.3797   7.3846
     7.4022   7.4678   7.4770   7.4833   7.4969   7.5256   7.5410   7.5517
     7.5658   7.5725   7.5885   7.6052   7.6225   7.6622   7.6660   7.7401
     7.7443   7.8278   8.0120   8.0193   8.2357   8.2412

     occupation numbers 
     1.0000   1.0000   1.0000   1.0000   1.0000   1.0000   1.0000   1.0000
     1.0000   1.0000   1.0000   1.0000   1.0000   1.0000   1.0000   1.0000
     1.0000   1.0000   1.0000   1.0000   1.0000   1.0000   1.0000   1.0000
     1.0000   1.0000   1.0000   1.0000   1.0000   1.0000   1.0000   1.0000
     1.0000   1.0000   1.0000   1.0000   1.0000   1.0000   1.0000   1.0000
     1.0000   1.0000   1.0000   1.0000   1.0000   1.0000   1.0000   1.0000
     1.0000   1.0000   1.0000   1.0000   1.0000   1.0000   1.0000   1.0000
     1.0000   1.0000   1.0000   1.0000   1.0000   1.0000   1.0000   1.0000
     1.0000   1.0000   1.0000   1.0000   1.0000   1.0000   1.0000   1.0000
     1.0000   1.0000   1.0000   1.0000   1.0000   1.0000   1.0000   1.0000
     1.0000   1.0000   1.0000   1.0000   1.0000   1.0000   1.0000   1.0000
     1.0000   1.0000   1.0000   1.0000   1.0000   1.0000   1.0000   1.0000
     1.0000   1.0000   1.0000   1.0000   1.0000   1.0000   1.0000   1.0000
     1.0000   1.0000   1.0000   1.0000   1.0000   1.0000   1.0000   1.0000
     1.0000   1.0000   1.0000   1.0000   1.0000   1.0000   1.0000   1.0000
     1.0000   1.0000   1.0000   1.0000   1.0000   1.0000   1.0000   1.0000
     1.0000   1.0000   1.0000   1.0000   1.0000   1.0000   1.0000   1.0000
     1.0000   1.0000   1.0000   1.0000   1.0000   1.0000   1.0000   1.0000
     1.0000   1.0000   1.0000   1.0000   1.0000   1.0000   1.0000   1.0000
     1.0000   1.0000   1.0000   1.0000   1.0000   1.0000   1.0000   1.0000
     1.0000   1.0000   1.0000   1.0000   1.0000   1.0000   1.0000   1.0000
     1.0000   1.0000   1.0000   1.0000   1.0000   1.0000   1.0000   1.0000
     1.0000   1.0000   1.0000   1.0000   1.0000   1.0000   1.0000   1.0000
     1.0000   1.0000   1.0000   1.0000   1.0000   1.0000   1.0000   1.0000
     1.0000   1.0000   1.0000   1.0000   1.0000   1.0000   1.0000   1.0000
     1.0000   1.0000   1.0000   1.0000   1.0000   1.0000   1.0000   1.0000
     1.0000   1.0000   1.0000   1.0000   1.0000   1.0000   1.0000   1.0000
     1.0000   1.0000   1.0000   1.0000   1.0000   1.0000   1.0000   1.0000
     1.0000   1.0000   1.0000   1.0000   1.0000   1.0000   1.0000   1.0000
     1.0000   1.0000   1.0000   1.0000   1.0000   1.0000   1.0000   1.0000
     1.0000   1.0000   1.0000   1.0000   1.0000   1.0000   1.0000   1.0000
     1.0000   1.0000   1.0000   1.0000   1.0000   1.0000   1.0000   1.0000
     1.0000   1.0000   1.0000   1.0000   1.0000   1.0000   1.0000   1.0000
     1.0000   1.0000   1.0000   1.0000   1.0000   1.0000   1.0000   1.0000
     1.0000   1.0000   1.0000   1.0000   1.0000   1.0000   1.0000   1.0000
     1.0000   1.0000   1.0000   1.0000   1.0000   1.0000   1.0000   1.0000
     1.0000   1.0000   1.0000   1.0000   1.0000   1.0000   1.0000   1.0000
     1.0000   1.0000   1.0000   1.0000   1.0000   1.0000   1.0000   1.0000
     1.0000   1.0000   1.0000   1.0000   1.0000   1.0000   1.0000   1.0000
     1.0000   1.0000   1.0000   1.0000   1.0000   1.0000   1.0000   1.0000
     1.0000   1.0000   1.0000   1.0000   1.0000   1.0000   1.0000   1.0000
     1.0000   1.0000   1.0000   1.0000   1.0000   1.0000   1.0000   1.0000
     1.0000   1.0000   1.0000   1.0000   1.0000   1.0000   1.0000   1.0000
     1.0000   1.0000   1.0000   1.0000   1.0000   1.0000   1.0000   1.0000
     1.0000   1.0000   1.0000   1.0000   1.0000   1.0000   1.0000   1.0000
     1.0000   1.0000   1.0000   1.0000   1.0000   1.0000   1.0000   1.0000
     1.0000   1.0000   1.0000   1.0000   1.0000   1.0000   1.0000   1.0000
     1.0000   1.0000   1.0000   1.0000   1.0000   1.0000   1.0000   1.0000
     1.0000   1.0000   1.0000   1.0000   1.0000   1.0000   1.0000   1.0000
     1.0000   1.0000   1.0000   1.0000   1.0000   1.0000   1.0000   1.0000
     1.0000   1.0000   1.0000   1.0000   1.0000   1.0000   1.0000   1.0000
     1.0000   1.0000   1.0000   1.0000   1.0000   1.0000   1.0000   1.0000
     1.0000   1.0000   1.0000   1.0000   1.0000   1.0000   1.0000   1.0000
     1.0000   1.0000   1.0000   1.0000   1.0000   1.0000   1.0000   1.0000
     1.0000   1.0000   1.0000   1.0000   1.0000   1.0000

          k =-0.0000 0.0000 0.4044 ( 44742 PWs)   bands (ev):

  -114.7334-114.7322-114.7320-114.7273-114.7267-114.7261-114.7256-114.7253
  -114.7248-114.7241-114.7236-114.7233-114.7210-114.7195-114.7186-114.7181
  -114.7178-114.7169-114.7125-114.7124-114.7122-114.7115-114.7108-114.7105
  -114.7100-114.7096-114.7091-114.7083-114.7078-114.6976 -69.0950 -69.0938
   -69.0923 -69.0906 -69.0904 -69.0891 -69.0886 -69.0885 -69.0882 -69.0875
   -69.0871 -69.0867 -69.0862 -69.0859 -69.0853 -69.0850 -69.0843 -69.0842
   -69.0839 -69.0838 -69.0835 -69.0833 -69.0831 -69.0825 -69.0823 -69.0820
   -69.0816 -69.0815 -69.0810 -69.0807 -69.0807 -69.0804 -69.0793 -69.0792
   -69.0785 -69.0784 -69.0784 -69.0783 -69.0781 -69.0780 -69.0772 -69.0767
   -69.0763 -69.0761 -69.0752 -69.0751 -69.0748 -69.0747 -69.0746 -69.0745
   -69.0743 -69.0743 -69.0738 -69.0734 -69.0732 -69.0728 -69.0727 -69.0722
   -69.0721 -69.0718 -69.0716 -69.0715 -69.0714 -69.0708 -69.0705 -69.0696
   -69.0692 -69.0682 -69.0679 -69.0674 -69.0670 -69.0667 -69.0663 -69.0661
   -69.0659 -69.0656 -69.0654 -69.0651 -69.0649 -69.0647 -69.0645 -69.0643
   -69.0633 -69.0626 -69.0617 -69.0610 -69.0605 -69.0601 -69.0540 -69.0504
   -64.1720 -64.1636 -64.1586 -64.1577 -64.1461 -64.1453 -31.1655 -31.1579
   -31.1573 -31.1567 -31.1562 -31.1517 -31.1502 -31.1491 -31.1487 -31.1472
   -31.1444 -31.1414 -31.1400 -31.1347 -31.1330 -31.1312 -31.1300 -31.1258
    -9.5426  -9.4340  -9.1143  -9.1115  -9.1017  -9.0679  -9.0591  -9.0498
    -9.0481  -9.0094  -8.9936  -8.9765  -8.9609  -8.9019  -8.8853  -8.8546
    -8.7984  -8.7865  -8.7774  -8.7634  -8.7469  -8.7360  -8.7292  -8.7077
    -8.6959  -8.6754  -8.6499  -8.6404  -8.6382  -8.6181  -8.6084  -8.6021
    -8.5552  -8.5050  -8.4517  -8.3162   2.2369   2.2472   2.2538   2.2665
     2.2802   2.2861   2.3154   2.3279   2.3472   2.3688   2.3842   2.4131
     2.4522   2.4652   2.4762   2.4917   2.5048   2.5124   2.5424   2.5674
     2.5782   2.6007   2.6226   2.6398   2.6446   2.6526   2.6707   2.6769
     2.6824   2.6971   2.7098   2.7420   2.7545   2.7622   2.7776   2.7817
     2.7990   2.8019   2.8210   2.8373   2.8388   2.8681   2.8794   2.8939
     2.8988   2.9044   2.9120   2.9253   2.9331   2.9511   2.9595   2.9655
     2.9750   2.9886   2.9937   3.0105   3.0153   3.0206   3.0286   3.0350
     3.0451   3.0584   3.0644   3.0732   3.0844   3.0912   3.0999   3.1159
     3.1258   3.1299   3.1354   3.1421   3.1523   3.1610   3.1701   3.1778
     3.1887   3.1985   3.2130   3.2196   3.2318   3.2470   3.2596   3.3273
     3.3540   3.3568   3.3884   3.3979   3.4140   3.4484   3.4833   3.4877
     3.5245   3.5431   3.5626   3.6056   3.6088   3.6517   3.6705   3.7167
     3.7363   3.7554   3.7572   3.7816   3.7933   3.8035   3.8160   3.8353
     3.8489   3.8617   3.8683   3.8746   3.8802   3.8836   3.8917   3.8995
     3.9062   3.9080   3.9136   3.9250   3.9288   3.9362   3.9424   3.9523
     3.9681   3.9702   3.9817   3.9952   4.0083   4.0161   4.0252   4.0273
     4.0366   4.0429   4.0455   4.0526   4.0605   4.0707   4.0737   4.0780
     4.0984   4.1042   4.1092   4.1197   4.1326   4.1459   4.1645   4.1768
     4.1953   4.2111   4.4434   4.4989   4.5133   4.5277   4.5599   4.5890
     4.6045   4.6214   4.6344   4.6644   4.7094   4.7382   4.7525   4.7558
     4.7893   4.8029   4.8353   4.8588   4.9104   4.9336   4.9632   4.9798
     4.9918   5.0472   5.0646   5.1291   5.1765   5.2157   5.2351   5.3220
     5.3490   5.3963   5.4130   5.4398   5.4942   5.5158   5.5514   5.5894
     5.8381   5.8816   5.9368   5.9818   5.9937   6.0254   6.0667   6.0844
     6.1249   6.1404   6.1551   6.1596   6.2117   6.2539   6.3075   6.3201
     6.4324   6.4780   6.5078   6.5195   6.5614   6.5866   6.6131   6.6202
     6.6382   6.6529   6.6705   6.6773   6.6966   6.7238   6.7326   6.7482
     6.7964   6.8348   6.8453   6.8585   7.0129   7.1551   7.1966   7.2599
     7.2750   7.2887   7.3332   7.3730   7.3893   7.4268   7.4442   7.4547
     7.4601   7.4879   7.5109   7.5325   7.5377   7.5466   7.5644   7.5714
     7.5773   7.5860   7.5938   7.5966   7.6025   7.6077   7.6189   7.6356
     7.6846   7.6903   8.0546   8.0611   8.2172   8.2223

     occupation numbers 
     1.0000   1.0000   1.0000   1.0000   1.0000   1.0000   1.0000   1.0000
     1.0000   1.0000   1.0000   1.0000   1.0000   1.0000   1.0000   1.0000
     1.0000   1.0000   1.0000   1.0000   1.0000   1.0000   1.0000   1.0000
     1.0000   1.0000   1.0000   1.0000   1.0000   1.0000   1.0000   1.0000
     1.0000   1.0000   1.0000   1.0000   1.0000   1.0000   1.0000   1.0000
     1.0000   1.0000   1.0000   1.0000   1.0000   1.0000   1.0000   1.0000
     1.0000   1.0000   1.0000   1.0000   1.0000   1.0000   1.0000   1.0000
     1.0000   1.0000   1.0000   1.0000   1.0000   1.0000   1.0000   1.0000
     1.0000   1.0000   1.0000   1.0000   1.0000   1.0000   1.0000   1.0000
     1.0000   1.0000   1.0000   1.0000   1.0000   1.0000   1.0000   1.0000
     1.0000   1.0000   1.0000   1.0000   1.0000   1.0000   1.0000   1.0000
     1.0000   1.0000   1.0000   1.0000   1.0000   1.0000   1.0000   1.0000
     1.0000   1.0000   1.0000   1.0000   1.0000   1.0000   1.0000   1.0000
     1.0000   1.0000   1.0000   1.0000   1.0000   1.0000   1.0000   1.0000
     1.0000   1.0000   1.0000   1.0000   1.0000   1.0000   1.0000   1.0000
     1.0000   1.0000   1.0000   1.0000   1.0000   1.0000   1.0000   1.0000
     1.0000   1.0000   1.0000   1.0000   1.0000   1.0000   1.0000   1.0000
     1.0000   1.0000   1.0000   1.0000   1.0000   1.0000   1.0000   1.0000
     1.0000   1.0000   1.0000   1.0000   1.0000   1.0000   1.0000   1.0000
     1.0000   1.0000   1.0000   1.0000   1.0000   1.0000   1.0000   1.0000
     1.0000   1.0000   1.0000   1.0000   1.0000   1.0000   1.0000   1.0000
     1.0000   1.0000   1.0000   1.0000   1.0000   1.0000   1.0000   1.0000
     1.0000   1.0000   1.0000   1.0000   1.0000   1.0000   1.0000   1.0000
     1.0000   1.0000   1.0000   1.0000   1.0000   1.0000   1.0000   1.0000
     1.0000   1.0000   1.0000   1.0000   1.0000   1.0000   1.0000   1.0000
     1.0000   1.0000   1.0000   1.0000   1.0000   1.0000   1.0000   1.0000
     1.0000   1.0000   1.0000   1.0000   1.0000   1.0000   1.0000   1.0000
     1.0000   1.0000   1.0000   1.0000   1.0000   1.0000   1.0000   1.0000
     1.0000   1.0000   1.0000   1.0000   1.0000   1.0000   1.0000   1.0000
     1.0000   1.0000   1.0000   1.0000   1.0000   1.0000   1.0000   1.0000
     1.0000   1.0000   1.0000   1.0000   1.0000   1.0000   1.0000   1.0000
     1.0000   1.0000   1.0000   1.0000   1.0000   1.0000   1.0000   1.0000
     1.0000   1.0000   1.0000   1.0000   1.0000   1.0000   1.0000   1.0000
     1.0000   1.0000   1.0000   1.0000   1.0000   1.0000   1.0000   1.0000
     1.0000   1.0000   1.0000   1.0000   1.0000   1.0000   1.0000   1.0000
     1.0000   1.0000   1.0000   1.0000   1.0000   1.0000   1.0000   1.0000
     1.0000   1.0000   1.0000   1.0000   1.0000   1.0000   1.0000   1.0000
     1.0000   1.0000   1.0000   1.0000   1.0000   1.0000   1.0000   1.0000
     1.0000   1.0000   1.0000   1.0000   1.0000   1.0000   1.0000   1.0000
     1.0000   1.0000   1.0000   1.0000   1.0000   1.0000   1.0000   1.0000
     1.0000   1.0000   1.0000   1.0000   1.0000   1.0000   1.0000   1.0000
     1.0000   1.0000   1.0000   1.0000   1.0000   1.0000   1.0000   1.0000
     1.0000   1.0000   1.0000   1.0000   1.0000   1.0000   1.0000   1.0000
     1.0000   1.0000   1.0000   1.0000   1.0000   1.0000   1.0000   1.0000
     1.0000   1.0000   1.0000   1.0000   1.0000   1.0000   1.0000   1.0000
     1.0000   1.0000   1.0000   1.0000   1.0000   1.0000   1.0000   1.0000
     1.0000   1.0000   1.0000   1.0000   1.0000   1.0000   1.0000   1.0000
     1.0000   1.0000   1.0000   1.0000   1.0000   1.0000   1.0000   1.0000
     1.0000   1.0000   1.0000   1.0000   1.0000   1.0000   1.0000   1.0000
     1.0000   1.0000   1.0000   1.0000   1.0000   1.0000   1.0000   1.0000
     1.0000   1.0000   1.0000   1.0000   1.0000   1.0000   1.0000   1.0000
     1.0000   1.0000   1.0000   1.0000   1.0000   1.0000   1.0000   1.0000
     1.0000   1.0000   1.0000   1.0000   1.0000   1.0000   1.0000   1.0000
     1.0000   1.0000   1.0000   1.0000   1.0000   1.0000   1.0000   1.0000
     1.0000   1.0000   1.0000   1.0000   1.0000   1.0000

          k =-0.0000 0.0000 0.5392 ( 44742 PWs)   bands (ev):

  -114.7334-114.7322-114.7320-114.7273-114.7267-114.7261-114.7256-114.7253
  -114.7248-114.7241-114.7236-114.7233-114.7210-114.7195-114.7186-114.7181
  -114.7178-114.7169-114.7125-114.7124-114.7122-114.7115-114.7108-114.7105
  -114.7100-114.7096-114.7091-114.7083-114.7078-114.6976 -69.0950 -69.0938
   -69.0923 -69.0906 -69.0904 -69.0891 -69.0886 -69.0885 -69.0882 -69.0875
   -69.0871 -69.0867 -69.0862 -69.0859 -69.0853 -69.0850 -69.0843 -69.0842
   -69.0839 -69.0838 -69.0835 -69.0833 -69.0831 -69.0825 -69.0823 -69.0820
   -69.0816 -69.0815 -69.0810 -69.0807 -69.0807 -69.0804 -69.0793 -69.0792
   -69.0785 -69.0784 -69.0784 -69.0783 -69.0781 -69.0780 -69.0772 -69.0767
   -69.0763 -69.0761 -69.0752 -69.0751 -69.0748 -69.0747 -69.0746 -69.0745
   -69.0743 -69.0743 -69.0738 -69.0734 -69.0732 -69.0728 -69.0727 -69.0722
   -69.0721 -69.0718 -69.0716 -69.0715 -69.0714 -69.0708 -69.0705 -69.0696
   -69.0692 -69.0682 -69.0679 -69.0674 -69.0670 -69.0667 -69.0663 -69.0661
   -69.0659 -69.0656 -69.0654 -69.0651 -69.0649 -69.0647 -69.0645 -69.0643
   -69.0633 -69.0626 -69.0617 -69.0610 -69.0605 -69.0601 -69.0540 -69.0504
   -64.1720 -64.1636 -64.1586 -64.1577 -64.1461 -64.1453 -31.1655 -31.1579
   -31.1573 -31.1567 -31.1562 -31.1517 -31.1502 -31.1491 -31.1487 -31.1472
   -31.1444 -31.1414 -31.1400 -31.1347 -31.1330 -31.1312 -31.1300 -31.1258
    -9.5426  -9.4340  -9.1143  -9.1115  -9.1017  -9.0679  -9.0591  -9.0498
    -9.0481  -9.0094  -8.9936  -8.9765  -8.9609  -8.9019  -8.8853  -8.8546
    -8.7984  -8.7865  -8.7774  -8.7634  -8.7469  -8.7360  -8.7292  -8.7077
    -8.6959  -8.6754  -8.6499  -8.6404  -8.6382  -8.6181  -8.6084  -8.6021
    -8.5552  -8.5050  -8.4517  -8.3162   2.2369   2.2472   2.2538   2.2665
     2.2802   2.2861   2.3154   2.3279   2.3472   2.3688   2.3842   2.4131
     2.4522   2.4652   2.4762   2.4917   2.5048   2.5124   2.5424   2.5674
     2.5782   2.6007   2.6226   2.6398   2.6446   2.6526   2.6707   2.6769
     2.6824   2.6971   2.7098   2.7420   2.7545   2.7622   2.7776   2.7817
     2.7990   2.8019   2.8210   2.8373   2.8388   2.8681   2.8794   2.8939
     2.8988   2.9044   2.9120   2.9253   2.9331   2.9511   2.9595   2.9655
     2.9750   2.9886   2.9937   3.0105   3.0153   3.0206   3.0286   3.0350
     3.0451   3.0584   3.0644   3.0732   3.0844   3.0912   3.0999   3.1159
     3.1258   3.1299   3.1354   3.1421   3.1523   3.1610   3.1701   3.1778
     3.1887   3.1985   3.2130   3.2196   3.2318   3.2470   3.2596   3.3273
     3.3540   3.3568   3.3884   3.3979   3.4140   3.4484   3.4833   3.4877
     3.5245   3.5431   3.5626   3.6056   3.6088   3.6517   3.6705   3.7167
     3.7363   3.7554   3.7572   3.7816   3.7933   3.8035   3.8160   3.8353
     3.8489   3.8617   3.8683   3.8746   3.8802   3.8836   3.8917   3.8995
     3.9062   3.9080   3.9136   3.9250   3.9288   3.9362   3.9424   3.9523
     3.9681   3.9702   3.9817   3.9952   4.0083   4.0161   4.0252   4.0273
     4.0366   4.0429   4.0455   4.0526   4.0605   4.0707   4.0737   4.0780
     4.0984   4.1042   4.1092   4.1197   4.1326   4.1459   4.1645   4.1768
     4.1953   4.2111   4.4434   4.4989   4.5133   4.5277   4.5599   4.5890
     4.6045   4.6214   4.6344   4.6644   4.7094   4.7382   4.7525   4.7558
     4.7893   4.8029   4.8353   4.8588   4.9104   4.9336   4.9632   4.9798
     4.9918   5.0472   5.0646   5.1291   5.1765   5.2157   5.2351   5.3220
     5.3490   5.3963   5.4130   5.4398   5.4942   5.5158   5.5514   5.5894
     5.8381   5.8816   5.9368   5.9818   5.9937   6.0254   6.0667   6.0844
     6.1249   6.1404   6.1551   6.1596   6.2117   6.2539   6.3075   6.3201
     6.4324   6.4780   6.5078   6.5195   6.5614   6.5866   6.6131   6.6202
     6.6382   6.6529   6.6705   6.6773   6.6966   6.7238   6.7326   6.7482
     6.7964   6.8348   6.8453   6.8585   7.0129   7.1551   7.1966   7.2599
     7.2750   7.2887   7.3332   7.3730   7.3893   7.4268   7.4442   7.4547
     7.4601   7.4879   7.5109   7.5325   7.5377   7.5466   7.5644   7.5714
     7.5773   7.5860   7.5938   7.5966   7.6025   7.6077   7.6189   7.6356
     7.6846   7.6903   8.0546   8.0611   8.2172   8.2223

     occupation numbers 
     1.0000   1.0000   1.0000   1.0000   1.0000   1.0000   1.0000   1.0000
     1.0000   1.0000   1.0000   1.0000   1.0000   1.0000   1.0000   1.0000
     1.0000   1.0000   1.0000   1.0000   1.0000   1.0000   1.0000   1.0000
     1.0000   1.0000   1.0000   1.0000   1.0000   1.0000   1.0000   1.0000
     1.0000   1.0000   1.0000   1.0000   1.0000   1.0000   1.0000   1.0000
     1.0000   1.0000   1.0000   1.0000   1.0000   1.0000   1.0000   1.0000
     1.0000   1.0000   1.0000   1.0000   1.0000   1.0000   1.0000   1.0000
     1.0000   1.0000   1.0000   1.0000   1.0000   1.0000   1.0000   1.0000
     1.0000   1.0000   1.0000   1.0000   1.0000   1.0000   1.0000   1.0000
     1.0000   1.0000   1.0000   1.0000   1.0000   1.0000   1.0000   1.0000
     1.0000   1.0000   1.0000   1.0000   1.0000   1.0000   1.0000   1.0000
     1.0000   1.0000   1.0000   1.0000   1.0000   1.0000   1.0000   1.0000
     1.0000   1.0000   1.0000   1.0000   1.0000   1.0000   1.0000   1.0000
     1.0000   1.0000   1.0000   1.0000   1.0000   1.0000   1.0000   1.0000
     1.0000   1.0000   1.0000   1.0000   1.0000   1.0000   1.0000   1.0000
     1.0000   1.0000   1.0000   1.0000   1.0000   1.0000   1.0000   1.0000
     1.0000   1.0000   1.0000   1.0000   1.0000   1.0000   1.0000   1.0000
     1.0000   1.0000   1.0000   1.0000   1.0000   1.0000   1.0000   1.0000
     1.0000   1.0000   1.0000   1.0000   1.0000   1.0000   1.0000   1.0000
     1.0000   1.0000   1.0000   1.0000   1.0000   1.0000   1.0000   1.0000
     1.0000   1.0000   1.0000   1.0000   1.0000   1.0000   1.0000   1.0000
     1.0000   1.0000   1.0000   1.0000   1.0000   1.0000   1.0000   1.0000
     1.0000   1.0000   1.0000   1.0000   1.0000   1.0000   1.0000   1.0000
     1.0000   1.0000   1.0000   1.0000   1.0000   1.0000   1.0000   1.0000
     1.0000   1.0000   1.0000   1.0000   1.0000   1.0000   1.0000   1.0000
     1.0000   1.0000   1.0000   1.0000   1.0000   1.0000   1.0000   1.0000
     1.0000   1.0000   1.0000   1.0000   1.0000   1.0000   1.0000   1.0000
     1.0000   1.0000   1.0000   1.0000   1.0000   1.0000   1.0000   1.0000
     1.0000   1.0000   1.0000   1.0000   1.0000   1.0000   1.0000   1.0000
     1.0000   1.0000   1.0000   1.0000   1.0000   1.0000   1.0000   1.0000
     1.0000   1.0000   1.0000   1.0000   1.0000   1.0000   1.0000   1.0000
     1.0000   1.0000   1.0000   1.0000   1.0000   1.0000   1.0000   1.0000
     1.0000   1.0000   1.0000   1.0000   1.0000   1.0000   1.0000   1.0000
     1.0000   1.0000   1.0000   1.0000   1.0000   1.0000   1.0000   1.0000
     1.0000   1.0000   1.0000   1.0000   1.0000   1.0000   1.0000   1.0000
     1.0000   1.0000   1.0000   1.0000   1.0000   1.0000   1.0000   1.0000
     1.0000   1.0000   1.0000   1.0000   1.0000   1.0000   1.0000   1.0000
     1.0000   1.0000   1.0000   1.0000   1.0000   1.0000   1.0000   1.0000
     1.0000   1.0000   1.0000   1.0000   1.0000   1.0000   1.0000   1.0000
     1.0000   1.0000   1.0000   1.0000   1.0000   1.0000   1.0000   1.0000
     1.0000   1.0000   1.0000   1.0000   1.0000   1.0000   1.0000   1.0000
     1.0000   1.0000   1.0000   1.0000   1.0000   1.0000   1.0000   1.0000
     1.0000   1.0000   1.0000   1.0000   1.0000   1.0000   1.0000   1.0000
     1.0000   1.0000   1.0000   1.0000   1.0000   1.0000   1.0000   1.0000
     1.0000   1.0000   1.0000   1.0000   1.0000   1.0000   1.0000   1.0000
     1.0000   1.0000   1.0000   1.0000   1.0000   1.0000   1.0000   1.0000
     1.0000   1.0000   1.0000   1.0000   1.0000   1.0000   1.0000   1.0000
     1.0000   1.0000   1.0000   1.0000   1.0000   1.0000   1.0000   1.0000
     1.0000   1.0000   1.0000   1.0000   1.0000   1.0000   1.0000   1.0000
     1.0000   1.0000   1.0000   1.0000   1.0000   1.0000   1.0000   1.0000
     1.0000   1.0000   1.0000   1.0000   1.0000   1.0000   1.0000   1.0000
     1.0000   1.0000   1.0000   1.0000   1.0000   1.0000   1.0000   1.0000
     1.0000   1.0000   1.0000   1.0000   1.0000   1.0000   1.0000   1.0000
     1.0000   1.0000   1.0000   1.0000   1.0000   1.0000   1.0000   1.0000
     1.0000   1.0000   1.0000   1.0000   1.0000   1.0000

          k =-0.0000 0.0000 0.6739 ( 44775 PWs)   bands (ev):

  -114.7334-114.7322-114.7320-114.7273-114.7267-114.7261-114.7256-114.7253
  -114.7248-114.7241-114.7236-114.7233-114.7210-114.7195-114.7186-114.7181
  -114.7178-114.7169-114.7125-114.7124-114.7122-114.7115-114.7108-114.7105
  -114.7100-114.7096-114.7091-114.7083-114.7078-114.6976 -69.0950 -69.0938
   -69.0923 -69.0906 -69.0904 -69.0891 -69.0886 -69.0885 -69.0882 -69.0875
   -69.0871 -69.0867 -69.0862 -69.0859 -69.0853 -69.0850 -69.0843 -69.0842
   -69.0839 -69.0838 -69.0835 -69.0833 -69.0831 -69.0825 -69.0823 -69.0820
   -69.0816 -69.0815 -69.0810 -69.0807 -69.0807 -69.0804 -69.0793 -69.0792
   -69.0785 -69.0784 -69.0784 -69.0783 -69.0781 -69.0780 -69.0772 -69.0767
   -69.0763 -69.0761 -69.0752 -69.0751 -69.0748 -69.0747 -69.0746 -69.0745
   -69.0743 -69.0742 -69.0738 -69.0734 -69.0732 -69.0728 -69.0727 -69.0722
   -69.0721 -69.0718 -69.0716 -69.0715 -69.0714 -69.0708 -69.0705 -69.0696
[...]
     2.3180   2.3347   2.3441   2.3525   2.3624   2.3802   2.3906   2.4063
     2.4294   2.4437   2.4503   2.4662   2.4764   2.4860   2.5071   2.5228
     2.5494   2.5640   2.5733   2.5883   2.6089   2.6548   2.6732   2.7077
     2.7141   2.7273   2.7402   2.7553   2.7678   2.7794   2.7953   2.8023
     2.8079   2.8182   2.8271   2.8310   2.8353   2.8481   2.8546   2.8706
     2.8855   2.8928   2.8987   2.9032   2.9108   2.9184   2.9245   2.9407
     2.9498   2.9639   2.9693   2.9833   2.9937   2.9967   3.0077   3.0149
     3.0279   3.0409   3.0436   3.0534   3.0640   3.0786   3.0933   3.1105
     3.1149   3.1342   3.1449   3.1552   3.1564   3.1615   3.1684   3.1858
     3.2075   3.2160   3.2347   3.2656   3.2848   3.3094   3.3194   3.3359
     3.3500   3.3859   3.4002   3.4210   3.4441   3.4716   3.4895   3.5184
     3.5370   3.5554   3.5732   3.6109   3.6220   3.6578   3.6749   3.7079
     3.7158   3.7373   3.7590   3.7796   3.7841   3.8121   3.8224   3.8309
     3.8451   3.8593   3.8713   3.8781   3.8821   3.9054   3.9138   3.9176
     3.9275   3.9308   3.9441   3.9474   3.9653   3.9714   3.9804   3.9839
     3.9911   3.9972   4.0042   4.0130   4.0164   4.0251   4.0319   4.0335
     4.0366   4.0431   4.0575   4.0665   4.0698   4.0794   4.0834   4.0947
     4.0971   4.1227   4.1287   4.1359   4.1493   4.1591   4.1809   4.1898
     4.1973   4.2243   4.2412   4.2730   4.3358   4.3672   4.4042   4.4252
     4.4422   4.4667   4.5165   4.5322   4.5619   4.6153   4.6552   4.6920
     4.7530   4.7567   4.7881   4.8533   4.8584   4.9080   4.9156   5.0079
     5.0374   5.1301   5.3149   5.3404   5.3761   5.4331   5.4472   5.4887
     5.5473   5.5897   5.6187   5.6511   5.6837   5.7092   5.7328   5.7609
     5.7925   5.8176   5.8737   5.9277   5.9527   5.9922   6.0530   6.0864
     6.1379   6.1565   6.2046   6.2124   6.2223   6.2620   6.2908   6.3297
     6.4407   6.5471   6.5864   6.6303   6.6613   6.7197   6.7481   6.7580
     6.7845   6.8134   6.8287   6.8523   6.8599   6.9191   6.9384   7.0027
     7.0060   7.0125   7.0190   7.0233   7.0597   7.0684   7.0766   7.0970
     7.1089   7.1158   7.1365   7.1411   7.1481   7.1584   7.1638   7.1750
     7.1866   7.1895   7.1972   7.2355   7.2780   7.3260   7.3530   7.3831
     7.3865   7.3994   7.4970   7.5978   7.6128   7.6195   7.6370   7.6491
     7.6842   7.6985   7.9770   8.0402   8.0497   8.0998

     occupation numbers 
     1.0000   1.0000   1.0000   1.0000   1.0000   1.0000   1.0000   1.0000
     1.0000   1.0000   1.0000   1.0000   1.0000   1.0000   1.0000   1.0000
     1.0000   1.0000   1.0000   1.0000   1.0000   1.0000   1.0000   1.0000
     1.0000   1.0000   1.0000   1.0000   1.0000   1.0000   1.0000   1.0000
     1.0000   1.0000   1.0000   1.0000   1.0000   1.0000   1.0000   1.0000
     1.0000   1.0000   1.0000   1.0000   1.0000   1.0000   1.0000   1.0000
     1.0000   1.0000   1.0000   1.0000   1.0000   1.0000   1.0000   1.0000
     1.0000   1.0000   1.0000   1.0000   1.0000   1.0000   1.0000   1.0000
     1.0000   1.0000   1.0000   1.0000   1.0000   1.0000   1.0000   1.0000
     1.0000   1.0000   1.0000   1.0000   1.0000   1.0000   1.0000   1.0000
     1.0000   1.0000   1.0000   1.0000   1.0000   1.0000   1.0000   1.0000
     1.0000   1.0000   1.0000   1.0000   1.0000   1.0000   1.0000   1.0000
     1.0000   1.0000   1.0000   1.0000   1.0000   1.0000   1.0000   1.0000
     1.0000   1.0000   1.0000   1.0000   1.0000   1.0000   1.0000   1.0000
     1.0000   1.0000   1.0000   1.0000   1.0000   1.0000   1.0000   1.0000
     1.0000   1.0000   1.0000   1.0000   1.0000   1.0000   1.0000   1.0000
     1.0000   1.0000   1.0000   1.0000   1.0000   1.0000   1.0000   1.0000
     1.0000   1.0000   1.0000   1.0000   1.0000   1.0000   1.0000   1.0000
     1.0000   1.0000   1.0000   1.0000   1.0000   1.0000   1.0000   1.0000
     1.0000   1.0000   1.0000   1.0000   1.0000   1.0000   1.0000   1.0000
     1.0000   1.0000   1.0000   1.0000   1.0000   1.0000   1.0000   1.0000
     1.0000   1.0000   1.0000   1.0000   1.0000   1.0000   1.0000   1.0000
     1.0000   1.0000   1.0000   1.0000   1.0000   1.0000   1.0000   1.0000
     1.0000   1.0000   1.0000   1.0000   1.0000   1.0000   1.0000   1.0000
     1.0000   1.0000   1.0000   1.0000   1.0000   1.0000   1.0000   1.0000
     1.0000   1.0000   1.0000   1.0000   1.0000   1.0000   1.0000   1.0000
     1.0000   1.0000   1.0000   1.0000   1.0000   1.0000   1.0000   1.0000
     1.0000   1.0000   1.0000   1.0000   1.0000   1.0000   1.0000   1.0000
     1.0000   1.0000   1.0000   1.0000   1.0000   1.0000   1.0000   1.0000
     1.0000   1.0000   1.0000   1.0000   1.0000   1.0000   1.0000   1.0000
     1.0000   1.0000   1.0000   1.0000   1.0000   1.0000   1.0000   1.0000
     1.0000   1.0000   1.0000   1.0000   1.0000   1.0000   1.0000   1.0000
     1.0000   1.0000   1.0000   1.0000   1.0000   1.0000   1.0000   1.0000
     1.0000   1.0000   1.0000   1.0000   1.0000   1.0000   1.0000   1.0000
     1.0000   1.0000   1.0000   1.0000   1.0000   1.0000   1.0000   1.0000
     1.0000   1.0000   1.0000   1.0000   1.0000   1.0000   1.0000   1.0000
     1.0000   1.0000   1.0000   1.0000   1.0000   1.0000   1.0000   1.0000
     1.0000   1.0000   1.0000   1.0000   1.0000   1.0000   1.0000   1.0000
     1.0000   1.0000   1.0000   1.0000   1.0000   1.0000   1.0000   1.0000
     1.0000   1.0000   1.0000   1.0000   1.0000   1.0000   1.0000   1.0000
     1.0000   1.0000   1.0000   1.0000   1.0000   1.0000   1.0000   1.0000
     1.0000   1.0000   1.0000   1.0000   1.0000   1.0000   1.0000   1.0000
     1.0000   1.0000   1.0000   1.0000   1.0000   1.0000   1.0000   1.0000
     1.0000   1.0000   1.0000   1.0000   1.0000   1.0000   1.0000   1.0000
     1.0000   1.0000   1.0000   1.0000   1.0000   1.0000   1.0000   1.0000
     1.0000   1.0000   1.0000   1.0000   1.0000   1.0000   1.0000   1.0000
     1.0000   1.0000   1.0000   1.0000   1.0000   1.0000   1.0000   1.0000
     1.0000   1.0000   1.0000   1.0000   1.0000   1.0000   1.0000   1.0000
     1.0000   1.0000   1.0000   1.0000   1.0000   1.0000   1.0000   1.0000
     1.0000   1.0000   1.0000   1.0000   1.0000   1.0000   1.0000   1.0000
     1.0000   1.0000   1.0000   1.0000   1.0000   1.0000   1.0000   1.0000
     1.0000   1.0000   1.0000   1.0000   1.0000   1.0000   1.0000   1.0000
     1.0000   1.0000   1.0000   1.0000   1.0000   1.0000   1.0000   1.0000
     1.0000   1.0000   1.0000   1.0000   1.0000   1.0000   1.0000   1.0000
     1.0000   1.0000   1.0000   1.0000   1.0000   1.0000

     highest occupied level (ev):     8.2657



               ==================================================
                            POLARIZATION CALCULATION
                         !!! NOT THOROUGHLY TESTED !!!
               --------------------------------------------------


                     K-POINTS STRINGS USED IN CALCULATIONS
                     ~~~~~~~~~~~~~~~~~~~~~~~~~~~~~~~~~~~~~

       G-vector along string (2 pi/a): -0.00002  0.00001  0.94353
       Modulus of the vector (1/bohr):  0.32260
       Number of k-points per string:   8
       Number of different strings  :  10


                               IONIC POLARIZATION
                               ~~~~~~~~~~~~~~~~~~

        Note: (mod 1) means that the phases (angles ranging from
        -pi to pi) have been mapped to the interval [-1/2,+1/2) by
        dividing by 2*pi; (mod 2) refers to the interval [-1,+1)

  ============================================================================
    Ion    Species    Charge              Position                Phase
  ----------------------------------------------------------------------------
     1        Zn      20.000       0.1666  0.0976  0.2060    -0.11333 (mod 2)
     2        Zn      20.000       0.4998  0.0953  0.2055    -0.12314 (mod 2)
     3        Zn      20.000       0.8332  0.0976  0.2040    -0.15007 (mod 2)
     4        Zn      20.000       0.0000  0.3848  0.2048    -0.13455 (mod 2)
     5        Zn      20.000       0.3333  0.3848  0.2065    -0.10231 (mod 2)
     6        Zn      20.000       0.6669  0.3849  0.2064    -0.10471 (mod 2)
     7        Zn      20.000      -0.1646  0.6733  0.2057    -0.11899 (mod 2)
     8        Zn      20.000       0.1646  0.6733  0.2059    -0.11491 (mod 2)
     9        Zn      20.000       0.5002  0.6726  0.2033    -0.16327 (mod 2)
    10        Zn      20.000       0.1657  0.0950  0.7361    -0.10893 (mod 2)
    11        Zn      20.000       0.4994  0.0979  0.7362    -0.10773 (mod 2)
    12        Zn      20.000       0.3340  0.3848  0.7367    -0.09740 (mod 2)
    13        Zn      20.000       0.6660  0.3847  0.7368    -0.09688 (mod 2)
    14        Zn      20.000      -0.1690  0.6739  0.7356    -0.11880 (mod 2)
    15        Zn      20.000       0.1704  0.6740  0.7359    -0.11313 (mod 2)
    16        Zn      20.000      -0.0008  0.1929  0.4708     0.88510 (mod 2)
    17        Zn      20.000       0.3336  0.1926  0.4718     0.90307 (mod 2)
    18        Zn      20.000       0.6667  0.1924  0.4709     0.88564 (mod 2)
    19        Zn      20.000      -0.1664  0.4809  0.4714     0.89575 (mod 2)
    20        Zn      20.000       0.1666  0.4811  0.4713     0.89403 (mod 2)
    21        Zn      20.000       0.5001  0.4817  0.4707     0.88249 (mod 2)
    22        Zn      20.000      -0.3339  0.7689  0.4689     0.84912 (mod 2)
    23        Zn      20.000       0.3341  0.7697  0.4681     0.83414 (mod 2)
    24        Zn      20.000       0.0006  0.1921  0.9993     0.85809 (mod 2)
    25        Zn      20.000       0.3328  0.1930  1.0014     0.89763 (mod 2)
    26        Zn      20.000       0.6660  0.1933  1.0008     0.88531 (mod 2)
    27        Zn      20.000      -0.1669  0.4816  1.0004     0.87790 (mod 2)
    28        Zn      20.000       0.1671  0.4815  1.0009     0.88735 (mod 2)
    29        Zn      20.000       0.5002  0.4811  1.0010     0.88866 (mod 2)
    30        Zn      20.000       0.0001  0.7686  0.9989     0.84970 (mod 2)
    31        Mg      10.000       0.8325  0.0950  0.7365     0.94869 (mod 2)
    32        Mg      10.000       0.0011  0.3855  0.7371     0.95513 (mod 2)
    33        Mg      10.000       0.4998  0.6731  0.7357     0.94118 (mod 2)
    34        Mg      10.000       0.0001  0.7698  0.4732     0.46527 (mod 2)
    35        Mg      10.000      -0.3315  0.7700  1.0023    -0.54257 (mod 2)
    36        Mg      10.000       0.3318  0.7685  1.0024    -0.54198 (mod 2)
    37        O        6.000       0.1666  0.0963  0.0030     0.01708 (mod 2)
    38        O        6.000       0.4997  0.0955  0.0024     0.01329 (mod 2)
    39        O        6.000       0.8331  0.0959  0.0008     0.00425 (mod 2)
    40        O        6.000       0.0000  0.3846  0.0014     0.00820 (mod 2)
    41        O        6.000       0.3336  0.3852  0.0035     0.01971 (mod 2)
    42        O        6.000       0.6668  0.3852  0.0034     0.01930 (mod 2)
    43        O        6.000      -0.1658  0.6735  0.0029     0.01648 (mod 2)
    44        O        6.000       0.1657  0.6733  0.0032     0.01814 (mod 2)
    45        O        6.000       0.5005  0.6745  0.0002     0.00091 (mod 2)
    46        O        6.000       0.1663  0.0957  0.5323    -0.98658 (mod 2)
    47        O        6.000       0.5001  0.0963  0.5331    -0.98221 (mod 2)
    48        O        6.000       0.8331  0.0956  0.5337    -0.97844 (mod 2)
    49        O        6.000       0.0002  0.3850  0.5346    -0.97329 (mod 2)
    50        O        6.000       0.3335  0.3851  0.5332    -0.98140 (mod 2)
    51        O        6.000       0.6666  0.3849  0.5330    -0.98281 (mod 2)
    52        O        6.000      -0.1671  0.6737  0.5323    -0.98643 (mod 2)
    53        O        6.000       0.1675  0.6739  0.5323    -0.98646 (mod 2)
    54        O        6.000       0.4998  0.6739  0.5333    -0.98073 (mod 2)
    55        O        6.000      -0.0004  0.1927  0.2678    -0.48380 (mod 2)
    56        O        6.000       0.3337  0.1924  0.2683    -0.48095 (mod 2)
    57        O        6.000       0.6664  0.1922  0.2676    -0.48518 (mod 2)
    58        O        6.000      -0.1663  0.4809  0.2681    -0.48245 (mod 2)
    59        O        6.000       0.1664  0.4808  0.2680    -0.48264 (mod 2)
    60        O        6.000       0.5001  0.4813  0.2678    -0.48397 (mod 2)
    61        O        6.000      -0.3331  0.7696  0.2654    -0.49769 (mod 2)
    62        O        6.000       0.0000  0.7701  0.2709    -0.46652 (mod 2)
    63        O        6.000       0.3333  0.7699  0.2647    -0.50166 (mod 2)
    64        O        6.000      -0.0011  0.1927  0.7961     0.50712 (mod 2)
    65        O        6.000       0.3322  0.1922  0.7982     0.51870 (mod 2)
    66        O        6.000       0.6668  0.1923  0.7977     0.51614 (mod 2)
    67        O        6.000      -0.1664  0.4810  0.7973     0.51375 (mod 2)
    68        O        6.000       0.1674  0.4815  0.7979     0.51698 (mod 2)
    69        O        6.000       0.5001  0.4813  0.7977     0.51600 (mod 2)
    70        O        6.000      -0.3345  0.7693  0.7999     0.52873 (mod 2)
    71        O        6.000       0.0004  0.7694  0.7951     0.50122 (mod 2)
    72        O        6.000       0.3352  0.7701  0.8001     0.52962 (mod 2)
  ----------------------------------------------------------------------------
                                               IONIC PHASE:  -0.80603 (mod 2)
  ============================================================================


                            ELECTRONIC POLARIZATION
                            ~~~~~~~~~~~~~~~~~~~~~~~

        Note: (mod 1) means that the phases (angles ranging from
        -pi to pi) have been mapped to the interval [-1/2,+1/2) by
        dividing by 2*pi; (mod 2) refers to the interval [-1,+1)

  ============================================================================
   Spin    String     Weight      First k-point in string         Phase
  ----------------------------------------------------------------------------
    up        1      0.062500      0.0000  0.0000  0.0000     0.30744 (mod 1)
    up        2      0.125000     -0.0000  0.2887  0.0000     0.30084 (mod 1)
    up        3      0.062500      0.0000 -0.5774 -0.0000     0.29707 (mod 1)
    up        4      0.125000      0.2500  0.1443 -0.0000     0.30076 (mod 1)
    up        5      0.125000      0.2500  0.4330  0.0000     0.29699 (mod 1)
    up        6      0.125000      0.2500 -0.4330 -0.0000     0.29698 (mod 1)
    up        7      0.125000      0.2500 -0.1443 -0.0000     0.30074 (mod 1)
    up        8      0.062500     -0.5000 -0.2887  0.0000     0.29697 (mod 1)
    up        9      0.125000     -0.5000  0.0000  0.0000     0.29693 (mod 1)
    up       10      0.062500     -0.5000 -0.8661 -0.0000     0.29696 (mod 1)
  ----------------------------------------------------------------------------
   down       1      0.062500      0.0000  0.0000  0.0000     0.30744 (mod 1)
   down       2      0.125000     -0.0000  0.2887  0.0000     0.30084 (mod 1)
   down       3      0.062500      0.0000 -0.5774 -0.0000     0.29707 (mod 1)
   down       4      0.125000      0.2500  0.1443 -0.0000     0.30076 (mod 1)
   down       5      0.125000      0.2500  0.4330  0.0000     0.29699 (mod 1)
   down       6      0.125000      0.2500 -0.4330 -0.0000     0.29698 (mod 1)
   down       7      0.125000      0.2500 -0.1443 -0.0000     0.30074 (mod 1)
   down       8      0.062500     -0.5000 -0.2887  0.0000     0.29697 (mod 1)
   down       9      0.125000     -0.5000  0.0000  0.0000     0.29693 (mod 1)
   down      10      0.062500     -0.5000 -0.8661 -0.0000     0.29696 (mod 1)
  ----------------------------------------------------------------------------
                                        Average phase (up):   0.29906 (mod 1)
                                      Average phase (down):   0.29906 (mod 1)
                                          ELECTRONIC PHASE:   0.59812 (mod 2)
  ============================================================================


                               SUMMARY OF PHASES
                               ~~~~~~~~~~~~~~~~~

                          Ionic Phase: -0.80603 (mod 2)
                     Electronic Phase:  0.59812 (mod 2)
                          TOTAL PHASE: -0.20792 (mod 2)


                             VALUES OF POLARIZATION
                             ~~~~~~~~~~~~~~~~~~~~~~

        The calculation of phases done along the direction of vector 3
        of the reciprocal lattice gives the following contribution to
        the polarization vector (in different units, and being Omega
        the volume of the unit cell):

           P =  -4.0496239  (mod  38.9539093)  (e/Omega).bohr

           P =  -0.0007109  (mod   0.0068386)  e/bohr^2

           P =  -0.0406452  (mod   0.3909724)  C/m^2

        The polarization direction is:  ( 0.00002 ,-0.00002 , 1.00000 )


               ==================================================



     Writing output data file ZnO.save/
 
     init_run     :      2.16s CPU      5.26s WALL (       1 calls)
     electrons    :   1636.56s CPU   1673.97s WALL (       1 calls)

     Called by init_run:
     wfcinit      :      0.00s CPU      0.00s WALL (       1 calls)
     wfcinit:atom :      0.05s CPU      0.17s WALL (      80 calls)
     wfcinit:wfcr :     72.82s CPU     75.11s WALL (      80 calls)
     potinit      :      0.18s CPU      0.24s WALL (       1 calls)
     hinit0       :      1.24s CPU      4.00s WALL (       1 calls)

     Called by electrons:
     c_bands      :   1148.75s CPU   1184.09s WALL (       1 calls)
     v_of_rho     :      0.14s CPU      0.16s WALL (       1 calls)
     v_h          :      0.01s CPU      0.01s WALL (       1 calls)
     v_xc         :      0.13s CPU      0.15s WALL (       1 calls)
     newd         :      0.08s CPU      0.12s WALL (       1 calls)

     Called by c_bands:
     init_us_2    :      0.64s CPU      0.70s WALL (     220 calls)
     cegterg      :   1073.68s CPU   1104.41s WALL (      80 calls)

     Called by sum_band:

     Called by *egterg:
     h_psi        :    462.57s CPU    474.61s WALL (    1215 calls)
     s_psi        :     39.43s CPU     39.52s WALL (    1215 calls)
     g_psi        :      0.36s CPU      0.37s WALL (    1055 calls)
     cdiaghg      :    348.81s CPU    356.00s WALL (    1135 calls)
     cegterg:over :     83.17s CPU     95.89s WALL (    1055 calls)
     cegterg:upda :    100.36s CPU    100.64s WALL (    1055 calls)
     cegterg:last :     94.69s CPU     94.90s WALL (     320 calls)
     cdiaghg:chol :     19.82s CPU     20.22s WALL (    1135 calls)
     cdiaghg:inve :     15.60s CPU     15.68s WALL (    1135 calls)
     cdiaghg:para :     55.87s CPU     60.09s WALL (    2270 calls)

     Called by h_psi:
     h_psi:pot    :    461.54s CPU    473.52s WALL (    1215 calls)
     h_psi:calbec :     55.11s CPU     63.73s WALL (    1215 calls)
     vloc_psi     :    366.74s CPU    369.50s WALL (    1215 calls)
     add_vuspsi   :     39.67s CPU     40.28s WALL (    1215 calls)

     General routines
     calbec       :     64.53s CPU     74.39s WALL (    1355 calls)
     fft          :      1.18s CPU      3.85s WALL (      13 calls)
     ffts         :      0.01s CPU      0.01s WALL (       1 calls)
     fftw         :    362.78s CPU    365.51s WALL (  795980 calls)
     interpolate  :      0.01s CPU      0.02s WALL (       1 calls)
 
     Parallel routines
     fft_scatt_xy :     10.23s CPU     10.30s WALL (  795994 calls)
     fft_scatt_yz :    313.01s CPU    318.09s WALL (  795994 calls)
 
     PWSCF        :  28m30.75s CPU  29m32.32s WALL

 
   This run was terminated on:   2:40:34  15Jul2022            

=------------------------------------------------------------------------------=
   JOB DONE.
=------------------------------------------------------------------------------=
