
     Program PWSCF v.6.4.1 starts on  8Nov2021 at 19:33:37 

     This program is part of the open-source Quantum ESPRESSO suite
     for quantum simulation of materials; please cite
         "P. Giannozzi et al., J. Phys.:Condens. Matter 21 395502 (2009);
         "P. Giannozzi et al., J. Phys.:Condens. Matter 29 465901 (2017);
          URL http://www.quantum-espresso.org", 
     in publications or presentations arising from this work. More details at
     http://www.quantum-espresso.org/quote

     Parallel version (MPI), running on   128 processors

     MPI processes distributed on     2 nodes
     K-points division:     npool     =       8
     R & G space division:  proc/nbgrp/npool/nimage =      16
     Waiting for input...
     Reading input from standard input
Warning: card &CELL ignored
Warning: card   CELL_DYNAMICS     = 'BFGS' ignored
Warning: card   PRESS_CONV_THR    = 0.5D0 ignored
Warning: card   CELL_DOFREE = 'Z' ignored
Warning: card / ignored

     Current dimensions of program PWSCF are:
     Max number of different atomic species (ntypx) = 10
     Max number of k-points (npk) =  40000
     Max angular momentum in pseudopotentials (lmaxx) =  3

     Subspace diagonalization in iterative solution of the eigenvalue problem:
     one sub-group per band group will be used
     scalapack distributed-memory algorithm (size of sub-group:  2*  2 procs)

 
     Parallelization info
     --------------------
     sticks:   dense  smooth     PW     G-vecs:    dense   smooth      PW
     Min         731     351     95                61487    20441    2948
     Max         732     352     96                61489    20443    2953
     Sum       11705    5617   1531               983807   327067   47217
 


     bravais-lattice index     =            0
     lattice parameter (alat)  =      18.4226  a.u.
     unit-cell volume          =    5210.4206 (a.u.)^3
     number of atoms/cell      =           72
     number of atomic types    =            3
     number of electrons       =       816.00
     number of Kohn-Sham states=          490
     kinetic-energy cutoff     =      60.0000  Ry
     charge density cutoff     =     500.0000  Ry
     convergence threshold     =      1.0E-08
     mixing beta               =       0.5000
     number of iterations used =            8  plain     mixing
     Exchange-correlation      = SLA  PW   PSX  PSC ( 1  4 10  8 0 0)
     Using LIBXC version       =    4   3   4
     nstep                     =          200


     celldm(1)=  18.422634  celldm(2)=   0.000000  celldm(3)=   0.000000
     celldm(4)=   0.000000  celldm(5)=   0.000000  celldm(6)=   0.000000

     crystal axes: (cart. coord. in units of alat)
               a(1) = (   1.000000  -0.000928  -0.000024 )  
               a(2) = (  -0.500802   0.866030   0.000209 )  
               a(3) = (  -0.000032   0.000301   0.962760 )  

     reciprocal axes: (cart. coord. in units 2 pi/alat)
               b(1) = (  1.000537  0.578584 -0.000148 )  
               b(2) = (  0.001072  1.155315 -0.000362 )  
               b(3) = (  0.000025 -0.000237  1.038681 )  


     PseudoPot. # 1 for Zn read from file:
     ./GBRV_PBEsol/zn_pbesol_v1.uspp.F.UPF
     MD5 check sum: 7d8615e52efe7c1e2b1899de8658bae2
     Pseudo is Ultrasoft, Zval = 20.0
     Generated by new atomic code, or converted to UPF format
     Using radial grid of  943 points,  6 beta functions with: 
                l(1) =   0
                l(2) =   0
                l(3) =   1
                l(4) =   1
                l(5) =   2
                l(6) =   2
     Q(r) pseudized with  8 coefficients,  rinner =    1.100   1.100   1.100
                                                       1.100   1.100

     PseudoPot. # 2 for O  read from file:
     ./GBRV_PBEsol/o_pbesol_v1.2.uspp.F.UPF
     MD5 check sum: 501638753501ef6325af9037351f7734
     Pseudo is Ultrasoft + core correction, Zval =  6.0
     Generated by new atomic code, or converted to UPF format
     Using radial grid of  737 points,  5 beta functions with: 
                l(1) =   0
                l(2) =   0
                l(3) =   1
                l(4) =   1
                l(5) =   2
     Q(r) pseudized with  8 coefficients,  rinner =    0.900   0.900   0.900
                                                       0.900   0.900

     PseudoPot. # 3 for Mg read from file:
     ./GBRV_PBEsol/mg_pbesol_v1.4.uspp.F.UPF
     MD5 check sum: 4059f37963cf5867752dbf5ab2400678
     Pseudo is Ultrasoft, Zval = 10.0
     Generated by new atomic code, or converted to UPF format
     Using radial grid of  821 points,  7 beta functions with: 
                l(1) =   0
                l(2) =   0
                l(3) =   0
                l(4) =   1
                l(5) =   1
                l(6) =   2
                l(7) =   2
     Q(r) pseudized with  8 coefficients,  rinner =    1.200   1.200   1.200
                                                       1.200   1.200

     atomic species   valence    mass     pseudopotential
        Zn            20.00    65.38000     Zn( 1.00)
        O              6.00    15.99900     O ( 1.00)
        Mg            10.00    24.30500     Mg( 1.00)

     No symmetry found


                                    s                        frac. trans.

      isym =  1     identity                                     

 cryst.   s( 1) = (     1          0          0      )
                  (     0          1          0      )
                  (     0          0          1      )

 cart.    s( 1) = (  1.0000000 -0.0000000  0.0000000 )
                  (  0.0000000  1.0000000 -0.0000000 )
                  (  0.0000000  0.0000000  1.0000000 )


   Cartesian axes

     site n.     atom                  positions (alat units)
         1           Zn  tau(   1) = (   0.1661607   0.0987153   0.2443323  )
         2           Zn  tau(   2) = (   0.1659318   0.0985437   0.7245942  )
         3           Zn  tau(   3) = (  -0.0014346   0.3853631   0.2414198  )
         4           Zn  tau(   4) = (  -0.0019288   0.3855443   0.7277427  )
         5           Zn  tau(   5) = (  -0.1685337   0.6770481   0.2436560  )
         6           Zn  tau(   6) = (  -0.1689052   0.6761385   0.7243709  )
         7           Zn  tau(   7) = (   0.5013081   0.0963943   0.2440604  )
         8           Zn  tau(   8) = (   0.5023490   0.0958950   0.7260092  )
         9           Zn  tau(   9) = (   0.3342636   0.3831475   0.2430449  )
        10           Mg  tau(  10) = (   0.3354376   0.3822686   0.7248681  )
        11           Mg  tau(  11) = (   0.1655478   0.6730284   0.2468216  )
        12           Zn  tau(  12) = (   0.1661455   0.6714091   0.7231833  )
        13           Zn  tau(  13) = (   0.8334469   0.0928456   0.2434556  )
        14           Mg  tau(  14) = (   0.8327417   0.0934306   0.7250114  )
        15           Zn  tau(  15) = (   0.6666346   0.3837269   0.2429911  )
        16           Mg  tau(  16) = (   0.6662304   0.3842832   0.7233317  )
        17           Mg  tau(  17) = (   0.4980376   0.6716572   0.2422593  )
        18           Mg  tau(  18) = (   0.4973658   0.6708021   0.7242407  )
        19           Zn  tau(  19) = (  -0.0011388   0.1942407   0.4838388  )
        20           Zn  tau(  20) = (  -0.0004760   0.1944346   0.0028057  )
        21           Zn  tau(  21) = (  -0.1662478   0.4849747   0.4838655  )
        22           Mg  tau(  22) = (  -0.1665316   0.4837176   0.0020657  )
        23           Mg  tau(  23) = (  -0.3348857   0.7720837   0.4837439  )
        24           Mg  tau(  24) = (  -0.3337201   0.7730682   0.0038494  )
        25           Zn  tau(  25) = (   0.3346490   0.1911195   0.4850445  )
        26           Zn  tau(  26) = (   0.3345896   0.1908598   0.0011458  )
        27           Mg  tau(  27) = (   0.1657818   0.4782393   0.4862658  )
        28           Mg  tau(  28) = (   0.1667487   0.4784024   0.0038688  )
        29           Mg  tau(  29) = (  -0.0008464   0.7700852   0.4817635  )
        30           Zn  tau(  30) = (  -0.0006304   0.7682898   0.0016597  )
        31           Zn  tau(  31) = (   0.6674522   0.1922459   0.4863137  )
        32           Zn  tau(  32) = (   0.6674904   0.1921951   0.0018625  )
        33           Zn  tau(  33) = (   0.4996312   0.4793347   0.4854725  )
        34           Zn  tau(  34) = (   0.5005831   0.4790831   0.0020328  )
        35           Zn  tau(  35) = (   0.3307176   0.7665339   0.4840462  )
        36           Zn  tau(  36) = (   0.3312206   0.7669944   0.0035709  )
        37           O   tau(  37) = (   0.1659861   0.0985123   0.0034219  )
        38           O   tau(  38) = (   0.1658990   0.0981687   0.4838129  )
        39           O   tau(  39) = (  -0.0012411   0.3862489   0.0028494  )
        40           O   tau(  40) = (  -0.0022425   0.3860434   0.4838397  )
        41           O   tau(  41) = (  -0.1686485   0.6759326   0.0021098  )
        42           O   tau(  42) = (  -0.1688028   0.6764835   0.4837181  )
        43           O   tau(  43) = (   0.5014461   0.0947367   0.0036754  )
        44           O   tau(  44) = (   0.5013393   0.0961104   0.4850185  )
        45           O   tau(  45) = (   0.3336661   0.3837060   0.0011899  )
        46           O   tau(  46) = (   0.3327922   0.3837894   0.4862405  )
        47           O   tau(  47) = (   0.1648923   0.6706607   0.0039124  )
        48           O   tau(  48) = (   0.1640764   0.6704892   0.4817371  )
        49           O   tau(  49) = (   0.8338779   0.0939790   0.0014865  )
        50           O   tau(  50) = (   0.8334103   0.0935499   0.4862875  )
        51           O   tau(  51) = (   0.6679582   0.3844935   0.0019064  )
        52           O   tau(  52) = (   0.6680490   0.3850544   0.4854469  )
        53           O   tau(  53) = (   0.5005241   0.6728368   0.0020767  )
        54           O   tau(  54) = (   0.4995887   0.6727270   0.4840202  )
        55           O   tau(  55) = (  -0.0016735   0.1930409   0.2443582  )
        56           O   tau(  56) = (  -0.0015974   0.1929977   0.7246202  )
        57           O   tau(  57) = (  -0.1675793   0.4836931   0.2414459  )
        58           O   tau(  58) = (  -0.1677969   0.4832903   0.7277681  )
        59           O   tau(  59) = (  -0.3367406   0.7712429   0.2436811  )
        60           O   tau(  60) = (  -0.3370629   0.7710232   0.7243970  )
        61           O   tau(  61) = (   0.3342640   0.1913903   0.2440867  )
        62           O   tau(  62) = (   0.3345979   0.1900635   0.7260347  )
        63           O   tau(  63) = (   0.1672037   0.4799430   0.2430712  )
        64           O   tau(  64) = (   0.1677280   0.4783282   0.7248942  )
        65           O   tau(  65) = (  -0.0002860   0.7697869   0.2468470  )
        66           O   tau(  66) = (   0.0000422   0.7687974   0.7232093  )
        67           O   tau(  67) = (   0.6684655   0.1918058   0.2434814  )
        68           O   tau(  68) = (   0.6682457   0.1923743   0.7250375  )
        69           O   tau(  69) = (   0.5002315   0.4797587   0.2430173  )
        70           O   tau(  70) = (   0.5002680   0.4797074   0.7233575  )
        71           O   tau(  71) = (   0.3322694   0.7674333   0.2422851  )
        72           O   tau(  72) = (   0.3319033   0.7675261   0.7242667  )

   Crystallographic axes

     site n.     atom                  positions (cryst. coord.)
         1           Zn  tau(   1) = (  0.2233290  0.1141370  0.2537640  )
         2           Zn  tau(   2) = (  0.2229298  0.1137647  0.7526026  )
         3           Zn  tau(   3) = (  0.2214938  0.4451267  0.2506667  )
         4           Zn  tau(   4) = (  0.2210324  0.4451596  0.7558009  )
         5           Zn  tau(   5) = (  0.2230689  0.7819347  0.2529163  )
         6           Zn  tau(   6) = (  0.2221000  0.7807095  0.7522257  )
         7           Zn  tau(   7) = (  0.5573137  0.1118150  0.2534903  )
         8           Zn  tau(   8) = (  0.5579951  0.1110649  0.7540813  )
         9           Zn  tau(   9) = (  0.5560904  0.4429263  0.2523635  )
        10           Mg  tau(  10) = (  0.5566853  0.4417380  0.7528241  )
        11           Mg  tau(  11) = (  0.5550038  0.7776478  0.2562135  )
        12           Zn  tau(  12) = (  0.5545945  0.7756053  0.7510015  )
        13           Zn  tau(  13) = (  0.8875779  0.1080715  0.2528711  )
        14           Mg  tau(  14) = (  0.8871396  0.1085723  0.7530535  )
        15           Zn  tau(  15) = (  0.8889752  0.4439522  0.2523156  )
        16           Mg  tau(  16) = (  0.8888217  0.4444206  0.7512360  )
        17           Mg  tau(  17) = (  0.8868795  0.7764218  0.2514833  )
        18           Mg  tau(  18) = (  0.8856415  0.7752588  0.7521081  )
        19           Zn  tau(  19) = (  0.1111737  0.2242328  0.5025080  )
        20           Zn  tau(  20) = (  0.1120201  0.2246316  0.0028682  )
        21           Zn  tau(  21) = (  0.1141900  0.5599451  0.5024627  )
        22           Mg  tau(  22) = (  0.1132499  0.5586667  0.0020270  )
        23           Mg  tau(  23) = (  0.1115781  0.8914655  0.5022644  )
        24           Mg  tau(  24) = (  0.1133848  0.8927777  0.0038071  )
        25           Zn  tau(  25) = (  0.4453359  0.2209865  0.5037693  )
        26           Zn  tau(  26) = (  0.4451976  0.2208614  0.0011531  )
        27           Mg  tau(  27) = (  0.4425007  0.5525186  0.5049657  )
        28           Mg  tau(  28) = (  0.4436337  0.5528826  0.0039093  )
        29           Mg  tau(  29) = (  0.4446409  0.8895155  0.5002160  )
        30           Zn  tau(  30) = (  0.4438892  0.8876151  0.0015420  )
        31           Zn  tau(  31) = (  0.7789695  0.2226442  0.5050955  )
        32           Zn  tau(  32) = (  0.7790499  0.2227608  0.0019054  )
        33           Zn  tau(  33) = (  0.7771634  0.5541425  0.5041496  )
        34           Zn  tau(  34) = (  0.7780416  0.5540277  0.0020104  )
        35           Zn  tau(  35) = (  0.7743281  0.8857673  0.5025960  )
        36           Zn  tau(  36) = (  0.7751687  0.8864737  0.0035356  )
        37           O   tau(  37) = (  0.2230724  0.1139894  0.0035350  )
        38           O   tau(  38) = (  0.2227156  0.1134186  0.5025079  )
        39           O   tau(  39) = (  0.2222352  0.4462367  0.0028681  )
        40           O   tau(  40) = (  0.2210434  0.4458241  0.5024634  )
        41           O   tau(  41) = (  0.2223443  0.7807332  0.0020272  )
        42           O   tau(  42) = (  0.2224375  0.7811952  0.5022643  )
        43           O   tau(  43) = (  0.5565282  0.1099870  0.0038075  )
        44           O   tau(  44) = (  0.5571450  0.1113998  0.5037688  )
        45           O   tau(  45) = (  0.5558513  0.4436584  0.0011532  )
        46           O   tau(  46) = (  0.5549536  0.4435784  0.5049658  )
        47           O   tau(  47) = (  0.5530138  0.7749995  0.0039090  )
        48           O   tau(  48) = (  0.5520277  0.7746276  0.5002162  )
        49           O   tau(  49) = (  0.8887006  0.1094689  0.0015423  )
        50           O   tau(  50) = (  0.8879128  0.1087972  0.5050957  )
        51           O   tau(  51) = (  0.8907786  0.4449264  0.0019055  )
        52           O   tau(  52) = (  0.8911226  0.4453996  0.5041495  )
        53           O   tau(  53) = (  0.8900853  0.7778741  0.0020101  )
        54           O   tau(  54) = (  0.8890147  0.7775718  0.5025954  )
        55           O   tau(  55) = (  0.1099799  0.2229328  0.2537644  )
        56           O   tau(  56) = (  0.1099601  0.2227092  0.7526031  )
        57           O   tau(  57) = (  0.1121520  0.5585506  0.2506665  )
        58           O   tau(  58) = (  0.1116295  0.5579092  0.7558000  )
        59           O   tau(  59) = (  0.1092712  0.8905789  0.2529160  )
        60           O   tau(  60) = (  0.1087507  0.8901509  0.7522262  )
        61           O   tau(  61) = (  0.4451429  0.2213861  0.2534910  )
        62           O   tau(  62) = (  0.4446382  0.2196793  0.7540813  )
        63           O   tau(  63) = (  0.4449449  0.5545765  0.2523638  )
        64           O   tau(  64) = (  0.4444642  0.5525372  0.7528243  )
        65           O   tau(  65) = (  0.4450637  0.8892564  0.2562129  )
        66           O   tau(  66) = (  0.4447493  0.8879413  0.7510014  )
        67           O   tau(  67) = (  0.7797646  0.2222248  0.2528704  )
        68           O   tau(  68) = (  0.7798025  0.2227071  0.7530532  )
        69           O   tau(  69) = (  0.7780451  0.5547206  0.2523160  )
        70           O   tau(  70) = (  0.7779811  0.5544876  0.7512360  )
        71           O   tau(  71) = (  0.7764368  0.8868955  0.2514833  )
        72           O   tau(  72) = (  0.7760530  0.8868280  0.7521082  )

     number of k points=    36  Marzari-Vanderbilt smearing, width (Ry)=  0.0010
                       cart. coord. in units 2pi/alat
        k(    1) = (   0.0000000   0.0000000   0.0000000), wk =   0.0312500
        k(    2) = (   0.0000062  -0.0000592   0.2596701), wk =   0.0625000
        k(    3) = (  -0.0000123   0.0001184  -0.5193403), wk =   0.0312500
        k(    4) = (   0.0002681   0.2888286  -0.0000904), wk =   0.0625000
        k(    5) = (   0.0002742   0.2887694   0.2595797), wk =   0.0625000
        k(    6) = (   0.0002558   0.2889470  -0.5194307), wk =   0.0625000
        k(    7) = (   0.0002619   0.2888878  -0.2597606), wk =   0.0625000
        k(    8) = (  -0.0005361  -0.5776573   0.0001809), wk =   0.0312500
        k(    9) = (  -0.0005300  -0.5777165   0.2598510), wk =   0.0625000
        k(   10) = (  -0.0005484  -0.5775389  -0.5191594), wk =   0.0312500
        k(   11) = (   0.2501344   0.1446460  -0.0000369), wk =   0.0625000
        k(   12) = (   0.2501405   0.1445868   0.2596332), wk =   0.0625000
        k(   13) = (   0.2501221   0.1447644  -0.5193772), wk =   0.0625000
        k(   14) = (   0.2501282   0.1447052  -0.2597070), wk =   0.0625000
        k(   15) = (   0.2504024   0.4334746  -0.0001273), wk =   0.0625000
        k(   16) = (   0.2504086   0.4334154   0.2595428), wk =   0.0625000
        k(   17) = (   0.2503901   0.4335930  -0.5194676), wk =   0.0625000
        k(   18) = (   0.2503963   0.4335338  -0.2597975), wk =   0.0625000
        k(   19) = (   0.2495982  -0.4330113   0.0001440), wk =   0.0625000
        k(   20) = (   0.2496044  -0.4330705   0.2598141), wk =   0.0625000
        k(   21) = (   0.2495859  -0.4328929  -0.5191963), wk =   0.0625000
        k(   22) = (   0.2495921  -0.4329521  -0.2595262), wk =   0.0625000
        k(   23) = (   0.2498663  -0.1441827   0.0000535), wk =   0.0625000
        k(   24) = (   0.2498724  -0.1442419   0.2597237), wk =   0.0625000
        k(   25) = (   0.2498540  -0.1440643  -0.5192867), wk =   0.0625000
        k(   26) = (   0.2498601  -0.1441235  -0.2596166), wk =   0.0625000
        k(   27) = (  -0.5002687  -0.2892920   0.0000738), wk =   0.0312500
        k(   28) = (  -0.5002626  -0.2893512   0.2597439), wk =   0.0625000
        k(   29) = (  -0.5002810  -0.2891736  -0.5192664), wk =   0.0312500
        k(   30) = (  -0.5000006  -0.0004633  -0.0000166), wk =   0.0625000
        k(   31) = (  -0.4999945  -0.0005225   0.2596535), wk =   0.0625000
        k(   32) = (  -0.5000129  -0.0003449  -0.5193569), wk =   0.0625000
        k(   33) = (  -0.5000068  -0.0004041  -0.2596867), wk =   0.0625000
        k(   34) = (  -0.5008048  -0.8669492   0.0002547), wk =   0.0312500
        k(   35) = (  -0.5007987  -0.8670084   0.2599248), wk =   0.0625000
        k(   36) = (  -0.5008171  -0.8668309  -0.5190856), wk =   0.0312500

                       cryst. coord.
        k(    1) = (   0.0000000   0.0000000   0.0000000), wk =   0.0312500
        k(    2) = (   0.0000000  -0.0000000   0.2500000), wk =   0.0625000
        k(    3) = (  -0.0000000   0.0000000  -0.5000000), wk =   0.0312500
        k(    4) = (  -0.0000000   0.2500000  -0.0000000), wk =   0.0625000
        k(    5) = (  -0.0000000   0.2500000   0.2500000), wk =   0.0625000
        k(    6) = (  -0.0000000   0.2500000  -0.5000000), wk =   0.0625000
        k(    7) = (  -0.0000000   0.2500000  -0.2500000), wk =   0.0625000
        k(    8) = (   0.0000000  -0.5000000   0.0000000), wk =   0.0312500
        k(    9) = (  -0.0000000  -0.5000000   0.2500000), wk =   0.0625000
        k(   10) = (   0.0000000  -0.5000000  -0.5000000), wk =   0.0312500
        k(   11) = (   0.2500000  -0.0000000   0.0000000), wk =   0.0625000
        k(   12) = (   0.2500000  -0.0000000   0.2500000), wk =   0.0625000
        k(   13) = (   0.2500000   0.0000000  -0.5000000), wk =   0.0625000
        k(   14) = (   0.2500000   0.0000000  -0.2500000), wk =   0.0625000
        k(   15) = (   0.2500000   0.2500000  -0.0000000), wk =   0.0625000
        k(   16) = (   0.2500000   0.2500000   0.2500000), wk =   0.0625000
        k(   17) = (   0.2500000   0.2500000  -0.5000000), wk =   0.0625000
        k(   18) = (   0.2500000   0.2500000  -0.2500000), wk =   0.0625000
        k(   19) = (   0.2500000  -0.5000000   0.0000000), wk =   0.0625000
        k(   20) = (   0.2500000  -0.5000000   0.2500000), wk =   0.0625000
        k(   21) = (   0.2500000  -0.5000000  -0.5000000), wk =   0.0625000
        k(   22) = (   0.2500000  -0.5000000  -0.2500000), wk =   0.0625000
        k(   23) = (   0.2500000  -0.2500000   0.0000000), wk =   0.0625000
        k(   24) = (   0.2500000  -0.2500000   0.2500000), wk =   0.0625000
        k(   25) = (   0.2500000  -0.2500000  -0.5000000), wk =   0.0625000
        k(   26) = (   0.2500000  -0.2500000  -0.2500000), wk =   0.0625000
        k(   27) = (  -0.5000000   0.0000000  -0.0000000), wk =   0.0312500
        k(   28) = (  -0.5000000  -0.0000000   0.2500000), wk =   0.0625000
        k(   29) = (  -0.5000000   0.0000000  -0.5000000), wk =   0.0312500
        k(   30) = (  -0.5000000   0.2500000  -0.0000000), wk =   0.0625000
        k(   31) = (  -0.5000000   0.2500000   0.2500000), wk =   0.0625000
        k(   32) = (  -0.5000000   0.2500000  -0.5000000), wk =   0.0625000
        k(   33) = (  -0.5000000   0.2500000  -0.2500000), wk =   0.0625000
        k(   34) = (  -0.5000000  -0.5000000   0.0000000), wk =   0.0312500
        k(   35) = (  -0.5000000  -0.5000000   0.2500000), wk =   0.0625000
        k(   36) = (  -0.5000000  -0.5000000  -0.5000000), wk =   0.0312500

     Dense  grid:   983807 G-vectors     FFT dimensions: ( 135, 135, 128)

     Smooth grid:   327067 G-vectors     FFT dimensions: (  96,  96,  90)

     Dynamical RAM for                 wfc:      19.10 MB

     Dynamical RAM for     wfc (w. buffer):     114.62 MB

     Dynamical RAM for           str. fact:       2.81 MB

     Dynamical RAM for           local pot:       0.00 MB

     Dynamical RAM for          nlocal pot:      43.98 MB

     Dynamical RAM for                qrad:      21.02 MB

     Dynamical RAM for          rho,v,vnew:       6.15 MB

     Dynamical RAM for               rhoin:       2.05 MB

     Dynamical RAM for            rho*nmix:      15.01 MB

     Dynamical RAM for           G-vectors:       3.67 MB

     Dynamical RAM for          h,s,v(r/c):      43.96 MB

     Dynamical RAM for          <psi|beta>:       8.43 MB

     Dynamical RAM for                 psi:      76.41 MB

     Dynamical RAM for                hpsi:      76.41 MB

     Dynamical RAM for                spsi:      76.41 MB

     Dynamical RAM for      wfcinit/wfcrot:      46.33 MB

     Dynamical RAM for           addusdens:      29.09 MB

     Dynamical RAM for          addusforce:      49.92 MB

     Dynamical RAM for         addusstress:      26.21 MB

     Estimated static dynamical RAM per process >     218.63 MB

     Estimated max dynamical RAM per process >     500.27 MB

     Estimated total dynamical RAM >      62.53 GB

     Check: negative core charge=   -0.000002

     Initial potential from superposition of free atoms

     starting charge  812.39409, renormalised to  816.00000
     Starting wfcs are  516 randomized atomic wfcs

     total cpu time spent up to now is       13.6 secs

     Self-consistent Calculation

     iteration #  1     ecut=    60.00 Ry     beta= 0.50
     Davidson diagonalization with overlap
     ethr =  1.00E-02,  avg # of iterations =  5.0

     total cpu time spent up to now is       70.4 secs

     total energy              =  -13727.29654304 Ry
     Harris-Foulkes estimate   =  -13741.12289996 Ry
     estimated scf accuracy    <      20.71199395 Ry

     iteration #  2     ecut=    60.00 Ry     beta= 0.50
     Davidson diagonalization with overlap
     ethr =  2.54E-03,  avg # of iterations =  3.4

     total cpu time spent up to now is      139.3 secs

     total energy              =  -13733.53702724 Ry
     Harris-Foulkes estimate   =  -13738.17320886 Ry
     estimated scf accuracy    <      10.41552065 Ry

     iteration #  3     ecut=    60.00 Ry     beta= 0.50
     Davidson diagonalization with overlap
     ethr =  1.28E-03,  avg # of iterations =  3.3

     total cpu time spent up to now is      194.2 secs

     total energy              =  -13735.43089215 Ry
     Harris-Foulkes estimate   =  -13735.50361274 Ry
     estimated scf accuracy    <       0.19926242 Ry

     iteration #  4     ecut=    60.00 Ry     beta= 0.50
     Davidson diagonalization with overlap
     ethr =  2.44E-05,  avg # of iterations =  5.6

     total cpu time spent up to now is      276.1 secs

     total energy              =  -13735.44834085 Ry
     Harris-Foulkes estimate   =  -13735.48092748 Ry
     estimated scf accuracy    <       0.09070584 Ry

     iteration #  5     ecut=    60.00 Ry     beta= 0.50
     Davidson diagonalization with overlap
     ethr =  1.11E-05,  avg # of iterations =  4.8

     total cpu time spent up to now is      339.0 secs

     total energy              =  -13735.46282566 Ry
     Harris-Foulkes estimate   =  -13735.46360952 Ry
     estimated scf accuracy    <       0.00419044 Ry

     iteration #  6     ecut=    60.00 Ry     beta= 0.50
     Davidson diagonalization with overlap
     ethr =  5.14E-07,  avg # of iterations =  2.0

     total cpu time spent up to now is      378.7 secs

     total energy              =  -13735.46339880 Ry
     Harris-Foulkes estimate   =  -13735.46353408 Ry
     estimated scf accuracy    <       0.00045471 Ry

     iteration #  7     ecut=    60.00 Ry     beta= 0.50
     Davidson diagonalization with overlap
     ethr =  5.57E-08,  avg # of iterations =  2.0

     total cpu time spent up to now is      422.0 secs

     total energy              =  -13735.46350414 Ry
     Harris-Foulkes estimate   =  -13735.46351720 Ry
     estimated scf accuracy    <       0.00009231 Ry

     iteration #  8     ecut=    60.00 Ry     beta= 0.50
     Davidson diagonalization with overlap
     ethr =  1.13E-08,  avg # of iterations =  2.0

     total cpu time spent up to now is      458.7 secs

     total energy              =  -13735.46352272 Ry
     Harris-Foulkes estimate   =  -13735.46352120 Ry
     estimated scf accuracy    <       0.00001194 Ry

     iteration #  9     ecut=    60.00 Ry     beta= 0.50
     Davidson diagonalization with overlap
     ethr =  1.46E-09,  avg # of iterations =  2.0

     total cpu time spent up to now is      501.9 secs

     total energy              =  -13735.46352468 Ry
     Harris-Foulkes estimate   =  -13735.46352512 Ry
     estimated scf accuracy    <       0.00000197 Ry

     iteration # 10     ecut=    60.00 Ry     beta= 0.50
     Davidson diagonalization with overlap
     ethr =  2.41E-10,  avg # of iterations =  2.0

     total cpu time spent up to now is      544.3 secs

     total energy              =  -13735.46352509 Ry
     Harris-Foulkes estimate   =  -13735.46352512 Ry
     estimated scf accuracy    <       0.00000030 Ry

     iteration # 11     ecut=    60.00 Ry     beta= 0.50
     Davidson diagonalization with overlap
     ethr =  3.64E-11,  avg # of iterations =  2.0

     total cpu time spent up to now is      582.2 secs

     total energy              =  -13735.46352515 Ry
     Harris-Foulkes estimate   =  -13735.46352515 Ry
     estimated scf accuracy    <       0.00000004 Ry

     iteration # 12     ecut=    60.00 Ry     beta= 0.50
     Davidson diagonalization with overlap
     ethr =  4.57E-12,  avg # of iterations =  2.0

     total cpu time spent up to now is      623.8 secs

     End of self-consistent calculation

          k = 0.0000 0.0000 0.0000 ( 40877 PWs)   bands (ev):

  -114.0912-114.0779-114.0723-114.0621-114.0612-114.0610-114.0537-114.0466
  -114.0394-114.0333-114.0288-114.0199-114.0112-114.0092-114.0059-114.0030
  -113.9994-113.9992-113.9903-113.9844-113.9796-113.9743-113.9602-113.9593
   -68.5027 -68.4921 -68.4820 -68.4788 -68.4755 -68.4729 -68.4672 -68.4645
   -68.4518 -68.4438 -68.4432 -68.4349 -68.4288 -68.4278 -68.4258 -68.4244
   -68.4237 -68.4212 -68.4177 -68.4136 -68.4118 -68.4108 -68.4106 -68.4071
   -68.4065 -68.4001 -68.3976 -68.3969 -68.3966 -68.3963 -68.3963 -68.3936
   -68.3917 -68.3909 -68.3899 -68.3893 -68.3808 -68.3780 -68.3759 -68.3753
   -68.3750 -68.3722 -68.3716 -68.3658 -68.3646 -68.3633 -68.3601 -68.3495
   -68.3477 -68.3475 -68.3450 -68.3436 -68.3407 -68.3401 -68.3391 -68.3363
   -68.3340 -68.3331 -68.3307 -68.3298 -68.3279 -68.3253 -68.3175 -68.3159
   -68.3154 -68.3138 -68.3133 -68.3020 -68.2990 -68.2987 -68.2946 -68.2886
   -63.3995 -63.3701 -63.3694 -63.3666 -63.3643 -63.3612 -63.3006 -63.2974
   -63.2784 -63.2758 -63.2508 -63.2418 -30.4216 -30.4005 -30.3943 -30.3873
   -30.3866 -30.3845 -30.3813 -30.3784 -30.3611 -30.3588 -30.3586 -30.3570
   -30.3559 -30.3533 -30.3505 -30.3498 -30.3489 -30.3480 -30.3167 -30.3132
   -30.2996 -30.2949 -30.2915 -30.2894 -30.2869 -30.2833 -30.2720 -30.2697
   -30.2669 -30.2628 -30.2617 -30.2575 -30.2444 -30.2353 -30.2280 -30.2226
    -9.2126  -8.7503  -8.7082  -8.6808  -8.6698  -8.6442  -8.5802  -8.5434
    -8.5279  -8.3953  -8.3703  -8.3584  -8.3302  -8.3015  -8.2890  -8.2697
    -8.2387  -8.2037  -8.1885  -8.1617  -8.1369  -8.1209  -8.0663  -8.0495
    -8.0326  -8.0074  -7.9986  -7.9712  -7.9176  -7.9019  -7.8714  -7.8506
    -7.7979  -7.7670  -7.7383  -7.5164   2.5742   2.6202   2.6344   2.6478
     2.6748   2.6892   2.7103   2.7239   2.7383   2.7770   2.7897   2.8037
     2.8368   2.9101   2.9525   2.9588   2.9792   3.0028   3.0610   3.0845
     3.0960   3.1180   3.1480   3.1690   3.1948   3.2039   3.2204   3.2366
     3.2852   3.3095   3.3264   3.3483   3.3573   3.4287   3.4429   3.4608
     3.4739   3.4950   3.5065   3.5163   3.5201   3.5325   3.5491   3.5528
     3.5773   3.5987   3.6023   3.6165   3.6225   3.6298   3.6362   3.6523
     3.6634   3.6835   3.6930   3.7084   3.7143   3.7494   3.7692   3.7756
     3.7953   3.8124   3.8463   3.8530   3.8670   3.8802   3.8990   3.9473
     3.9493   3.9662   3.9842   4.0208   4.0249   4.0516   4.0548   4.0762
     4.0883   4.1144   4.1309   4.1505   4.1560   4.1686   4.1942   4.1991
     4.2206   4.2300   4.2404   4.2642   4.2824   4.3028   4.3420   4.3617
     4.3787   4.4022   4.4117   4.4262   4.4347   4.4793   4.4845   4.5033
     4.5367   4.5509   4.5738   4.5908   4.6062   4.6108   4.6252   4.6378
     4.6537   4.6619   4.6880   4.6942   4.7172   4.7250   4.7430   4.7687
     4.7777   4.8145   4.8210   4.8333   4.8846   4.9273   4.9676   5.0189
     5.1371   5.1848   5.2279   5.2640   5.2865   5.2979   5.3538   5.4212
     5.4353   5.4999   5.5221   5.5496   5.5704   5.5974   5.6472   5.6568
     5.6830   5.7223   5.7355   5.7704   5.7887   5.7944   5.8535   5.8872
     5.9173   5.9620   5.9652   5.9904   6.0352   6.0877   6.0927   6.1233
     6.1523   6.1692   6.1916   6.2030   6.2158   6.2596   6.2701   6.3664
     6.3971   6.4592   6.4903   6.5195   6.5933   6.6671   6.8980   6.9036
     6.9106   7.0443   7.0965   7.1128   7.1360   7.1653   7.1777   7.1970
     7.2260   7.2880   7.3045   7.3224   7.4061   7.4372   7.4794   7.5185
     7.5323   7.5735   7.6010   7.6148   7.6329   7.7731   7.7883   7.8227
     7.8499   7.8898   7.8977   7.9113   7.9234   7.9427   7.9711   7.9773
     7.9954   8.0243   8.0327   8.0496   8.0684   8.1061   8.1314   8.2231
     8.3008   8.3617   8.4004   8.4405   8.4673   8.4822   8.6441   8.6479
     8.6533   8.6574   8.6661   8.6884   8.7412   8.7857   8.9088   8.9372
    10.8018  13.5822  13.6406  14.0172  14.0482  14.0984  14.1284  14.2318
    14.4031  14.9062  14.9284  14.9409  14.9734  14.9972  15.0487  15.0689
    15.0817  15.0943  15.1405  15.2612  15.3031  15.5105  16.6757  16.7758
    16.9548  17.0395  17.0412  17.1234  17.1762  17.2443  17.3197  17.3549
    17.3689  17.3806  17.3938  17.4279  17.4592  17.5459  17.5868  17.6394
    17.6448  17.7059  17.7473  17.8266  17.8875  17.9283  17.9636  17.9709
    18.0811  18.0891  18.1530  18.1654  18.2143  18.5715  18.5914  18.5955
    18.6091  18.6456  18.6900  18.6958  18.7153  18.7304  19.1474  19.3754
    19.4509  19.6186  19.8767  19.9708  20.0014  20.0203  20.0694  20.1028
    20.1194  20.1473  20.2689  20.3432  20.4132  20.4349  20.5102  20.5512
    20.5747  20.6237

     occupation numbers 
     1.0000   1.0000   1.0000   1.0000   1.0000   1.0000   1.0000   1.0000
     1.0000   1.0000   1.0000   1.0000   1.0000   1.0000   1.0000   1.0000
     1.0000   1.0000   1.0000   1.0000   1.0000   1.0000   1.0000   1.0000
     1.0000   1.0000   1.0000   1.0000   1.0000   1.0000   1.0000   1.0000
     1.0000   1.0000   1.0000   1.0000   1.0000   1.0000   1.0000   1.0000
     1.0000   1.0000   1.0000   1.0000   1.0000   1.0000   1.0000   1.0000
     1.0000   1.0000   1.0000   1.0000   1.0000   1.0000   1.0000   1.0000
     1.0000   1.0000   1.0000   1.0000   1.0000   1.0000   1.0000   1.0000
     1.0000   1.0000   1.0000   1.0000   1.0000   1.0000   1.0000   1.0000
     1.0000   1.0000   1.0000   1.0000   1.0000   1.0000   1.0000   1.0000
     1.0000   1.0000   1.0000   1.0000   1.0000   1.0000   1.0000   1.0000
     1.0000   1.0000   1.0000   1.0000   1.0000   1.0000   1.0000   1.0000
     1.0000   1.0000   1.0000   1.0000   1.0000   1.0000   1.0000   1.0000
     1.0000   1.0000   1.0000   1.0000   1.0000   1.0000   1.0000   1.0000
     1.0000   1.0000   1.0000   1.0000   1.0000   1.0000   1.0000   1.0000
     1.0000   1.0000   1.0000   1.0000   1.0000   1.0000   1.0000   1.0000
     1.0000   1.0000   1.0000   1.0000   1.0000   1.0000   1.0000   1.0000
     1.0000   1.0000   1.0000   1.0000   1.0000   1.0000   1.0000   1.0000
     1.0000   1.0000   1.0000   1.0000   1.0000   1.0000   1.0000   1.0000
     1.0000   1.0000   1.0000   1.0000   1.0000   1.0000   1.0000   1.0000
     1.0000   1.0000   1.0000   1.0000   1.0000   1.0000   1.0000   1.0000
     1.0000   1.0000   1.0000   1.0000   1.0000   1.0000   1.0000   1.0000
     1.0000   1.0000   1.0000   1.0000   1.0000   1.0000   1.0000   1.0000
     1.0000   1.0000   1.0000   1.0000   1.0000   1.0000   1.0000   1.0000
     1.0000   1.0000   1.0000   1.0000   1.0000   1.0000   1.0000   1.0000
     1.0000   1.0000   1.0000   1.0000   1.0000   1.0000   1.0000   1.0000
     1.0000   1.0000   1.0000   1.0000   1.0000   1.0000   1.0000   1.0000
     1.0000   1.0000   1.0000   1.0000   1.0000   1.0000   1.0000   1.0000
     1.0000   1.0000   1.0000   1.0000   1.0000   1.0000   1.0000   1.0000
     1.0000   1.0000   1.0000   1.0000   1.0000   1.0000   1.0000   1.0000
     1.0000   1.0000   1.0000   1.0000   1.0000   1.0000   1.0000   1.0000
     1.0000   1.0000   1.0000   1.0000   1.0000   1.0000   1.0000   1.0000
     1.0000   1.0000   1.0000   1.0000   1.0000   1.0000   1.0000   1.0000
     1.0000   1.0000   1.0000   1.0000   1.0000   1.0000   1.0000   1.0000
     1.0000   1.0000   1.0000   1.0000   1.0000   1.0000   1.0000   1.0000
     1.0000   1.0000   1.0000   1.0000   1.0000   1.0000   1.0000   1.0000
     1.0000   1.0000   1.0000   1.0000   1.0000   1.0000   1.0000   1.0000
     1.0000   1.0000   1.0000   1.0000   1.0000   1.0000   1.0000   1.0000
     1.0000   1.0000   1.0000   1.0000   1.0000   1.0000   1.0000   1.0000
     1.0000   1.0000   1.0000   1.0000   1.0000   1.0000   1.0000   1.0000
     1.0000   1.0000   1.0000   1.0000   1.0000   1.0000   1.0000   1.0000
     1.0000   1.0000   1.0000   1.0000   1.0000   1.0000   1.0000   1.0000
     1.0000   1.0000   1.0000   1.0000   1.0000   1.0000   1.0000   1.0000
     1.0000   1.0000   1.0000   1.0000   1.0000   1.0000   1.0000   1.0000
     1.0000   1.0000   1.0000   1.0000   1.0000   1.0000   1.0000   1.0000
     1.0000   1.0000   1.0000   1.0000   1.0000   1.0000   1.0000   1.0000
     1.0000   1.0000   1.0000   1.0000   1.0000   1.0000   1.0000   1.0000
     1.0000   1.0000   1.0000   1.0000   1.0000   1.0000   1.0000   1.0000
     1.0000   1.0000   1.0000   1.0000   1.0000   1.0000   1.0000   1.0000
     1.0000   1.0000   1.0000   1.0000   1.0000   1.0000   1.0000   1.0000
     1.0000   1.0000   1.0000   1.0000   1.0000   1.0000   1.0000   1.0000
     0.0000   0.0000   0.0000   0.0000   0.0000   0.0000   0.0000   0.0000
     0.0000   0.0000   0.0000   0.0000   0.0000   0.0000   0.0000   0.0000
     0.0000   0.0000   0.0000   0.0000   0.0000   0.0000   0.0000   0.0000
     0.0000   0.0000   0.0000   0.0000   0.0000   0.0000   0.0000   0.0000
     0.0000   0.0000   0.0000   0.0000   0.0000   0.0000   0.0000   0.0000
     0.0000   0.0000   0.0000   0.0000   0.0000   0.0000   0.0000   0.0000
     0.0000   0.0000   0.0000   0.0000   0.0000   0.0000   0.0000   0.0000
     0.0000   0.0000   0.0000   0.0000   0.0000   0.0000   0.0000   0.0000
     0.0000   0.0000   0.0000   0.0000   0.0000   0.0000   0.0000   0.0000
     0.0000   0.0000   0.0000   0.0000   0.0000   0.0000   0.0000   0.0000
     0.0000   0.0000

          k = 0.0000-0.0001 0.2597 ( 40922 PWs)   bands (ev):

  -114.0912-114.0779-114.0723-114.0621-114.0612-114.0610-114.0537-114.0466
  -114.0394-114.0333-114.0288-114.0199-114.0112-114.0092-114.0059-114.0030
  -113.9994-113.9992-113.9903-113.9844-113.9796-113.9743-113.9602-113.9593
   -68.5027 -68.4921 -68.4820 -68.4788 -68.4755 -68.4729 -68.4672 -68.4645
   -68.4518 -68.4438 -68.4432 -68.4349 -68.4288 -68.4278 -68.4258 -68.4244
   -68.4237 -68.4212 -68.4177 -68.4136 -68.4118 -68.4108 -68.4106 -68.4071
   -68.4065 -68.4001 -68.3976 -68.3969 -68.3966 -68.3963 -68.3963 -68.3936
   -68.3917 -68.3909 -68.3899 -68.3893 -68.3808 -68.3780 -68.3759 -68.3753
   -68.3750 -68.3722 -68.3716 -68.3658 -68.3646 -68.3633 -68.3601 -68.3495
   -68.3477 -68.3475 -68.3450 -68.3436 -68.3407 -68.3401 -68.3391 -68.3363
   -68.3340 -68.3331 -68.3307 -68.3298 -68.3279 -68.3253 -68.3175 -68.3159
   -68.3154 -68.3138 -68.3133 -68.3020 -68.2990 -68.2987 -68.2946 -68.2886
   -63.3995 -63.3701 -63.3694 -63.3666 -63.3643 -63.3612 -63.3006 -63.2974
   -63.2784 -63.2758 -63.2508 -63.2418 -30.4216 -30.4005 -30.3943 -30.3874
   -30.3866 -30.3845 -30.3813 -30.3785 -30.3611 -30.3589 -30.3585 -30.3569
   -30.3559 -30.3532 -30.3506 -30.3498 -30.3489 -30.3480 -30.3167 -30.3132
   -30.2996 -30.2949 -30.2915 -30.2894 -30.2869 -30.2833 -30.2720 -30.2697
   -30.2669 -30.2628 -30.2617 -30.2575 -30.2444 -30.2353 -30.2280 -30.2226
    -9.1773  -8.8844  -8.6817  -8.6661  -8.6439  -8.5936  -8.5559  -8.5187
    -8.4966  -8.4423  -8.4323  -8.3943  -8.3753  -8.3458  -8.2970  -8.2717
    -8.2052  -8.1840  -8.1539  -8.1262  -8.1066  -8.0841  -8.0635  -8.0448
    -8.0404  -8.0117  -8.0012  -7.9766  -7.9284  -7.8998  -7.8601  -7.8524
    -7.8081  -7.7762  -7.7504  -7.5180   2.5762   2.6218   2.6344   2.6597
     2.6723   2.6964   2.7148   2.7372   2.7638   2.7774   2.8186   2.8416
     2.8810   2.9272   2.9597   2.9671   3.0021   3.0174   3.0523   3.0770
     3.1004   3.1204   3.1357   3.1650   3.1994   3.2084   3.2195   3.2370
     3.2847   3.3169   3.3532   3.3747   3.3868   3.4167   3.4335   3.4586
     3.4684   3.4804   3.4897   3.5133   3.5309   3.5432   3.5557   3.5676
     3.5814   3.5864   3.5970   3.6077   3.6191   3.6258   3.6393   3.6589
     3.6742   3.6835   3.6993   3.7081   3.7177   3.7320   3.7424   3.7551
     3.7692   3.7821   3.8009   3.8222   3.8379   3.8550   3.8679   3.8993
     3.9310   3.9639   3.9730   3.9968   4.0064   4.0245   4.0395   4.0610
     4.0767   4.0986   4.1134   4.1402   4.1614   4.1672   4.1753   4.1943
     4.2118   4.2256   4.2419   4.2801   4.3060   4.3111   4.3385   4.3540
     4.3745   4.3843   4.4086   4.4304   4.4492   4.4640   4.4952   4.5233
     4.5403   4.5466   4.5686   4.5850   4.5987   4.6089   4.6252   4.6329
     4.6514   4.6694   4.6802   4.7001   4.7120   4.7328   4.7521   4.7649
     4.7918   4.8041   4.8296   4.8577   4.8811   4.9086   4.9870   5.0337
     5.0808   5.1083   5.1729   5.2340   5.2601   5.3216   5.3594   5.4026
     5.4272   5.4480   5.4636   5.4905   5.5402   5.5545   5.5907   5.6325
     5.6635   5.6882   5.7206   5.7382   5.7852   5.8275   5.8785   5.8886
     5.9316   6.0010   6.0165   6.0679   6.0910   6.1078   6.1376   6.1594
     6.1872   6.2140   6.2491   6.2808   6.3308   6.3611   6.3847   6.4085
     6.4385   6.4763   6.4867   6.5521   6.6872   6.7522   6.8899   6.9177
     6.9203   7.0207   7.0735   7.1179   7.1433   7.1982   7.2124   7.2622
     7.3021   7.3317   7.3564   7.3752   7.3930   7.4206   7.4426   7.4645
     7.5290   7.5485   7.5812   7.6375   7.6459   7.6716   7.7141   7.7544
     7.7838   7.8081   7.8395   7.8670   7.9046   7.9383   7.9605   7.9785
     8.0171   8.0344   8.0756   8.0874   8.1275   8.1397   8.1587   8.2198
     8.3083   8.3575   8.4084   8.4462   8.4782   8.4976   8.5373   8.5449
     8.5750   8.6064   8.6250   8.6687   8.7426   8.7492   8.9008   8.9311
    11.1320  12.7803  14.0123  14.0472  14.0820  14.1250  14.1584  14.3195
    14.4046  14.4330  14.5199  14.5593  14.6274  14.7204  14.8270  15.2803
    15.5940  15.6068  15.6919  15.7062  15.7785  15.8559  16.6058  16.6868
    16.7871  16.8695  16.9197  17.0288  17.0696  17.1432  17.2395  17.2553
    17.3160  17.4291  17.4454  17.4793  17.5037  17.5267  17.5382  17.5946
    17.6260  17.7068  17.7535  17.8109  17.8358  17.8749  17.9961  18.0312
    18.0868  18.1197  18.1444  18.1965  18.2265  18.3753  18.4287  18.5100
    18.5546  18.6242  18.6959  18.7458  18.7920  18.8970  19.0358  19.2642
    19.3530  19.5385  19.7526  19.7791  19.8293  19.9117  20.0042  20.0793
    20.1546  20.2161  20.3065  20.3351  20.3720  20.4405  20.5109  20.5836
    20.6363  20.7107

     occupation numbers 
     1.0000   1.0000   1.0000   1.0000   1.0000   1.0000   1.0000   1.0000
     1.0000   1.0000   1.0000   1.0000   1.0000   1.0000   1.0000   1.0000
     1.0000   1.0000   1.0000   1.0000   1.0000   1.0000   1.0000   1.0000
     1.0000   1.0000   1.0000   1.0000   1.0000   1.0000   1.0000   1.0000
     1.0000   1.0000   1.0000   1.0000   1.0000   1.0000   1.0000   1.0000
     1.0000   1.0000   1.0000   1.0000   1.0000   1.0000   1.0000   1.0000
     1.0000   1.0000   1.0000   1.0000   1.0000   1.0000   1.0000   1.0000
     1.0000   1.0000   1.0000   1.0000   1.0000   1.0000   1.0000   1.0000
     1.0000   1.0000   1.0000   1.0000   1.0000   1.0000   1.0000   1.0000
     1.0000   1.0000   1.0000   1.0000   1.0000   1.0000   1.0000   1.0000
     1.0000   1.0000   1.0000   1.0000   1.0000   1.0000   1.0000   1.0000
     1.0000   1.0000   1.0000   1.0000   1.0000   1.0000   1.0000   1.0000
     1.0000   1.0000   1.0000   1.0000   1.0000   1.0000   1.0000   1.0000
     1.0000   1.0000   1.0000   1.0000   1.0000   1.0000   1.0000   1.0000
     1.0000   1.0000   1.0000   1.0000   1.0000   1.0000   1.0000   1.0000
     1.0000   1.0000   1.0000   1.0000   1.0000   1.0000   1.0000   1.0000
     1.0000   1.0000   1.0000   1.0000   1.0000   1.0000   1.0000   1.0000
     1.0000   1.0000   1.0000   1.0000   1.0000   1.0000   1.0000   1.0000
     1.0000   1.0000   1.0000   1.0000   1.0000   1.0000   1.0000   1.0000
     1.0000   1.0000   1.0000   1.0000   1.0000   1.0000   1.0000   1.0000
     1.0000   1.0000   1.0000   1.0000   1.0000   1.0000   1.0000   1.0000
     1.0000   1.0000   1.0000   1.0000   1.0000   1.0000   1.0000   1.0000
     1.0000   1.0000   1.0000   1.0000   1.0000   1.0000   1.0000   1.0000
     1.0000   1.0000   1.0000   1.0000   1.0000   1.0000   1.0000   1.0000
     1.0000   1.0000   1.0000   1.0000   1.0000   1.0000   1.0000   1.0000
     1.0000   1.0000   1.0000   1.0000   1.0000   1.0000   1.0000   1.0000
     1.0000   1.0000   1.0000   1.0000   1.0000   1.0000   1.0000   1.0000
     1.0000   1.0000   1.0000   1.0000   1.0000   1.0000   1.0000   1.0000
     1.0000   1.0000   1.0000   1.0000   1.0000   1.0000   1.0000   1.0000
     1.0000   1.0000   1.0000   1.0000   1.0000   1.0000   1.0000   1.0000
     1.0000   1.0000   1.0000   1.0000   1.0000   1.0000   1.0000   1.0000
     1.0000   1.0000   1.0000   1.0000   1.0000   1.0000   1.0000   1.0000
     1.0000   1.0000   1.0000   1.0000   1.0000   1.0000   1.0000   1.0000
     1.0000   1.0000   1.0000   1.0000   1.0000   1.0000   1.0000   1.0000
     1.0000   1.0000   1.0000   1.0000   1.0000   1.0000   1.0000   1.0000
     1.0000   1.0000   1.0000   1.0000   1.0000   1.0000   1.0000   1.0000
     1.0000   1.0000   1.0000   1.0000   1.0000   1.0000   1.0000   1.0000
     1.0000   1.0000   1.0000   1.0000   1.0000   1.0000   1.0000   1.0000
     1.0000   1.0000   1.0000   1.0000   1.0000   1.0000   1.0000   1.0000
     1.0000   1.0000   1.0000   1.0000   1.0000   1.0000   1.0000   1.0000
     1.0000   1.0000   1.0000   1.0000   1.0000   1.0000   1.0000   1.0000
     1.0000   1.0000   1.0000   1.0000   1.0000   1.0000   1.0000   1.0000
     1.0000   1.0000   1.0000   1.0000   1.0000   1.0000   1.0000   1.0000
     1.0000   1.0000   1.0000   1.0000   1.0000   1.0000   1.0000   1.0000
     1.0000   1.0000   1.0000   1.0000   1.0000   1.0000   1.0000   1.0000
     1.0000   1.0000   1.0000   1.0000   1.0000   1.0000   1.0000   1.0000
     1.0000   1.0000   1.0000   1.0000   1.0000   1.0000   1.0000   1.0000
     1.0000   1.0000   1.0000   1.0000   1.0000   1.0000   1.0000   1.0000
     1.0000   1.0000   1.0000   1.0000   1.0000   1.0000   1.0000   1.0000
     1.0000   1.0000   1.0000   1.0000   1.0000   1.0000   1.0000   1.0000
     1.0000   1.0000   1.0000   1.0000   1.0000   1.0000   1.0000   1.0000
     0.0000   0.0000   0.0000   0.0000   0.0000   0.0000   0.0000   0.0000
     0.0000   0.0000   0.0000   0.0000   0.0000   0.0000   0.0000   0.0000
     0.0000   0.0000   0.0000   0.0000   0.0000   0.0000   0.0000   0.0000
     0.0000   0.0000   0.0000   0.0000   0.0000   0.0000   0.0000   0.0000
     0.0000   0.0000   0.0000   0.0000   0.0000   0.0000   0.0000   0.0000
     0.0000   0.0000   0.0000   0.0000   0.0000   0.0000   0.0000   0.0000
     0.0000   0.0000   0.0000   0.0000   0.0000   0.0000   0.0000   0.0000
     0.0000   0.0000   0.0000   0.0000   0.0000   0.0000   0.0000   0.0000
     0.0000   0.0000   0.0000   0.0000   0.0000   0.0000   0.0000   0.0000
     0.0000   0.0000   0.0000   0.0000   0.0000   0.0000   0.0000   0.0000
     0.0000   0.0000

          k =-0.0000 0.0001-0.5193 ( 40854 PWs)   bands (ev):

  -114.0912-114.0779-114.0723-114.0621-114.0612-114.0610-114.0537-114.0466
  -114.0394-114.0333-114.0288-114.0199-114.0112-114.0092-114.0059-114.0030
  -113.9994-113.9992-113.9903-113.9844-113.9796-113.9743-113.9602-113.9593
   -68.5027 -68.4921 -68.4820 -68.4788 -68.4755 -68.4729 -68.4672 -68.4645
   -68.4518 -68.4438 -68.4432 -68.4349 -68.4288 -68.4278 -68.4258 -68.4244
   -68.4237 -68.4212 -68.4177 -68.4136 -68.4118 -68.4108 -68.4106 -68.4071
   -68.4065 -68.4001 -68.3976 -68.3969 -68.3966 -68.3963 -68.3963 -68.3936
   -68.3917 -68.3909 -68.3899 -68.3893 -68.3808 -68.3780 -68.3759 -68.3753
   -68.3750 -68.3722 -68.3716 -68.3658 -68.3646 -68.3633 -68.3601 -68.3495
   -68.3477 -68.3475 -68.3450 -68.3436 -68.3407 -68.3401 -68.3391 -68.3363
   -68.3340 -68.3331 -68.3307 -68.3298 -68.3279 -68.3253 -68.3175 -68.3159
   -68.3154 -68.3138 -68.3133 -68.3020 -68.2990 -68.2987 -68.2946 -68.2886
   -63.3995 -63.3701 -63.3694 -63.3666 -63.3643 -63.3612 -63.3006 -63.2974
   -63.2784 -63.2758 -63.2508 -63.2418 -30.4216 -30.4004 -30.3943 -30.3874
   -30.3865 -30.3845 -30.3813 -30.3785 -30.3611 -30.3590 -30.3585 -30.3569
   -30.3559 -30.3531 -30.3506 -30.3498 -30.3489 -30.3480 -30.3167 -30.3132
   -30.2996 -30.2949 -30.2915 -30.2894 -30.2869 -30.2833 -30.2720 -30.2697
   -30.2669 -30.2628 -30.2617 -30.2575 -30.2444 -30.2353 -30.2280 -30.2226
    -9.1118  -9.0004  -8.6523  -8.6387  -8.6206  -8.5782  -8.5313  -8.5033
    -8.4927  -8.4705  -8.4609  -8.4438  -8.4233  -8.3885  -8.3044  -8.2550
    -8.1695  -8.1573  -8.1287  -8.1100  -8.1000  -8.0667  -8.0617  -8.0411
    -8.0285  -8.0146  -7.9975  -7.9880  -7.9433  -7.8957  -7.8626  -7.8322
    -7.8157  -7.7947  -7.7653  -7.5196   2.5815   2.6278   2.6381   2.6646
     2.6796   2.6996   2.7191   2.7468   2.7663   2.7811   2.8833   2.9116
     2.9153   2.9438   2.9653   2.9925   3.0043   3.0261   3.0381   3.0669
     3.0807   3.1157   3.1350   3.1416   3.1648   3.2127   3.2706   3.2753
     3.2891   3.3059   3.3567   3.3854   3.4024   3.4147   3.4268   3.4602
     3.4733   3.4784   3.4973   3.5268   3.5413   3.5474   3.5515   3.5622
     3.5759   3.5878   3.5968   3.6002   3.6149   3.6201   3.6304   3.6454
     3.6510   3.6638   3.6847   3.6911   3.7100   3.7280   3.7464   3.7611
     3.7632   3.7874   3.7995   3.8180   3.8439   3.8527   3.8696   3.8855
     3.8882   3.9006   3.9307   3.9636   3.9805   3.9862   3.9966   4.0167
     4.0374   4.0672   4.1030   4.1323   4.1439   4.1570   4.1752   4.1966
     4.2190   4.2364   4.2477   4.2737   4.3019   4.3243   4.3353   4.3507
     4.3664   4.3860   4.4043   4.4219   4.4595   4.4675   4.5031   4.5218
     4.5566   4.5677   4.5743   4.5845   4.5868   4.6008   4.6184   4.6340
     4.6497   4.6653   4.6795   4.7057   4.7223   4.7370   4.7521   4.7656
     4.8007   4.8066   4.8590   4.8630   4.8756   4.9171   4.9307   4.9608
     5.0446   5.1481   5.1940   5.2331   5.2536   5.2755   5.3403   5.3692
     5.4060   5.4226   5.4418   5.4766   5.4973   5.5473   5.5662   5.5911
     5.6423   5.6764   5.7126   5.7284   5.8149   5.8432   5.8774   5.9035
     5.9347   5.9646   6.0378   6.0687   6.0870   6.0920   6.1191   6.1505
     6.1815   6.2046   6.2567   6.2888   6.3942   6.4217   6.5851   6.6102
     6.6337   6.6616   6.7270   6.7622   6.7895   6.8247   6.8968   6.9338
     6.9471   6.9570   7.0344   7.0772   7.0892   7.1330   7.1351   7.1828
     7.2169   7.2534   7.2613   7.2984   7.3134   7.3532   7.4769   7.5387
     7.5480   7.5850   7.6175   7.7016   7.7157   7.7187   7.7480   7.7799
     7.8068   7.8178   7.8407   7.8566   7.8789   7.9009   7.9260   7.9392
     7.9668   8.0081   8.0174   8.0488   8.1801   8.2524   8.2716   8.2862
     8.3026   8.3394   8.3890   8.4040   8.4285   8.4522   8.4749   8.4755
     8.5069   8.5248   8.5312   8.5616   8.7689   8.7798   8.8901   8.9231
    11.8261  11.9536  14.0635  14.1156  14.1327  14.1456  14.1702  14.1978
    14.2538  14.3305  14.3500  14.4217  14.4756  14.5785  14.9072  15.2324
    16.1516  16.1804  16.2423  16.2770  16.2886  16.3083  16.3232  16.3663
    16.4011  16.4508  16.4932  16.5438  17.0999  17.1056  17.1520  17.1686
    17.3579  17.4104  17.4459  17.4789  17.5204  17.5474  17.5929  17.6340
    17.6396  17.6683  17.7262  17.7424  17.9111  17.9574  18.0139  18.0427
    18.0917  18.1135  18.1535  18.2118  18.2434  18.2735  18.2881  18.3059
    18.5540  18.6068  18.6515  18.8376  18.9484  18.9726  19.0695  19.0754
    19.1336  19.4400  19.5577  19.7275  19.8087  19.8760  19.9434  19.9824
    20.0970  20.2484  20.3077  20.3542  20.3911  20.4676  20.5259  20.5511
    20.6968  20.7543

     occupation numbers 
     1.0000   1.0000   1.0000   1.0000   1.0000   1.0000   1.0000   1.0000
     1.0000   1.0000   1.0000   1.0000   1.0000   1.0000   1.0000   1.0000
     1.0000   1.0000   1.0000   1.0000   1.0000   1.0000   1.0000   1.0000
     1.0000   1.0000   1.0000   1.0000   1.0000   1.0000   1.0000   1.0000
     1.0000   1.0000   1.0000   1.0000   1.0000   1.0000   1.0000   1.0000
     1.0000   1.0000   1.0000   1.0000   1.0000   1.0000   1.0000   1.0000
     1.0000   1.0000   1.0000   1.0000   1.0000   1.0000   1.0000   1.0000
     1.0000   1.0000   1.0000   1.0000   1.0000   1.0000   1.0000   1.0000
     1.0000   1.0000   1.0000   1.0000   1.0000   1.0000   1.0000   1.0000
     1.0000   1.0000   1.0000   1.0000   1.0000   1.0000   1.0000   1.0000
     1.0000   1.0000   1.0000   1.0000   1.0000   1.0000   1.0000   1.0000
     1.0000   1.0000   1.0000   1.0000   1.0000   1.0000   1.0000   1.0000
     1.0000   1.0000   1.0000   1.0000   1.0000   1.0000   1.0000   1.0000
     1.0000   1.0000   1.0000   1.0000   1.0000   1.0000   1.0000   1.0000
     1.0000   1.0000   1.0000   1.0000   1.0000   1.0000   1.0000   1.0000
     1.0000   1.0000   1.0000   1.0000   1.0000   1.0000   1.0000   1.0000
     1.0000   1.0000   1.0000   1.0000   1.0000   1.0000   1.0000   1.0000
     1.0000   1.0000   1.0000   1.0000   1.0000   1.0000   1.0000   1.0000
     1.0000   1.0000   1.0000   1.0000   1.0000   1.0000   1.0000   1.0000
     1.0000   1.0000   1.0000   1.0000   1.0000   1.0000   1.0000   1.0000
     1.0000   1.0000   1.0000   1.0000   1.0000   1.0000   1.0000   1.0000
     1.0000   1.0000   1.0000   1.0000   1.0000   1.0000   1.0000   1.0000
     1.0000   1.0000   1.0000   1.0000   1.0000   1.0000   1.0000   1.0000
     1.0000   1.0000   1.0000   1.0000   1.0000   1.0000   1.0000   1.0000
     1.0000   1.0000   1.0000   1.0000   1.0000   1.0000   1.0000   1.0000
     1.0000   1.0000   1.0000   1.0000   1.0000   1.0000   1.0000   1.0000
     1.0000   1.0000   1.0000   1.0000   1.0000   1.0000   1.0000   1.0000
     1.0000   1.0000   1.0000   1.0000   1.0000   1.0000   1.0000   1.0000
     1.0000   1.0000   1.0000   1.0000   1.0000   1.0000   1.0000   1.0000
     1.0000   1.0000   1.0000   1.0000   1.0000   1.0000   1.0000   1.0000
     1.0000   1.0000   1.0000   1.0000   1.0000   1.0000   1.0000   1.0000
     1.0000   1.0000   1.0000   1.0000   1.0000   1.0000   1.0000   1.0000
     1.0000   1.0000   1.0000   1.0000   1.0000   1.0000   1.0000   1.0000
     1.0000   1.0000   1.0000   1.0000   1.0000   1.0000   1.0000   1.0000
     1.0000   1.0000   1.0000   1.0000   1.0000   1.0000   1.0000   1.0000
     1.0000   1.0000   1.0000   1.0000   1.0000   1.0000   1.0000   1.0000
     1.0000   1.0000   1.0000   1.0000   1.0000   1.0000   1.0000   1.0000
     1.0000   1.0000   1.0000   1.0000   1.0000   1.0000   1.0000   1.0000
     1.0000   1.0000   1.0000   1.0000   1.0000   1.0000   1.0000   1.0000
     1.0000   1.0000   1.0000   1.0000   1.0000   1.0000   1.0000   1.0000
     1.0000   1.0000   1.0000   1.0000   1.0000   1.0000   1.0000   1.0000
     1.0000   1.0000   1.0000   1.0000   1.0000   1.0000   1.0000   1.0000
     1.0000   1.0000   1.0000   1.0000   1.0000   1.0000   1.0000   1.0000
     1.0000   1.0000   1.0000   1.0000   1.0000   1.0000   1.0000   1.0000
     1.0000   1.0000   1.0000   1.0000   1.0000   1.0000   1.0000   1.0000
     1.0000   1.0000   1.0000   1.0000   1.0000   1.0000   1.0000   1.0000
     1.0000   1.0000   1.0000   1.0000   1.0000   1.0000   1.0000   1.0000
     1.0000   1.0000   1.0000   1.0000   1.0000   1.0000   1.0000   1.0000
     1.0000   1.0000   1.0000   1.0000   1.0000   1.0000   1.0000   1.0000
     1.0000   1.0000   1.0000   1.0000   1.0000   1.0000   1.0000   1.0000
     1.0000   1.0000   1.0000   1.0000   1.0000   1.0000   1.0000   1.0000
     0.0000   0.0000   0.0000   0.0000   0.0000   0.0000   0.0000   0.0000
     0.0000   0.0000   0.0000   0.0000   0.0000   0.0000   0.0000   0.0000
     0.0000   0.0000   0.0000   0.0000   0.0000   0.0000   0.0000   0.0000
     0.0000   0.0000   0.0000   0.0000   0.0000   0.0000   0.0000   0.0000
     0.0000   0.0000   0.0000   0.0000   0.0000   0.0000   0.0000   0.0000
     0.0000   0.0000   0.0000   0.0000   0.0000   0.0000   0.0000   0.0000
     0.0000   0.0000   0.0000   0.0000   0.0000   0.0000   0.0000   0.0000
     0.0000   0.0000   0.0000   0.0000   0.0000   0.0000   0.0000   0.0000
     0.0000   0.0000   0.0000   0.0000   0.0000   0.0000   0.0000   0.0000
     0.0000   0.0000   0.0000   0.0000   0.0000   0.0000   0.0000   0.0000
     0.0000   0.0000

          k = 0.0003 0.2888-0.0001 ( 40902 PWs)   bands (ev):

  -114.0912-114.0779-114.0723-114.0621-114.0612-114.0610-114.0537-114.0466
  -114.0394-114.0333-114.0288-114.0199-114.0112-114.0092-114.0059-114.0030
  -113.9994-113.9992-113.9903-113.9844-113.9796-113.9743-113.9602-113.9593
   -68.5027 -68.4921 -68.4820 -68.4788 -68.4755 -68.4729 -68.4672 -68.4645
   -68.4518 -68.4438 -68.4432 -68.4349 -68.4288 -68.4278 -68.4258 -68.4244
   -68.4237 -68.4212 -68.4177 -68.4136 -68.4118 -68.4108 -68.4106 -68.4071
   -68.4065 -68.4001 -68.3976 -68.3969 -68.3966 -68.3963 -68.3963 -68.3936
   -68.3917 -68.3909 -68.3899 -68.3893 -68.3808 -68.3780 -68.3759 -68.3753
   -68.3750 -68.3722 -68.3716 -68.3658 -68.3646 -68.3633 -68.3601 -68.3495
   -68.3477 -68.3475 -68.3450 -68.3436 -68.3407 -68.3401 -68.3391 -68.3363
   -68.3340 -68.3331 -68.3307 -68.3298 -68.3279 -68.3253 -68.3175 -68.3159
   -68.3154 -68.3138 -68.3133 -68.3020 -68.2990 -68.2987 -68.2946 -68.2886
   -63.3995 -63.3701 -63.3694 -63.3666 -63.3643 -63.3612 -63.3006 -63.2974
   -63.2784 -63.2758 -63.2508 -63.2418 -30.4216 -30.4005 -30.3943 -30.3873
   -30.3866 -30.3845 -30.3813 -30.3784 -30.3611 -30.3588 -30.3586 -30.3570
   -30.3559 -30.3533 -30.3505 -30.3498 -30.3489 -30.3480 -30.3167 -30.3132
   -30.2996 -30.2949 -30.2915 -30.2894 -30.2869 -30.2833 -30.2720 -30.2697
   -30.2673 -30.2631 -30.2617 -30.2575 -30.2430 -30.2351 -30.2280 -30.2235
    -9.1708  -8.8463  -8.7376  -8.7191  -8.6577  -8.6442  -8.5268  -8.5040
    -8.4491  -8.4350  -8.3833  -8.3671  -8.3317  -8.3162  -8.2869  -8.2530
    -8.2429  -8.2142  -8.1808  -8.1692  -8.1373  -8.1180  -8.0874  -8.0424
    -8.0224  -7.9986  -7.9872  -7.9652  -7.9209  -7.8982  -7.8746  -7.8490
    -7.8007  -7.7784  -7.7355  -7.5157   2.5935   2.6314   2.6499   2.6587
     2.6866   2.7018   2.7279   2.7491   2.7710   2.7964   2.8095   2.8278
     2.8631   2.8909   2.9383   2.9604   2.9629   2.9875   3.0288   3.0806
     3.0928   3.1159   3.1525   3.1621   3.1769   3.2128   3.2193   3.2416
     3.2645   3.2872   3.3043   3.3220   3.3371   3.3942   3.4085   3.4369
     3.4702   3.4824   3.4931   3.5050   3.5113   3.5308   3.5407   3.5498
     3.5643   3.5842   3.5926   3.6022   3.6110   3.6225   3.6343   3.6412
     3.6579   3.6797   3.6897   3.6941   3.7230   3.7361   3.7522   3.7686
     3.7929   3.7978   3.8059   3.8373   3.8478   3.8687   3.9008   3.9357
     3.9463   3.9561   3.9716   3.9891   4.0051   4.0199   4.0399   4.0482
     4.0756   4.0968   4.1177   4.1361   4.1506   4.1604   4.1961   4.2038
     4.2398   4.2587   4.2727   4.2977   4.3124   4.3388   4.3552   4.3686
     4.3854   4.3982   4.4195   4.4424   4.4631   4.4865   4.4986   4.5274
     4.5419   4.5498   4.5788   4.6028   4.6087   4.6237   4.6418   4.6527
     4.6715   4.6844   4.6965   4.7169   4.7352   4.7409   4.7630   4.7835
     4.7968   4.8175   4.8317   4.8569   4.9025   4.9296   4.9698   4.9822
     5.0808   5.1302   5.1772   5.2775   5.3264   5.3540   5.3771   5.3894
     5.4646   5.4728   5.5111   5.5523   5.5770   5.6117   5.6359   5.6530
     5.6794   5.6959   5.7128   5.7385   5.7772   5.8015   5.8399   5.8986
     5.9111   5.9587   6.0274   6.0610   6.0979   6.1382   6.1531   6.2053
     6.2093   6.2719   6.2930   6.3267   6.3577   6.3718   6.3916   6.4233
     6.4841   6.5389   6.5716   6.6231   6.6378   6.6775   6.7393   6.7681
     6.8479   6.8703   6.9097   6.9869   7.0515   7.0982   7.1108   7.1554
     7.2137   7.2356   7.2914   7.3549   7.4088   7.4449   7.4544   7.4680
     7.4956   7.5486   7.6158   7.6325   7.6526   7.7042   7.7569   7.7827
     7.8120   7.8473   7.8707   7.8945   7.9103   7.9572   7.9758   8.0043
     8.0272   8.0462   8.0803   8.1018   8.1146   8.1453   8.1920   8.2185
     8.2578   8.3267   8.3577   8.3818   8.4918   8.5204   8.5547   8.5847
     8.6051   8.6278   8.6441   8.6794   8.6881   8.7267   8.7665   8.8910
    11.2350  13.1257  13.7167  13.7739  13.8242  13.8972  14.6135  14.6524
    14.7006  14.7937  14.9306  14.9561  15.0113  15.0444  15.1521  15.2495
    15.2732  15.3163  15.3402  15.4372  15.4586  15.7002  16.3843  16.4690
    16.4896  16.5706  16.6077  16.6754  16.7327  16.8597  16.9747  17.0844
    17.1866  17.3804  17.4519  17.5054  17.5780  17.6119  17.6896  17.8709
    17.8992  17.9604  17.9858  18.0298  18.0544  18.1089  18.1617  18.1932
    18.2306  18.2660  18.3007  18.3418  18.4113  18.5041  18.5539  18.5864
    18.6678  18.7101  18.7516  18.8518  18.9164  18.9457  19.2262  19.3335
    19.4040  19.5769  19.7923  19.8407  19.8483  19.8772  19.9912  20.0407
    20.1290  20.2537  20.3220  20.3277  20.3690  20.4108  20.4591  20.5625
    20.5823  20.6726

     occupation numbers 
     1.0000   1.0000   1.0000   1.0000   1.0000   1.0000   1.0000   1.0000
     1.0000   1.0000   1.0000   1.0000   1.0000   1.0000   1.0000   1.0000
     1.0000   1.0000   1.0000   1.0000   1.0000   1.0000   1.0000   1.0000
     1.0000   1.0000   1.0000   1.0000   1.0000   1.0000   1.0000   1.0000
     1.0000   1.0000   1.0000   1.0000   1.0000   1.0000   1.0000   1.0000
     1.0000   1.0000   1.0000   1.0000   1.0000   1.0000   1.0000   1.0000
     1.0000   1.0000   1.0000   1.0000   1.0000   1.0000   1.0000   1.0000
     1.0000   1.0000   1.0000   1.0000   1.0000   1.0000   1.0000   1.0000
     1.0000   1.0000   1.0000   1.0000   1.0000   1.0000   1.0000   1.0000
     1.0000   1.0000   1.0000   1.0000   1.0000   1.0000   1.0000   1.0000
     1.0000   1.0000   1.0000   1.0000   1.0000   1.0000   1.0000   1.0000
     1.0000   1.0000   1.0000   1.0000   1.0000   1.0000   1.0000   1.0000
     1.0000   1.0000   1.0000   1.0000   1.0000   1.0000   1.0000   1.0000
     1.0000   1.0000   1.0000   1.0000   1.0000   1.0000   1.0000   1.0000
     1.0000   1.0000   1.0000   1.0000   1.0000   1.0000   1.0000   1.0000
     1.0000   1.0000   1.0000   1.0000   1.0000   1.0000   1.0000   1.0000
     1.0000   1.0000   1.0000   1.0000   1.0000   1.0000   1.0000   1.0000
     1.0000   1.0000   1.0000   1.0000   1.0000   1.0000   1.0000   1.0000
     1.0000   1.0000   1.0000   1.0000   1.0000   1.0000   1.0000   1.0000
     1.0000   1.0000   1.0000   1.0000   1.0000   1.0000   1.0000   1.0000
     1.0000   1.0000   1.0000   1.0000   1.0000   1.0000   1.0000   1.0000
     1.0000   1.0000   1.0000   1.0000   1.0000   1.0000   1.0000   1.0000
     1.0000   1.0000   1.0000   1.0000   1.0000   1.0000   1.0000   1.0000
     1.0000   1.0000   1.0000   1.0000   1.0000   1.0000   1.0000   1.0000
     1.0000   1.0000   1.0000   1.0000   1.0000   1.0000   1.0000   1.0000
     1.0000   1.0000   1.0000   1.0000   1.0000   1.0000   1.0000   1.0000
     1.0000   1.0000   1.0000   1.0000   1.0000   1.0000   1.0000   1.0000
     1.0000   1.0000   1.0000   1.0000   1.0000   1.0000   1.0000   1.0000
     1.0000   1.0000   1.0000   1.0000   1.0000   1.0000   1.0000   1.0000
     1.0000   1.0000   1.0000   1.0000   1.0000   1.0000   1.0000   1.0000
     1.0000   1.0000   1.0000   1.0000   1.0000   1.0000   1.0000   1.0000
     1.0000   1.0000   1.0000   1.0000   1.0000   1.0000   1.0000   1.0000
     1.0000   1.0000   1.0000   1.0000   1.0000   1.0000   1.0000   1.0000
     1.0000   1.0000   1.0000   1.0000   1.0000   1.0000   1.0000   1.0000
     1.0000   1.0000   1.0000   1.0000   1.0000   1.0000   1.0000   1.0000
     1.0000   1.0000   1.0000   1.0000   1.0000   1.0000   1.0000   1.0000
     1.0000   1.0000   1.0000   1.0000   1.0000   1.0000   1.0000   1.0000
     1.0000   1.0000   1.0000   1.0000   1.0000   1.0000   1.0000   1.0000
     1.0000   1.0000   1.0000   1.0000   1.0000   1.0000   1.0000   1.0000
     1.0000   1.0000   1.0000   1.0000   1.0000   1.0000   1.0000   1.0000
     1.0000   1.0000   1.0000   1.0000   1.0000   1.0000   1.0000   1.0000
     1.0000   1.0000   1.0000   1.0000   1.0000   1.0000   1.0000   1.0000
     1.0000   1.0000   1.0000   1.0000   1.0000   1.0000   1.0000   1.0000
     1.0000   1.0000   1.0000   1.0000   1.0000   1.0000   1.0000   1.0000
     1.0000   1.0000   1.0000   1.0000   1.0000   1.0000   1.0000   1.0000
     1.0000   1.0000   1.0000   1.0000   1.0000   1.0000   1.0000   1.0000
     1.0000   1.0000   1.0000   1.0000   1.0000   1.0000   1.0000   1.0000
     1.0000   1.0000   1.0000   1.0000   1.0000   1.0000   1.0000   1.0000
     1.0000   1.0000   1.0000   1.0000   1.0000   1.0000   1.0000   1.0000
     1.0000   1.0000   1.0000   1.0000   1.0000   1.0000   1.0000   1.0000
     1.0000   1.0000   1.0000   1.0000   1.0000   1.0000   1.0000   1.0000
     0.0000   0.0000   0.0000   0.0000   0.0000   0.0000   0.0000   0.0000
     0.0000   0.0000   0.0000   0.0000   0.0000   0.0000   0.0000   0.0000
     0.0000   0.0000   0.0000   0.0000   0.0000   0.0000   0.0000   0.0000
     0.0000   0.0000   0.0000   0.0000   0.0000   0.0000   0.0000   0.0000
     0.0000   0.0000   0.0000   0.0000   0.0000   0.0000   0.0000   0.0000
     0.0000   0.0000   0.0000   0.0000   0.0000   0.0000   0.0000   0.0000
     0.0000   0.0000   0.0000   0.0000   0.0000   0.0000   0.0000   0.0000
     0.0000   0.0000   0.0000   0.0000   0.0000   0.0000   0.0000   0.0000
     0.0000   0.0000   0.0000   0.0000   0.0000   0.0000   0.0000   0.0000
     0.0000   0.0000   0.0000   0.0000   0.0000   0.0000   0.0000   0.0000
     0.0000   0.0000

          k = 0.0003 0.2888 0.2596 ( 40891 PWs)   bands (ev):

  -114.0912-114.0779-114.0723-114.0621-114.0612-114.0610-114.0537-114.0466
  -114.0394-114.0333-114.0288-114.0199-114.0112-114.0092-114.0059-114.0030
  -113.9994-113.9992-113.9903-113.9844-113.9796-113.9743-113.9602-113.9593
   -68.5027 -68.4921 -68.4820 -68.4788 -68.4755 -68.4729 -68.4672 -68.4645
   -68.4518 -68.4438 -68.4432 -68.4349 -68.4288 -68.4278 -68.4258 -68.4244
   -68.4237 -68.4212 -68.4177 -68.4136 -68.4118 -68.4108 -68.4106 -68.4071
   -68.4065 -68.4001 -68.3976 -68.3969 -68.3966 -68.3963 -68.3963 -68.3936
   -68.3917 -68.3909 -68.3899 -68.3893 -68.3808 -68.3780 -68.3759 -68.3753
   -68.3750 -68.3722 -68.3716 -68.3658 -68.3646 -68.3633 -68.3601 -68.3495
   -68.3477 -68.3475 -68.3450 -68.3436 -68.3407 -68.3401 -68.3391 -68.3363
   -68.3340 -68.3331 -68.3307 -68.3298 -68.3279 -68.3253 -68.3175 -68.3159
   -68.3154 -68.3138 -68.3133 -68.3020 -68.2990 -68.2987 -68.2946 -68.2886
   -63.3995 -63.3701 -63.3694 -63.3666 -63.3643 -63.3612 -63.3006 -63.2974
   -63.2784 -63.2758 -63.2508 -63.2418 -30.4216 -30.4005 -30.3943 -30.3874
   -30.3866 -30.3845 -30.3813 -30.3785 -30.3611 -30.3589 -30.3585 -30.3569
   -30.3559 -30.3532 -30.3506 -30.3498 -30.3489 -30.3480 -30.3167 -30.3132
   -30.2996 -30.2949 -30.2915 -30.2894 -30.2869 -30.2833 -30.2720 -30.2697
   -30.2673 -30.2631 -30.2617 -30.2575 -30.2430 -30.2351 -30.2280 -30.2235
    -9.1363  -8.8749  -8.7698  -8.7084  -8.6911  -8.5906  -8.5255  -8.5041
    -8.4855  -8.4668  -8.4195  -8.3696  -8.3132  -8.3100  -8.2839  -8.2419
    -8.2149  -8.1869  -8.1783  -8.1579  -8.1230  -8.1075  -8.0786  -8.0513
    -8.0098  -8.0028  -7.9929  -7.9757  -7.9269  -7.8999  -7.8620  -7.8453
    -7.8110  -7.7884  -7.7458  -7.5170   2.5922   2.6396   2.6515   2.6730
     2.6889   2.7213   2.7358   2.7552   2.7911   2.8032   2.8376   2.8595
     2.8911   2.9084   2.9550   2.9573   2.9823   2.9943   3.0373   3.0605
     3.0942   3.1290   3.1473   3.1740   3.1839   3.2075   3.2243   3.2315
     3.2758   3.3116   3.3187   3.3352   3.3484   3.3921   3.4052   3.4322
     3.4570   3.4840   3.4966   3.5024   3.5149   3.5338   3.5396   3.5577
     3.5705   3.5793   3.5805   3.5927   3.6065   3.6113   3.6257   3.6382
     3.6530   3.6588   3.6891   3.6975   3.7127   3.7213   3.7291   3.7476
     3.7542   3.7820   3.8035   3.8118   3.8379   3.8445   3.8638   3.8711
     3.9329   3.9521   3.9694   3.9819   3.9882   4.0069   4.0255   4.0508
     4.0645   4.0753   4.1060   4.1310   4.1519   4.1807   4.1872   4.2062
     4.2290   4.2569   4.2696   4.2848   4.2892   4.3205   4.3466   4.3610
     4.3797   4.4091   4.4295   4.4502   4.4575   4.4793   4.5067   4.5258
     4.5437   4.5581   4.5693   4.5743   4.6018   4.6120   4.6296   4.6435
     4.6596   4.6746   4.6869   4.7099   4.7283   4.7488   4.7622   4.7933
     4.8108   4.8228   4.8554   4.8691   4.9339   4.9468   4.9604   5.0299
     5.0869   5.1140   5.1920   5.2561   5.2805   5.3225   5.3420   5.3734
     5.4181   5.4271   5.4823   5.4995   5.5247   5.5398   5.5853   5.6076
     5.6451   5.6740   5.7138   5.7798   5.7946   5.8278   5.8821   5.9401
     5.9701   6.0078   6.0127   6.0438   6.0820   6.1330   6.2000   6.2165
     6.2531   6.2848   6.3554   6.3961   6.4248   6.4518   6.4785   6.5036
     6.5670   6.5840   6.6242   6.6396   6.6948   6.7010   6.7820   6.7905
     6.9068   6.9320   6.9856   7.0270   7.0545   7.0908   7.1444   7.1740
     7.2112   7.2505   7.3059   7.3113   7.3417   7.3986   7.4823   7.5306
     7.5444   7.5725   7.6081   7.6309   7.6529   7.6596   7.7121   7.7378
     7.7569   7.7719   7.8384   7.8788   7.9102   7.9371   7.9559   7.9692
     7.9969   8.0203   8.0523   8.0943   8.1228   8.1811   8.2261   8.2557
     8.2641   8.3180   8.3517   8.3899   8.4147   8.4707   8.4935   8.5240
     8.5774   8.5900   8.6435   8.6765   8.6913   8.7181   8.7622   8.8824
    11.4875  12.9416  13.2502  13.8019  13.8788  14.0204  14.3202  14.4297
    14.5292  14.6679  14.8036  14.8772  15.0060  15.0672  15.1694  15.4384
    15.5239  15.6765  15.6906  15.7810  15.8443  15.9353  16.3198  16.3915
    16.4549  16.5234  16.6525  16.7396  16.7899  16.8372  16.8787  16.9388
    17.0347  17.1353  17.2505  17.3021  17.6342  17.7268  17.7660  17.8015
    17.8834  17.9182  17.9365  17.9813  18.0056  18.0591  18.1151  18.1557
    18.1867  18.2566  18.2809  18.3068  18.3729  18.4350  18.4913  18.5709
    18.6364  18.7198  18.7783  18.8551  18.9879  19.0430  19.1289  19.3343
    19.4404  19.5415  19.6393  19.7757  19.8231  19.8521  19.9886  20.0613
    20.1411  20.2049  20.2701  20.3390  20.4110  20.4515  20.4981  20.5288
    20.6588  20.7019

     occupation numbers 
     1.0000   1.0000   1.0000   1.0000   1.0000   1.0000   1.0000   1.0000
     1.0000   1.0000   1.0000   1.0000   1.0000   1.0000   1.0000   1.0000
     1.0000   1.0000   1.0000   1.0000   1.0000   1.0000   1.0000   1.0000
     1.0000   1.0000   1.0000   1.0000   1.0000   1.0000   1.0000   1.0000
     1.0000   1.0000   1.0000   1.0000   1.0000   1.0000   1.0000   1.0000
     1.0000   1.0000   1.0000   1.0000   1.0000   1.0000   1.0000   1.0000
     1.0000   1.0000   1.0000   1.0000   1.0000   1.0000   1.0000   1.0000
     1.0000   1.0000   1.0000   1.0000   1.0000   1.0000   1.0000   1.0000
     1.0000   1.0000   1.0000   1.0000   1.0000   1.0000   1.0000   1.0000
     1.0000   1.0000   1.0000   1.0000   1.0000   1.0000   1.0000   1.0000
     1.0000   1.0000   1.0000   1.0000   1.0000   1.0000   1.0000   1.0000
     1.0000   1.0000   1.0000   1.0000   1.0000   1.0000   1.0000   1.0000
     1.0000   1.0000   1.0000   1.0000   1.0000   1.0000   1.0000   1.0000
     1.0000   1.0000   1.0000   1.0000   1.0000   1.0000   1.0000   1.0000
     1.0000   1.0000   1.0000   1.0000   1.0000   1.0000   1.0000   1.0000
     1.0000   1.0000   1.0000   1.0000   1.0000   1.0000   1.0000   1.0000
     1.0000   1.0000   1.0000   1.0000   1.0000   1.0000   1.0000   1.0000
     1.0000   1.0000   1.0000   1.0000   1.0000   1.0000   1.0000   1.0000
     1.0000   1.0000   1.0000   1.0000   1.0000   1.0000   1.0000   1.0000
     1.0000   1.0000   1.0000   1.0000   1.0000   1.0000   1.0000   1.0000
     1.0000   1.0000   1.0000   1.0000   1.0000   1.0000   1.0000   1.0000
     1.0000   1.0000   1.0000   1.0000   1.0000   1.0000   1.0000   1.0000
     1.0000   1.0000   1.0000   1.0000   1.0000   1.0000   1.0000   1.0000
     1.0000   1.0000   1.0000   1.0000   1.0000   1.0000   1.0000   1.0000
     1.0000   1.0000   1.0000   1.0000   1.0000   1.0000   1.0000   1.0000
     1.0000   1.0000   1.0000   1.0000   1.0000   1.0000   1.0000   1.0000
     1.0000   1.0000   1.0000   1.0000   1.0000   1.0000   1.0000   1.0000
     1.0000   1.0000   1.0000   1.0000   1.0000   1.0000   1.0000   1.0000
     1.0000   1.0000   1.0000   1.0000   1.0000   1.0000   1.0000   1.0000
     1.0000   1.0000   1.0000   1.0000   1.0000   1.0000   1.0000   1.0000
     1.0000   1.0000   1.0000   1.0000   1.0000   1.0000   1.0000   1.0000
     1.0000   1.0000   1.0000   1.0000   1.0000   1.0000   1.0000   1.0000
     1.0000   1.0000   1.0000   1.0000   1.0000   1.0000   1.0000   1.0000
     1.0000   1.0000   1.0000   1.0000   1.0000   1.0000   1.0000   1.0000
     1.0000   1.0000   1.0000   1.0000   1.0000   1.0000   1.0000   1.0000
     1.0000   1.0000   1.0000   1.0000   1.0000   1.0000   1.0000   1.0000
     1.0000   1.0000   1.0000   1.0000   1.0000   1.0000   1.0000   1.0000
     1.0000   1.0000   1.0000   1.0000   1.0000   1.0000   1.0000   1.0000
     1.0000   1.0000   1.0000   1.0000   1.0000   1.0000   1.0000   1.0000
     1.0000   1.0000   1.0000   1.0000   1.0000   1.0000   1.0000   1.0000
     1.0000   1.0000   1.0000   1.0000   1.0000   1.0000   1.0000   1.0000
     1.0000   1.0000   1.0000   1.0000   1.0000   1.0000   1.0000   1.0000
     1.0000   1.0000   1.0000   1.0000   1.0000   1.0000   1.0000   1.0000
     1.0000   1.0000   1.0000   1.0000   1.0000   1.0000   1.0000   1.0000
     1.0000   1.0000   1.0000   1.0000   1.0000   1.0000   1.0000   1.0000
     1.0000   1.0000   1.0000   1.0000   1.0000   1.0000   1.0000   1.0000
     1.0000   1.0000   1.0000   1.0000   1.0000   1.0000   1.0000   1.0000
     1.0000   1.0000   1.0000   1.0000   1.0000   1.0000   1.0000   1.0000
     1.0000   1.0000   1.0000   1.0000   1.0000   1.0000   1.0000   1.0000
     1.0000   1.0000   1.0000   1.0000   1.0000   1.0000   1.0000   1.0000
     1.0000   1.0000   1.0000   1.0000   1.0000   1.0000   1.0000   1.0000
     0.0000   0.0000   0.0000   0.0000   0.0000   0.0000   0.0000   0.0000
     0.0000   0.0000   0.0000   0.0000   0.0000   0.0000   0.0000   0.0000
     0.0000   0.0000   0.0000   0.0000   0.0000   0.0000   0.0000   0.0000
     0.0000   0.0000   0.0000   0.0000   0.0000   0.0000   0.0000   0.0000
     0.0000   0.0000   0.0000   0.0000   0.0000   0.0000   0.0000   0.0000
     0.0000   0.0000   0.0000   0.0000   0.0000   0.0000   0.0000   0.0000
     0.0000   0.0000   0.0000   0.0000   0.0000   0.0000   0.0000   0.0000
     0.0000   0.0000   0.0000   0.0000   0.0000   0.0000   0.0000   0.0000
     0.0000   0.0000   0.0000   0.0000   0.0000   0.0000   0.0000   0.0000
     0.0000   0.0000   0.0000   0.0000   0.0000   0.0000   0.0000   0.0000
     0.0000   0.0000

          k = 0.0003 0.2889-0.5194 ( 40881 PWs)   bands (ev):

  -114.0912-114.0779-114.0723-114.0621-114.0612-114.0610-114.0537-114.0466
  -114.0394-114.0333-114.0288-114.0199-114.0112-114.0092-114.0059-114.0030
  -113.9994-113.9992-113.9903-113.9844-113.9796-113.9743-113.9602-113.9593
   -68.5027 -68.4921 -68.4820 -68.4788 -68.4755 -68.4729 -68.4672 -68.4645
   -68.4518 -68.4438 -68.4432 -68.4349 -68.4288 -68.4278 -68.4258 -68.4244
   -68.4237 -68.4212 -68.4177 -68.4136 -68.4118 -68.4108 -68.4106 -68.4071
   -68.4065 -68.4001 -68.3976 -68.3969 -68.3966 -68.3963 -68.3963 -68.3936
   -68.3917 -68.3909 -68.3899 -68.3893 -68.3808 -68.3780 -68.3759 -68.3753
   -68.3750 -68.3722 -68.3716 -68.3658 -68.3646 -68.3633 -68.3601 -68.3495
   -68.3477 -68.3475 -68.3450 -68.3436 -68.3407 -68.3401 -68.3391 -68.3363
   -68.3340 -68.3331 -68.3307 -68.3298 -68.3279 -68.3253 -68.3175 -68.3159
   -68.3154 -68.3138 -68.3133 -68.3020 -68.2990 -68.2987 -68.2946 -68.2886
   -63.3995 -63.3701 -63.3694 -63.3666 -63.3643 -63.3612 -63.3006 -63.2974
   -63.2784 -63.2758 -63.2508 -63.2418 -30.4216 -30.4004 -30.3943 -30.3874
   -30.3865 -30.3845 -30.3813 -30.3785 -30.3611 -30.3590 -30.3585 -30.3568
   -30.3559 -30.3531 -30.3506 -30.3498 -30.3489 -30.3480 -30.3167 -30.3132
   -30.2996 -30.2949 -30.2915 -30.2894 -30.2869 -30.2833 -30.2720 -30.2697
   -30.2673 -30.2631 -30.2617 -30.2575 -30.2430 -30.2351 -30.2280 -30.2235
    -9.0751  -8.9615  -8.7523  -8.6833  -8.6686  -8.6352  -8.5750  -8.5365
    -8.4797  -8.4265  -8.3988  -8.3704  -8.3479  -8.3144  -8.2959  -8.2666
    -8.1946  -8.1643  -8.1429  -8.1231  -8.1022  -8.0900  -8.0752  -8.0486
    -8.0268  -8.0055  -7.9960  -7.9862  -7.9401  -7.8910  -7.8616  -7.8387
    -7.8134  -7.8016  -7.7591  -7.5183   2.5940   2.6435   2.6591   2.6810
     2.7152   2.7325   2.7427   2.7622   2.7966   2.8021   2.8782   2.8952
     2.9197   2.9394   2.9508   2.9802   2.9831   3.0058   3.0367   3.0712
     3.0912   3.1221   3.1262   3.1723   3.1798   3.2071   3.2534   3.2640
     3.2942   3.3148   3.3235   3.3384   3.3708   3.3907   3.4085   3.4438
     3.4562   3.4721   3.4847   3.4998   3.5119   3.5228   3.5288   3.5434
     3.5531   3.5579   3.5818   3.5914   3.5982   3.6102   3.6167   3.6284
     3.6356   3.6560   3.6660   3.6735   3.7001   3.7140   3.7241   3.7441
     3.7619   3.7889   3.8072   3.8136   3.8270   3.8490   3.8612   3.8672
     3.8829   3.8994   3.9397   3.9574   3.9684   3.9840   4.0079   4.0187
     4.0452   4.0707   4.0831   4.1170   4.1362   4.1726   4.1846   4.2171
     4.2287   4.2516   4.2670   4.2766   4.2935   4.3141   4.3322   4.3710
     4.3811   4.4001   4.4205   4.4405   4.4682   4.4755   4.4912   4.5208
     4.5402   4.5570   4.5749   4.5861   4.6005   4.6094   4.6320   4.6458
     4.6592   4.6664   4.6777   4.7129   4.7218   4.7422   4.7748   4.7823
     4.8047   4.8173   4.8570   4.8760   4.9087   4.9734   4.9962   5.0404
     5.0722   5.1304   5.1795   5.2389   5.2691   5.3128   5.3245   5.3541
     5.3899   5.4009   5.4684   5.4800   5.5048   5.5167   5.5616   5.5978
     5.6167   5.6727   5.7152   5.7655   5.7963   5.8157   5.8652   5.9226
     5.9291   6.0029   6.0302   6.0814   6.1089   6.1447   6.1974   6.2553
     6.2909   6.3374   6.3661   6.4015   6.4629   6.4945   6.5226   6.5668
     6.6122   6.6727   6.7094   6.7366   6.7832   6.8400   6.8558   6.9290
     6.9502   6.9725   6.9882   7.0647   7.1106   7.1348   7.1785   7.2034
     7.2221   7.2830   7.3072   7.3152   7.3275   7.3739   7.4309   7.4584
     7.4849   7.5100   7.5402   7.5742   7.5916   7.6249   7.6687   7.6895
     7.7162   7.7601   7.7957   7.8020   7.8775   7.9075   7.9716   7.9905
     8.0197   8.0617   8.0831   8.1531   8.1744   8.2379   8.2629   8.2831
     8.2938   8.3236   8.3389   8.3665   8.3862   8.4203   8.4467   8.4812
     8.4998   8.5326   8.5489   8.5572   8.6993   8.7220   8.8063   8.8739
    12.0693  12.1983  13.4569  13.5623  13.9369  14.0250  14.0444  14.1344
    14.6349  14.6603  14.7750  14.8177  14.9080  15.0788  15.1612  15.4149
    15.9767  16.0768  16.1403  16.2005  16.2644  16.2979  16.3720  16.3978
    16.4104  16.4695  16.4894  16.5362  16.5574  16.6163  16.6609  16.6925
    17.0160  17.0421  17.0877  17.1103  17.6722  17.7004  17.7530  17.7916
    17.8704  17.9333  17.9802  18.0055  18.0290  18.0444  18.0707  18.0926
    18.0987  18.1379  18.2152  18.2511  18.2762  18.3748  18.4451  18.5598
    18.6016  18.6343  18.8265  19.0187  19.0850  19.1571  19.2104  19.2870
    19.3616  19.5507  19.6265  19.7272  19.8025  19.8453  19.9505  19.9788
    20.0310  20.1333  20.2278  20.3218  20.3737  20.4282  20.5139  20.5779
    20.7038  20.7373

     occupation numbers 
     1.0000   1.0000   1.0000   1.0000   1.0000   1.0000   1.0000   1.0000
     1.0000   1.0000   1.0000   1.0000   1.0000   1.0000   1.0000   1.0000
     1.0000   1.0000   1.0000   1.0000   1.0000   1.0000   1.0000   1.0000
     1.0000   1.0000   1.0000   1.0000   1.0000   1.0000   1.0000   1.0000
[...]
     atom   27 type  3   force =     0.00000000    0.00000000    0.00000000
     atom   28 type  3   force =     0.00000000    0.00000000    0.00000000
     atom   29 type  3   force =     0.00000000    0.00000000    0.00000000
     atom   30 type  1   force =     0.00000000    0.00000000    0.00000000
     atom   31 type  1   force =     0.00000000    0.00000000    0.00000000
     atom   32 type  1   force =     0.00000000    0.00000000    0.00000000
     atom   33 type  1   force =     0.00000000    0.00000000    0.00000000
     atom   34 type  1   force =     0.00000000    0.00000000    0.00000000
     atom   35 type  1   force =     0.00000000    0.00000000    0.00000000
     atom   36 type  1   force =     0.00000000    0.00000000    0.00000000
     atom   37 type  2   force =     0.00000000    0.00000000    0.00000000
     atom   38 type  2   force =     0.00000000    0.00000000    0.00000000
     atom   39 type  2   force =     0.00000000    0.00000000    0.00000000
     atom   40 type  2   force =     0.00000000    0.00000000    0.00000000
     atom   41 type  2   force =     0.00000000    0.00000000    0.00000000
     atom   42 type  2   force =     0.00000000    0.00000000    0.00000000
     atom   43 type  2   force =     0.00000000    0.00000000    0.00000000
     atom   44 type  2   force =     0.00000000    0.00000000    0.00000000
     atom   45 type  2   force =     0.00000000    0.00000000    0.00000000
     atom   46 type  2   force =     0.00000000    0.00000000    0.00000000
     atom   47 type  2   force =     0.00000000    0.00000000    0.00000000
     atom   48 type  2   force =     0.00000000    0.00000000    0.00000000
     atom   49 type  2   force =     0.00000000    0.00000000    0.00000000
     atom   50 type  2   force =     0.00000000    0.00000000    0.00000000
     atom   51 type  2   force =     0.00000000    0.00000000    0.00000000
     atom   52 type  2   force =     0.00000000    0.00000000    0.00000000
     atom   53 type  2   force =     0.00000000    0.00000000    0.00000000
     atom   54 type  2   force =     0.00000000    0.00000000    0.00000000
     atom   55 type  2   force =     0.00000000    0.00000000    0.00000000
     atom   56 type  2   force =     0.00000000    0.00000000    0.00000000
     atom   57 type  2   force =     0.00000000    0.00000000    0.00000000
     atom   58 type  2   force =     0.00000000    0.00000000    0.00000000
     atom   59 type  2   force =     0.00000000    0.00000000    0.00000000
     atom   60 type  2   force =     0.00000000    0.00000000    0.00000000
     atom   61 type  2   force =     0.00000000    0.00000000    0.00000000
     atom   62 type  2   force =     0.00000000    0.00000000    0.00000000
     atom   63 type  2   force =     0.00000000    0.00000000    0.00000000
     atom   64 type  2   force =     0.00000000    0.00000000    0.00000000
     atom   65 type  2   force =     0.00000000    0.00000000    0.00000000
     atom   66 type  2   force =     0.00000000    0.00000000    0.00000000
     atom   67 type  2   force =     0.00000000    0.00000000    0.00000000
     atom   68 type  2   force =     0.00000000    0.00000000    0.00000000
     atom   69 type  2   force =     0.00000000    0.00000000    0.00000000
     atom   70 type  2   force =     0.00000000    0.00000000    0.00000000
     atom   71 type  2   force =     0.00000000    0.00000000    0.00000000
     atom   72 type  2   force =     0.00000000    0.00000000    0.00000000
     The SCF correction term to forces
     atom    1 type  1   force =    -0.00000164   -0.00002248    0.00000000
     atom    2 type  1   force =    -0.00000548    0.00000331    0.00000000
     atom    3 type  1   force =    -0.00000894    0.00001475    0.00000000
     atom    4 type  1   force =     0.00000478    0.00000529    0.00000000
     atom    5 type  1   force =    -0.00000528   -0.00000142    0.00000000
     atom    6 type  1   force =     0.00001363    0.00000203    0.00000000
     atom    7 type  1   force =     0.00000240   -0.00001778    0.00000000
     atom    8 type  1   force =     0.00000742   -0.00001391    0.00000000
     atom    9 type  1   force =     0.00001284    0.00001916    0.00000000
     atom   10 type  3   force =    -0.00000396    0.00000669    0.00000000
     atom   11 type  3   force =     0.00000509    0.00000659    0.00000000
     atom   12 type  1   force =     0.00000731    0.00000628    0.00000000
     atom   13 type  1   force =    -0.00000114   -0.00002759    0.00000000
     atom   14 type  3   force =    -0.00000173   -0.00001031    0.00000000
     atom   15 type  1   force =    -0.00000374    0.00002193    0.00000000
     atom   16 type  3   force =     0.00000197    0.00000081    0.00000000
     atom   17 type  3   force =    -0.00000215   -0.00000039    0.00000000
     atom   18 type  3   force =    -0.00000872    0.00000480    0.00000000
     atom   19 type  1   force =    -0.00000300   -0.00001454    0.00000000
     atom   20 type  1   force =    -0.00000155   -0.00001710    0.00000000
     atom   21 type  1   force =     0.00000599    0.00000298    0.00000000
     atom   22 type  3   force =     0.00000030   -0.00000073    0.00000000
     atom   23 type  3   force =    -0.00000439    0.00000368    0.00000000
     atom   24 type  3   force =    -0.00000104    0.00000759    0.00000000
     atom   25 type  1   force =     0.00000282   -0.00001684    0.00000000
     atom   26 type  1   force =     0.00001804   -0.00002171    0.00000000
     atom   27 type  3   force =    -0.00000181    0.00000599    0.00000000
     atom   28 type  3   force =     0.00000084    0.00000386    0.00000000
     atom   29 type  3   force =     0.00000397    0.00000703    0.00000000
     atom   30 type  1   force =     0.00000941    0.00003465    0.00000000
     atom   31 type  1   force =     0.00000115   -0.00002418    0.00000000
     atom   32 type  1   force =    -0.00001505   -0.00002892    0.00000000
     atom   33 type  1   force =    -0.00000480    0.00001468    0.00000000
     atom   34 type  1   force =    -0.00000374   -0.00000196    0.00000000
     atom   35 type  1   force =     0.00000122    0.00000815    0.00000000
     atom   36 type  1   force =    -0.00000817    0.00001398    0.00000000
     atom   37 type  2   force =    -0.00000096   -0.00000442    0.00000000
     atom   38 type  2   force =    -0.00000362   -0.00000653    0.00000000
     atom   39 type  2   force =    -0.00000100    0.00000371    0.00000000
     atom   40 type  2   force =     0.00000210    0.00000254    0.00000000
     atom   41 type  2   force =     0.00000061    0.00000119    0.00000000
     atom   42 type  2   force =     0.00000091    0.00000432    0.00000000
     atom   43 type  2   force =     0.00000408   -0.00000431    0.00000000
     atom   44 type  2   force =     0.00000355   -0.00000795    0.00000000
     atom   45 type  2   force =    -0.00000020    0.00000342    0.00000000
     atom   46 type  2   force =    -0.00000263    0.00000645    0.00000000
     atom   47 type  2   force =     0.00000347    0.00000486    0.00000000
     atom   48 type  2   force =     0.00000072    0.00000259    0.00000000
     atom   49 type  2   force =    -0.00000349   -0.00000741    0.00000000
     atom   50 type  2   force =    -0.00000009   -0.00000660    0.00000000
     atom   51 type  2   force =     0.00000126   -0.00000055    0.00000000
     atom   52 type  2   force =     0.00000077    0.00000127    0.00000000
     atom   53 type  2   force =    -0.00000363    0.00000465    0.00000000
     atom   54 type  2   force =    -0.00000176    0.00000466    0.00000000
     atom   55 type  2   force =    -0.00000105   -0.00000042    0.00000000
     atom   56 type  2   force =    -0.00000373   -0.00000090    0.00000000
     atom   57 type  2   force =     0.00000213    0.00000297    0.00000000
     atom   58 type  2   force =     0.00000155    0.00000124    0.00000000
     atom   59 type  2   force =    -0.00000187   -0.00000304    0.00000000
     atom   60 type  2   force =    -0.00000160   -0.00000301    0.00000000
     atom   61 type  2   force =     0.00000082   -0.00000373    0.00000000
     atom   62 type  2   force =    -0.00000179    0.00000220    0.00000000
     atom   63 type  2   force =    -0.00000287    0.00000579    0.00000000
     atom   64 type  2   force =    -0.00000041    0.00000168    0.00000000
     atom   65 type  2   force =     0.00000202   -0.00000165    0.00000000
     atom   66 type  2   force =     0.00000053   -0.00000411    0.00000000
     atom   67 type  2   force =     0.00000028   -0.00000370    0.00000000
     atom   68 type  2   force =     0.00000592   -0.00000229    0.00000000
     atom   69 type  2   force =     0.00000070    0.00000701    0.00000000
     atom   70 type  2   force =    -0.00000168    0.00000266    0.00000000
     atom   71 type  2   force =     0.00000025   -0.00000244    0.00000000
     atom   72 type  2   force =    -0.00000065    0.00000184    0.00000000

     Total force =     0.000071     Total SCF correction =     0.000100
     SCF correction compared to forces is large: reduce conv_thr to get better values


     Computing stress (Cartesian axis) and pressure

          total   stress  (Ry/bohr**3)                   (kbar)     P=  143.59
   0.00146221  -0.00000224  -0.00000015        215.10     -0.33     -0.02
  -0.00000224   0.00145669   0.00000017         -0.33    214.29      0.02
  -0.00000015   0.00000017   0.00000935         -0.02      0.02      1.38

     kinetic stress (kbar)  31905.53      0.25     -0.10
                                0.25  31909.83     -0.05
                               -0.10     -0.05  32269.98

     local   stress (kbar) -15339.31    916.60   -436.52
                              916.60  -7656.91  -1323.62
                             -436.52  -1323.62  -1508.08

     nonloc. stress (kbar)    800.90     -0.75     -0.00
                               -0.75    798.31      0.12
                               -0.00      0.12    536.95

     hartree stress (kbar)  57804.65   -432.42    213.82
                             -432.42  54051.62    645.11
                              213.82    645.11  53632.55

     exc-cor stress (kbar) -12903.46     -0.06     -0.00
                               -0.06 -12903.51      0.00
                               -0.00      0.00 -12915.73

     corecor stress (kbar)   -274.96      0.00      0.00
                                0.00   -274.97      0.00
                                0.00      0.00   -275.33

     ewald   stress (kbar) -61778.26   -483.95    222.78
                             -483.95 -65710.09    678.45
                              222.78    678.45 -71738.96

     hubbard stress (kbar)      0.00      0.00      0.00
                                0.00      0.00      0.00
                                0.00      0.00      0.00

     london  stress (kbar)      0.00      0.00      0.00
                                0.00      0.00      0.00
                                0.00      0.00      0.00

     DFT-D3  stress (kbar)      0.00      0.00      0.00
                                0.00      0.00      0.00
                                0.00      0.00      0.00

     XDM     stress (kbar)      0.00      0.00      0.00
                                0.00      0.00      0.00
                                0.00      0.00      0.00

     dft-nl  stress (kbar)      0.00      0.00      0.00
                                0.00      0.00      0.00
                                0.00      0.00      0.00

     TS-vdW  stress (kbar)      0.00      0.00      0.00
                                0.00      0.00      0.00
                                0.00      0.00      0.00


     Message from routine bfgs:
     history already reset at previous step: stopping

     bfgs converged in   4 scf cycles and   1 bfgs steps
     (criteria: energy <  1.0E-07 Ry, force <  1.0E-06 Ry/Bohr)

     End of BFGS Geometry Optimization

     Final energy   =  -13735.4635251569 Ry
Begin final coordinates

ATOMIC_POSITIONS (crystal)
Zn       0.223327909   0.114135861   0.253763954    1   1   0
Zn       0.222927723   0.113762598   0.752602628    1   1   0
Zn       0.221494381   0.445128012   0.250666716    1   1   0
Zn       0.221031934   0.445159815   0.755800850    1   1   0
Zn       0.223067376   0.781933485   0.252916266    1   1   0
Zn       0.222098667   0.780709421   0.752225651    1   1   0
Zn       0.557313618   0.111814484   0.253490276    1   1   0
Zn       0.557994829   0.111063682   0.754081253    1   1   0
Zn       0.556090462   0.442927796   0.252363515    1   1   0
Mg       0.556684964   0.441738173   0.752824078    1   1   0
Mg       0.555003112   0.777647033   0.256213491    1   1   0
Zn       0.554593561   0.775604538   0.751001508    1   1   0
Zn       0.887578462   0.108071573   0.252871067    1   1   0
Mg       0.887140341   0.108572538   0.753053536    1   1   0
Zn       0.888976718   0.443953698   0.252315641    1   1   0
Mg       0.888822957   0.444421430   0.751235986    1   1   0
Mg       0.886879807   0.776421581   0.251483258    1   1   0
Mg       0.885642723   0.775259712   0.752108136    1   1   0
Zn       0.111172819   0.224231656   0.502507956    1   1   0
Zn       0.112018673   0.224630175   0.002868198    1   1   0
Zn       0.114189675   0.559945423   0.502462743    1   1   0
Mg       0.113249604   0.558666996   0.002026996    1   1   0
Mg       0.111577769   0.891465442   0.502264351    1   1   0
Mg       0.113383710   0.892777097   0.003807093    1   1   0
Zn       0.445334823   0.220985466   0.503769291    1   1   0
Zn       0.445197235   0.220860155   0.001153129    1   1   0
Mg       0.442500604   0.552519018   0.504965682    1   1   0
Mg       0.443634119   0.552883249   0.003909319    1   1   0
Mg       0.444640836   0.889515709   0.500216030    1   1   0
Zn       0.443889463   0.887615800   0.001542020    1   1   0
Zn       0.778970140   0.222643729   0.505095456    1   1   0
Zn       0.779049704   0.222759887   0.001905411    1   1   0
Zn       0.777164785   0.554144022   0.504149588    1   1   0
Zn       0.778043293   0.554029764   0.002010356    1   1   0
Zn       0.774330018   0.885768292   0.502596009    1   1   0
Zn       0.775170261   0.886474181   0.003535615    1   1   0
O        0.223072321   0.113989185   0.003534969    1   1   0
O        0.222715437   0.113418479   0.502507863    1   1   0
O        0.222235272   0.446236673   0.002868124    1   1   0
O        0.221043342   0.445824176   0.502463443    1   1   0
O        0.222344337   0.780733273   0.002027189    1   1   0
O        0.222437492   0.781195090   0.502264251    1   1   0
O        0.556528115   0.109987056   0.003807482    1   1   0
O        0.557145110   0.111399991   0.503768810    1   1   0
O        0.555851212   0.443658400   0.001153241    1   1   0
O        0.554953369   0.443578377   0.504965816    1   1   0
O        0.553013937   0.774999562   0.003909030    1   1   0
O        0.552027954   0.774627817   0.500216207    1   1   0
O        0.888700525   0.109468897   0.001542289    1   1   0
O        0.887912904   0.108797264   0.505095719    1   1   0
O        0.890778502   0.444926557   0.001905534    1   1   0
O        0.891122467   0.445399631   0.504149517    1   1   0
O        0.890085083   0.777873951   0.002010078    1   1   0
O        0.889014818   0.777571917   0.502595366    1   1   0
O        0.109979985   0.222932785   0.253764373    1   1   0
O        0.109960193   0.222709086   0.752603144    1   1   0
O        0.112152048   0.558550602   0.250666536    1   1   0
O        0.111629807   0.557909327   0.755800021    1   1   0
O        0.109271040   0.890578779   0.252915962    1   1   0
O        0.108750734   0.890150718   0.752226188    1   1   0
O        0.445143072   0.221386159   0.253490958    1   1   0
O        0.444638087   0.219678936   0.754081350    1   1   0
O        0.444945003   0.554576517   0.252363823    1   1   0
O        0.444464107   0.552537080   0.752824321    1   1   0
O        0.445063575   0.889256386   0.256212856    1   1   0
O        0.444749345   0.887941267   0.751001360    1   1   0
O        0.779764822   0.222225011   0.252870412    1   1   0
O        0.779802805   0.222707351   0.753053243    1   1   0
O        0.778045091   0.554720557   0.252316001    1   1   0
O        0.777981260   0.554487908   0.751236008    1   1   0
O        0.776436783   0.886895627   0.251483253    1   1   0
O        0.776052969   0.886828118   0.752108180    1   1   0
End final coordinates



     Writing output data file ZnO.save/
 
     init_run     :     12.32s CPU     12.91s WALL (       1 calls)
     electrons    :    962.87s CPU    986.97s WALL (       4 calls)
     update_pot   :      4.98s CPU      5.09s WALL (       3 calls)
     forces       :     33.28s CPU     34.24s WALL (       4 calls)
     stress       :    495.68s CPU    501.42s WALL (       4 calls)

     Called by init_run:
     wfcinit      :     10.33s CPU     10.73s WALL (       1 calls)
     wfcinit:atom :      0.06s CPU      0.09s WALL (       5 calls)
     wfcinit:wfcr :      9.90s CPU     10.22s WALL (       5 calls)
     potinit      :      0.96s CPU      0.99s WALL (       1 calls)
     hinit0       :      0.68s CPU      0.78s WALL (       1 calls)

     Called by electrons:
     c_bands      :    886.58s CPU    908.18s WALL (      21 calls)
     sum_band     :     67.62s CPU     69.19s WALL (      21 calls)
     v_of_rho     :      7.93s CPU      8.39s WALL (      22 calls)
     v_h          :      0.18s CPU      0.24s WALL (      22 calls)
     v_xc         :     10.51s CPU     11.03s WALL (      30 calls)
     newd         :      1.55s CPU      1.65s WALL (      22 calls)
     mix_rho      :      0.30s CPU      0.40s WALL (      21 calls)

     Called by c_bands:
     init_us_2    :      6.93s CPU      7.04s WALL (     255 calls)
     cegterg      :    842.02s CPU    862.96s WALL (     105 calls)

     Called by sum_band:
     sum_band:bec :      0.40s CPU      0.40s WALL (     105 calls)
     addusdens    :      1.62s CPU      1.71s WALL (      21 calls)

     Called by *egterg:
     h_psi        :    286.95s CPU    292.42s WALL (     392 calls)
     s_psi        :     73.28s CPU     73.58s WALL (     392 calls)
     g_psi        :      1.07s CPU      1.08s WALL (     282 calls)
     cdiaghg      :    301.92s CPU    310.79s WALL (     357 calls)
     cegterg:over :     79.79s CPU     82.22s WALL (     282 calls)
     cegterg:upda :     51.45s CPU     52.26s WALL (     282 calls)
     cegterg:last :     31.06s CPU     31.30s WALL (     105 calls)
     cdiaghg:chol :     14.08s CPU     14.21s WALL (     357 calls)
     cdiaghg:inve :      4.45s CPU      4.47s WALL (     357 calls)
     cdiaghg:para :     71.19s CPU     77.75s WALL (     714 calls)

     Called by h_psi:
     h_psi:pot    :    284.61s CPU    288.64s WALL (     392 calls)
     h_psi:calbec :     74.32s CPU     76.67s WALL (     392 calls)
     vloc_psi     :    135.76s CPU    136.93s WALL (     392 calls)
     add_vuspsi   :     74.52s CPU     75.04s WALL (     392 calls)

     General routines
     calbec       :    132.75s CPU    136.97s WALL (     597 calls)
     fft          :      2.27s CPU      3.20s WALL (     384 calls)
     ffts         :      0.08s CPU      0.09s WALL (      43 calls)
     fftw         :    156.17s CPU    157.54s WALL (  299282 calls)
     interpolate  :      0.18s CPU      0.23s WALL (      22 calls)
 
     Parallel routines
     fft_scatt_xy :     25.36s CPU     25.59s WALL (  299709 calls)
     fft_scatt_yz :     44.06s CPU     45.36s WALL (  299709 calls)
 
     PWSCF        :  25m11.89s CPU  25m46.46s WALL

 
   This run was terminated on:  19:59:23   8Nov2021            

=------------------------------------------------------------------------------=
   JOB DONE.
=------------------------------------------------------------------------------=
