
     Program PWSCF v.6.4.1 starts on  8Nov2021 at 19:34:59 

     This program is part of the open-source Quantum ESPRESSO suite
     for quantum simulation of materials; please cite
         "P. Giannozzi et al., J. Phys.:Condens. Matter 21 395502 (2009);
         "P. Giannozzi et al., J. Phys.:Condens. Matter 29 465901 (2017);
          URL http://www.quantum-espresso.org", 
     in publications or presentations arising from this work. More details at
     http://www.quantum-espresso.org/quote

     Parallel version (MPI), running on   128 processors

     MPI processes distributed on     2 nodes
     K-points division:     npool     =       8
     R & G space division:  proc/nbgrp/npool/nimage =      16
     Waiting for input...
     Reading input from standard input
Warning: card &CELL ignored
Warning: card   CELL_DYNAMICS     = 'BFGS' ignored
Warning: card   PRESS_CONV_THR    = 0.5D0 ignored
Warning: card   CELL_DOFREE = 'ALL' ignored
Warning: card / ignored

     Current dimensions of program PWSCF are:
     Max number of different atomic species (ntypx) = 10
     Max number of k-points (npk) =  40000
     Max angular momentum in pseudopotentials (lmaxx) =  3

     Subspace diagonalization in iterative solution of the eigenvalue problem:
     one sub-group per band group will be used
     scalapack distributed-memory algorithm (size of sub-group:  2*  2 procs)

 
     Parallelization info
     --------------------
     sticks:   dense  smooth     PW     G-vecs:    dense   smooth      PW
     Min         827     398    109                64248    21356    3072
     Max         828     399    111                64254    21359    3073
     Sum       13243    6375   1759              1028005   341709   49163
 


     bravais-lattice index     =            0
     lattice parameter (alat)  =      19.6188  a.u.
     unit-cell volume          =    5445.3303 (a.u.)^3
     number of atoms/cell      =           72
     number of atomic types    =            3
     number of electrons       =       776.00
     number of Kohn-Sham states=          466
     kinetic-energy cutoff     =      60.0000  Ry
     charge density cutoff     =     500.0000  Ry
     convergence threshold     =      1.0E-08
     mixing beta               =       0.5000
     number of iterations used =            8  plain     mixing
     Exchange-correlation      = SLA  PW   PSX  PSC ( 1  4 10  8 0 0)
     Using LIBXC version       =    4   3   4
     nstep                     =          200


     celldm(1)=  19.618841  celldm(2)=   0.000000  celldm(3)=   0.000000
     celldm(4)=   0.000000  celldm(5)=   0.000000  celldm(6)=   0.000000

     crystal axes: (cart. coord. in units of alat)
               a(1) = (   1.000000  -0.000530   0.000415 )  
               a(2) = (  -0.500458   0.866879  -0.000153 )  
               a(3) = (   0.000597   0.000095   0.832107 )  

     reciprocal axes: (cart. coord. in units 2 pi/alat)
               b(1) = (  1.000307  0.577487 -0.000783 )  
               b(2) = (  0.000612  1.153917 -0.000133 )  
               b(3) = ( -0.000499 -0.000076  1.201769 )  


     PseudoPot. # 1 for Zn read from file:
     ./GBRV_PBEsol/zn_pbesol_v1.uspp.F.UPF
     MD5 check sum: 7d8615e52efe7c1e2b1899de8658bae2
     Pseudo is Ultrasoft, Zval = 20.0
     Generated by new atomic code, or converted to UPF format
     Using radial grid of  943 points,  6 beta functions with: 
                l(1) =   0
                l(2) =   0
                l(3) =   1
                l(4) =   1
                l(5) =   2
                l(6) =   2
     Q(r) pseudized with  8 coefficients,  rinner =    1.100   1.100   1.100
                                                       1.100   1.100

     PseudoPot. # 2 for O  read from file:
     ./GBRV_PBEsol/o_pbesol_v1.2.uspp.F.UPF
     MD5 check sum: 501638753501ef6325af9037351f7734
     Pseudo is Ultrasoft + core correction, Zval =  6.0
     Generated by new atomic code, or converted to UPF format
     Using radial grid of  737 points,  5 beta functions with: 
                l(1) =   0
                l(2) =   0
                l(3) =   1
                l(4) =   1
                l(5) =   2
     Q(r) pseudized with  8 coefficients,  rinner =    0.900   0.900   0.900
                                                       0.900   0.900

     PseudoPot. # 3 for Mg read from file:
     ./GBRV_PBEsol/mg_pbesol_v1.4.uspp.F.UPF
     MD5 check sum: 4059f37963cf5867752dbf5ab2400678
     Pseudo is Ultrasoft, Zval = 10.0
     Generated by new atomic code, or converted to UPF format
     Using radial grid of  821 points,  7 beta functions with: 
                l(1) =   0
                l(2) =   0
                l(3) =   0
                l(4) =   1
                l(5) =   1
                l(6) =   2
                l(7) =   2
     Q(r) pseudized with  8 coefficients,  rinner =    1.200   1.200   1.200
                                                       1.200   1.200

     atomic species   valence    mass     pseudopotential
        Zn            20.00    65.38000     Zn( 1.00)
        O              6.00    15.99900     O ( 1.00)
        Mg            10.00    24.30500     Mg( 1.00)

     No symmetry found


                                    s                        frac. trans.

      isym =  1     identity                                     

 cryst.   s( 1) = (     1          0          0      )
                  (     0          1          0      )
                  (     0          0          1      )

 cart.    s( 1) = (  1.0000000 -0.0000000  0.0000000 )
                  (  0.0000000  1.0000000  0.0000000 )
                  ( -0.0000000 -0.0000000  1.0000000 )


   Cartesian axes

     site n.     atom                  positions (alat units)
         1           Mg  tau(   1) = (  -0.1667316   0.6757039   0.2081949  )
         2           Mg  tau(   2) = (   0.0020500   0.3838711   0.2095809  )
         3           Mg  tau(   3) = (   0.8342099   0.0955781   0.2100088  )
         4           Mg  tau(   4) = (   0.1662222   0.6740309   0.2108834  )
         5           Mg  tau(   5) = (   0.4995690   0.6749061   0.2113033  )
         6           Mg  tau(   6) = (   0.4992354   0.0963888   0.2133321  )
         7           Mg  tau(   7) = (  -0.1663519   0.4814778   0.4167380  )
         8           Mg  tau(   8) = (   0.3324775   0.7698017   0.4191793  )
         9           Mg  tau(   9) = (  -0.3330133   0.7713932   0.4193972  )
        10           Mg  tau(  10) = (   0.0013340   0.1931072   0.4199359  )
        11           Mg  tau(  11) = (  -0.1653188   0.6756017   0.6267072  )
        12           Mg  tau(  12) = (   0.3330776   0.3847107   0.6272433  )
        13           Mg  tau(  13) = (   0.3340180   0.7705891   0.0006591  )
        14           Mg  tau(  14) = (  -0.1669374   0.4801917   0.0007122  )
        15           Mg  tau(  15) = (   0.6668619   0.1932181   0.0034703  )
        16           Mg  tau(  16) = (   0.5014000   0.4808376   0.0049439  )
        17           O   tau(  17) = (   0.3338472   0.3849965   0.0006341  )
        18           O   tau(  18) = (   0.6672565   0.3847751   0.0010523  )
        19           O   tau(  19) = (  -0.1674516   0.6729841   0.0011324  )
        20           O   tau(  20) = (   0.1657274   0.0955061   0.0026813  )
        21           O   tau(  21) = (   0.1672429   0.6744491   0.0032299  )
        22           O   tau(  22) = (   0.8327688   0.0954566   0.0035331  )
        23           O   tau(  23) = (  -0.0006107   0.3844011   0.0034299  )
        24           O   tau(  24) = (   0.4989710   0.6732611   0.0039926  )
        25           O   tau(  25) = (   0.5002903   0.0972333   0.0049189  )
        26           O   tau(  26) = (   0.5003618   0.4813347   0.2080251  )
        27           O   tau(  27) = (   0.6670567   0.1915455   0.2085110  )
        28           O   tau(  28) = (  -0.0002763   0.7705790   0.2087536  )
        29           O   tau(  29) = (  -0.1645643   0.4825852   0.2095181  )
        30           O   tau(  30) = (   0.1668808   0.4818726   0.2097556  )
        31           O   tau(  31) = (   0.3324635   0.1925725   0.2109212  )
        32           O   tau(  32) = (   0.3326278   0.7702202   0.2112400  )
        33           O   tau(  33) = (  -0.3332035   0.7701079   0.2119349  )
        34           O   tau(  34) = (  -0.0002463   0.1926224   0.2131313  )
        35           O   tau(  35) = (   0.4999924   0.6742389   0.4155796  )
        36           O   tau(  36) = (   0.8343464   0.0956505   0.4162548  )
        37           O   tau(  37) = (   0.5002125   0.0959661   0.4167397  )
        38           O   tau(  38) = (  -0.0006331   0.3849375   0.4168009  )
        39           O   tau(  39) = (   0.1659712   0.6740353   0.4173527  )
        40           O   tau(  40) = (   0.6670509   0.3851073   0.4178428  )
        41           O   tau(  41) = (  -0.1677130   0.6736118   0.4189661  )
        42           O   tau(  42) = (   0.1664350   0.0959191   0.4195618  )
        43           O   tau(  43) = (   0.3333338   0.3855106   0.4200856  )
        44           O   tau(  44) = (   0.3336534   0.7699433   0.6244464  )
        45           O   tau(  45) = (   0.0001474   0.1930025   0.6250563  )
        46           O   tau(  46) = (  -0.3330153   0.7697951   0.6249624  )
        47           O   tau(  47) = (  -0.1660009   0.4830510   0.6257197  )
        48           O   tau(  48) = (   0.1666567   0.4815672   0.6263488  )
        49           O   tau(  49) = (   0.3339280   0.1922565   0.6267485  )
        50           O   tau(  50) = (   0.0002418   0.7713559   0.6267823  )
        51           O   tau(  51) = (   0.6667968   0.1924118   0.6273696  )
        52           O   tau(  52) = (   0.4996955   0.4810092   0.6282600  )
        53           Zn  tau(  53) = (   0.6682362   0.3842193   0.2080891  )
        54           Zn  tau(  54) = (   0.3324015   0.3846966   0.2088673  )
        55           Zn  tau(  55) = (   0.1654523   0.0956995   0.2120990  )
        56           Zn  tau(  56) = (   0.5005357   0.4810587   0.4155672  )
        57           Zn  tau(  57) = (  -0.0012094   0.7692169   0.4159501  )
        58           Zn  tau(  58) = (   0.6677554   0.1929108   0.4168153  )
        59           Zn  tau(  59) = (   0.1656831   0.4812777   0.4173416  )
        60           Zn  tau(  60) = (   0.3320017   0.1925420   0.4176920  )
        61           Zn  tau(  61) = (   0.8330935   0.0964913   0.6246107  )
        62           Zn  tau(  62) = (   0.5008378   0.6722837   0.6252947  )
        63           Zn  tau(  63) = (   0.0003055   0.3860766   0.6250768  )
        64           Zn  tau(  64) = (   0.5000393   0.0958921   0.6259727  )
        65           Zn  tau(  65) = (   0.1649077   0.6737321   0.6263605  )
        66           Zn  tau(  66) = (   0.6666444   0.3856118   0.6268983  )
        67           Zn  tau(  67) = (   0.1676097   0.0959069   0.6280977  )
        68           Zn  tau(  68) = (  -0.3348483   0.7698811   0.0010687  )
        69           Zn  tau(  69) = (  -0.0006996   0.1920288   0.0026182  )
        70           Zn  tau(  70) = (   0.1662213   0.4810534   0.0032167  )
        71           Zn  tau(  71) = (   0.3327749   0.1916333   0.0035561  )
        72           Zn  tau(  72) = (  -0.0003618   0.7716399   0.0037917  )

   Crystallographic axes

     site n.     atom                  positions (cryst. coord.)
         1           Mg  tau(   1) = (  0.2232643  0.7795766  0.2502341  )
         2           Mg  tau(   2) = (  0.2235670  0.4429289  0.2518377  )
         3           Mg  tau(   3) = (  0.8894965  0.1107720  0.2519584  )
         4           Mg  tau(   4) = (  0.5553521  0.7778496  0.2532990  )
         5           Mg  tau(   5) = (  0.8893063  0.7790635  0.2536371  )
         6           Mg  tau(   6) = (  0.5548848  0.1115020  0.2561194  )
         7           Mg  tau(   7) = (  0.1113178  0.5554283  0.5008692  )
         8           Mg  tau(   8) = (  0.7768016  0.8884354  0.5035323  )
         9           Mg  tau(   9) = (  0.1120255  0.8898644  0.5041262  )
        10           Mg  tau(  10) = (  0.1125224  0.2227748  0.5046506  )
        11           Mg  tau(  11) = (  0.2242907  0.7794040  0.7531886  )
        12           Mg  tau(  12) = (  0.5548538  0.4440449  0.7536062  )
        13           Mg  tau(  13) = (  0.7791251  0.8894004  0.0005668  )
        14           Mg  tau(  14) = (  0.1103152  0.5539992  0.0009028  )
        15           Mg  tau(  15) = (  0.7786448  0.2233654  0.0038229  )
        16           Mg  tau(  16) = (  0.7792274  0.5551530  0.0056546  )
        17           O   tau(  17) = (  0.5562796  0.4444584  0.0005661  )
        18           O   tau(  18) = (  0.8896630  0.4444069  0.0009024  )
        19           O   tau(  19) = (  0.2211357  0.7764653  0.0013934  )
        20           O   tau(  20) = (  0.2209297  0.1103073  0.0031323  )
        21           O   tau(  21) = (  0.5567773  0.7783604  0.0037468  )
        22           O   tau(  22) = (  0.8881466  0.1106584  0.0038230  )
        23           O   tau(  23) = (  0.2213731  0.4435662  0.0040931  )
        24           O   tau(  24) = (  0.8879205  0.7771925  0.0044980  )
        25           O   tau(  25) = (  0.5565909  0.1125048  0.0056542  )
        26           O   tau(  26) = (  0.7783169  0.5556991  0.2497118  )
        27           O   tau(  27) = (  0.7777131  0.2214083  0.2502346  )
        28           O   tau(  28) = (  0.4445595  0.8891565  0.2508152  )
        29           O   tau(  29) = (  0.1139077  0.5567348  0.2518378  )
        30           O   tau(  30) = (  0.4450428  0.5561153  0.2519578  )
        31           O   tau(  31) = (  0.4436084  0.2223882  0.2532979  )
        32           O   tau(  32) = (  0.7773565  0.8889460  0.2536372  )
        33           O   tau(  33) = (  0.1112555  0.8884087  0.2548046  )
        34           O   tau(  34) = (  0.1108235  0.2222418  0.2561201  )
        35           O   tau(  35) = (  0.8891845  0.7782667  0.4991300  )
        36           O   tau(  36) = (  0.8895133  0.1108282  0.4998184  )
        37           O   tau(  37) = (  0.5554587  0.1109878  0.5005680  )
        38           O   tau(  38) = (  0.2213366  0.4441303  0.5008696  )
        39           O   tau(  39) = (  0.5549419  0.7778272  0.5014276  )
        40           O   tau(  40) = (  0.8893227  0.4447348  0.5017884  )
        41           O   tau(  41) = (  0.2209093  0.7771339  0.5035331  )
        42           O   tau(  42) = (  0.2215495  0.1107289  0.5041260  )
        43           O   tau(  43) = (  0.5557344  0.4449956  0.5046502  )
        44           O   tau(  44) = (  0.7778989  0.8885722  0.7502153  )
        45           O   tau(  45) = (  0.1111142  0.2226259  0.7511586  )
        46           O   tau(  46) = (  0.1109396  0.8879930  0.7511682  )
        47           O   tau(  47) = (  0.1124137  0.5572162  0.7520168  )
        48           O   tau(  48) = (  0.4443159  0.5557075  0.7526069  )
        49           O   tau(  49) = (  0.4445651  0.2219693  0.7530257  )
        50           O   tau(  50) = (  0.4451989  0.8899978  0.7531889  )
        51           O   tau(  51) = (  0.7776253  0.2223522  0.7536059  )
        52           O   tau(  52) = (  0.7771333  0.5552673  0.7547375  )
        53           Zn  tau(  53) = (  0.8901599  0.4437387  0.2497123  )
        54           Zn  tau(  54) = (  0.5544972  0.4440838  0.2508152  )
        55           Zn  tau(  55) = (  0.2206022  0.1105024  0.2548041  )
        56           Zn  tau(  56) = (  0.7781689  0.5553531  0.4991294  )
        57           Zn  tau(  57) = (  0.4426771  0.8875567  0.4998181  )
        58           Zn  tau(  58) = (  0.7790372  0.2229565  0.5005678  )
        59           Zn  tau(  59) = (  0.4433386  0.5554006  0.5014290  )
        60           Zn  tau(  60) = (  0.4429669  0.2223253  0.5017889  )
        61           Zn  tau(  61) = (  0.8885823  0.1117700  0.7502147  )
        62           Zn  tau(  62) = (  0.8887367  0.7759832  0.7511587  )
        63           Zn  tau(  63) = (  0.2227701  0.4454176  0.7511685  )
        64           Zn  tau(  64) = (  0.5550789  0.1108745  0.7520178  )
        65           Zn  tau(  65) = (  0.5535391  0.7774488  0.7526072  )
        66           Zn  tau(  66) = (  0.8890437  0.4452889  0.7530250  )
        67           Zn  tau(  67) = (  0.2225540  0.1106878  0.7547375  )
        68           Zn  tau(  68) = (  0.1096444  0.8881739  0.0013930  )
        69           Zn  tau(  69) = (  0.1101923  0.2215845  0.0031322  )
        70           Zn  tau(  70) = (  0.4440719  0.5551971  0.0037461  )
        71           Zn  tau(  71) = (  0.4435400  0.2213323  0.0040930  )
        72           Zn  tau(  72) = (  0.4452471  0.8904079  0.0044983  )

     number of k points=    36  Marzari-Vanderbilt smearing, width (Ry)=  0.0010
                       cart. coord. in units 2pi/alat
        k(    1) = (   0.0000000   0.0000000   0.0000000), wk =   0.0312500
        k(    2) = (  -0.0001248  -0.0000190   0.3004423), wk =   0.0625000
        k(    3) = (   0.0002496   0.0000380  -0.6008846), wk =   0.0312500
        k(    4) = (   0.0001530   0.2884793  -0.0000332), wk =   0.0625000
        k(    5) = (   0.0000283   0.2884603   0.3004091), wk =   0.0625000
        k(    6) = (   0.0004026   0.2885173  -0.6009178), wk =   0.0625000
        k(    7) = (   0.0002778   0.2884983  -0.3004755), wk =   0.0625000
        k(    8) = (  -0.0003061  -0.5769586   0.0000664), wk =   0.0312500
        k(    9) = (  -0.0004309  -0.5769776   0.3005087), wk =   0.0625000
        k(   10) = (  -0.0000565  -0.5769206  -0.6008181), wk =   0.0312500
        k(   11) = (   0.2500767   0.1443718  -0.0001959), wk =   0.0625000
        k(   12) = (   0.2499519   0.1443528   0.3002464), wk =   0.0625000
        k(   13) = (   0.2503263   0.1444097  -0.6010804), wk =   0.0625000
        k(   14) = (   0.2502015   0.1443907  -0.3006381), wk =   0.0625000
        k(   15) = (   0.2502298   0.4328511  -0.0002291), wk =   0.0625000
        k(   16) = (   0.2501050   0.4328321   0.3002132), wk =   0.0625000
        k(   17) = (   0.2504793   0.4328891  -0.6011136), wk =   0.0625000
        k(   18) = (   0.2503546   0.4328701  -0.3006713), wk =   0.0625000
        k(   19) = (   0.2497706  -0.4325869  -0.0001294), wk =   0.0625000
        k(   20) = (   0.2496458  -0.4326059   0.3003128), wk =   0.0625000
        k(   21) = (   0.2500202  -0.4325489  -0.6010140), wk =   0.0625000
        k(   22) = (   0.2498954  -0.4325679  -0.3005717), wk =   0.0625000
        k(   23) = (   0.2499237  -0.1441076  -0.0001626), wk =   0.0625000
        k(   24) = (   0.2497989  -0.1441266   0.3002796), wk =   0.0625000
        k(   25) = (   0.2501733  -0.1440696  -0.6010472), wk =   0.0625000
        k(   26) = (   0.2500485  -0.1440886  -0.3006049), wk =   0.0625000
        k(   27) = (  -0.5001534  -0.2887435   0.0003917), wk =   0.0312500
        k(   28) = (  -0.5002782  -0.2887625   0.3008340), wk =   0.0625000
        k(   29) = (  -0.4999039  -0.2887055  -0.6004929), wk =   0.0312500
        k(   30) = (  -0.5000004  -0.0002642   0.0003585), wk =   0.0625000
        k(   31) = (  -0.5001252  -0.0002832   0.3008008), wk =   0.0625000
        k(   32) = (  -0.4997508  -0.0002262  -0.6005261), wk =   0.0625000
        k(   33) = (  -0.4998756  -0.0002452  -0.3000838), wk =   0.0625000
        k(   34) = (  -0.5004595  -0.8657021   0.0004581), wk =   0.0312500
        k(   35) = (  -0.5005843  -0.8657211   0.3009004), wk =   0.0625000
        k(   36) = (  -0.5002100  -0.8656641  -0.6004264), wk =   0.0312500

                       cryst. coord.
        k(    1) = (   0.0000000   0.0000000   0.0000000), wk =   0.0312500
        k(    2) = (  -0.0000000   0.0000000   0.2500000), wk =   0.0625000
        k(    3) = (   0.0000000  -0.0000000  -0.5000000), wk =   0.0312500
        k(    4) = (   0.0000000   0.2500000   0.0000000), wk =   0.0625000
        k(    5) = (  -0.0000000   0.2500000   0.2500000), wk =   0.0625000
        k(    6) = (  -0.0000000   0.2500000  -0.5000000), wk =   0.0625000
        k(    7) = (   0.0000000   0.2500000  -0.2500000), wk =   0.0625000
        k(    8) = (  -0.0000000  -0.5000000  -0.0000000), wk =   0.0312500
        k(    9) = (   0.0000000  -0.5000000   0.2500000), wk =   0.0625000
        k(   10) = (   0.0000000  -0.5000000  -0.5000000), wk =   0.0312500
        k(   11) = (   0.2500000  -0.0000000  -0.0000000), wk =   0.0625000
        k(   12) = (   0.2500000  -0.0000000   0.2500000), wk =   0.0625000
        k(   13) = (   0.2500000  -0.0000000  -0.5000000), wk =   0.0625000
        k(   14) = (   0.2500000   0.0000000  -0.2500000), wk =   0.0625000
        k(   15) = (   0.2500000   0.2500000   0.0000000), wk =   0.0625000
        k(   16) = (   0.2500000   0.2500000   0.2500000), wk =   0.0625000
        k(   17) = (   0.2500000   0.2500000  -0.5000000), wk =   0.0625000
        k(   18) = (   0.2500000   0.2500000  -0.2500000), wk =   0.0625000
        k(   19) = (   0.2500000  -0.5000000  -0.0000000), wk =   0.0625000
        k(   20) = (   0.2500000  -0.5000000   0.2500000), wk =   0.0625000
        k(   21) = (   0.2500000  -0.5000000  -0.5000000), wk =   0.0625000
        k(   22) = (   0.2500000  -0.5000000  -0.2500000), wk =   0.0625000
        k(   23) = (   0.2500000  -0.2500000  -0.0000000), wk =   0.0625000
        k(   24) = (   0.2500000  -0.2500000   0.2500000), wk =   0.0625000
        k(   25) = (   0.2500000  -0.2500000  -0.5000000), wk =   0.0625000
        k(   26) = (   0.2500000  -0.2500000  -0.2500000), wk =   0.0625000
        k(   27) = (  -0.5000000   0.0000000   0.0000000), wk =   0.0312500
        k(   28) = (  -0.5000000   0.0000000   0.2500000), wk =   0.0625000
        k(   29) = (  -0.5000000   0.0000000  -0.5000000), wk =   0.0312500
        k(   30) = (  -0.5000000   0.2500000   0.0000000), wk =   0.0625000
        k(   31) = (  -0.5000000   0.2500000   0.2500000), wk =   0.0625000
        k(   32) = (  -0.5000000   0.2500000  -0.5000000), wk =   0.0625000
        k(   33) = (  -0.5000000   0.2500000  -0.2500000), wk =   0.0625000
        k(   34) = (  -0.5000000  -0.5000000  -0.0000000), wk =   0.0312500
        k(   35) = (  -0.5000000  -0.5000000   0.2500000), wk =   0.0625000
        k(   36) = (  -0.5000000  -0.5000000  -0.5000000), wk =   0.0312500

     Dense  grid:  1028005 G-vectors     FFT dimensions: ( 144, 144, 120)

     Smooth grid:   341709 G-vectors     FFT dimensions: ( 100, 100,  81)

     Dynamical RAM for                 wfc:      18.99 MB

     Dynamical RAM for     wfc (w. buffer):     113.95 MB

     Dynamical RAM for           str. fact:       2.94 MB

     Dynamical RAM for           local pot:       0.00 MB

     Dynamical RAM for          nlocal pot:      46.14 MB

     Dynamical RAM for                qrad:      22.38 MB

     Dynamical RAM for          rho,v,vnew:       6.74 MB

     Dynamical RAM for               rhoin:       2.25 MB

     Dynamical RAM for            rho*nmix:      15.69 MB

     Dynamical RAM for           G-vectors:       3.84 MB

     Dynamical RAM for          h,s,v(r/c):      39.76 MB

     Dynamical RAM for          <psi|beta>:       8.05 MB

     Dynamical RAM for                 psi:      75.97 MB

     Dynamical RAM for                hpsi:      75.97 MB

     Dynamical RAM for                spsi:      75.97 MB

     Dynamical RAM for      wfcinit/wfcrot:      44.82 MB

     Dynamical RAM for           addusdens:      30.39 MB

     Dynamical RAM for          addusforce:      52.15 MB

     Dynamical RAM for         addusstress:      27.39 MB

     Estimated static dynamical RAM per process >     224.17 MB

     Estimated max dynamical RAM per process >     499.89 MB

     Estimated total dynamical RAM >      62.49 GB

     Check: negative core charge=   -0.000002

     Initial potential from superposition of free atoms

     starting charge  771.19370, renormalised to  776.00000
     Starting wfcs are  484 randomized atomic wfcs

     total cpu time spent up to now is       14.3 secs

     Self-consistent Calculation

     iteration #  1     ecut=    60.00 Ry     beta= 0.50
     Davidson diagonalization with overlap
     ethr =  1.00E-02,  avg # of iterations =  5.0

     total cpu time spent up to now is       74.7 secs

     total energy              =  -12381.62102196 Ry
     Harris-Foulkes estimate   =  -12398.19089011 Ry
     estimated scf accuracy    <      24.31004935 Ry

     iteration #  2     ecut=    60.00 Ry     beta= 0.50
     Davidson diagonalization with overlap
     ethr =  3.13E-03,  avg # of iterations =  3.9

     total cpu time spent up to now is      142.1 secs

     total energy              =  -12389.20648737 Ry
     Harris-Foulkes estimate   =  -12396.34437602 Ry
     estimated scf accuracy    <      16.56964592 Ry

     iteration #  3     ecut=    60.00 Ry     beta= 0.50
     Davidson diagonalization with overlap
     ethr =  2.14E-03,  avg # of iterations =  4.0

     total cpu time spent up to now is      199.7 secs

     total energy              =  -12392.05493093 Ry
     Harris-Foulkes estimate   =  -12392.25094903 Ry
     estimated scf accuracy    <       0.48462372 Ry

     iteration #  4     ecut=    60.00 Ry     beta= 0.50
     Davidson diagonalization with overlap
     ethr =  6.25E-05,  avg # of iterations =  5.0

     total cpu time spent up to now is      275.2 secs

     total energy              =  -12392.13182436 Ry
     Harris-Foulkes estimate   =  -12392.16876258 Ry
     estimated scf accuracy    <       0.13233645 Ry

     iteration #  5     ecut=    60.00 Ry     beta= 0.50
     Davidson diagonalization with overlap
     ethr =  1.71E-05,  avg # of iterations =  4.2

     total cpu time spent up to now is      331.4 secs

     total energy              =  -12392.14006185 Ry
     Harris-Foulkes estimate   =  -12392.14565301 Ry
     estimated scf accuracy    <       0.01212471 Ry

     iteration #  6     ecut=    60.00 Ry     beta= 0.50
     Davidson diagonalization with overlap
     ethr =  1.56E-06,  avg # of iterations =  6.6

     total cpu time spent up to now is      429.0 secs

     total energy              =  -12392.14281417 Ry
     Harris-Foulkes estimate   =  -12392.14483786 Ry
     estimated scf accuracy    <       0.00566078 Ry

     iteration #  7     ecut=    60.00 Ry     beta= 0.50
     Davidson diagonalization with overlap
     ethr =  7.29E-07,  avg # of iterations =  2.0

     total cpu time spent up to now is      471.1 secs

     total energy              =  -12392.14375835 Ry
     Harris-Foulkes estimate   =  -12392.14382011 Ry
     estimated scf accuracy    <       0.00026379 Ry

     iteration #  8     ecut=    60.00 Ry     beta= 0.50
     Davidson diagonalization with overlap
     ethr =  3.40E-08,  avg # of iterations =  2.0

     total cpu time spent up to now is      514.2 secs

     total energy              =  -12392.14381209 Ry
     Harris-Foulkes estimate   =  -12392.14381957 Ry
     estimated scf accuracy    <       0.00004428 Ry

     iteration #  9     ecut=    60.00 Ry     beta= 0.50
     Davidson diagonalization with overlap
     ethr =  5.71E-09,  avg # of iterations =  2.0

     total cpu time spent up to now is      556.7 secs

     total energy              =  -12392.14382146 Ry
     Harris-Foulkes estimate   =  -12392.14382215 Ry
     estimated scf accuracy    <       0.00000802 Ry

     iteration # 10     ecut=    60.00 Ry     beta= 0.50
     Davidson diagonalization with overlap
     ethr =  1.03E-09,  avg # of iterations =  2.0

     total cpu time spent up to now is      597.4 secs

     total energy              =  -12392.14382317 Ry
     Harris-Foulkes estimate   =  -12392.14382302 Ry
     estimated scf accuracy    <       0.00000097 Ry

     iteration # 11     ecut=    60.00 Ry     beta= 0.50
     Davidson diagonalization with overlap
     ethr =  1.24E-10,  avg # of iterations =  2.0

     total cpu time spent up to now is      638.1 secs

     total energy              =  -12392.14382335 Ry
     Harris-Foulkes estimate   =  -12392.14382335 Ry
     estimated scf accuracy    <       0.00000014 Ry

     iteration # 12     ecut=    60.00 Ry     beta= 0.50
     Davidson diagonalization with overlap
     ethr =  1.77E-11,  avg # of iterations =  2.0

     total cpu time spent up to now is      679.5 secs

     total energy              =  -12392.14382338 Ry
     Harris-Foulkes estimate   =  -12392.14382338 Ry
     estimated scf accuracy    <       0.00000002 Ry

     iteration # 13     ecut=    60.00 Ry     beta= 0.50
     Davidson diagonalization with overlap
     ethr =  2.27E-12,  avg # of iterations =  2.0

     total cpu time spent up to now is      720.3 secs

     End of self-consistent calculation

          k = 0.0000 0.0000 0.0000 ( 42695 PWs)   bands (ev):

  -115.0341-115.0252-115.0243-115.0057-114.9840-114.9838-114.9812-114.9808
  -114.9802-114.9788-114.9766-114.9726-114.9712-114.9661-114.9661-114.9623
  -114.9598-114.9539-114.9395-114.9202 -69.3970 -69.3915 -69.3911 -69.3901
   -69.3857 -69.3852 -69.3832 -69.3814 -69.3769 -69.3732 -69.3616 -69.3605
   -69.3493 -69.3477 -69.3472 -69.3465 -69.3462 -69.3458 -69.3444 -69.3439
   -69.3425 -69.3412 -69.3406 -69.3398 -69.3397 -69.3391 -69.3388 -69.3380
   -69.3366 -69.3362 -69.3349 -69.3346 -69.3337 -69.3312 -69.3307 -69.3305
   -69.3299 -69.3295 -69.3284 -69.3270 -69.3264 -69.3263 -69.3251 -69.3248
   -69.3246 -69.3243 -69.3220 -69.3215 -69.3208 -69.3188 -69.3178 -69.3151
   -69.3109 -69.3061 -69.3029 -69.2985 -69.2959 -69.2856 -69.2790 -69.2764
   -64.5697 -64.5654 -64.5592 -64.5588 -64.5580 -64.5504 -64.5488 -64.5454
   -64.5405 -64.5293 -64.5255 -64.5220 -64.5216 -64.5180 -64.5138 -64.4885
   -31.5657 -31.5596 -31.5549 -31.5541 -31.5516 -31.5508 -31.5492 -31.5471
   -31.5470 -31.5457 -31.5455 -31.5425 -31.5417 -31.5406 -31.5405 -31.5393
   -31.5390 -31.5373 -31.5350 -31.5334 -31.5300 -31.5296 -31.5270 -31.5262
   -31.5219 -31.5198 -31.5193 -31.5143 -31.5134 -31.5116 -31.5105 -31.5101
   -31.5079 -31.5055 -31.5046 -31.5041 -31.5023 -31.5008 -31.5007 -31.4999
   -31.4987 -31.4959 -31.4934 -31.4931 -31.4872 -31.4730 -31.4669 -31.4642
    -9.7590  -9.3450  -9.3048  -9.2942  -9.2672  -9.2219  -9.1700  -9.0626
    -9.0401  -8.9187  -8.8831  -8.8807  -8.8541  -8.8360  -8.8271  -8.7947
    -8.7939  -8.7880  -8.7646  -8.7581  -8.7300  -8.7035  -8.6883  -8.6686
    -8.6575  -8.6263  -8.5930  -8.5799  -8.5660  -8.4744  -8.4295  -8.4185
    -8.4017  -8.3699  -8.3218  -8.2196   1.9288   1.9384   2.0215   2.0864
     2.1189   2.1308   2.1365   2.1827   2.2033   2.2291   2.2621   2.2992
     2.3408   2.4119   2.4278   2.4594   2.4744   2.4970   2.5103   2.5319
     2.5515   2.5582   2.5800   2.5826   2.5977   2.6297   2.6603   2.6824
     2.7029   2.7126   2.7277   2.7456   2.7622   2.7835   2.7995   2.8036
     2.8194   2.8447   2.8567   2.8819   2.9035   2.9163   2.9534   2.9791
     2.9852   3.0105   3.0212   3.0236   3.0335   3.0493   3.0620   3.0827
     3.0934   3.1047   3.1182   3.1269   3.1345   3.1387   3.1653   3.1838
     3.2010   3.2184   3.2376   3.2424   3.2549   3.2717   3.2814   3.2953
     3.3114   3.3165   3.3473   3.3518   3.3663   3.3786   3.3919   3.4133
     3.4337   3.4395   3.4511   3.4770   3.4862   3.4958   3.5048   3.5070
     3.5479   3.5636   3.5765   3.6083   3.6126   3.6227   3.6346   3.6576
     3.6861   3.7016   3.7189   3.7271   3.7537   3.7691   3.7989   3.8056
     3.8105   3.8581   3.8762   3.9687   4.0155   4.1396   4.2315   4.2388
     4.2838   4.2993   4.3233   4.3729   4.4099   4.4472   4.5103   4.5279
     4.5641   4.6213   4.6850   4.7208   4.7343   4.7715   4.7798   4.7822
     4.8468   4.8676   4.8887   4.9332   4.9829   5.0021   5.0138   5.0258
     5.0610   5.0878   5.1094   5.1407   5.1441   5.1677   5.1692   5.3046
     5.3177   5.4037   5.4445   5.4954   5.5273   5.5585   5.5635   5.6110
     5.6942   5.7125   5.7716   5.7747   5.8004   5.8048   5.8361   5.8910
     5.9228   6.0796   6.0879   6.0910   6.2117   6.2402   6.2515   6.2850
     6.3013   6.3556   6.3739   6.4029   6.4052   6.4228   6.4746   6.5434
     6.5787   6.6026   6.6276   6.6374   6.6772   6.7356   6.7426   6.7739
     6.8335   6.8802   6.9283   6.9433   6.9483   7.0173   7.0521   7.0712
     7.1343   7.1884   7.2022   7.2136   7.2197   7.2680   7.2753   7.2933
     7.3053   7.3189   7.3928   7.4734   7.5545   7.5726   7.6182   7.6510
     7.8286   8.0287   8.0476   8.0791   9.6884  12.5643  12.6293  12.6801
    12.7441  12.8437  12.9355  13.1394  13.2134  13.7310  13.8903  13.9170
    13.9326  13.9575  13.9717  13.9918  14.0204  14.0522  14.1219  14.1775
    14.2393  14.4857  14.9401  15.2200  15.2447  15.2939  15.3743  15.5596
    15.6878  15.8198  15.8775  15.8782  15.9128  15.9415  15.9677  15.9725
    16.1250  16.2292  16.3253  16.4066  16.4825  16.8297  16.8456  17.0019
    17.0351  17.1115  17.1251  17.1799  17.1995  17.2377  17.2602  17.4164
    17.5900  17.6481  17.7782  17.8026  17.8286  17.8958  17.9526  18.0465
    18.1718  18.5770  18.5995  18.6866  18.7105  18.8959  18.9834  19.0320
    19.1150  19.1881  19.3087  19.3441  19.3699  19.4132  19.5052  19.5534
    19.5991  19.6559

     occupation numbers 
     1.0000   1.0000   1.0000   1.0000   1.0000   1.0000   1.0000   1.0000
     1.0000   1.0000   1.0000   1.0000   1.0000   1.0000   1.0000   1.0000
     1.0000   1.0000   1.0000   1.0000   1.0000   1.0000   1.0000   1.0000
     1.0000   1.0000   1.0000   1.0000   1.0000   1.0000   1.0000   1.0000
     1.0000   1.0000   1.0000   1.0000   1.0000   1.0000   1.0000   1.0000
     1.0000   1.0000   1.0000   1.0000   1.0000   1.0000   1.0000   1.0000
     1.0000   1.0000   1.0000   1.0000   1.0000   1.0000   1.0000   1.0000
     1.0000   1.0000   1.0000   1.0000   1.0000   1.0000   1.0000   1.0000
     1.0000   1.0000   1.0000   1.0000   1.0000   1.0000   1.0000   1.0000
     1.0000   1.0000   1.0000   1.0000   1.0000   1.0000   1.0000   1.0000
     1.0000   1.0000   1.0000   1.0000   1.0000   1.0000   1.0000   1.0000
     1.0000   1.0000   1.0000   1.0000   1.0000   1.0000   1.0000   1.0000
     1.0000   1.0000   1.0000   1.0000   1.0000   1.0000   1.0000   1.0000
     1.0000   1.0000   1.0000   1.0000   1.0000   1.0000   1.0000   1.0000
     1.0000   1.0000   1.0000   1.0000   1.0000   1.0000   1.0000   1.0000
     1.0000   1.0000   1.0000   1.0000   1.0000   1.0000   1.0000   1.0000
     1.0000   1.0000   1.0000   1.0000   1.0000   1.0000   1.0000   1.0000
     1.0000   1.0000   1.0000   1.0000   1.0000   1.0000   1.0000   1.0000
     1.0000   1.0000   1.0000   1.0000   1.0000   1.0000   1.0000   1.0000
     1.0000   1.0000   1.0000   1.0000   1.0000   1.0000   1.0000   1.0000
     1.0000   1.0000   1.0000   1.0000   1.0000   1.0000   1.0000   1.0000
     1.0000   1.0000   1.0000   1.0000   1.0000   1.0000   1.0000   1.0000
     1.0000   1.0000   1.0000   1.0000   1.0000   1.0000   1.0000   1.0000
     1.0000   1.0000   1.0000   1.0000   1.0000   1.0000   1.0000   1.0000
     1.0000   1.0000   1.0000   1.0000   1.0000   1.0000   1.0000   1.0000
     1.0000   1.0000   1.0000   1.0000   1.0000   1.0000   1.0000   1.0000
     1.0000   1.0000   1.0000   1.0000   1.0000   1.0000   1.0000   1.0000
     1.0000   1.0000   1.0000   1.0000   1.0000   1.0000   1.0000   1.0000
     1.0000   1.0000   1.0000   1.0000   1.0000   1.0000   1.0000   1.0000
     1.0000   1.0000   1.0000   1.0000   1.0000   1.0000   1.0000   1.0000
     1.0000   1.0000   1.0000   1.0000   1.0000   1.0000   1.0000   1.0000
     1.0000   1.0000   1.0000   1.0000   1.0000   1.0000   1.0000   1.0000
     1.0000   1.0000   1.0000   1.0000   1.0000   1.0000   1.0000   1.0000
     1.0000   1.0000   1.0000   1.0000   1.0000   1.0000   1.0000   1.0000
     1.0000   1.0000   1.0000   1.0000   1.0000   1.0000   1.0000   1.0000
     1.0000   1.0000   1.0000   1.0000   1.0000   1.0000   1.0000   1.0000
     1.0000   1.0000   1.0000   1.0000   1.0000   1.0000   1.0000   1.0000
     1.0000   1.0000   1.0000   1.0000   1.0000   1.0000   1.0000   1.0000
     1.0000   1.0000   1.0000   1.0000   1.0000   1.0000   1.0000   1.0000
     1.0000   1.0000   1.0000   1.0000   1.0000   1.0000   1.0000   1.0000
     1.0000   1.0000   1.0000   1.0000   1.0000   1.0000   1.0000   1.0000
     1.0000   1.0000   1.0000   1.0000   1.0000   1.0000   1.0000   1.0000
     1.0000   1.0000   1.0000   1.0000   1.0000   1.0000   1.0000   1.0000
     1.0000   1.0000   1.0000   1.0000   1.0000   1.0000   1.0000   1.0000
     1.0000   1.0000   1.0000   1.0000   1.0000   1.0000   1.0000   1.0000
     1.0000   1.0000   1.0000   1.0000   1.0000   1.0000   1.0000   1.0000
     1.0000   1.0000   1.0000   1.0000   1.0000   1.0000   1.0000   1.0000
     1.0000   1.0000   1.0000   1.0000   1.0000   1.0000   1.0000   1.0000
     1.0000   1.0000   1.0000   1.0000   0.0000   0.0000   0.0000   0.0000
     0.0000   0.0000   0.0000   0.0000   0.0000   0.0000   0.0000   0.0000
     0.0000   0.0000   0.0000   0.0000   0.0000   0.0000   0.0000   0.0000
     0.0000   0.0000   0.0000   0.0000   0.0000   0.0000   0.0000   0.0000
     0.0000   0.0000   0.0000   0.0000   0.0000   0.0000   0.0000   0.0000
     0.0000   0.0000   0.0000   0.0000   0.0000   0.0000   0.0000   0.0000
     0.0000   0.0000   0.0000   0.0000   0.0000   0.0000   0.0000   0.0000
     0.0000   0.0000   0.0000   0.0000   0.0000   0.0000   0.0000   0.0000
     0.0000   0.0000   0.0000   0.0000   0.0000   0.0000   0.0000   0.0000
     0.0000   0.0000   0.0000   0.0000   0.0000   0.0000   0.0000   0.0000
     0.0000   0.0000

          k =-0.0001-0.0000 0.3004 ( 42784 PWs)   bands (ev):

  -115.0341-115.0252-115.0243-115.0057-114.9840-114.9838-114.9812-114.9808
  -114.9802-114.9788-114.9766-114.9726-114.9712-114.9661-114.9661-114.9623
  -114.9598-114.9539-114.9395-114.9202 -69.3970 -69.3915 -69.3911 -69.3901
   -69.3857 -69.3852 -69.3832 -69.3814 -69.3769 -69.3732 -69.3616 -69.3605
   -69.3493 -69.3477 -69.3472 -69.3465 -69.3462 -69.3458 -69.3444 -69.3439
   -69.3425 -69.3412 -69.3406 -69.3398 -69.3397 -69.3391 -69.3388 -69.3380
   -69.3366 -69.3362 -69.3349 -69.3346 -69.3337 -69.3312 -69.3307 -69.3305
   -69.3299 -69.3295 -69.3284 -69.3270 -69.3264 -69.3263 -69.3252 -69.3248
   -69.3246 -69.3242 -69.3220 -69.3215 -69.3208 -69.3188 -69.3178 -69.3151
   -69.3109 -69.3061 -69.3029 -69.2985 -69.2959 -69.2856 -69.2790 -69.2764
   -64.5697 -64.5654 -64.5592 -64.5588 -64.5580 -64.5504 -64.5488 -64.5454
   -64.5405 -64.5293 -64.5255 -64.5220 -64.5216 -64.5180 -64.5138 -64.4885
   -31.5656 -31.5591 -31.5550 -31.5541 -31.5522 -31.5508 -31.5492 -31.5477
   -31.5469 -31.5457 -31.5455 -31.5425 -31.5417 -31.5406 -31.5405 -31.5395
   -31.5381 -31.5373 -31.5350 -31.5334 -31.5300 -31.5294 -31.5270 -31.5263
   -31.5219 -31.5200 -31.5192 -31.5143 -31.5134 -31.5116 -31.5105 -31.5101
   -31.5079 -31.5055 -31.5046 -31.5041 -31.5023 -31.5008 -31.5007 -31.4999
   -31.4987 -31.4959 -31.4934 -31.4931 -31.4872 -31.4730 -31.4669 -31.4642
    -9.7100  -9.3751  -9.2884  -9.2683  -9.2367  -9.2076  -9.1900  -9.1408
    -9.0257  -8.9916  -8.9748  -8.9586  -8.9039  -8.8502  -8.8300  -8.8084
    -8.7790  -8.7653  -8.7358  -8.7204  -8.6867  -8.6722  -8.6424  -8.6370
    -8.5976  -8.5939  -8.5681  -8.5625  -8.5529  -8.4936  -8.4409  -8.4297
    -8.4143  -8.3827  -8.3491  -8.2286   1.9861   2.0342   2.0901   2.1313
     2.1436   2.1747   2.2219   2.2364   2.2595   2.2973   2.3164   2.3451
     2.3798   2.4197   2.4448   2.4720   2.4911   2.5142   2.5253   2.5375
     2.5596   2.5696   2.5901   2.6097   2.6188   2.6349   2.6631   2.6963
     2.7110   2.7271   2.7365   2.7575   2.7656   2.7821   2.7970   2.8062
     2.8325   2.8449   2.8610   2.8709   2.8815   2.9012   2.9140   2.9337
     2.9478   2.9570   2.9690   2.9792   2.9897   2.9950   3.0085   3.0216
     3.0407   3.0502   3.0570   3.0765   3.0848   3.1036   3.1259   3.1368
     3.1591   3.1714   3.1834   3.1961   3.2129   3.2326   3.2459   3.2621
     3.2701   3.2856   3.2940   3.3215   3.3323   3.3607   3.3697   3.3796
     3.3997   3.4280   3.4361   3.4575   3.4791   3.5021   3.5195   3.5398
     3.5521   3.5648   3.5897   3.6093   3.6322   3.6417   3.6476   3.6662
     3.6875   3.7100   3.7211   3.7399   3.7634   3.7799   3.7968   3.8072
     3.8545   3.8816   3.9344   3.9796   4.0020   4.1336   4.1751   4.1933
     4.2312   4.2862   4.3054   4.3528   4.3833   4.4124   4.4634   4.4873
     4.5213   4.5519   4.5694   4.6047   4.6511   4.6943   4.7412   4.7693
     4.7931   4.8199   4.8845   4.9122   4.9458   4.9879   5.0405   5.0605
     5.1067   5.1548   5.1807   5.2244   5.2578   5.3289   5.3879   5.4073
     5.4278   5.4464   5.5026   5.5158   5.5365   5.5546   5.6094   5.6354
     5.6480   5.6743   5.7205   5.7433   5.8873   5.9580   5.9900   6.0022
     6.0217   6.0450   6.0639   6.0864   6.1480   6.1844   6.2120   6.2285
     6.2638   6.3363   6.4139   6.4640   6.4986   6.5463   6.5562   6.5932
     6.6117   6.6523   6.6931   6.7311   6.7591   6.7805   6.8175   6.8440
     6.8709   6.8877   6.8989   6.9253   6.9556   6.9713   6.9926   7.0158
     7.0510   7.0600   7.0813   7.1462   7.1655   7.1903   7.2883   7.3111
     7.3461   7.4033   7.4976   7.5211   7.5456   7.5790   7.5904   7.6944
     7.7345   7.8596   7.9051   7.9408  10.1000  11.9580  12.6679  12.7222
    12.7823  12.8916  12.9502  13.0759  13.3034  13.3469  13.4136  13.4459
    13.5363  13.6934  13.7767  14.2076  14.5668  14.6025  14.6333  14.7006
    14.7582  14.8406  15.0347  15.2554  15.2819  15.3545  15.4254  15.5424
    15.6300  15.6635  15.7026  15.8372  15.8908  15.9714  16.1360  16.2371
    16.2423  16.2652  16.3138  16.3641  16.4628  16.5819  16.6386  16.7444
    16.8559  16.8829  16.9790  17.0361  17.0835  17.1428  17.1732  17.2425
    17.2970  17.3667  17.5449  17.5731  17.6235  17.7303  17.8631  17.9429
    18.2563  18.3894  18.4748  18.6855  18.7305  18.8741  18.9553  19.0333
    19.0773  19.2508  19.2955  19.3846  19.4499  19.4743  19.5276  19.5912
    19.6508  19.7031

     occupation numbers 
     1.0000   1.0000   1.0000   1.0000   1.0000   1.0000   1.0000   1.0000
     1.0000   1.0000   1.0000   1.0000   1.0000   1.0000   1.0000   1.0000
     1.0000   1.0000   1.0000   1.0000   1.0000   1.0000   1.0000   1.0000
     1.0000   1.0000   1.0000   1.0000   1.0000   1.0000   1.0000   1.0000
     1.0000   1.0000   1.0000   1.0000   1.0000   1.0000   1.0000   1.0000
     1.0000   1.0000   1.0000   1.0000   1.0000   1.0000   1.0000   1.0000
     1.0000   1.0000   1.0000   1.0000   1.0000   1.0000   1.0000   1.0000
     1.0000   1.0000   1.0000   1.0000   1.0000   1.0000   1.0000   1.0000
     1.0000   1.0000   1.0000   1.0000   1.0000   1.0000   1.0000   1.0000
     1.0000   1.0000   1.0000   1.0000   1.0000   1.0000   1.0000   1.0000
     1.0000   1.0000   1.0000   1.0000   1.0000   1.0000   1.0000   1.0000
     1.0000   1.0000   1.0000   1.0000   1.0000   1.0000   1.0000   1.0000
     1.0000   1.0000   1.0000   1.0000   1.0000   1.0000   1.0000   1.0000
     1.0000   1.0000   1.0000   1.0000   1.0000   1.0000   1.0000   1.0000
     1.0000   1.0000   1.0000   1.0000   1.0000   1.0000   1.0000   1.0000
     1.0000   1.0000   1.0000   1.0000   1.0000   1.0000   1.0000   1.0000
     1.0000   1.0000   1.0000   1.0000   1.0000   1.0000   1.0000   1.0000
     1.0000   1.0000   1.0000   1.0000   1.0000   1.0000   1.0000   1.0000
     1.0000   1.0000   1.0000   1.0000   1.0000   1.0000   1.0000   1.0000
     1.0000   1.0000   1.0000   1.0000   1.0000   1.0000   1.0000   1.0000
     1.0000   1.0000   1.0000   1.0000   1.0000   1.0000   1.0000   1.0000
     1.0000   1.0000   1.0000   1.0000   1.0000   1.0000   1.0000   1.0000
     1.0000   1.0000   1.0000   1.0000   1.0000   1.0000   1.0000   1.0000
     1.0000   1.0000   1.0000   1.0000   1.0000   1.0000   1.0000   1.0000
     1.0000   1.0000   1.0000   1.0000   1.0000   1.0000   1.0000   1.0000
     1.0000   1.0000   1.0000   1.0000   1.0000   1.0000   1.0000   1.0000
     1.0000   1.0000   1.0000   1.0000   1.0000   1.0000   1.0000   1.0000
     1.0000   1.0000   1.0000   1.0000   1.0000   1.0000   1.0000   1.0000
     1.0000   1.0000   1.0000   1.0000   1.0000   1.0000   1.0000   1.0000
     1.0000   1.0000   1.0000   1.0000   1.0000   1.0000   1.0000   1.0000
     1.0000   1.0000   1.0000   1.0000   1.0000   1.0000   1.0000   1.0000
     1.0000   1.0000   1.0000   1.0000   1.0000   1.0000   1.0000   1.0000
     1.0000   1.0000   1.0000   1.0000   1.0000   1.0000   1.0000   1.0000
     1.0000   1.0000   1.0000   1.0000   1.0000   1.0000   1.0000   1.0000
     1.0000   1.0000   1.0000   1.0000   1.0000   1.0000   1.0000   1.0000
     1.0000   1.0000   1.0000   1.0000   1.0000   1.0000   1.0000   1.0000
     1.0000   1.0000   1.0000   1.0000   1.0000   1.0000   1.0000   1.0000
     1.0000   1.0000   1.0000   1.0000   1.0000   1.0000   1.0000   1.0000
     1.0000   1.0000   1.0000   1.0000   1.0000   1.0000   1.0000   1.0000
     1.0000   1.0000   1.0000   1.0000   1.0000   1.0000   1.0000   1.0000
     1.0000   1.0000   1.0000   1.0000   1.0000   1.0000   1.0000   1.0000
     1.0000   1.0000   1.0000   1.0000   1.0000   1.0000   1.0000   1.0000
     1.0000   1.0000   1.0000   1.0000   1.0000   1.0000   1.0000   1.0000
     1.0000   1.0000   1.0000   1.0000   1.0000   1.0000   1.0000   1.0000
     1.0000   1.0000   1.0000   1.0000   1.0000   1.0000   1.0000   1.0000
     1.0000   1.0000   1.0000   1.0000   1.0000   1.0000   1.0000   1.0000
     1.0000   1.0000   1.0000   1.0000   1.0000   1.0000   1.0000   1.0000
     1.0000   1.0000   1.0000   1.0000   1.0000   1.0000   1.0000   1.0000
     1.0000   1.0000   1.0000   1.0000   0.0000   0.0000   0.0000   0.0000
     0.0000   0.0000   0.0000   0.0000   0.0000   0.0000   0.0000   0.0000
     0.0000   0.0000   0.0000   0.0000   0.0000   0.0000   0.0000   0.0000
     0.0000   0.0000   0.0000   0.0000   0.0000   0.0000   0.0000   0.0000
     0.0000   0.0000   0.0000   0.0000   0.0000   0.0000   0.0000   0.0000
     0.0000   0.0000   0.0000   0.0000   0.0000   0.0000   0.0000   0.0000
     0.0000   0.0000   0.0000   0.0000   0.0000   0.0000   0.0000   0.0000
     0.0000   0.0000   0.0000   0.0000   0.0000   0.0000   0.0000   0.0000
     0.0000   0.0000   0.0000   0.0000   0.0000   0.0000   0.0000   0.0000
     0.0000   0.0000   0.0000   0.0000   0.0000   0.0000   0.0000   0.0000
     0.0000   0.0000

          k = 0.0002 0.0000-0.6009 ( 42582 PWs)   bands (ev):

  -115.0341-115.0252-115.0243-115.0057-114.9840-114.9838-114.9812-114.9808
  -114.9802-114.9788-114.9766-114.9726-114.9712-114.9661-114.9661-114.9623
  -114.9598-114.9539-114.9395-114.9202 -69.3970 -69.3915 -69.3911 -69.3901
   -69.3857 -69.3852 -69.3832 -69.3814 -69.3769 -69.3732 -69.3616 -69.3605
   -69.3493 -69.3477 -69.3472 -69.3465 -69.3462 -69.3458 -69.3444 -69.3439
   -69.3425 -69.3412 -69.3406 -69.3398 -69.3397 -69.3391 -69.3388 -69.3380
   -69.3366 -69.3362 -69.3349 -69.3346 -69.3337 -69.3312 -69.3307 -69.3305
   -69.3299 -69.3295 -69.3284 -69.3270 -69.3264 -69.3263 -69.3252 -69.3248
   -69.3246 -69.3242 -69.3220 -69.3215 -69.3208 -69.3188 -69.3178 -69.3151
   -69.3109 -69.3061 -69.3029 -69.2985 -69.2959 -69.2856 -69.2790 -69.2764
   -64.5697 -64.5654 -64.5592 -64.5588 -64.5580 -64.5504 -64.5488 -64.5454
   -64.5405 -64.5293 -64.5255 -64.5220 -64.5216 -64.5180 -64.5138 -64.4885
   -31.5654 -31.5586 -31.5550 -31.5540 -31.5530 -31.5508 -31.5492 -31.5483
   -31.5469 -31.5457 -31.5456 -31.5425 -31.5417 -31.5406 -31.5405 -31.5395
   -31.5376 -31.5371 -31.5351 -31.5334 -31.5300 -31.5292 -31.5270 -31.5266
   -31.5218 -31.5202 -31.5192 -31.5143 -31.5134 -31.5116 -31.5105 -31.5101
   -31.5079 -31.5055 -31.5046 -31.5041 -31.5023 -31.5008 -31.5007 -31.4999
   -31.4987 -31.4959 -31.4934 -31.4930 -31.4872 -31.4730 -31.4669 -31.4642
    -9.6053  -9.5209  -9.2422  -9.2117  -9.1810  -9.1598  -9.1563  -9.1197
    -9.0991  -9.0918  -9.0724  -9.0550  -8.9796  -8.9112  -8.8125  -8.7815
    -8.7615  -8.7299  -8.7102  -8.6774  -8.6564  -8.6381  -8.6237  -8.6032
    -8.5976  -8.5510  -8.5450  -8.5430  -8.5092  -8.5011  -8.4603  -8.4412
    -8.4336  -8.4029  -8.3912  -8.2374   2.1073   2.1238   2.1839   2.2049
     2.2108   2.2449   2.2525   2.2739   2.2996   2.3497   2.3727   2.3984
     2.4201   2.4512   2.4674   2.4796   2.5042   2.5308   2.5520   2.5638
     2.5882   2.5895   2.6068   2.6487   2.6583   2.6684   2.6770   2.6885
     2.6929   2.7215   2.7410   2.7438   2.7638   2.7701   2.7853   2.8041
     2.8098   2.8194   2.8364   2.8458   2.8581   2.8684   2.8824   2.8925
     2.9065   2.9216   2.9274   2.9334   2.9434   2.9597   2.9655   2.9872
     2.9975   3.0090   3.0137   3.0340   3.0460   3.0499   3.0605   3.0802
     3.0882   3.1185   3.1317   3.1470   3.1636   3.1743   3.1968   3.2040
     3.2147   3.2408   3.2573   3.2769   3.2910   3.3213   3.3416   3.3541
     3.3793   3.4012   3.4137   3.4491   3.4803   3.4986   3.5186   3.5478
     3.5653   3.5983   3.6048   3.6180   3.6403   3.6548   3.6668   3.6790
     3.6919   3.7168   3.7315   3.7545   3.7723   3.7940   3.7979   3.8123
     3.8682   3.9061   3.9686   4.0305   4.1021   4.1279   4.1617   4.1809
     4.1978   4.2199   4.2729   4.2927   4.3725   4.4182   4.4272   4.4362
     4.4669   4.4849   4.5414   4.5812   4.6027   4.6546   4.7150   4.7273
     4.7687   4.8022   4.8094   4.8606   4.8840   4.9265   5.0217   5.0469
     5.0672   5.1787   5.2131   5.2472   5.3284   5.3910   5.5320   5.5628
     5.5838   5.5928   5.6212   5.6469   5.6706   5.6890   5.7107   5.7314
     5.7493   5.7695   5.7830   5.8329   5.8550   5.8773   5.8966   5.9157
     5.9310   5.9725   5.9812   6.0212   6.0702   6.1187   6.1542   6.2586
     6.2821   6.3874   6.4874   6.5369   6.5434   6.5612   6.5833   6.6349
     6.6860   6.6914   6.7185   6.7679   6.7720   6.7889   6.8415   6.8509
     6.8790   6.9001   6.9057   6.9222   6.9488   6.9646   6.9895   7.0158
     7.0321   7.0884   7.1389   7.1766   7.2908   7.3195   7.3617   7.3791
     7.4092   7.4369   7.4457   7.4938   7.5124   7.5531   7.5620   7.5849
     7.6403   7.6686   7.6847   7.7155  10.9012  11.0733  12.7765  12.8320
    12.8541  12.9332  12.9615  13.0340  13.0803  13.1175  13.1571  13.2024
    13.3061  13.5315  13.9331  14.2863  14.9785  15.0027  15.0511  15.0704
    15.1649  15.2295  15.2738  15.3155  15.3366  15.4018  15.4706  15.5051
    15.5093  15.5512  15.5807  15.6051  15.8539  16.0576  16.1404  16.1848
    16.2715  16.3177  16.3782  16.4089  16.5004  16.5108  16.5186  16.5774
    16.6374  16.6683  16.6836  16.7189  16.7471  16.8045  16.8526  16.8703
    16.9762  17.4686  17.5906  17.6151  17.7112  17.8506  17.8845  17.9646
    18.0580  18.0733  18.3474  18.6370  18.6968  18.7871  18.8805  19.0089
    19.1175  19.1578  19.2191  19.2610  19.3989  19.4382  19.4514  19.6239
    19.7603  19.8015

     occupation numbers 
     1.0000   1.0000   1.0000   1.0000   1.0000   1.0000   1.0000   1.0000
     1.0000   1.0000   1.0000   1.0000   1.0000   1.0000   1.0000   1.0000
     1.0000   1.0000   1.0000   1.0000   1.0000   1.0000   1.0000   1.0000
     1.0000   1.0000   1.0000   1.0000   1.0000   1.0000   1.0000   1.0000
     1.0000   1.0000   1.0000   1.0000   1.0000   1.0000   1.0000   1.0000
     1.0000   1.0000   1.0000   1.0000   1.0000   1.0000   1.0000   1.0000
     1.0000   1.0000   1.0000   1.0000   1.0000   1.0000   1.0000   1.0000
     1.0000   1.0000   1.0000   1.0000   1.0000   1.0000   1.0000   1.0000
     1.0000   1.0000   1.0000   1.0000   1.0000   1.0000   1.0000   1.0000
     1.0000   1.0000   1.0000   1.0000   1.0000   1.0000   1.0000   1.0000
     1.0000   1.0000   1.0000   1.0000   1.0000   1.0000   1.0000   1.0000
     1.0000   1.0000   1.0000   1.0000   1.0000   1.0000   1.0000   1.0000
     1.0000   1.0000   1.0000   1.0000   1.0000   1.0000   1.0000   1.0000
     1.0000   1.0000   1.0000   1.0000   1.0000   1.0000   1.0000   1.0000
     1.0000   1.0000   1.0000   1.0000   1.0000   1.0000   1.0000   1.0000
     1.0000   1.0000   1.0000   1.0000   1.0000   1.0000   1.0000   1.0000
     1.0000   1.0000   1.0000   1.0000   1.0000   1.0000   1.0000   1.0000
     1.0000   1.0000   1.0000   1.0000   1.0000   1.0000   1.0000   1.0000
     1.0000   1.0000   1.0000   1.0000   1.0000   1.0000   1.0000   1.0000
     1.0000   1.0000   1.0000   1.0000   1.0000   1.0000   1.0000   1.0000
     1.0000   1.0000   1.0000   1.0000   1.0000   1.0000   1.0000   1.0000
     1.0000   1.0000   1.0000   1.0000   1.0000   1.0000   1.0000   1.0000
     1.0000   1.0000   1.0000   1.0000   1.0000   1.0000   1.0000   1.0000
     1.0000   1.0000   1.0000   1.0000   1.0000   1.0000   1.0000   1.0000
     1.0000   1.0000   1.0000   1.0000   1.0000   1.0000   1.0000   1.0000
     1.0000   1.0000   1.0000   1.0000   1.0000   1.0000   1.0000   1.0000
     1.0000   1.0000   1.0000   1.0000   1.0000   1.0000   1.0000   1.0000
     1.0000   1.0000   1.0000   1.0000   1.0000   1.0000   1.0000   1.0000
     1.0000   1.0000   1.0000   1.0000   1.0000   1.0000   1.0000   1.0000
     1.0000   1.0000   1.0000   1.0000   1.0000   1.0000   1.0000   1.0000
     1.0000   1.0000   1.0000   1.0000   1.0000   1.0000   1.0000   1.0000
     1.0000   1.0000   1.0000   1.0000   1.0000   1.0000   1.0000   1.0000
     1.0000   1.0000   1.0000   1.0000   1.0000   1.0000   1.0000   1.0000
     1.0000   1.0000   1.0000   1.0000   1.0000   1.0000   1.0000   1.0000
     1.0000   1.0000   1.0000   1.0000   1.0000   1.0000   1.0000   1.0000
     1.0000   1.0000   1.0000   1.0000   1.0000   1.0000   1.0000   1.0000
     1.0000   1.0000   1.0000   1.0000   1.0000   1.0000   1.0000   1.0000
     1.0000   1.0000   1.0000   1.0000   1.0000   1.0000   1.0000   1.0000
     1.0000   1.0000   1.0000   1.0000   1.0000   1.0000   1.0000   1.0000
     1.0000   1.0000   1.0000   1.0000   1.0000   1.0000   1.0000   1.0000
     1.0000   1.0000   1.0000   1.0000   1.0000   1.0000   1.0000   1.0000
     1.0000   1.0000   1.0000   1.0000   1.0000   1.0000   1.0000   1.0000
     1.0000   1.0000   1.0000   1.0000   1.0000   1.0000   1.0000   1.0000
     1.0000   1.0000   1.0000   1.0000   1.0000   1.0000   1.0000   1.0000
     1.0000   1.0000   1.0000   1.0000   1.0000   1.0000   1.0000   1.0000
     1.0000   1.0000   1.0000   1.0000   1.0000   1.0000   1.0000   1.0000
     1.0000   1.0000   1.0000   1.0000   1.0000   1.0000   1.0000   1.0000
     1.0000   1.0000   1.0000   1.0000   1.0000   1.0000   1.0000   1.0000
     1.0000   1.0000   1.0000   1.0000   0.0000   0.0000   0.0000   0.0000
     0.0000   0.0000   0.0000   0.0000   0.0000   0.0000   0.0000   0.0000
     0.0000   0.0000   0.0000   0.0000   0.0000   0.0000   0.0000   0.0000
     0.0000   0.0000   0.0000   0.0000   0.0000   0.0000   0.0000   0.0000
     0.0000   0.0000   0.0000   0.0000   0.0000   0.0000   0.0000   0.0000
     0.0000   0.0000   0.0000   0.0000   0.0000   0.0000   0.0000   0.0000
     0.0000   0.0000   0.0000   0.0000   0.0000   0.0000   0.0000   0.0000
     0.0000   0.0000   0.0000   0.0000   0.0000   0.0000   0.0000   0.0000
     0.0000   0.0000   0.0000   0.0000   0.0000   0.0000   0.0000   0.0000
     0.0000   0.0000   0.0000   0.0000   0.0000   0.0000   0.0000   0.0000
     0.0000   0.0000

          k = 0.0002 0.2885-0.0000 ( 42716 PWs)   bands (ev):

  -115.0341-115.0252-115.0243-115.0057-114.9840-114.9838-114.9812-114.9808
  -114.9802-114.9788-114.9766-114.9726-114.9712-114.9661-114.9661-114.9623
  -114.9598-114.9539-114.9395-114.9202 -69.3970 -69.3915 -69.3911 -69.3901
   -69.3857 -69.3852 -69.3832 -69.3814 -69.3769 -69.3732 -69.3616 -69.3605
   -69.3493 -69.3477 -69.3472 -69.3465 -69.3462 -69.3458 -69.3444 -69.3439
   -69.3425 -69.3412 -69.3406 -69.3398 -69.3397 -69.3391 -69.3388 -69.3380
   -69.3366 -69.3362 -69.3349 -69.3346 -69.3337 -69.3312 -69.3307 -69.3305
   -69.3299 -69.3295 -69.3284 -69.3270 -69.3264 -69.3263 -69.3251 -69.3248
   -69.3246 -69.3243 -69.3220 -69.3215 -69.3208 -69.3188 -69.3178 -69.3151
   -69.3109 -69.3061 -69.3029 -69.2985 -69.2959 -69.2856 -69.2790 -69.2764
   -64.5697 -64.5654 -64.5592 -64.5588 -64.5580 -64.5504 -64.5488 -64.5454
   -64.5405 -64.5293 -64.5255 -64.5220 -64.5216 -64.5180 -64.5138 -64.4885
   -31.5657 -31.5596 -31.5549 -31.5541 -31.5516 -31.5509 -31.5492 -31.5471
   -31.5470 -31.5458 -31.5454 -31.5425 -31.5417 -31.5406 -31.5405 -31.5394
   -31.5390 -31.5373 -31.5349 -31.5334 -31.5301 -31.5296 -31.5269 -31.5262
   -31.5219 -31.5198 -31.5192 -31.5143 -31.5133 -31.5116 -31.5105 -31.5101
   -31.5079 -31.5055 -31.5046 -31.5042 -31.5022 -31.5008 -31.5007 -31.5000
   -31.4987 -31.4959 -31.4934 -31.4931 -31.4871 -31.4730 -31.4669 -31.4642
    -9.7242  -9.4564  -9.3724  -9.3152  -9.1887  -9.1529  -9.0813  -9.0429
    -9.0194  -8.9590  -8.9279  -8.8997  -8.8764  -8.8494  -8.8380  -8.8208
    -8.8012  -8.7781  -8.7603  -8.7404  -8.7257  -8.6987  -8.6814  -8.6592
    -8.6505  -8.6206  -8.5839  -8.5698  -8.5524  -8.4866  -8.4492  -8.4238
    -8.3961  -8.3732  -8.3168  -8.2189   1.9232   1.9363   2.0271   2.0644
     2.1083   2.1318   2.1714   2.1877   2.2105   2.2290   2.2881   2.3154
     2.3623   2.4119   2.4321   2.4513   2.4777   2.4934   2.5108   2.5366
     2.5527   2.5626   2.5757   2.6006   2.6147   2.6285   2.6527   2.6811
     2.6909   2.7047   2.7216   2.7324   2.7481   2.7621   2.7779   2.7917
     2.8009   2.8250   2.8323   2.8538   2.8818   2.8929   2.9424   2.9848
     2.9992   3.0036   3.0204   3.0306   3.0396   3.0492   3.0634   3.0705
     3.0907   3.1018   3.1147   3.1219   3.1313   3.1508   3.1587   3.1742
     3.1897   3.1983   3.2147   3.2278   3.2451   3.2642   3.2873   3.2929
     3.3066   3.3164   3.3364   3.3438   3.3592   3.3700   3.3910   3.4135
     3.4259   3.4365   3.4521   3.4733   3.4815   3.4875   3.5028   3.5156
     3.5334   3.5629   3.5916   3.6093   3.6198   3.6460   3.6541   3.6784
     3.6953   3.7132   3.7285   3.7473   3.7739   3.7947   3.8171   3.8490
     3.8659   3.9021   3.9309   3.9739   4.0154   4.1437   4.1910   4.2127
     4.2526   4.2848   4.3035   4.3411   4.3756   4.4196   4.4853   4.5130
     4.5570   4.6023   4.6518   4.6867   4.7043   4.7746   4.8312   4.8604
     4.8877   4.9232   4.9495   4.9732   5.0208   5.0647   5.0791   5.1021
     5.1377   5.1624   5.1694   5.1993   5.2200   5.2462   5.2666   5.2924
     5.3134   5.3487   5.3802   5.4114   5.4427   5.4952   5.5253   5.5641
     5.6019   5.6172   5.7218   5.8031   5.8498   5.9113   5.9628   5.9786
     6.0249   6.0619   6.0809   6.1229   6.1503   6.1683   6.1992   6.2091
     6.2255   6.2668   6.2916   6.3534   6.4179   6.4372   6.4684   6.4969
     6.5616   6.5750   6.5946   6.6489   6.6871   6.7210   6.7520   6.8062
     6.8331   6.8576   6.8756   6.9241   6.9328   6.9533   7.0408   7.0617
     7.1038   7.1313   7.1860   7.1988   7.2426   7.2645   7.2955   7.3224
     7.3421   7.3656   7.4000   7.4395   7.4826   7.5377   7.5911   7.7459
     7.8654   7.9982   8.0254   8.0754  10.0730  11.8544  12.3624  12.5119
    12.9891  13.0076  13.3262  13.4725  13.5846  13.6382  13.7796  13.8382
    13.9101  13.9766  14.0039  14.1225  14.2103  14.2390  14.2879  14.3578
    14.3990  14.5682  14.8214  14.9485  15.0855  15.1441  15.3324  15.4041
    15.4365  15.4912  15.5052  15.5623  15.6453  15.7624  15.9132  15.9448
    16.1950  16.2704  16.3638  16.4757  16.6683  16.9087  17.1238  17.1581
    17.1877  17.2304  17.2813  17.3767  17.4087  17.4505  17.5084  17.5884
    17.6097  17.6602  17.7097  17.8202  17.8282  17.9298  18.0484  18.1276
    18.2009  18.4585  18.5432  18.6621  18.8010  18.8520  18.9006  18.9503
    18.9880  19.0811  19.1344  19.2883  19.3086  19.3764  19.4164  19.4762
    19.5414  19.5938

     occupation numbers 
     1.0000   1.0000   1.0000   1.0000   1.0000   1.0000   1.0000   1.0000
     1.0000   1.0000   1.0000   1.0000   1.0000   1.0000   1.0000   1.0000
     1.0000   1.0000   1.0000   1.0000   1.0000   1.0000   1.0000   1.0000
     1.0000   1.0000   1.0000   1.0000   1.0000   1.0000   1.0000   1.0000
     1.0000   1.0000   1.0000   1.0000   1.0000   1.0000   1.0000   1.0000
     1.0000   1.0000   1.0000   1.0000   1.0000   1.0000   1.0000   1.0000
     1.0000   1.0000   1.0000   1.0000   1.0000   1.0000   1.0000   1.0000
     1.0000   1.0000   1.0000   1.0000   1.0000   1.0000   1.0000   1.0000
     1.0000   1.0000   1.0000   1.0000   1.0000   1.0000   1.0000   1.0000
     1.0000   1.0000   1.0000   1.0000   1.0000   1.0000   1.0000   1.0000
     1.0000   1.0000   1.0000   1.0000   1.0000   1.0000   1.0000   1.0000
     1.0000   1.0000   1.0000   1.0000   1.0000   1.0000   1.0000   1.0000
     1.0000   1.0000   1.0000   1.0000   1.0000   1.0000   1.0000   1.0000
     1.0000   1.0000   1.0000   1.0000   1.0000   1.0000   1.0000   1.0000
     1.0000   1.0000   1.0000   1.0000   1.0000   1.0000   1.0000   1.0000
     1.0000   1.0000   1.0000   1.0000   1.0000   1.0000   1.0000   1.0000
     1.0000   1.0000   1.0000   1.0000   1.0000   1.0000   1.0000   1.0000
     1.0000   1.0000   1.0000   1.0000   1.0000   1.0000   1.0000   1.0000
     1.0000   1.0000   1.0000   1.0000   1.0000   1.0000   1.0000   1.0000
     1.0000   1.0000   1.0000   1.0000   1.0000   1.0000   1.0000   1.0000
     1.0000   1.0000   1.0000   1.0000   1.0000   1.0000   1.0000   1.0000
     1.0000   1.0000   1.0000   1.0000   1.0000   1.0000   1.0000   1.0000
     1.0000   1.0000   1.0000   1.0000   1.0000   1.0000   1.0000   1.0000
     1.0000   1.0000   1.0000   1.0000   1.0000   1.0000   1.0000   1.0000
     1.0000   1.0000   1.0000   1.0000   1.0000   1.0000   1.0000   1.0000
     1.0000   1.0000   1.0000   1.0000   1.0000   1.0000   1.0000   1.0000
     1.0000   1.0000   1.0000   1.0000   1.0000   1.0000   1.0000   1.0000
     1.0000   1.0000   1.0000   1.0000   1.0000   1.0000   1.0000   1.0000
     1.0000   1.0000   1.0000   1.0000   1.0000   1.0000   1.0000   1.0000
     1.0000   1.0000   1.0000   1.0000   1.0000   1.0000   1.0000   1.0000
     1.0000   1.0000   1.0000   1.0000   1.0000   1.0000   1.0000   1.0000
     1.0000   1.0000   1.0000   1.0000   1.0000   1.0000   1.0000   1.0000
     1.0000   1.0000   1.0000   1.0000   1.0000   1.0000   1.0000   1.0000
     1.0000   1.0000   1.0000   1.0000   1.0000   1.0000   1.0000   1.0000
     1.0000   1.0000   1.0000   1.0000   1.0000   1.0000   1.0000   1.0000
     1.0000   1.0000   1.0000   1.0000   1.0000   1.0000   1.0000   1.0000
     1.0000   1.0000   1.0000   1.0000   1.0000   1.0000   1.0000   1.0000
     1.0000   1.0000   1.0000   1.0000   1.0000   1.0000   1.0000   1.0000
     1.0000   1.0000   1.0000   1.0000   1.0000   1.0000   1.0000   1.0000
     1.0000   1.0000   1.0000   1.0000   1.0000   1.0000   1.0000   1.0000
     1.0000   1.0000   1.0000   1.0000   1.0000   1.0000   1.0000   1.0000
     1.0000   1.0000   1.0000   1.0000   1.0000   1.0000   1.0000   1.0000
     1.0000   1.0000   1.0000   1.0000   1.0000   1.0000   1.0000   1.0000
     1.0000   1.0000   1.0000   1.0000   1.0000   1.0000   1.0000   1.0000
     1.0000   1.0000   1.0000   1.0000   1.0000   1.0000   1.0000   1.0000
     1.0000   1.0000   1.0000   1.0000   1.0000   1.0000   1.0000   1.0000
     1.0000   1.0000   1.0000   1.0000   1.0000   1.0000   1.0000   1.0000
     1.0000   1.0000   1.0000   1.0000   1.0000   1.0000   1.0000   1.0000
     1.0000   1.0000   1.0000   1.0000   0.0000   0.0000   0.0000   0.0000
     0.0000   0.0000   0.0000   0.0000   0.0000   0.0000   0.0000   0.0000
     0.0000   0.0000   0.0000   0.0000   0.0000   0.0000   0.0000   0.0000
     0.0000   0.0000   0.0000   0.0000   0.0000   0.0000   0.0000   0.0000
     0.0000   0.0000   0.0000   0.0000   0.0000   0.0000   0.0000   0.0000
     0.0000   0.0000   0.0000   0.0000   0.0000   0.0000   0.0000   0.0000
     0.0000   0.0000   0.0000   0.0000   0.0000   0.0000   0.0000   0.0000
     0.0000   0.0000   0.0000   0.0000   0.0000   0.0000   0.0000   0.0000
     0.0000   0.0000   0.0000   0.0000   0.0000   0.0000   0.0000   0.0000
     0.0000   0.0000   0.0000   0.0000   0.0000   0.0000   0.0000   0.0000
     0.0000   0.0000

          k = 0.0000 0.2885 0.3004 ( 42753 PWs)   bands (ev):

  -115.0341-115.0252-115.0243-115.0057-114.9840-114.9838-114.9812-114.9808
  -114.9802-114.9788-114.9766-114.9726-114.9712-114.9661-114.9661-114.9623
  -114.9598-114.9539-114.9395-114.9202 -69.3970 -69.3915 -69.3911 -69.3901
   -69.3857 -69.3852 -69.3832 -69.3814 -69.3769 -69.3732 -69.3616 -69.3605
   -69.3493 -69.3477 -69.3472 -69.3465 -69.3462 -69.3458 -69.3444 -69.3439
   -69.3425 -69.3412 -69.3406 -69.3398 -69.3397 -69.3391 -69.3388 -69.3380
   -69.3366 -69.3362 -69.3349 -69.3346 -69.3337 -69.3312 -69.3307 -69.3305
   -69.3299 -69.3295 -69.3284 -69.3270 -69.3264 -69.3263 -69.3252 -69.3248
   -69.3246 -69.3242 -69.3220 -69.3215 -69.3208 -69.3188 -69.3178 -69.3151
   -69.3109 -69.3061 -69.3029 -69.2985 -69.2959 -69.2856 -69.2790 -69.2764
   -64.5697 -64.5654 -64.5592 -64.5588 -64.5580 -64.5504 -64.5488 -64.5454
   -64.5405 -64.5293 -64.5255 -64.5220 -64.5216 -64.5180 -64.5138 -64.4885
   -31.5656 -31.5591 -31.5550 -31.5541 -31.5522 -31.5509 -31.5492 -31.5477
   -31.5470 -31.5460 -31.5453 -31.5425 -31.5417 -31.5406 -31.5405 -31.5396
   -31.5380 -31.5373 -31.5350 -31.5334 -31.5301 -31.5294 -31.5269 -31.5264
   -31.5218 -31.5199 -31.5192 -31.5143 -31.5133 -31.5116 -31.5105 -31.5101
   -31.5079 -31.5055 -31.5046 -31.5042 -31.5022 -31.5008 -31.5007 -31.5000
   -31.4987 -31.4959 -31.4934 -31.4931 -31.4872 -31.4730 -31.4669 -31.4642
    -9.6762  -9.4239  -9.3571  -9.3037  -9.2445  -9.1544  -9.1141  -9.0996
    -9.0449  -9.0255  -8.9747  -8.9252  -8.8851  -8.8720  -8.8356  -8.8122
    -8.7988  -8.7498  -8.7409  -8.7154  -8.6928  -8.6770  -8.6488  -8.6274
    -8.6090  -8.5865  -8.5632  -8.5576  -8.5369  -8.5024  -8.4531  -8.4295
    -8.4098  -8.3913  -8.3449  -8.2286   1.9812   2.0386   2.0941   2.1257
     2.1618   2.1954   2.2048   2.2435   2.2714   2.3079   2.3306   2.3594
     2.3806   2.4148   2.4416   2.4713   2.5000   2.5032   2.5263   2.5477
     2.5651   2.5712   2.5892   2.6101   2.6218   2.6390   2.6486   2.6946
     2.7045   2.7110   2.7334   2.7441   2.7593   2.7754   2.7844   2.8006
     2.8123   2.8317   2.8448   2.8567   2.8640   2.8858   2.9081   2.9086
     2.9266   2.9417   2.9513   2.9678   2.9870   3.0051   3.0106   3.0246
     3.0340   3.0518   3.0638   3.0787   3.0899   3.1027   3.1176   3.1332
     3.1436   3.1636   3.1835   3.2022   3.2113   3.2258   3.2330   3.2550
     3.2610   3.2915   3.2952   3.3128   3.3376   3.3423   3.3791   3.3922
     3.4070   3.4207   3.4351   3.4538   3.4706   3.4970   3.5059   3.5249
     3.5542   3.5698   3.5910   3.6084   3.6162   3.6414   3.6563   3.6815
     3.6860   3.7068   3.7343   3.7544   3.7671   3.7993   3.8235   3.8323
     3.8860   3.9320   3.9642   4.0183   4.0586   4.1371   4.1645   4.1837
     4.2185   4.2628   4.3002   4.3379   4.3687   4.4227   4.4584   4.4856
     4.5420   4.5740   4.6020   4.6213   4.6681   4.7092   4.7340   4.7816
     4.8106   4.8475   4.9242   4.9393   4.9820   5.0068   5.0347   5.0547
     5.0788   5.1504   5.1880   5.2383   5.2769   5.3255   5.3703   5.4097
     5.4276   5.4708   5.5010   5.5343   5.5601   5.5921   5.6032   5.6398
     5.6940   5.7366   5.7814   5.8304   5.8527   5.8751   5.9126   5.9357
     5.9856   6.0116   6.0353   6.1140   6.1319   6.1667   6.2559   6.2997
     6.3142   6.3716   6.3874   6.4105   6.4593   6.5001   6.5385   6.5673
     6.5907   6.6228   6.6553   6.6931   6.7107   6.7417   6.7669   6.7950
     6.8126   6.8399   6.8800   6.8993   6.9126   6.9480   6.9671   7.0155
     7.0618   7.0670   7.1006   7.1352   7.1882   7.2106   7.2751   7.3037
     7.3953   7.4258   7.4645   7.5128   7.5497   7.5654   7.5972   7.7383
     7.7511   7.8384   7.9195   7.9631  10.3930  11.9449  12.0953  12.4577
    12.6454  12.9213  13.2042  13.2870  13.3465  13.4601  13.6553  13.7578
    13.8666  13.9034  13.9995  14.3111  14.4379  14.6132  14.6821  14.7089
    14.7718  14.8657  14.9122  15.0092  15.0887  15.1573  15.2257  15.2941
    15.4544  15.5472  15.6466  15.6673  15.7263  15.8052  15.9063  16.0020
    16.2300  16.3144  16.3828  16.4944  16.6331  16.6713  16.7838  16.9007
    16.9371  16.9561  16.9969  17.0767  17.1349  17.1556  17.3180  17.3701
    17.4711  17.5736  17.6413  17.7336  17.7766  17.8926  17.9654  18.0289
    18.2953  18.3749  18.5242  18.6250  18.7002  18.8516  18.8987  18.9442
    19.0159  19.1668  19.2418  19.3148  19.3972  19.4169  19.4658  19.5425
    19.5895  19.6224

     occupation numbers 
     1.0000   1.0000   1.0000   1.0000   1.0000   1.0000   1.0000   1.0000
     1.0000   1.0000   1.0000   1.0000   1.0000   1.0000   1.0000   1.0000
     1.0000   1.0000   1.0000   1.0000   1.0000   1.0000   1.0000   1.0000
     1.0000   1.0000   1.0000   1.0000   1.0000   1.0000   1.0000   1.0000
     1.0000   1.0000   1.0000   1.0000   1.0000   1.0000   1.0000   1.0000
     1.0000   1.0000   1.0000   1.0000   1.0000   1.0000   1.0000   1.0000
     1.0000   1.0000   1.0000   1.0000   1.0000   1.0000   1.0000   1.0000
     1.0000   1.0000   1.0000   1.0000   1.0000   1.0000   1.0000   1.0000
     1.0000   1.0000   1.0000   1.0000   1.0000   1.0000   1.0000   1.0000
     1.0000   1.0000   1.0000   1.0000   1.0000   1.0000   1.0000   1.0000
     1.0000   1.0000   1.0000   1.0000   1.0000   1.0000   1.0000   1.0000
     1.0000   1.0000   1.0000   1.0000   1.0000   1.0000   1.0000   1.0000
     1.0000   1.0000   1.0000   1.0000   1.0000   1.0000   1.0000   1.0000
     1.0000   1.0000   1.0000   1.0000   1.0000   1.0000   1.0000   1.0000
     1.0000   1.0000   1.0000   1.0000   1.0000   1.0000   1.0000   1.0000
     1.0000   1.0000   1.0000   1.0000   1.0000   1.0000   1.0000   1.0000
     1.0000   1.0000   1.0000   1.0000   1.0000   1.0000   1.0000   1.0000
     1.0000   1.0000   1.0000   1.0000   1.0000   1.0000   1.0000   1.0000
     1.0000   1.0000   1.0000   1.0000   1.0000   1.0000   1.0000   1.0000
     1.0000   1.0000   1.0000   1.0000   1.0000   1.0000   1.0000   1.0000
     1.0000   1.0000   1.0000   1.0000   1.0000   1.0000   1.0000   1.0000
     1.0000   1.0000   1.0000   1.0000   1.0000   1.0000   1.0000   1.0000
     1.0000   1.0000   1.0000   1.0000   1.0000   1.0000   1.0000   1.0000
     1.0000   1.0000   1.0000   1.0000   1.0000   1.0000   1.0000   1.0000
     1.0000   1.0000   1.0000   1.0000   1.0000   1.0000   1.0000   1.0000
     1.0000   1.0000   1.0000   1.0000   1.0000   1.0000   1.0000   1.0000
     1.0000   1.0000   1.0000   1.0000   1.0000   1.0000   1.0000   1.0000
     1.0000   1.0000   1.0000   1.0000   1.0000   1.0000   1.0000   1.0000
     1.0000   1.0000   1.0000   1.0000   1.0000   1.0000   1.0000   1.0000
     1.0000   1.0000   1.0000   1.0000   1.0000   1.0000   1.0000   1.0000
     1.0000   1.0000   1.0000   1.0000   1.0000   1.0000   1.0000   1.0000
     1.0000   1.0000   1.0000   1.0000   1.0000   1.0000   1.0000   1.0000
     1.0000   1.0000   1.0000   1.0000   1.0000   1.0000   1.0000   1.0000
     1.0000   1.0000   1.0000   1.0000   1.0000   1.0000   1.0000   1.0000
     1.0000   1.0000   1.0000   1.0000   1.0000   1.0000   1.0000   1.0000
     1.0000   1.0000   1.0000   1.0000   1.0000   1.0000   1.0000   1.0000
     1.0000   1.0000   1.0000   1.0000   1.0000   1.0000   1.0000   1.0000
     1.0000   1.0000   1.0000   1.0000   1.0000   1.0000   1.0000   1.0000
     1.0000   1.0000   1.0000   1.0000   1.0000   1.0000   1.0000   1.0000
     1.0000   1.0000   1.0000   1.0000   1.0000   1.0000   1.0000   1.0000
     1.0000   1.0000   1.0000   1.0000   1.0000   1.0000   1.0000   1.0000
     1.0000   1.0000   1.0000   1.0000   1.0000   1.0000   1.0000   1.0000
     1.0000   1.0000   1.0000   1.0000   1.0000   1.0000   1.0000   1.0000
     1.0000   1.0000   1.0000   1.0000   1.0000   1.0000   1.0000   1.0000
     1.0000   1.0000   1.0000   1.0000   1.0000   1.0000   1.0000   1.0000
     1.0000   1.0000   1.0000   1.0000   1.0000   1.0000   1.0000   1.0000
     1.0000   1.0000   1.0000   1.0000   1.0000   1.0000   1.0000   1.0000
     1.0000   1.0000   1.0000   1.0000   1.0000   1.0000   1.0000   1.0000
     1.0000   1.0000   1.0000   1.0000   0.0000   0.0000   0.0000   0.0000
     0.0000   0.0000   0.0000   0.0000   0.0000   0.0000   0.0000   0.0000
     0.0000   0.0000   0.0000   0.0000   0.0000   0.0000   0.0000   0.0000
     0.0000   0.0000   0.0000   0.0000   0.0000   0.0000   0.0000   0.0000
     0.0000   0.0000   0.0000   0.0000   0.0000   0.0000   0.0000   0.0000
     0.0000   0.0000   0.0000   0.0000   0.0000   0.0000   0.0000   0.0000
     0.0000   0.0000   0.0000   0.0000   0.0000   0.0000   0.0000   0.0000
     0.0000   0.0000   0.0000   0.0000   0.0000   0.0000   0.0000   0.0000
     0.0000   0.0000   0.0000   0.0000   0.0000   0.0000   0.0000   0.0000
     0.0000   0.0000   0.0000   0.0000   0.0000   0.0000   0.0000   0.0000
     0.0000   0.0000

          k = 0.0004 0.2885-0.6009 ( 42742 PWs)   bands (ev):

  -115.0341-115.0252-115.0243-115.0057-114.9840-114.9838-114.9812-114.9808
  -114.9802-114.9788-114.9766-114.9726-114.9712-114.9661-114.9661-114.9623
  -114.9598-114.9539-114.9395-114.9202 -69.3970 -69.3915 -69.3911 -69.3901
   -69.3857 -69.3852 -69.3832 -69.3814 -69.3769 -69.3732 -69.3616 -69.3605
   -69.3493 -69.3477 -69.3472 -69.3465 -69.3462 -69.3458 -69.3444 -69.3439
   -69.3425 -69.3412 -69.3406 -69.3398 -69.3397 -69.3391 -69.3388 -69.3380
   -69.3366 -69.3362 -69.3349 -69.3346 -69.3337 -69.3312 -69.3307 -69.3305
   -69.3299 -69.3295 -69.3284 -69.3270 -69.3264 -69.3263 -69.3252 -69.3248
   -69.3246 -69.3242 -69.3220 -69.3215 -69.3208 -69.3188 -69.3178 -69.3151
   -69.3109 -69.3061 -69.3029 -69.2985 -69.2959 -69.2856 -69.2790 -69.2764
   -64.5697 -64.5654 -64.5592 -64.5588 -64.5580 -64.5504 -64.5488 -64.5454
   -64.5405 -64.5293 -64.5255 -64.5220 -64.5216 -64.5180 -64.5138 -64.4885
   -31.5654 -31.5586 -31.5550 -31.5541 -31.5530 -31.5509 -31.5492 -31.5483
   -31.5469 -31.5459 -31.5453 -31.5425 -31.5417 -31.5406 -31.5405 -31.5395
   -31.5375 -31.5371 -31.5351 -31.5334 -31.5301 -31.5292 -31.5269 -31.5266
   -31.5218 -31.5201 -31.5191 -31.5143 -31.5133 -31.5115 -31.5105 -31.5101
   -31.5079 -31.5055 -31.5046 -31.5042 -31.5022 -31.5008 -31.5007 -31.5000
   -31.4987 -31.4959 -31.4934 -31.4931 -31.4872 -31.4730 -31.4669 -31.4642
    -9.5739  -9.4945  -9.3333  -9.2755  -9.2249  -9.2068  -9.1505  -9.0936
    -9.0761  -9.0556  -9.0239  -8.9733  -8.9528  -8.8745  -8.8448  -8.8266
    -8.7711  -8.7517  -8.7140  -8.6744  -8.6487  -8.6386  -8.6120  -8.6037
    -8.5930  -8.5534  -8.5452  -8.5394  -8.5118  -8.5021  -8.4593  -8.4420
    -8.4334  -8.4086  -8.3921  -8.2385   2.1012   2.1375   2.1860   2.2205
     2.2276   2.2460   2.2799   2.2909   2.3260   2.3518   2.3749   2.3915
     2.4293   2.4395   2.4652   2.4780   2.5051   2.5171   2.5440   2.5514
     2.5787   2.5905   2.6037   2.6351   2.6504   2.6637   2.6719   2.6990
     2.7050   2.7146   2.7319   2.7361   2.7537   2.7606   2.7768   2.7958
     2.7962   2.8054   2.8217   2.8323   2.8373   2.8656   2.8697   2.8855
     2.8941   2.9028   2.9144   2.9217   2.9386   2.9458   2.9689   2.9786
     2.9878   2.9971   3.0141   3.0314   3.0426   3.0579   3.0685   3.0728
     3.0892   3.1187   3.1260   3.1451   3.1533   3.1745   3.1905   3.1990
     3.2267   3.2319   3.2609   3.2817   3.2866   3.3196   3.3467   3.3650
     3.3887   3.4021   3.4177   3.4447   3.4770   3.4965   3.5237   3.5548
     3.5653   3.5768   3.6014   3.6181   3.6320   3.6508   3.6628   3.6812
     3.6970   3.7114   3.7304   3.7517   3.7598   3.7965   3.8146   3.8191
     3.8765   3.9294   4.0151   4.0747   4.1050   4.1417   4.1663   4.1913
     4.2256   4.2668   4.2984   4.3553   4.3687   4.4007   4.4453   4.4753
     4.5125   4.5212   4.5681   4.5855   4.6158   4.6678   4.7003   4.7385
     4.7540   4.8085   4.8340   4.8617   4.8791   4.9467   5.0100   5.0471
     5.0562   5.1458   5.2383   5.3037   5.3494   5.3734   5.4396   5.4609
     5.4743   5.5083   5.5572   5.5898   5.6560   5.6781   5.7133   5.7416
     5.7869   5.8138   5.8443   5.8605   5.8903   5.9499   5.9716   5.9920
     6.0104   6.0231   6.0534   6.1126   6.1399   6.1793   6.2160   6.2330
     6.3023   6.3660   6.4224   6.4442   6.4994   6.5370   6.5561   6.5805
     6.6152   6.6340   6.6635   6.6739   6.6937   6.7244   6.7323   6.7913
     6.8073   6.8363   6.8648   6.8869   6.9531   6.9675   6.9821   7.0372
     7.0593   7.0876   7.1357   7.2237   7.2581   7.2873   7.3245   7.3936
     7.4178   7.4418   7.4831   7.5013   7.5212   7.5731   7.6109   7.6290
     7.6631   7.6811   7.7078   7.7461  11.0765  11.2550  12.2288  12.3978
    12.6611  12.7748  12.8426  13.0000  13.3669  13.4804  13.5425  13.6664
    13.7526  13.8868  14.1037  14.3993  14.7432  14.8332  14.8662  14.9875
    15.0367  15.0740  15.1325  15.1813  15.2186  15.2474  15.3336  15.3822
    15.4154  15.5029  15.5988  15.6307  15.7363  15.9045  15.9765  16.1218
    16.2777  16.3963  16.4542  16.4907  16.5218  16.5599  16.5725  16.6091
    16.6545  16.6916  16.7128  16.7465  16.7861  16.8608  16.8992  17.0291
    17.1993  17.5394  17.5477  17.7293  17.8063  17.9673  18.0835  18.2027
    18.2502  18.3276  18.4086  18.5497  18.6811  18.7547  18.8029  18.9566
    19.0675  19.1323  19.1687  19.2555  19.3679  19.4301  19.5485  19.6043
    19.6548  19.7420

     occupation numbers 
     1.0000   1.0000   1.0000   1.0000   1.0000   1.0000   1.0000   1.0000
     1.0000   1.0000   1.0000   1.0000   1.0000   1.0000   1.0000   1.0000
     1.0000   1.0000   1.0000   1.0000   1.0000   1.0000   1.0000   1.0000
     1.0000   1.0000   1.0000   1.0000   1.0000   1.0000   1.0000   1.0000
     1.0000   1.0000   1.0000   1.0000   1.0000   1.0000   1.0000   1.0000
     1.0000   1.0000   1.0000   1.0000   1.0000   1.0000   1.0000   1.0000
     1.0000   1.0000   1.0000   1.0000   1.0000   1.0000   1.0000   1.0000
     1.0000   1.0000   1.0000   1.0000   1.0000   1.0000   1.0000   1.0000
     1.0000   1.0000   1.0000   1.0000   1.0000   1.0000   1.0000   1.0000
     1.0000   1.0000   1.0000   1.0000   1.0000   1.0000   1.0000   1.0000
     1.0000   1.0000   1.0000   1.0000   1.0000   1.0000   1.0000   1.0000
     1.0000   1.0000   1.0000   1.0000   1.0000   1.0000   1.0000   1.0000
     1.0000   1.0000   1.0000   1.0000   1.0000   1.0000   1.0000   1.0000
     1.0000   1.0000   1.0000   1.0000   1.0000   1.0000   1.0000   1.0000
     1.0000   1.0000   1.0000   1.0000   1.0000   1.0000   1.0000   1.0000
     1.0000   1.0000   1.0000   1.0000   1.0000   1.0000   1.0000   1.0000
     1.0000   1.0000   1.0000   1.0000   1.0000   1.0000   1.0000   1.0000
     1.0000   1.0000   1.0000   1.0000   1.0000   1.0000   1.0000   1.0000
     1.0000   1.0000   1.0000   1.0000   1.0000   1.0000   1.0000   1.0000
     1.0000   1.0000   1.0000   1.0000   1.0000   1.0000   1.0000   1.0000
     1.0000   1.0000   1.0000   1.0000   1.0000   1.0000   1.0000   1.0000
     1.0000   1.0000   1.0000   1.0000   1.0000   1.0000   1.0000   1.0000
     1.0000   1.0000   1.0000   1.0000   1.0000   1.0000   1.0000   1.0000
     1.0000   1.0000   1.0000   1.0000   1.0000   1.0000   1.0000   1.0000
     1.0000   1.0000   1.0000   1.0000   1.0000   1.0000   1.0000   1.0000
     1.0000   1.0000   1.0000   1.0000   1.0000   1.0000   1.0000   1.0000
     1.0000   1.0000   1.0000   1.0000   1.0000   1.0000   1.0000   1.0000
     1.0000   1.0000   1.0000   1.0000   1.0000   1.0000   1.0000   1.0000
     1.0000   1.0000   1.0000   1.0000   1.0000   1.0000   1.0000   1.0000
     1.0000   1.0000   1.0000   1.0000   1.0000   1.0000   1.0000   1.0000
     1.0000   1.0000   1.0000   1.0000   1.0000   1.0000   1.0000   1.0000
     1.0000   1.0000   1.0000   1.0000   1.0000   1.0000   1.0000   1.0000
[...]
     atom   27 type  2   force =     0.00000000    0.00000000    0.00000000
     atom   28 type  2   force =     0.00000000    0.00000000    0.00000000
     atom   29 type  2   force =     0.00000000    0.00000000    0.00000000
     atom   30 type  2   force =     0.00000000    0.00000000    0.00000000
     atom   31 type  2   force =     0.00000000    0.00000000    0.00000000
     atom   32 type  2   force =     0.00000000    0.00000000    0.00000000
     atom   33 type  2   force =     0.00000000    0.00000000    0.00000000
     atom   34 type  2   force =     0.00000000    0.00000000    0.00000000
     atom   35 type  2   force =     0.00000000    0.00000000    0.00000000
     atom   36 type  2   force =     0.00000000    0.00000000    0.00000000
     atom   37 type  2   force =     0.00000000    0.00000000    0.00000000
     atom   38 type  2   force =     0.00000000    0.00000000    0.00000000
     atom   39 type  2   force =     0.00000000    0.00000000    0.00000000
     atom   40 type  2   force =     0.00000000    0.00000000    0.00000000
     atom   41 type  2   force =     0.00000000    0.00000000    0.00000000
     atom   42 type  2   force =     0.00000000    0.00000000    0.00000000
     atom   43 type  2   force =     0.00000000    0.00000000    0.00000000
     atom   44 type  2   force =     0.00000000    0.00000000    0.00000000
     atom   45 type  2   force =     0.00000000    0.00000000    0.00000000
     atom   46 type  2   force =     0.00000000    0.00000000    0.00000000
     atom   47 type  2   force =     0.00000000    0.00000000    0.00000000
     atom   48 type  2   force =     0.00000000    0.00000000    0.00000000
     atom   49 type  2   force =     0.00000000    0.00000000    0.00000000
     atom   50 type  2   force =     0.00000000    0.00000000    0.00000000
     atom   51 type  2   force =     0.00000000    0.00000000    0.00000000
     atom   52 type  2   force =     0.00000000    0.00000000    0.00000000
     atom   53 type  1   force =     0.00000000    0.00000000    0.00000000
     atom   54 type  1   force =     0.00000000    0.00000000    0.00000000
     atom   55 type  1   force =     0.00000000    0.00000000    0.00000000
     atom   56 type  1   force =     0.00000000    0.00000000    0.00000000
     atom   57 type  1   force =     0.00000000    0.00000000    0.00000000
     atom   58 type  1   force =     0.00000000    0.00000000    0.00000000
     atom   59 type  1   force =     0.00000000    0.00000000    0.00000000
     atom   60 type  1   force =     0.00000000    0.00000000    0.00000000
     atom   61 type  1   force =     0.00000000    0.00000000    0.00000000
     atom   62 type  1   force =     0.00000000    0.00000000    0.00000000
     atom   63 type  1   force =     0.00000000    0.00000000    0.00000000
     atom   64 type  1   force =     0.00000000    0.00000000    0.00000000
     atom   65 type  1   force =     0.00000000    0.00000000    0.00000000
     atom   66 type  1   force =     0.00000000    0.00000000    0.00000000
     atom   67 type  1   force =     0.00000000    0.00000000    0.00000000
     atom   68 type  1   force =     0.00000000    0.00000000    0.00000000
     atom   69 type  1   force =     0.00000000    0.00000000    0.00000000
     atom   70 type  1   force =     0.00000000    0.00000000    0.00000000
     atom   71 type  1   force =     0.00000000    0.00000000    0.00000000
     atom   72 type  1   force =     0.00000000    0.00000000    0.00000000
     The SCF correction term to forces
     atom    1 type  3   force =    -0.00000017    0.00000011    0.00000000
     atom    2 type  3   force =     0.00000017    0.00000103    0.00000000
     atom    3 type  3   force =    -0.00000060   -0.00000052    0.00000000
     atom    4 type  3   force =     0.00000090   -0.00000011    0.00000000
     atom    5 type  3   force =    -0.00000052   -0.00000051    0.00000000
     atom    6 type  3   force =    -0.00000039   -0.00000059    0.00000000
     atom    7 type  3   force =     0.00000009    0.00000041    0.00000000
     atom    8 type  3   force =     0.00000012    0.00000026    0.00000000
     atom    9 type  3   force =     0.00000055    0.00000048    0.00000000
     atom   10 type  3   force =     0.00000067   -0.00000035    0.00000000
     atom   11 type  3   force =    -0.00000047   -0.00000041    0.00000000
     atom   12 type  3   force =    -0.00000077    0.00000032    0.00000000
     atom   13 type  3   force =    -0.00000056   -0.00000003    0.00000000
     atom   14 type  3   force =    -0.00000051    0.00000022    0.00000000
     atom   15 type  3   force =    -0.00000048   -0.00000071    0.00000000
     atom   16 type  3   force =    -0.00000061    0.00000064    0.00000000
     atom   17 type  2   force =     0.00000187   -0.00000167    0.00000000
     atom   18 type  2   force =     0.00000225    0.00000010    0.00000000
     atom   19 type  2   force =     0.00000131   -0.00000031    0.00000000
     atom   20 type  2   force =    -0.00000101   -0.00000216    0.00000000
     atom   21 type  2   force =     0.00000145   -0.00000106    0.00000000
     atom   22 type  2   force =    -0.00000053   -0.00000170    0.00000000
     atom   23 type  2   force =     0.00000193   -0.00000081    0.00000000
     atom   24 type  2   force =    -0.00000010   -0.00000048    0.00000000
     atom   25 type  2   force =    -0.00000053   -0.00000037    0.00000000
     atom   26 type  2   force =     0.00000177    0.00000018    0.00000000
     atom   27 type  2   force =    -0.00000016    0.00000030    0.00000000
     atom   28 type  2   force =    -0.00000019    0.00000227    0.00000000
     atom   29 type  2   force =     0.00000238    0.00000063    0.00000000
     atom   30 type  2   force =    -0.00000006    0.00000048    0.00000000
     atom   31 type  2   force =    -0.00000105   -0.00000040    0.00000000
     atom   32 type  2   force =     0.00000028   -0.00000127    0.00000000
     atom   33 type  2   force =     0.00000040   -0.00000113    0.00000000
     atom   34 type  2   force =     0.00000038   -0.00000009    0.00000000
     atom   35 type  2   force =    -0.00000155    0.00000160    0.00000000
     atom   36 type  2   force =    -0.00000146   -0.00000104    0.00000000
     atom   37 type  2   force =    -0.00000041    0.00000107    0.00000000
     atom   38 type  2   force =    -0.00000110   -0.00000021    0.00000000
     atom   39 type  2   force =    -0.00000155    0.00000084    0.00000000
     atom   40 type  2   force =    -0.00000039    0.00000056    0.00000000
     atom   41 type  2   force =    -0.00000140   -0.00000032    0.00000000
     atom   42 type  2   force =    -0.00000024    0.00000009    0.00000000
     atom   43 type  2   force =     0.00000033    0.00000246    0.00000000
     atom   44 type  2   force =    -0.00000155   -0.00000014    0.00000000
     atom   45 type  2   force =    -0.00000080   -0.00000031    0.00000000
     atom   46 type  2   force =     0.00000078    0.00000136    0.00000000
     atom   47 type  2   force =    -0.00000032    0.00000078    0.00000000
     atom   48 type  2   force =     0.00000098   -0.00000112    0.00000000
     atom   49 type  2   force =    -0.00000012    0.00000054    0.00000000
     atom   50 type  2   force =    -0.00000024   -0.00000135    0.00000000
     atom   51 type  2   force =    -0.00000084    0.00000022    0.00000000
     atom   52 type  2   force =     0.00000033    0.00000197    0.00000000
     atom   53 type  1   force =     0.00000108    0.00000073    0.00000000
     atom   54 type  1   force =     0.00000001    0.00000384    0.00000000
     atom   55 type  1   force =    -0.00000298   -0.00000235    0.00000000
     atom   56 type  1   force =     0.00000005    0.00000135    0.00000000
     atom   57 type  1   force =    -0.00000092    0.00000179    0.00000000
     atom   58 type  1   force =    -0.00000571    0.00000174    0.00000000
     atom   59 type  1   force =     0.00000063    0.00000535    0.00000000
     atom   60 type  1   force =     0.00000039    0.00000083    0.00000000
     atom   61 type  1   force =    -0.00000430   -0.00000435    0.00000000
     atom   62 type  1   force =    -0.00000593    0.00000071    0.00000000
     atom   63 type  1   force =     0.00000033    0.00000153    0.00000000
     atom   64 type  1   force =     0.00000304    0.00000137    0.00000000
     atom   65 type  1   force =     0.00000929   -0.00000547    0.00000000
     atom   66 type  1   force =    -0.00000301    0.00000211    0.00000000
     atom   67 type  1   force =    -0.00000279    0.00000105    0.00000000
     atom   68 type  1   force =     0.00000245    0.00000338    0.00000000
     atom   69 type  1   force =     0.00000972   -0.00000223    0.00000000
     atom   70 type  1   force =     0.00000541   -0.00000108    0.00000000
     atom   71 type  1   force =    -0.00000732   -0.00001022    0.00000000
     atom   72 type  1   force =     0.00000228    0.00000399    0.00000000

     Total force =     0.000097     Total SCF correction =     0.000027
     SCF correction compared to forces is large: reduce conv_thr to get better values


     Computing stress (Cartesian axis) and pressure

          total   stress  (Ry/bohr**3)                   (kbar)     P=    1.40
   0.00001120   0.00000005  -0.00000001          1.65      0.01     -0.00
   0.00000005   0.00001113   0.00000000          0.01      1.64      0.00
  -0.00000001   0.00000000   0.00000627         -0.00      0.00      0.92

     kinetic stress (kbar)  28750.72     -0.23      0.01
                               -0.23  28750.34      0.10
                                0.01      0.10  28874.86

     local   stress (kbar)  -2933.60   1997.62  -2309.89
                             1997.62  -4545.83   -199.88
                            -2309.89   -199.88 -25845.42

     nonloc. stress (kbar)   1450.09     -0.52      0.20
                               -0.52   1451.29     -0.01
                                0.20     -0.01   1416.25

     hartree stress (kbar)  44709.22   -972.02   1120.34
                             -972.02  45477.16     96.67
                             1120.34     96.67  55065.04

     exc-cor stress (kbar) -11465.97     -0.02      0.00
                               -0.02 -11465.94     -0.00
                                0.00     -0.00 -11465.10

     corecor stress (kbar)   -262.75      0.00      0.00
                                0.00   -262.75      0.00
                                0.00      0.00   -262.98

     ewald   stress (kbar) -60246.06  -1024.83   1189.34
                            -1024.83 -59402.64    103.12
                             1189.34    103.12 -47781.73

     hubbard stress (kbar)      0.00      0.00      0.00
                                0.00      0.00      0.00
                                0.00      0.00      0.00

     london  stress (kbar)      0.00      0.00      0.00
                                0.00      0.00      0.00
                                0.00      0.00      0.00

     DFT-D3  stress (kbar)      0.00      0.00      0.00
                                0.00      0.00      0.00
                                0.00      0.00      0.00

     XDM     stress (kbar)      0.00      0.00      0.00
                                0.00      0.00      0.00
                                0.00      0.00      0.00

     dft-nl  stress (kbar)      0.00      0.00      0.00
                                0.00      0.00      0.00
                                0.00      0.00      0.00

     TS-vdW  stress (kbar)      0.00      0.00      0.00
                                0.00      0.00      0.00
                                0.00      0.00      0.00


     Message from routine bfgs:
     history already reset at previous step: stopping

     bfgs converged in   4 scf cycles and   3 bfgs steps
     (criteria: energy <  1.0E-07 Ry, force <  1.0E-06 Ry/Bohr)

     End of BFGS Geometry Optimization

     Final energy   =  -12392.1438234201 Ry
Begin final coordinates

ATOMIC_POSITIONS (crystal)
Mg       0.223263767   0.779578105   0.250234058    1   1   0
Mg       0.223566503   0.442928691   0.251837710    1   1   0
Mg       0.889498309   0.110773731   0.251958410    1   1   0
Mg       0.555351716   0.777848046   0.253298999    1   1   0
Mg       0.889307471   0.779064272   0.253637112    1   1   0
Mg       0.554882576   0.111500919   0.256119404    1   1   0
Mg       0.111316824   0.555426547   0.500869243    1   1   0
Mg       0.776802572   0.888434305   0.503532299    1   1   0
Mg       0.112025412   0.889863848   0.504126153    1   1   0
Mg       0.112525213   0.222776275   0.504650591    1   1   0
Mg       0.224294081   0.779405622   0.753188563    1   1   0
Mg       0.554850784   0.444042955   0.753606157    1   1   0
Mg       0.779125845   0.889402860   0.000566831    1   1   0
Mg       0.110312798   0.553999424   0.000902772    1   1   0
Mg       0.778645578   0.223365034   0.003822935    1   1   0
Mg       0.779225296   0.555152916   0.005654594    1   1   0
O        0.556277723   0.444460232   0.000566087    1   1   0
O        0.889660030   0.444406705   0.000902371    1   1   0
O        0.221134669   0.776466333   0.001393383    1   1   0
O        0.220933329   0.110310543   0.003132321    1   1   0
O        0.556776875   0.778361999   0.003746846    1   1   0
O        0.888148128   0.110660242   0.003822992    1   1   0
O        0.221371710   0.443567356   0.004093078    1   1   0
O        0.887920868   0.777193509   0.004497966    1   1   0
O        0.556591422   0.112504958   0.005654241    1   1   0
O        0.778314754   0.555698550   0.249711822    1   1   0
O        0.777712922   0.221407798   0.250234597    1   1   0
O        0.444558141   0.889153373   0.250815245    1   1   0
O        0.113905109   0.556734768   0.251837820    1   1   0
O        0.445043070   0.556114856   0.251957839    1   1   0
O        0.443608835   0.222388298   0.253297943    1   1   0
O        0.777356386   0.888947673   0.253637196    1   1   0
O        0.111256851   0.888410683   0.254804575    1   1   0
O        0.110823058   0.222241367   0.256120086    1   1   0
O        0.889185019   0.778264666   0.499129956    1   1   0
O        0.889514997   0.110829207   0.499818382    1   1   0
O        0.555457981   0.110985791   0.500567951    1   1   0
O        0.221338657   0.444131396   0.500869559    1   1   0
O        0.554943679   0.777826444   0.501427558    1   1   0
O        0.889322901   0.444734258   0.501788389    1   1   0
O        0.220911178   0.777134251   0.503533067    1   1   0
O        0.221550252   0.110728447   0.504126000    1   1   0
O        0.555732297   0.444992430   0.504650175    1   1   0
O        0.777901252   0.888571801   0.750215323    1   1   0
O        0.111115472   0.222626314   0.751158634    1   1   0
O        0.110936849   0.887990905   0.751168239    1   1   0
O        0.112413264   0.557214788   0.752016762    1   1   0
O        0.444315024   0.555709395   0.752606912    1   1   0
O        0.444564017   0.221966971   0.753025660    1   1   0
O        0.445201263   0.890000804   0.753188918    1   1   0
O        0.777625810   0.222352032   0.753605935    1   1   0
O        0.777132100   0.555265436   0.754737535    1   1   0
Zn       0.890156989   0.443737581   0.249712317    1   1   0
Zn       0.554494883   0.444081070   0.250815173    1   1   0
Zn       0.220605747   0.110504931   0.254804132    1   1   0
Zn       0.778166691   0.555351002   0.499129417    1   1   0
Zn       0.442678564   0.887556535   0.499818106    1   1   0
Zn       0.779036206   0.222954778   0.500567796    1   1   0
Zn       0.443338798   0.555398649   0.501428985    1   1   0
Zn       0.442967176   0.222323181   0.501788945    1   1   0
Zn       0.888583669   0.111770270   0.750214695    1   1   0
Zn       0.888736281   0.775980825   0.751158723    1   1   0
Zn       0.222771288   0.445417791   0.751168523    1   1   0
Zn       0.555078572   0.110876185   0.752017788    1   1   0
Zn       0.553539234   0.777450747   0.752607209    1   1   0
Zn       0.889043580   0.445288313   0.753024996    1   1   0
Zn       0.222555888   0.110687036   0.754737464    1   1   0
Zn       0.109645075   0.888177282   0.001392956    1   1   0
Zn       0.110192472   0.221584590   0.003132196    1   1   0
Zn       0.444069990   0.555197402   0.003746148    1   1   0
Zn       0.443542997   0.221335578   0.004092971    1   1   0
Zn       0.445245258   0.890408129   0.004498295    1   1   0
End final coordinates



     Writing output data file ZnO.save/
 
     init_run     :     12.81s CPU     13.60s WALL (       1 calls)
     electrons    :   1294.03s CPU   1323.73s WALL (       4 calls)
     update_pot   :      5.36s CPU      5.45s WALL (       3 calls)
     forces       :     36.70s CPU     38.03s WALL (       4 calls)
     stress       :    512.44s CPU    514.64s WALL (       4 calls)

     Called by init_run:
     wfcinit      :     10.65s CPU     11.11s WALL (       1 calls)
     wfcinit:atom :      0.09s CPU      0.10s WALL (       5 calls)
     wfcinit:wfcr :     10.19s CPU     10.60s WALL (       5 calls)
     potinit      :      0.98s CPU      1.03s WALL (       1 calls)
     hinit0       :      0.74s CPU      0.96s WALL (       1 calls)

     Called by electrons:
     c_bands      :   1195.99s CPU   1222.38s WALL (      25 calls)
     sum_band     :     85.78s CPU     87.44s WALL (      25 calls)
     v_of_rho     :     11.03s CPU     11.60s WALL (      26 calls)
     v_h          :      0.27s CPU      0.36s WALL (      26 calls)
     v_xc         :     14.05s CPU     14.65s WALL (      34 calls)
     newd         :      2.15s CPU      2.27s WALL (      26 calls)
     mix_rho      :      0.47s CPU      0.61s WALL (      25 calls)

     Called by c_bands:
     init_us_2    :      8.91s CPU      8.98s WALL (     295 calls)
     cegterg      :   1117.61s CPU   1143.37s WALL (     125 calls)

     Called by sum_band:
     sum_band:bec :      0.45s CPU      0.45s WALL (     125 calls)
     addusdens    :      2.08s CPU      2.19s WALL (      25 calls)

     Called by *egterg:
     h_psi        :    379.53s CPU    386.12s WALL (     480 calls)
     s_psi        :     95.30s CPU     95.54s WALL (     480 calls)
     g_psi        :      1.43s CPU      1.43s WALL (     350 calls)
     cdiaghg      :    406.29s CPU    417.62s WALL (     445 calls)
     cegterg:over :    106.06s CPU    108.98s WALL (     350 calls)
     cegterg:upda :     69.73s CPU     70.69s WALL (     350 calls)
     cegterg:last :     37.77s CPU     38.03s WALL (     125 calls)
     cdiaghg:chol :     18.21s CPU     18.65s WALL (     445 calls)
     cdiaghg:inve :      5.69s CPU      5.74s WALL (     445 calls)
     cdiaghg:para :     93.28s CPU    101.73s WALL (     890 calls)

     Called by h_psi:
     h_psi:pot    :    376.47s CPU    381.07s WALL (     480 calls)
     h_psi:calbec :     97.37s CPU    100.24s WALL (     480 calls)
     vloc_psi     :    182.61s CPU    183.82s WALL (     480 calls)
     add_vuspsi   :     96.49s CPU     97.01s WALL (     480 calls)

     General routines
     calbec       :    166.82s CPU    171.68s WALL (     705 calls)
     fft          :      3.07s CPU      4.29s WALL (     436 calls)
     ffts         :      0.10s CPU      0.10s WALL (      51 calls)
     fftw         :    209.86s CPU    211.21s WALL (  348934 calls)
     interpolate  :      0.27s CPU      0.34s WALL (      26 calls)
 
     Parallel routines
     fft_scatt_xy :     26.47s CPU     26.62s WALL (  349421 calls)
     fft_scatt_yz :     57.27s CPU     58.80s WALL (  349421 calls)
 
     PWSCF        :  31m 4.38s CPU  31m42.00s WALL

 
   This run was terminated on:  20: 6:41   8Nov2021            

=------------------------------------------------------------------------------=
   JOB DONE.
=------------------------------------------------------------------------------=
