
     Program PWSCF v.6.4.1 starts on 15Jul2022 at  1:25:18 

     This program is part of the open-source Quantum ESPRESSO suite
     for quantum simulation of materials; please cite
         "P. Giannozzi et al., J. Phys.:Condens. Matter 21 395502 (2009);
         "P. Giannozzi et al., J. Phys.:Condens. Matter 29 465901 (2017);
          URL http://www.quantum-espresso.org", 
     in publications or presentations arising from this work. More details at
     http://www.quantum-espresso.org/quote

     Parallel version (MPI), running on   128 processors

     MPI processes distributed on     2 nodes
     K-points division:     npool     =       8
     R & G space division:  proc/nbgrp/npool/nimage =      16
     Waiting for input...
     Reading input from standard input
Warning: card &IONS ignored
Warning: card   UPSCALE           = 100.D0, ignored
Warning: card / ignored
Warning: card &CELL ignored
Warning: card   CELL_DYNAMICS     = 'BFGS' ignored
Warning: card   PRESS_CONV_THR    = 0.5D0 ignored
Warning: card   CELL_DOFREE = 'ALL' ignored
Warning: card / ignored

     Current dimensions of program PWSCF are:
     Max number of different atomic species (ntypx) = 10
     Max number of k-points (npk) =  40000
     Max angular momentum in pseudopotentials (lmaxx) =  3

     Subspace diagonalization in iterative solution of the eigenvalue problem:
     one sub-group per band group will be used
     scalapack distributed-memory algorithm (size of sub-group:  2*  2 procs)

 
     Parallelization info
     --------------------
     sticks:   dense  smooth     PW     G-vecs:    dense   smooth      PW
     Min         728     349     95                67573    22472    3244
     Max         729     350     96                67576    22477    3248
     Sum       11661    5599   1531              1081193   359595   51941
 


     bravais-lattice index     =            0
     lattice parameter (alat)  =      18.3818  a.u.
     unit-cell volume          =    5726.0882 (a.u.)^3
     number of atoms/cell      =           72
     number of atomic types    =            3
     number of electrons       =       856.00
     number of Kohn-Sham states=          514
     kinetic-energy cutoff     =      60.0000  Ry
     charge density cutoff     =     500.0000  Ry
     convergence threshold     =      1.0E-08
     mixing beta               =       0.5000
     number of iterations used =            8  plain     mixing
     Exchange-correlation      = SLA  PW   PSX  PSC ( 1  4 10  8 0 0)
     Using LIBXC version       =    4   3   4

     celldm(1)=  18.381787  celldm(2)=   0.000000  celldm(3)=   0.000000
     celldm(4)=   0.000000  celldm(5)=   0.000000  celldm(6)=   0.000000

     crystal axes: (cart. coord. in units of alat)
               a(1) = (   1.000000   0.000460  -0.000016 )  
               a(2) = (  -0.499600   0.866214   0.000205 )  
               a(3) = (  -0.000017   0.000244   1.064032 )  

     reciprocal axes: (cart. coord. in units 2 pi/alat)
               b(1) = (  0.999735  0.576610 -0.000116 )  
               b(2) = ( -0.000531  1.154143 -0.000264 )  
               b(3) = (  0.000015 -0.000214  0.939822 )  


     PseudoPot. # 1 for Zn read from file:
     ./GBRV_PBEsol/zn_pbesol_v1.uspp.F.UPF
     MD5 check sum: 7d8615e52efe7c1e2b1899de8658bae2
     Pseudo is Ultrasoft, Zval = 20.0
     Generated by new atomic code, or converted to UPF format
     Using radial grid of  943 points,  6 beta functions with: 
                l(1) =   0
                l(2) =   0
                l(3) =   1
                l(4) =   1
                l(5) =   2
                l(6) =   2
     Q(r) pseudized with  8 coefficients,  rinner =    1.100   1.100   1.100
                                                       1.100   1.100

     PseudoPot. # 2 for O  read from file:
     ./GBRV_PBEsol/o_pbesol_v1.2.uspp.F.UPF
     MD5 check sum: 501638753501ef6325af9037351f7734
     Pseudo is Ultrasoft + core correction, Zval =  6.0
     Generated by new atomic code, or converted to UPF format
     Using radial grid of  737 points,  5 beta functions with: 
                l(1) =   0
                l(2) =   0
                l(3) =   1
                l(4) =   1
                l(5) =   2
     Q(r) pseudized with  8 coefficients,  rinner =    0.900   0.900   0.900
                                                       0.900   0.900

     PseudoPot. # 3 for Mg read from file:
     ./GBRV_PBEsol/mg_pbesol_v1.4.uspp.F.UPF
     MD5 check sum: 4059f37963cf5867752dbf5ab2400678
     Pseudo is Ultrasoft, Zval = 10.0
     Generated by new atomic code, or converted to UPF format
     Using radial grid of  821 points,  7 beta functions with: 
                l(1) =   0
                l(2) =   0
                l(3) =   0
                l(4) =   1
                l(5) =   1
                l(6) =   2
                l(7) =   2
     Q(r) pseudized with  8 coefficients,  rinner =    1.200   1.200   1.200
                                                       1.200   1.200

     atomic species   valence    mass     pseudopotential
        Zn            20.00    65.38000     Zn( 1.00)
        O              6.00    15.99900     O ( 1.00)
        Mg            10.00    24.30500     Mg( 1.00)

     No symmetry found


                                    s                        frac. trans.

      isym =  1     identity                                     

 cryst.   s( 1) = (     1          0          0      )
                  (     0          1          0      )
                  (     0          0          1      )

 cart.    s( 1) = (  1.0000000 -0.0000000  0.0000000 )
                  (  0.0000000  1.0000000 -0.0000000 )
                  ( -0.0000000  0.0000000  1.0000000 )


   Cartesian axes

     site n.     atom                  positions (alat units)
         1           Zn  tau(   1) = (   0.1657474   0.0972089   0.2068220  )
         2           Zn  tau(   2) = (   0.1688167   0.0951253   0.7386666  )
         3           Zn  tau(   3) = (   0.0007238   0.3850753   0.2057216  )
         4           Zn  tau(   4) = (   0.0005246   0.3863263   0.7376133  )
         5           Zn  tau(   5) = (  -0.1658359   0.6745011   0.2076978  )
         6           Zn  tau(   6) = (  -0.1657793   0.6740670   0.7397764  )
         7           Zn  tau(   7) = (   0.4988253   0.0964894   0.2069594  )
         8           Zn  tau(   8) = (   0.5005707   0.0959285   0.7388242  )
         9           Zn  tau(   9) = (   0.3326799   0.3864508   0.2042875  )
        10           Mg  tau(  10) = (   0.3351243   0.3834530   0.7392687  )
        11           Mg  tau(  11) = (   0.1669472   0.6758753   0.2069146  )
        12           Zn  tau(  12) = (   0.1672382   0.6737554   0.7368664  )
        13           Zn  tau(  13) = (   0.8350672   0.0969596   0.2060010  )
        14           Zn  tau(  14) = (   0.8312139   0.0961942   0.7384176  )
        15           Mg  tau(  15) = (   0.6667146   0.3872955   0.2085994  )
        16           Zn  tau(  16) = (   0.6666014   0.3850894   0.7366283  )
        17           Zn  tau(  17) = (   0.4997810   0.6750384   0.2058754  )
        18           Mg  tau(  18) = (   0.5015855   0.6744272   0.7403257  )
        19           Mg  tau(  19) = (  -0.0009737   0.1920765   0.4745330  )
        20           Zn  tau(  20) = (  -0.0005560   0.1922962   1.0032384  )
        21           Zn  tau(  21) = (  -0.1647545   0.4814889   0.4731220  )
        22           Zn  tau(  22) = (  -0.1682218   0.4804435   1.0052390  )
        23           Zn  tau(  23) = (  -0.3330331   0.7698339   0.4727337  )
        24           Zn  tau(  24) = (  -0.3319800   0.7706338   1.0052930  )
        25           Zn  tau(  25) = (   0.3333522   0.1936074   0.4726406  )
        26           Zn  tau(  26) = (   0.3336610   0.1914548   1.0054156  )
        27           Mg  tau(  27) = (   0.1669848   0.4809390   0.4716694  )
        28           Mg  tau(  28) = (   0.1654739   0.4825604   1.0032053  )
        29           Zn  tau(  29) = (  -0.0002981   0.7711809   0.4731032  )
        30           Zn  tau(  30) = (   0.0008365   0.7703371   1.0053177  )
        31           Zn  tau(  31) = (   0.6663211   0.1913951   0.4708286  )
        32           Mg  tau(  32) = (   0.6665482   0.1934548   1.0051208  )
        33           Zn  tau(  33) = (   0.4981856   0.4822989   0.4719282  )
        34           Zn  tau(  34) = (   0.5022820   0.4805171   1.0037105  )
        35           Zn  tau(  35) = (   0.3343285   0.7709015   0.4726365  )
        36           Zn  tau(  36) = (   0.3321117   0.7708344   1.0043769  )
        37           O   tau(  37) = (   0.1661261   0.0965334   0.0036441  )
        38           O   tau(  38) = (   0.1666063   0.0964027   0.5349275  )
        39           O   tau(  39) = (   0.0000938   0.3847096   0.0021624  )
        40           O   tau(  40) = (   0.0013140   0.3845739   0.5344514  )
        41           O   tau(  41) = (  -0.1658906   0.6731846   0.0038184  )
        42           O   tau(  42) = (  -0.1663276   0.6738498   0.5361985  )
        43           O   tau(  43) = (   0.5005941   0.0962162   0.0033651  )
        44           O   tau(  44) = (   0.4996971   0.0970544   0.5355036  )
        45           O   tau(  45) = (   0.3327940   0.3855772   0.0002889  )
        46           O   tau(  46) = (   0.3326912   0.3855867   0.5367476  )
        47           O   tau(  47) = (   0.1668383   0.6732565   0.0046897  )
        48           O   tau(  48) = (   0.1670148   0.6735535   0.5329279  )
        49           O   tau(  49) = (   0.8331153   0.0967470   0.0025206  )
        50           O   tau(  50) = (   0.8326567   0.0966373   0.5352381  )
        51           O   tau(  51) = (   0.6667769   0.3842763   0.0060312  )
        52           O   tau(  52) = (   0.6666116   0.3853041   0.5325540  )
        53           O   tau(  53) = (   0.5002033   0.6738737   0.0017070  )
        54           O   tau(  54) = (   0.5004392   0.6743437   0.5373583  )
        55           O   tau(  55) = (  -0.0000165   0.1934083   0.2716165  )
        56           O   tau(  56) = (   0.0001329   0.1921578   0.7990640  )
        57           O   tau(  57) = (  -0.1659702   0.4818043   0.2694885  )
        58           O   tau(  58) = (  -0.1668075   0.4808587   0.8013606  )
        59           O   tau(  59) = (  -0.3333049   0.7703954   0.2692168  )
        60           O   tau(  60) = (  -0.3323555   0.7698160   0.8021476  )
        61           O   tau(  61) = (   0.3327612   0.1941058   0.2689573  )
        62           O   tau(  62) = (   0.3340874   0.1919618   0.8018451  )
        63           O   tau(  63) = (   0.1667497   0.4832000   0.2685609  )
        64           O   tau(  64) = (   0.1684110   0.4809663   0.8003727  )
        65           O   tau(  65) = (   0.0003241   0.7708779   0.2698416  )
        66           O   tau(  66) = (   0.0013101   0.7696830   0.8016134  )
        67           O   tau(  67) = (   0.6667586   0.1935331   0.2670832  )
        68           O   tau(  68) = (   0.6662640   0.1935260   0.8025883  )
        69           O   tau(  69) = (   0.4992368   0.4824979   0.2686650  )
        70           O   tau(  70) = (   0.5004922   0.4817054   0.8001958  )
        71           O   tau(  71) = (   0.3337501   0.7710631   0.2691443  )
        72           O   tau(  72) = (   0.3338223   0.7698117   0.8008500  )

   Crystallographic axes

     site n.     atom                  positions (cryst. coord.)
         1           Zn  tau(   1) = (  0.2217311  0.1120503  0.1943575  )
         2           Zn  tau(   2) = (  0.2235364  0.1095034  0.6941971  )
         3           Zn  tau(   3) = (  0.2227380  0.4443772  0.1932594  )
         4           Zn  tau(   4) = (  0.2231984  0.4456805  0.6931425  )
         5           Zn  tau(   5) = (  0.2231080  0.7785039  0.1950524  )
         6           Zn  tau(   6) = (  0.2228525  0.7778622  0.6951116  )
         7           Zn  tau(   7) = (  0.5543058  0.1110431  0.1944917  )
         8           Zn  tau(   8) = (  0.5556656  0.1102542  0.6943500  )
         9           Zn  tau(   9) = (  0.5553994  0.4457890  0.1919162  )
        10           Mg  tau(  10) = (  0.5560525  0.4421863  0.6947039  )
        11           Mg  tau(  11) = (  0.5565953  0.7799134  0.1943209  )
        12           Zn  tau(  12) = (  0.5556024  0.7773265  0.6923816  )
        13           Zn  tau(  13) = (  0.8907298  0.1114075  0.1935958  )
        14           Zn  tau(  14) = (  0.8863743  0.1103854  0.6939727  )
        15           Mg  tau(  15) = (  0.8898320  0.4465853  0.1959733  )
        16           Zn  tau(  16) = (  0.8883856  0.4438996  0.6922269  )
        17           Zn  tau(  17) = (  0.8888584  0.7787712  0.1933493  )
        18           Mg  tau(  18) = (  0.8902480  0.7779234  0.6956375  )
        19           Mg  tau(  19) = (  0.1097247  0.2215588  0.4459354  )
        20           Zn  tau(  20) = (  0.1102076  0.2216724  0.9428242  )
        21           Zn  tau(  21) = (  0.1128656  0.5556695  0.4445451  )
        22           Zn  tau(  22) = (  0.1087346  0.5543241  0.9446404  )
        23           Zn  tau(  23) = (  0.1108942  0.8885503  0.4441160  )
        24           Zn  tau(  24) = (  0.1123464  0.8893322  0.9446267  )
        25           Zn  tau(  25) = (  0.4448450  0.2231488  0.4441615  )
        26           Zn  tau(  26) = (  0.4438506  0.2205233  0.9448756  )
        27           Mg  tau(  27) = (  0.4442000  0.5548591  0.4431848  )
        28           Mg  tau(  28) = (  0.4435627  0.5565906  0.9427336  )
        29           Zn  tau(  29) = (  0.4443177  0.8899282  0.4444679  )
        30           Zn  tau(  30) = (  0.4449036  0.8888131  0.9446549  )
        31           Zn  tau(  31) = (  0.7764501  0.2204191  0.4424639  )
        32           Mg  tau(  32) = (  0.7778028  0.2226549  0.9446030  )
        33           Zn  tau(  33) = (  0.7760971  0.5562527  0.4434327  )
        34           Zn  tau(  34) = (  0.7791033  0.5540535  0.9432138  )
        35           Zn  tau(  35) = (  0.7786944  0.8894282  0.4440343  )
        36           Zn  tau(  36) = (  0.7763779  0.8892114  0.9437755  )
        37           O   tau(  37) = (  0.2217437  0.1113242  0.0034066  )
        38           O   tau(  38) = (  0.2220868  0.1110327  0.5027184  )
        39           O   tau(  39) = (  0.2219209  0.4440093  0.0019500  )
        40           O   tau(  40) = (  0.2230008  0.4437114  0.5022070  )
        41           O   tau(  41) = (  0.2223178  0.7770383  0.0034424  )
        42           O   tau(  42) = (  0.2222028  0.7776656  0.5037846  )
        43           O   tau(  43) = (  0.5559402  0.1107806  0.0031494  )
        44           O   tau(  44) = (  0.5554650  0.1116078  0.5032646  )
        45           O   tau(  45) = (  0.5550334  0.4448345  0.0001940  )
        46           O   tau(  46) = (  0.5548738  0.4447037  0.5043697  )
        47           O   tau(  47) = (  0.5549999  0.7769445  0.0042661  )
        48           O   tau(  48) = (  0.5552864  0.7771476  0.5007158  )
        49           O   tau(  49) = (  0.8886794  0.1112169  0.0023605  )
        50           O   tau(  50) = (  0.8880959  0.1109497  0.5030201  )
        51           O   tau(  51) = (  0.8881770  0.4431543  0.0055960  )
        52           O   tau(  52) = (  0.8885433  0.4442014  0.5004334  )
        53           O   tau(  53) = (  0.8886328  0.7774807  0.0014677  )
        54           O   tau(  54) = (  0.8890775  0.7778814  0.5048843  )
        55           O   tau(  55) = (  0.1114731  0.2231491  0.2552297  )
        56           O   tau(  56) = (  0.1108403  0.2215663  0.7509367  )
        57           O   tau(  57) = (  0.1118557  0.5560880  0.2531658  )
        58           O   tau(  58) = (  0.1104116  0.5548564  0.7530310  )
        59           O   tau(  59) = (  0.1109698  0.8892523  0.2528463  )
        60           O   tau(  60) = (  0.1115230  0.8884422  0.7537064  )
        61           O   tau(  61) = (  0.4445651  0.2237781  0.2527353  )
        62           O   tau(  62) = (  0.4445929  0.2211621  0.7535554  )
        63           O   tau(  63) = (  0.4452922  0.5575225  0.2522986  )
        64           O   tau(  64) = (  0.4456034  0.5548029  0.7521074  )
        65           O   tau(  65) = (  0.4447885  0.8896318  0.2534383  )
        66           O   tau(  66) = (  0.4450236  0.8881117  0.7532093  )
        67           O   tau(  67) = (  0.7781440  0.2229404  0.2509791  )
        68           O   tau(  68) = (  0.7775833  0.2227908  0.7542585  )
        69           O   tau(  69) = (  0.7772863  0.5565356  0.2524015  )
        70           O   tau(  70) = (  0.7780228  0.5554798  0.7519460  )
        71           O   tau(  71) = (  0.7782330  0.8896688  0.2527879  )
        72           O   tau(  72) = (  0.7775219  0.8880839  0.7524968  )

     number of k points=    36  Marzari-Vanderbilt smearing, width (Ry)=  0.0010
                       cart. coord. in units 2pi/alat
        k(    1) = (   0.0000000   0.0000000   0.0000000), wk =   0.0312500
        k(    2) = (   0.0000037  -0.0000534   0.2349555), wk =   0.0625000
        k(    3) = (  -0.0000074   0.0001068  -0.4699109), wk =   0.0312500
        k(    4) = (  -0.0001327   0.2885358  -0.0000661), wk =   0.0625000
        k(    5) = (  -0.0001290   0.2884823   0.2348894), wk =   0.0625000
        k(    6) = (  -0.0001401   0.2886426  -0.4699770), wk =   0.0625000
        k(    7) = (  -0.0001364   0.2885892  -0.2350215), wk =   0.0625000
        k(    8) = (   0.0002654  -0.5770715   0.0001322), wk =   0.0312500
        k(    9) = (   0.0002691  -0.5771250   0.2350876), wk =   0.0625000
        k(   10) = (   0.0002581  -0.5769647  -0.4697787), wk =   0.0312500
        k(   11) = (   0.2499337   0.1441525  -0.0000290), wk =   0.0625000
        k(   12) = (   0.2499374   0.1440991   0.2349264), wk =   0.0625000
        k(   13) = (   0.2499263   0.1442593  -0.4699399), wk =   0.0625000
        k(   14) = (   0.2499300   0.1442059  -0.2349845), wk =   0.0625000
        k(   15) = (   0.2498010   0.4326882  -0.0000951), wk =   0.0625000
        k(   16) = (   0.2498047   0.4326348   0.2348604), wk =   0.0625000
        k(   17) = (   0.2497936   0.4327951  -0.4700060), wk =   0.0625000
        k(   18) = (   0.2497973   0.4327417  -0.2350505), wk =   0.0625000
        k(   19) = (   0.2501992  -0.4329191   0.0001032), wk =   0.0625000
        k(   20) = (   0.2502028  -0.4329725   0.2350586), wk =   0.0625000
        k(   21) = (   0.2501918  -0.4328122  -0.4698077), wk =   0.0625000
        k(   22) = (   0.2501955  -0.4328656  -0.2348523), wk =   0.0625000
        k(   23) = (   0.2500664  -0.1443833   0.0000371), wk =   0.0625000
        k(   24) = (   0.2500701  -0.1444367   0.2349925), wk =   0.0625000
        k(   25) = (   0.2500591  -0.1442764  -0.4698738), wk =   0.0625000
        k(   26) = (   0.2500628  -0.1443299  -0.2349184), wk =   0.0625000
        k(   27) = (  -0.4998674  -0.2883050   0.0000580), wk =   0.0312500
        k(   28) = (  -0.4998638  -0.2883584   0.2350135), wk =   0.0625000
        k(   29) = (  -0.4998748  -0.2881981  -0.4698529), wk =   0.0312500
        k(   30) = (  -0.5000002   0.0002308  -0.0000081), wk =   0.0625000
        k(   31) = (  -0.4999965   0.0001774   0.2349474), wk =   0.0625000
        k(   32) = (  -0.5000075   0.0003376  -0.4699190), wk =   0.0625000
        k(   33) = (  -0.5000038   0.0002842  -0.2349635), wk =   0.0625000
        k(   34) = (  -0.4996020  -0.8653765   0.0001902), wk =   0.0312500
        k(   35) = (  -0.4995983  -0.8654299   0.2351456), wk =   0.0625000
        k(   36) = (  -0.4996094  -0.8652697  -0.4697207), wk =   0.0312500

                       cryst. coord.
        k(    1) = (   0.0000000   0.0000000   0.0000000), wk =   0.0312500
        k(    2) = (   0.0000000  -0.0000000   0.2500000), wk =   0.0625000
        k(    3) = (  -0.0000000   0.0000000  -0.5000000), wk =   0.0312500
        k(    4) = (   0.0000000   0.2500000  -0.0000000), wk =   0.0625000
        k(    5) = (  -0.0000000   0.2500000   0.2500000), wk =   0.0625000
        k(    6) = (   0.0000000   0.2500000  -0.5000000), wk =   0.0625000
        k(    7) = (   0.0000000   0.2500000  -0.2500000), wk =   0.0625000
        k(    8) = (  -0.0000000  -0.5000000   0.0000000), wk =   0.0312500
        k(    9) = (  -0.0000000  -0.5000000   0.2500000), wk =   0.0625000
        k(   10) = (   0.0000000  -0.5000000  -0.5000000), wk =   0.0312500
        k(   11) = (   0.2500000  -0.0000000  -0.0000000), wk =   0.0625000
        k(   12) = (   0.2500000  -0.0000000   0.2500000), wk =   0.0625000
        k(   13) = (   0.2500000  -0.0000000  -0.5000000), wk =   0.0625000
        k(   14) = (   0.2500000  -0.0000000  -0.2500000), wk =   0.0625000
        k(   15) = (   0.2500000   0.2500000  -0.0000000), wk =   0.0625000
        k(   16) = (   0.2500000   0.2500000   0.2500000), wk =   0.0625000
        k(   17) = (   0.2500000   0.2500000  -0.5000000), wk =   0.0625000
        k(   18) = (   0.2500000   0.2500000  -0.2500000), wk =   0.0625000
        k(   19) = (   0.2500000  -0.5000000  -0.0000000), wk =   0.0625000
        k(   20) = (   0.2500000  -0.5000000   0.2500000), wk =   0.0625000
        k(   21) = (   0.2500000  -0.5000000  -0.5000000), wk =   0.0625000
        k(   22) = (   0.2500000  -0.5000000  -0.2500000), wk =   0.0625000
        k(   23) = (   0.2500000  -0.2500000  -0.0000000), wk =   0.0625000
        k(   24) = (   0.2500000  -0.2500000   0.2500000), wk =   0.0625000
        k(   25) = (   0.2500000  -0.2500000  -0.5000000), wk =   0.0625000
        k(   26) = (   0.2500000  -0.2500000  -0.2500000), wk =   0.0625000
        k(   27) = (  -0.5000000   0.0000000   0.0000000), wk =   0.0312500
        k(   28) = (  -0.5000000   0.0000000   0.2500000), wk =   0.0625000
        k(   29) = (  -0.5000000   0.0000000  -0.5000000), wk =   0.0312500
        k(   30) = (  -0.5000000   0.2500000   0.0000000), wk =   0.0625000
        k(   31) = (  -0.5000000   0.2500000   0.2500000), wk =   0.0625000
        k(   32) = (  -0.5000000   0.2500000  -0.5000000), wk =   0.0625000
        k(   33) = (  -0.5000000   0.2500000  -0.2500000), wk =   0.0625000
        k(   34) = (  -0.5000000  -0.5000000   0.0000000), wk =   0.0312500
        k(   35) = (  -0.5000000  -0.5000000   0.2500000), wk =   0.0625000
        k(   36) = (  -0.5000000  -0.5000000  -0.5000000), wk =   0.0312500

     Dense  grid:  1081193 G-vectors     FFT dimensions: ( 135, 135, 144)

     Smooth grid:   359595 G-vectors     FFT dimensions: (  96,  96, 100)

     Dynamical RAM for                 wfc:      22.02 MB

     Dynamical RAM for     wfc (w. buffer):     132.14 MB

     Dynamical RAM for           str. fact:       3.09 MB

     Dynamical RAM for           local pot:       0.00 MB

     Dynamical RAM for          nlocal pot:      48.16 MB

     Dynamical RAM for                qrad:      20.97 MB

     Dynamical RAM for          rho,v,vnew:       6.85 MB

     Dynamical RAM for               rhoin:       2.28 MB

     Dynamical RAM for            rho*nmix:      16.50 MB

     Dynamical RAM for           G-vectors:       4.04 MB

     Dynamical RAM for          h,s,v(r/c):      48.38 MB

     Dynamical RAM for          <psi|beta>:       8.82 MB

     Dynamical RAM for                 psi:      88.09 MB

     Dynamical RAM for                hpsi:      88.09 MB

     Dynamical RAM for                spsi:      88.09 MB

     Dynamical RAM for      wfcinit/wfcrot:      53.84 MB

     Dynamical RAM for           addusdens:      31.96 MB

     Estimated static dynamical RAM per process >     244.41 MB

     Estimated max dynamical RAM per process >     565.88 MB

     Estimated total dynamical RAM >      70.74 GB

     Check: negative core charge=   -0.000002

     Initial potential from superposition of free atoms

     starting charge  853.59448, renormalised to  856.00000
     Starting wfcs are  548 randomized atomic wfcs

     total cpu time spent up to now is       16.3 secs

     Self-consistent Calculation

     iteration #  1     ecut=    60.00 Ry     beta= 0.50
     Davidson diagonalization with overlap
     ethr =  1.00E-02,  avg # of iterations =  4.5

     total cpu time spent up to now is       84.5 secs

     total energy              =  -15072.87505318 Ry
     Harris-Foulkes estimate   =  -15084.68814656 Ry
     estimated scf accuracy    <      17.99195636 Ry

     iteration #  2     ecut=    60.00 Ry     beta= 0.50
     Davidson diagonalization with overlap
     ethr =  2.10E-03,  avg # of iterations =  3.6

     total cpu time spent up to now is      170.2 secs

     total energy              =  -15078.09974579 Ry
     Harris-Foulkes estimate   =  -15082.16467371 Ry
     estimated scf accuracy    <       9.31473418 Ry

     iteration #  3     ecut=    60.00 Ry     beta= 0.50
     Davidson diagonalization with overlap
     ethr =  1.09E-03,  avg # of iterations =  2.0

     total cpu time spent up to now is      221.1 secs

     total energy              =  -15079.79413949 Ry
     Harris-Foulkes estimate   =  -15079.85791578 Ry
     estimated scf accuracy    <       0.17626854 Ry

     iteration #  4     ecut=    60.00 Ry     beta= 0.50
     Davidson diagonalization with overlap
     ethr =  2.06E-05,  avg # of iterations =  5.4

     total cpu time spent up to now is      324.5 secs

     total energy              =  -15079.80888498 Ry
     Harris-Foulkes estimate   =  -15079.83921593 Ry
     estimated scf accuracy    <       0.08360759 Ry

     iteration #  5     ecut=    60.00 Ry     beta= 0.50
     Davidson diagonalization with overlap
     ethr =  9.77E-06,  avg # of iterations =  4.2

     total cpu time spent up to now is      397.5 secs

     total energy              =  -15079.82258918 Ry
     Harris-Foulkes estimate   =  -15079.82377605 Ry
     estimated scf accuracy    <       0.00394507 Ry

     iteration #  6     ecut=    60.00 Ry     beta= 0.50
     Davidson diagonalization with overlap
     ethr =  4.61E-07,  avg # of iterations =  2.0

     total cpu time spent up to now is      447.8 secs

     total energy              =  -15079.82328908 Ry
     Harris-Foulkes estimate   =  -15079.82340301 Ry
     estimated scf accuracy    <       0.00039008 Ry

     iteration #  7     ecut=    60.00 Ry     beta= 0.50
     Davidson diagonalization with overlap
     ethr =  4.56E-08,  avg # of iterations =  2.0

     total cpu time spent up to now is      502.0 secs

     total energy              =  -15079.82337913 Ry
     Harris-Foulkes estimate   =  -15079.82339199 Ry
     estimated scf accuracy    <       0.00008893 Ry

     iteration #  8     ecut=    60.00 Ry     beta= 0.50
     Davidson diagonalization with overlap
     ethr =  1.04E-08,  avg # of iterations =  2.0

     total cpu time spent up to now is      548.1 secs

     total energy              =  -15079.82339833 Ry
     Harris-Foulkes estimate   =  -15079.82339658 Ry
     estimated scf accuracy    <       0.00001378 Ry

     iteration #  9     ecut=    60.00 Ry     beta= 0.50
     Davidson diagonalization with overlap
     ethr =  1.61E-09,  avg # of iterations =  2.0

     total cpu time spent up to now is      599.6 secs

     total energy              =  -15079.82340045 Ry
     Harris-Foulkes estimate   =  -15079.82340100 Ry
     estimated scf accuracy    <       0.00000206 Ry

     iteration # 10     ecut=    60.00 Ry     beta= 0.50
     Davidson diagonalization with overlap
     ethr =  2.41E-10,  avg # of iterations =  2.0

     total cpu time spent up to now is      653.9 secs

     total energy              =  -15079.82340089 Ry
     Harris-Foulkes estimate   =  -15079.82340097 Ry
     estimated scf accuracy    <       0.00000037 Ry

     iteration # 11     ecut=    60.00 Ry     beta= 0.50
     Davidson diagonalization with overlap
     ethr =  4.29E-11,  avg # of iterations =  2.0

     total cpu time spent up to now is      701.9 secs

     total energy              =  -15079.82340097 Ry
     Harris-Foulkes estimate   =  -15079.82340098 Ry
     estimated scf accuracy    <       0.00000005 Ry

     iteration # 12     ecut=    60.00 Ry     beta= 0.50
     Davidson diagonalization with overlap
     ethr =  6.39E-12,  avg # of iterations =  2.0

     total cpu time spent up to now is      748.3 secs

     End of self-consistent calculation

          k = 0.0000 0.0000 0.0000 ( 44915 PWs)   bands (ev):

  -114.9781-114.9754-114.9738-114.9698-114.9698-114.9697-114.9673-114.9670
  -114.9670-114.9663-114.9660-114.9655-114.9651-114.9649-114.9637-114.9604
  -114.9594-114.9590-114.9587-114.9587-114.9586-114.9570-114.9566-114.9541
  -114.9540-114.9524-114.9519-114.9478 -69.3377 -69.3361 -69.3356 -69.3340
   -69.3308 -69.3307 -69.3307 -69.3305 -69.3300 -69.3299 -69.3294 -69.3290
   -69.3288 -69.3278 -69.3274 -69.3274 -69.3271 -69.3270 -69.3269 -69.3263
   -69.3258 -69.3257 -69.3255 -69.3254 -69.3250 -69.3246 -69.3245 -69.3235
   -69.3235 -69.3233 -69.3231 -69.3224 -69.3222 -69.3221 -69.3219 -69.3215
   -69.3206 -69.3205 -69.3203 -69.3201 -69.3199 -69.3196 -69.3196 -69.3195
   -69.3187 -69.3186 -69.3184 -69.3183 -69.3179 -69.3178 -69.3174 -69.3169
   -69.3166 -69.3163 -69.3161 -69.3160 -69.3158 -69.3156 -69.3151 -69.3148
   -69.3145 -69.3143 -69.3140 -69.3138 -69.3135 -69.3133 -69.3133 -69.3131
   -69.3125 -69.3124 -69.3107 -69.3105 -69.3103 -69.3101 -69.3093 -69.3087
   -69.3086 -69.3083 -69.3081 -69.3075 -69.3064 -69.3047 -69.3046 -69.3016
   -64.4347 -64.4305 -64.4206 -64.4195 -64.4189 -64.4176 -64.4168 -64.4014
   -31.4269 -31.4231 -31.4226 -31.4200 -31.4179 -31.4172 -31.4145 -31.4114
   -31.4110 -31.4094 -31.4086 -31.4072 -31.4057 -31.4052 -31.4047 -31.4047
   -31.4040 -31.4038 -31.4019 -31.4012 -31.3977 -31.3905 -31.3867 -31.3849
    -9.7643  -9.4233  -9.4008  -9.3241  -9.3077  -9.2687  -9.2611  -9.2183
    -9.1704  -9.1151  -9.1091  -9.0976  -9.0773  -9.0717  -9.0524  -9.0329
    -9.0046  -8.9859  -8.9686  -8.9497  -8.9369  -8.9268  -8.8807  -8.8619
    -8.8507  -8.8413  -8.8384  -8.8202  -8.8062  -8.7964  -8.7614  -8.7367
    -8.7110  -8.7035  -8.6598  -8.6408   2.0431   2.0610   2.0690   2.0880
     2.0932   2.1006   2.1278   2.1589   2.1633   2.1701   2.2008   2.2176
     2.2242   2.2476   2.2582   2.2762   2.3150   2.3352   2.3404   2.3740
     2.4491   2.4542   2.4671   2.4858   2.5072   2.5105   2.5311   2.5507
     2.5578   2.5632   2.5814   2.5852   2.5911   2.6031   2.6105   2.6242
     2.6402   2.6461   2.6593   2.6728   2.6868   2.6896   2.7026   2.7074
     2.7117   2.7300   2.7313   2.7511   2.7645   2.7813   2.7885   2.7927
     2.7956   2.8044   2.8075   2.8115   2.8262   2.8308   2.8355   2.8408
     2.8435   2.8572   2.8715   2.8777   2.8990   2.9152   2.9413   2.9459
     2.9735   3.0032   3.0112   3.0141   3.0853   3.0986   3.1109   3.1137
     3.1299   3.1468   3.1708   3.1849   3.1936   3.2195   3.2255   3.2474
     3.2511   3.2737   3.2811   3.2882   3.3361   3.3479   3.3532   3.3799
     3.3901   3.4200   3.4280   3.4567   3.4653   3.4798   3.5058   3.5388
     3.5413   3.5489   3.5820   3.5934   3.6035   3.6141   3.6225   3.6359
     3.6410   3.6488   3.6527   3.6641   3.6692   3.6787   3.6831   3.6975
     3.7079   3.7086   3.7148   3.7205   3.7319   3.7370   3.7380   3.7433
     3.7466   3.7618   3.7698   3.7772   3.7868   3.7897   3.8018   3.8076
     3.8159   3.8454   3.8568   3.8778   3.9006   3.9316   3.9486   3.9760
     4.0017   4.0784   4.1052   4.1345   4.1863   4.1946   4.2172   4.2400
     4.2694   4.2906   4.3404   4.3799   4.3950   4.4491   4.4819   4.5072
     4.5302   4.5740   4.6112   4.6404   4.6870   4.7244   4.7385   4.8023
     4.8169   4.8594   4.8971   4.9490   4.9597   5.0297   5.0399   5.0754
     5.1332   5.1396   5.2297   5.2868   5.3245   5.3499   5.3644   5.5123
     5.5955   5.6386   5.6690   5.6777   5.7521   5.8681   5.9170   6.0470
     6.0690   6.0950   6.1076   6.1238   6.1286   6.1527   6.2111   6.2240
     6.2535   6.2785   6.2820   6.3151   6.3573   6.4434   6.5106   6.5378
     6.6124   6.6195   6.6380   6.6643   6.6896   6.7136   6.7217   6.7475
     6.7680   6.7727   6.7881   6.8124   6.8294   6.8421   6.8464   6.8640
     6.8720   6.8786   6.8906   6.9025   6.9090   6.9293   6.9455   7.0339
     7.1511   7.1844   7.1959   7.2118   7.2266   7.2433   7.2673   7.2819
     7.3065   7.3522   7.3893   7.4268   7.4615   7.5798   7.5901   7.6032
     7.6421   7.8900   7.9248   7.9350   9.2032  11.7697  11.7790  12.4438
    12.4623  12.5345  12.5679  12.6051  12.8077  13.3807  13.3947  13.4116
    13.4215  13.4428  13.4677  13.5107  13.5503  13.5793  13.6336  13.7459
    13.8156  13.9479  15.5425  15.5645  15.6098  15.6282  15.6436  15.6869
    15.7191  15.7874  15.8433  15.8702  15.9004  15.9194  15.9251  15.9393
    15.9457  15.9789  15.9850  16.0119  16.0383  16.0554  16.1003  16.1221
    16.1934  16.3135  16.3197  16.3883  16.4727  16.5045  16.5560  16.8566
    16.8632  16.8731  16.8789  16.8886  16.9421  16.9472  16.9690  16.9783
    16.9839  17.0058  17.0115  17.0165  17.0187  17.4313  17.5833  17.7695
    18.0124  18.1302  18.1977  18.2285  18.3596  18.5203  18.6973  18.9058
    18.9460  19.0619  19.0738  19.1905  19.2514  19.2675  19.2834  19.3390
    19.3559  19.4094

     occupation numbers 
     1.0000   1.0000   1.0000   1.0000   1.0000   1.0000   1.0000   1.0000
     1.0000   1.0000   1.0000   1.0000   1.0000   1.0000   1.0000   1.0000
     1.0000   1.0000   1.0000   1.0000   1.0000   1.0000   1.0000   1.0000
     1.0000   1.0000   1.0000   1.0000   1.0000   1.0000   1.0000   1.0000
     1.0000   1.0000   1.0000   1.0000   1.0000   1.0000   1.0000   1.0000
     1.0000   1.0000   1.0000   1.0000   1.0000   1.0000   1.0000   1.0000
     1.0000   1.0000   1.0000   1.0000   1.0000   1.0000   1.0000   1.0000
     1.0000   1.0000   1.0000   1.0000   1.0000   1.0000   1.0000   1.0000
     1.0000   1.0000   1.0000   1.0000   1.0000   1.0000   1.0000   1.0000
     1.0000   1.0000   1.0000   1.0000   1.0000   1.0000   1.0000   1.0000
     1.0000   1.0000   1.0000   1.0000   1.0000   1.0000   1.0000   1.0000
     1.0000   1.0000   1.0000   1.0000   1.0000   1.0000   1.0000   1.0000
     1.0000   1.0000   1.0000   1.0000   1.0000   1.0000   1.0000   1.0000
     1.0000   1.0000   1.0000   1.0000   1.0000   1.0000   1.0000   1.0000
     1.0000   1.0000   1.0000   1.0000   1.0000   1.0000   1.0000   1.0000
     1.0000   1.0000   1.0000   1.0000   1.0000   1.0000   1.0000   1.0000
     1.0000   1.0000   1.0000   1.0000   1.0000   1.0000   1.0000   1.0000
     1.0000   1.0000   1.0000   1.0000   1.0000   1.0000   1.0000   1.0000
     1.0000   1.0000   1.0000   1.0000   1.0000   1.0000   1.0000   1.0000
     1.0000   1.0000   1.0000   1.0000   1.0000   1.0000   1.0000   1.0000
     1.0000   1.0000   1.0000   1.0000   1.0000   1.0000   1.0000   1.0000
     1.0000   1.0000   1.0000   1.0000   1.0000   1.0000   1.0000   1.0000
     1.0000   1.0000   1.0000   1.0000   1.0000   1.0000   1.0000   1.0000
     1.0000   1.0000   1.0000   1.0000   1.0000   1.0000   1.0000   1.0000
     1.0000   1.0000   1.0000   1.0000   1.0000   1.0000   1.0000   1.0000
     1.0000   1.0000   1.0000   1.0000   1.0000   1.0000   1.0000   1.0000
     1.0000   1.0000   1.0000   1.0000   1.0000   1.0000   1.0000   1.0000
     1.0000   1.0000   1.0000   1.0000   1.0000   1.0000   1.0000   1.0000
     1.0000   1.0000   1.0000   1.0000   1.0000   1.0000   1.0000   1.0000
     1.0000   1.0000   1.0000   1.0000   1.0000   1.0000   1.0000   1.0000
     1.0000   1.0000   1.0000   1.0000   1.0000   1.0000   1.0000   1.0000
     1.0000   1.0000   1.0000   1.0000   1.0000   1.0000   1.0000   1.0000
     1.0000   1.0000   1.0000   1.0000   1.0000   1.0000   1.0000   1.0000
     1.0000   1.0000   1.0000   1.0000   1.0000   1.0000   1.0000   1.0000
     1.0000   1.0000   1.0000   1.0000   1.0000   1.0000   1.0000   1.0000
     1.0000   1.0000   1.0000   1.0000   1.0000   1.0000   1.0000   1.0000
     1.0000   1.0000   1.0000   1.0000   1.0000   1.0000   1.0000   1.0000
     1.0000   1.0000   1.0000   1.0000   1.0000   1.0000   1.0000   1.0000
     1.0000   1.0000   1.0000   1.0000   1.0000   1.0000   1.0000   1.0000
     1.0000   1.0000   1.0000   1.0000   1.0000   1.0000   1.0000   1.0000
     1.0000   1.0000   1.0000   1.0000   1.0000   1.0000   1.0000   1.0000
     1.0000   1.0000   1.0000   1.0000   1.0000   1.0000   1.0000   1.0000
     1.0000   1.0000   1.0000   1.0000   1.0000   1.0000   1.0000   1.0000
     1.0000   1.0000   1.0000   1.0000   1.0000   1.0000   1.0000   1.0000
     1.0000   1.0000   1.0000   1.0000   1.0000   1.0000   1.0000   1.0000
     1.0000   1.0000   1.0000   1.0000   1.0000   1.0000   1.0000   1.0000
     1.0000   1.0000   1.0000   1.0000   1.0000   1.0000   1.0000   1.0000
     1.0000   1.0000   1.0000   1.0000   1.0000   1.0000   1.0000   1.0000
     1.0000   1.0000   1.0000   1.0000   1.0000   1.0000   1.0000   1.0000
     1.0000   1.0000   1.0000   1.0000   1.0000   1.0000   1.0000   1.0000
     1.0000   1.0000   1.0000   1.0000   1.0000   1.0000   1.0000   1.0000
     1.0000   1.0000   1.0000   1.0000   1.0000   1.0000   1.0000   1.0000
     1.0000   1.0000   1.0000   1.0000   1.0000   1.0000   1.0000   1.0000
     1.0000   1.0000   1.0000   1.0000   0.0000   0.0000   0.0000   0.0000
     0.0000   0.0000   0.0000   0.0000   0.0000   0.0000   0.0000   0.0000
     0.0000   0.0000   0.0000   0.0000   0.0000   0.0000   0.0000   0.0000
     0.0000   0.0000   0.0000   0.0000   0.0000   0.0000   0.0000   0.0000
     0.0000   0.0000   0.0000   0.0000   0.0000   0.0000   0.0000   0.0000
     0.0000   0.0000   0.0000   0.0000   0.0000   0.0000   0.0000   0.0000
     0.0000   0.0000   0.0000   0.0000   0.0000   0.0000   0.0000   0.0000
     0.0000   0.0000   0.0000   0.0000   0.0000   0.0000   0.0000   0.0000
     0.0000   0.0000   0.0000   0.0000   0.0000   0.0000   0.0000   0.0000
     0.0000   0.0000   0.0000   0.0000   0.0000   0.0000   0.0000   0.0000
     0.0000   0.0000   0.0000   0.0000   0.0000   0.0000   0.0000   0.0000
     0.0000   0.0000

          k = 0.0000-0.0001 0.2350 ( 44970 PWs)   bands (ev):

  -114.9781-114.9754-114.9738-114.9698-114.9698-114.9697-114.9673-114.9670
  -114.9670-114.9663-114.9660-114.9655-114.9651-114.9649-114.9637-114.9604
  -114.9594-114.9590-114.9587-114.9587-114.9586-114.9570-114.9566-114.9541
  -114.9540-114.9524-114.9519-114.9478 -69.3377 -69.3361 -69.3356 -69.3340
   -69.3308 -69.3307 -69.3307 -69.3305 -69.3300 -69.3299 -69.3294 -69.3290
   -69.3288 -69.3278 -69.3274 -69.3273 -69.3271 -69.3270 -69.3269 -69.3263
   -69.3258 -69.3257 -69.3255 -69.3254 -69.3250 -69.3246 -69.3245 -69.3235
   -69.3235 -69.3233 -69.3231 -69.3224 -69.3222 -69.3221 -69.3219 -69.3215
   -69.3206 -69.3205 -69.3203 -69.3201 -69.3199 -69.3196 -69.3196 -69.3195
   -69.3187 -69.3186 -69.3184 -69.3183 -69.3179 -69.3178 -69.3174 -69.3169
   -69.3166 -69.3163 -69.3161 -69.3160 -69.3158 -69.3156 -69.3151 -69.3148
   -69.3145 -69.3143 -69.3140 -69.3138 -69.3135 -69.3133 -69.3133 -69.3131
   -69.3125 -69.3124 -69.3107 -69.3105 -69.3103 -69.3101 -69.3093 -69.3087
   -69.3086 -69.3083 -69.3081 -69.3075 -69.3064 -69.3047 -69.3046 -69.3016
   -64.4347 -64.4305 -64.4206 -64.4195 -64.4189 -64.4176 -64.4168 -64.4014
   -31.4269 -31.4231 -31.4226 -31.4200 -31.4179 -31.4172 -31.4146 -31.4114
   -31.4110 -31.4094 -31.4086 -31.4073 -31.4057 -31.4053 -31.4047 -31.4045
   -31.4040 -31.4038 -31.4019 -31.4012 -31.3977 -31.3905 -31.3867 -31.3849
    -9.7372  -9.5438  -9.3197  -9.3072  -9.2863  -9.2531  -9.2360  -9.2004
    -9.1832  -9.1669  -9.1516  -9.1302  -9.0950  -9.0751  -9.0398  -9.0262
    -8.9948  -8.9780  -8.9679  -8.9344  -8.9261  -8.8982  -8.8722  -8.8573
    -8.8515  -8.8462  -8.8368  -8.8208  -8.8139  -8.7924  -8.7648  -8.7316
    -8.7112  -8.7069  -8.6671  -8.6523   2.0661   2.0763   2.0849   2.1038
     2.1159   2.1330   2.1604   2.1689   2.1785   2.1868   2.2128   2.2232
     2.2410   2.2487   2.2547   2.2938   2.3305   2.3405   2.3539   2.4076
     2.4428   2.4550   2.4625   2.4785   2.4919   2.5059   2.5211   2.5248
     2.5383   2.5498   2.5569   2.5695   2.5772   2.5880   2.6008   2.6106
     2.6231   2.6437   2.6582   2.6669   2.6733   2.6886   2.6912   2.7098
     2.7174   2.7266   2.7361   2.7547   2.7738   2.7816   2.7842   2.7914
     2.8007   2.8114   2.8142   2.8172   2.8297   2.8339   2.8403   2.8449
     2.8524   2.8590   2.8663   2.8847   2.8881   2.9173   2.9286   2.9401
     2.9604   2.9797   3.0018   3.0051   3.0393   3.0586   3.0694   3.0795
     3.0936   3.1079   3.1147   3.1428   3.1541   3.1715   3.1879   3.2094
     3.2320   3.2510   3.2761   3.2983   3.3044   3.3362   3.3551   3.3764
     3.3881   3.4042   3.4262   3.4346   3.4584   3.4806   3.4918   3.5217
     3.5362   3.5490   3.5631   3.5982   3.6064   3.6197   3.6326   3.6380
     3.6453   3.6575   3.6666   3.6676   3.6749   3.6822   3.6910   3.6950
     3.7050   3.7142   3.7178   3.7252   3.7312   3.7410   3.7467   3.7554
     3.7669   3.7759   3.7844   3.7915   3.7974   3.8036   3.8064   3.8138
     3.8244   3.8482   3.8543   3.8704   3.8876   3.8916   3.9303   3.9588
     4.0733   4.1612   4.2115   4.2352   4.2515   4.2590   4.2814   4.3001
     4.3167   4.3280   4.3773   4.3990   4.4277   4.4501   4.4977   4.5006
     4.5424   4.5655   4.5941   4.6567   4.7191   4.7264   4.7602   4.8074
     4.8451   4.8879   4.9077   4.9490   4.9763   4.9920   5.0153   5.0744
     5.0956   5.1392   5.1840   5.2130   5.2496   5.3185   5.5316   5.5992
     5.6393   5.6750   5.6831   5.7151   5.7923   5.8880   5.9189   5.9819
     6.0749   6.0968   6.1136   6.1317   6.1439   6.1603   6.1895   6.2083
     6.2241   6.2530   6.2677   6.2702   6.2904   6.3052   6.3199   6.3429
     6.4499   6.4691   6.4993   6.5441   6.5749   6.5985   6.6100   6.6652
     6.7008   6.7284   6.7933   6.8047   6.8778   6.9151   6.9482   6.9710
     6.9803   7.0065   7.0416   7.0466   7.0617   7.0845   7.0974   7.1390
     7.1647   7.2095   7.2177   7.2490   7.2611   7.2696   7.2833   7.2953
     7.3102   7.3362   7.3620   7.3938   7.4312   7.4697   7.5002   7.6197
     7.7173   7.7380   7.8998   7.9104   9.5564  11.0186  12.3929  12.4745
    12.4945  12.5604  12.6062  12.6383  12.7952  12.9308  12.9650  13.0103
    13.1319  13.1666  13.3269  13.5810  14.0258  14.0670  14.0999  14.1533
    14.1912  14.3160  15.2279  15.2572  15.2790  15.3304  15.3753  15.4559
    15.6256  15.6265  15.8219  15.8290  15.8914  15.9134  15.9662  15.9869
    16.0056  16.0144  16.0278  16.1052  16.1313  16.1686  16.2185  16.2697
    16.3131  16.3571  16.4229  16.4512  16.5023  16.5843  16.6874  16.8190
    16.8532  16.8626  16.8673  16.8823  16.9004  16.9428  16.9575  16.9903
    17.0261  17.0589  17.1032  17.1623  17.1797  17.3602  17.4932  17.6846
    17.9750  18.0005  18.0579  18.1604  18.2327  18.4526  18.6552  18.7221
    18.8079  18.9311  19.0170  19.0699  19.1089  19.1662  19.2545  19.3266
    19.4071  19.4835

     occupation numbers 
     1.0000   1.0000   1.0000   1.0000   1.0000   1.0000   1.0000   1.0000
     1.0000   1.0000   1.0000   1.0000   1.0000   1.0000   1.0000   1.0000
     1.0000   1.0000   1.0000   1.0000   1.0000   1.0000   1.0000   1.0000
     1.0000   1.0000   1.0000   1.0000   1.0000   1.0000   1.0000   1.0000
     1.0000   1.0000   1.0000   1.0000   1.0000   1.0000   1.0000   1.0000
     1.0000   1.0000   1.0000   1.0000   1.0000   1.0000   1.0000   1.0000
     1.0000   1.0000   1.0000   1.0000   1.0000   1.0000   1.0000   1.0000
     1.0000   1.0000   1.0000   1.0000   1.0000   1.0000   1.0000   1.0000
     1.0000   1.0000   1.0000   1.0000   1.0000   1.0000   1.0000   1.0000
     1.0000   1.0000   1.0000   1.0000   1.0000   1.0000   1.0000   1.0000
     1.0000   1.0000   1.0000   1.0000   1.0000   1.0000   1.0000   1.0000
     1.0000   1.0000   1.0000   1.0000   1.0000   1.0000   1.0000   1.0000
     1.0000   1.0000   1.0000   1.0000   1.0000   1.0000   1.0000   1.0000
     1.0000   1.0000   1.0000   1.0000   1.0000   1.0000   1.0000   1.0000
     1.0000   1.0000   1.0000   1.0000   1.0000   1.0000   1.0000   1.0000
     1.0000   1.0000   1.0000   1.0000   1.0000   1.0000   1.0000   1.0000
     1.0000   1.0000   1.0000   1.0000   1.0000   1.0000   1.0000   1.0000
     1.0000   1.0000   1.0000   1.0000   1.0000   1.0000   1.0000   1.0000
     1.0000   1.0000   1.0000   1.0000   1.0000   1.0000   1.0000   1.0000
     1.0000   1.0000   1.0000   1.0000   1.0000   1.0000   1.0000   1.0000
     1.0000   1.0000   1.0000   1.0000   1.0000   1.0000   1.0000   1.0000
     1.0000   1.0000   1.0000   1.0000   1.0000   1.0000   1.0000   1.0000
     1.0000   1.0000   1.0000   1.0000   1.0000   1.0000   1.0000   1.0000
     1.0000   1.0000   1.0000   1.0000   1.0000   1.0000   1.0000   1.0000
     1.0000   1.0000   1.0000   1.0000   1.0000   1.0000   1.0000   1.0000
     1.0000   1.0000   1.0000   1.0000   1.0000   1.0000   1.0000   1.0000
     1.0000   1.0000   1.0000   1.0000   1.0000   1.0000   1.0000   1.0000
     1.0000   1.0000   1.0000   1.0000   1.0000   1.0000   1.0000   1.0000
     1.0000   1.0000   1.0000   1.0000   1.0000   1.0000   1.0000   1.0000
     1.0000   1.0000   1.0000   1.0000   1.0000   1.0000   1.0000   1.0000
     1.0000   1.0000   1.0000   1.0000   1.0000   1.0000   1.0000   1.0000
     1.0000   1.0000   1.0000   1.0000   1.0000   1.0000   1.0000   1.0000
     1.0000   1.0000   1.0000   1.0000   1.0000   1.0000   1.0000   1.0000
     1.0000   1.0000   1.0000   1.0000   1.0000   1.0000   1.0000   1.0000
     1.0000   1.0000   1.0000   1.0000   1.0000   1.0000   1.0000   1.0000
     1.0000   1.0000   1.0000   1.0000   1.0000   1.0000   1.0000   1.0000
     1.0000   1.0000   1.0000   1.0000   1.0000   1.0000   1.0000   1.0000
     1.0000   1.0000   1.0000   1.0000   1.0000   1.0000   1.0000   1.0000
     1.0000   1.0000   1.0000   1.0000   1.0000   1.0000   1.0000   1.0000
     1.0000   1.0000   1.0000   1.0000   1.0000   1.0000   1.0000   1.0000
     1.0000   1.0000   1.0000   1.0000   1.0000   1.0000   1.0000   1.0000
     1.0000   1.0000   1.0000   1.0000   1.0000   1.0000   1.0000   1.0000
     1.0000   1.0000   1.0000   1.0000   1.0000   1.0000   1.0000   1.0000
     1.0000   1.0000   1.0000   1.0000   1.0000   1.0000   1.0000   1.0000
     1.0000   1.0000   1.0000   1.0000   1.0000   1.0000   1.0000   1.0000
     1.0000   1.0000   1.0000   1.0000   1.0000   1.0000   1.0000   1.0000
     1.0000   1.0000   1.0000   1.0000   1.0000   1.0000   1.0000   1.0000
     1.0000   1.0000   1.0000   1.0000   1.0000   1.0000   1.0000   1.0000
     1.0000   1.0000   1.0000   1.0000   1.0000   1.0000   1.0000   1.0000
     1.0000   1.0000   1.0000   1.0000   1.0000   1.0000   1.0000   1.0000
     1.0000   1.0000   1.0000   1.0000   1.0000   1.0000   1.0000   1.0000
     1.0000   1.0000   1.0000   1.0000   1.0000   1.0000   1.0000   1.0000
     1.0000   1.0000   1.0000   1.0000   1.0000   1.0000   1.0000   1.0000
     1.0000   1.0000   1.0000   1.0000   0.0000   0.0000   0.0000   0.0000
     0.0000   0.0000   0.0000   0.0000   0.0000   0.0000   0.0000   0.0000
     0.0000   0.0000   0.0000   0.0000   0.0000   0.0000   0.0000   0.0000
     0.0000   0.0000   0.0000   0.0000   0.0000   0.0000   0.0000   0.0000
     0.0000   0.0000   0.0000   0.0000   0.0000   0.0000   0.0000   0.0000
     0.0000   0.0000   0.0000   0.0000   0.0000   0.0000   0.0000   0.0000
     0.0000   0.0000   0.0000   0.0000   0.0000   0.0000   0.0000   0.0000
     0.0000   0.0000   0.0000   0.0000   0.0000   0.0000   0.0000   0.0000
     0.0000   0.0000   0.0000   0.0000   0.0000   0.0000   0.0000   0.0000
     0.0000   0.0000   0.0000   0.0000   0.0000   0.0000   0.0000   0.0000
     0.0000   0.0000   0.0000   0.0000   0.0000   0.0000   0.0000   0.0000
     0.0000   0.0000

          k =-0.0000 0.0001-0.4699 ( 44996 PWs)   bands (ev):

  -114.9781-114.9754-114.9738-114.9698-114.9698-114.9697-114.9673-114.9670
  -114.9670-114.9663-114.9660-114.9655-114.9651-114.9649-114.9637-114.9604
  -114.9594-114.9590-114.9587-114.9587-114.9586-114.9570-114.9566-114.9541
  -114.9540-114.9524-114.9519-114.9478 -69.3377 -69.3361 -69.3356 -69.3340
   -69.3308 -69.3307 -69.3307 -69.3305 -69.3300 -69.3299 -69.3294 -69.3290
   -69.3288 -69.3278 -69.3274 -69.3273 -69.3271 -69.3270 -69.3269 -69.3263
   -69.3258 -69.3257 -69.3255 -69.3254 -69.3250 -69.3246 -69.3245 -69.3235
   -69.3235 -69.3233 -69.3231 -69.3224 -69.3222 -69.3221 -69.3219 -69.3215
   -69.3206 -69.3205 -69.3203 -69.3201 -69.3199 -69.3196 -69.3196 -69.3195
   -69.3187 -69.3186 -69.3184 -69.3183 -69.3179 -69.3178 -69.3174 -69.3169
   -69.3166 -69.3163 -69.3161 -69.3160 -69.3159 -69.3156 -69.3151 -69.3148
   -69.3145 -69.3143 -69.3140 -69.3138 -69.3135 -69.3133 -69.3133 -69.3131
   -69.3125 -69.3124 -69.3107 -69.3105 -69.3103 -69.3101 -69.3093 -69.3087
   -69.3086 -69.3083 -69.3081 -69.3075 -69.3064 -69.3047 -69.3046 -69.3016
   -64.4347 -64.4305 -64.4206 -64.4195 -64.4189 -64.4176 -64.4168 -64.4014
   -31.4269 -31.4231 -31.4225 -31.4200 -31.4179 -31.4172 -31.4147 -31.4114
   -31.4110 -31.4094 -31.4086 -31.4073 -31.4057 -31.4054 -31.4047 -31.4044
   -31.4040 -31.4037 -31.4019 -31.4013 -31.3977 -31.3905 -31.3867 -31.3849
    -9.6616  -9.6576  -9.2833  -9.2802  -9.2553  -9.2452  -9.2330  -9.2197
    -9.2069  -9.1743  -9.1529  -9.1441  -9.1073  -9.0801  -9.0688  -9.0566
    -8.9814  -8.9659  -8.9423  -8.9188  -8.8996  -8.8893  -8.8764  -8.8655
    -8.8449  -8.8402  -8.8322  -8.8284  -8.8207  -8.7907  -8.7658  -8.7309
    -8.7108  -8.6945  -8.6828  -8.6682   2.0980   2.1009   2.1146   2.1236
     2.1294   2.1351   2.1664   2.1773   2.1872   2.2052   2.2253   2.2382
     2.2848   2.2897   2.3013   2.3342   2.3428   2.3587   2.3813   2.3891
     2.4122   2.4264   2.4477   2.4542   2.4727   2.4815   2.4950   2.5028
     2.5122   2.5247   2.5406   2.5492   2.5648   2.5788   2.5917   2.6167
     2.6285   2.6404   2.6425   2.6701   2.6773   2.6974   2.7004   2.7077
     2.7153   2.7270   2.7338   2.7536   2.7623   2.7696   2.7811   2.7895
     2.8018   2.8087   2.8131   2.8206   2.8325   2.8421   2.8494   2.8580
     2.8641   2.8696   2.8767   2.8953   2.9000   2.9136   2.9178   2.9362
     2.9459   2.9595   2.9616   2.9755   2.9838   2.9925   3.0065   3.0189
     3.0525   3.0662   3.0947   3.1160   3.1460   3.1604   3.1772   3.1835
     3.2189   3.2327   3.2649   3.2898   3.3127   3.3208   3.3417   3.3734
     3.3848   3.3968   3.4012   3.4373   3.4397   3.4514   3.4973   3.5243
     3.5420   3.5610   3.5879   3.6043   3.6163   3.6170   3.6207   3.6352
     3.6474   3.6560   3.6614   3.6635   3.6768   3.6813   3.6848   3.6955
     3.7021   3.7156   3.7226   3.7332   3.7415   3.7460   3.7556   3.7725
     3.7774   3.7809   3.7899   3.7985   3.8096   3.8156   3.8184   3.8292
     3.8418   3.8547   3.8582   3.8703   3.8821   3.8872   3.9036   3.9156
     4.1756   4.2437   4.2567   4.2780   4.2853   4.3099   4.3218   4.3500
     4.3586   4.3775   4.4244   4.4615   4.4797   4.4912   4.5297   4.5636
     4.5870   4.5924   4.6123   4.6375   4.6454   4.6618   4.6850   4.7154
     4.8086   4.8120   4.8773   4.9333   4.9848   5.0311   5.0935   5.1085
     5.1983   5.2566   5.2628   5.2922   5.3227   5.3400   5.5503   5.5940
     5.6446   5.6803   5.7141   5.7552   5.7630   5.7973   5.8310   5.8894
     5.9340   5.9573   5.9801   5.9907   6.0093   6.0613   6.2085   6.2420
     6.2706   6.2947   6.3028   6.3320   6.3522   6.3659   6.3841   6.3970
     6.4195   6.4341   6.4426   6.4675   6.4793   6.4879   6.5221   6.5308
     6.5664   6.5739   6.8342   6.8617   6.9429   6.9772   7.0129   7.0379
     7.0462   7.0649   7.0680   7.1075   7.1412   7.1706   7.1881   7.1990
     7.2360   7.2395   7.2636   7.2693   7.2781   7.2961   7.3067   7.3170
     7.3236   7.3286   7.3438   7.3531   7.3718   7.3915   7.4021   7.4096
     7.8200   7.8297   7.8377   7.8474  10.2461  10.2501  12.5593  12.5784
    12.5917  12.6106  12.6265  12.6764  12.7031  12.7330  12.7692  12.8113
    13.0362  13.1148  13.1718  13.3530  14.6285  14.6491  14.6598  14.6753
    14.6922  14.7133  14.7493  14.7538  14.8094  14.8345  14.9028  14.9420
    15.7124  15.7182  15.7211  15.7269  15.9091  15.9173  15.9769  15.9839
    16.0094  16.0205  16.0393  16.0733  16.1681  16.1801  16.2702  16.3557
    16.5182  16.5378  16.5612  16.5703  16.5937  16.6990  16.7382  16.7606
    16.7823  16.8148  16.8458  16.8726  16.8918  16.9166  16.9394  16.9563
    16.9731  16.9759  17.1855  17.3064  17.4190  17.4693  17.5210  17.6370
    17.8773  17.9042  17.9343  18.0523  18.1898  18.3108  18.5028  18.5679
    18.6219  18.7496  19.0017  19.0279  19.0582  19.0793  19.2222  19.3205
    19.4519  19.5095

     occupation numbers 
     1.0000   1.0000   1.0000   1.0000   1.0000   1.0000   1.0000   1.0000
     1.0000   1.0000   1.0000   1.0000   1.0000   1.0000   1.0000   1.0000
     1.0000   1.0000   1.0000   1.0000   1.0000   1.0000   1.0000   1.0000
     1.0000   1.0000   1.0000   1.0000   1.0000   1.0000   1.0000   1.0000
     1.0000   1.0000   1.0000   1.0000   1.0000   1.0000   1.0000   1.0000
     1.0000   1.0000   1.0000   1.0000   1.0000   1.0000   1.0000   1.0000
     1.0000   1.0000   1.0000   1.0000   1.0000   1.0000   1.0000   1.0000
     1.0000   1.0000   1.0000   1.0000   1.0000   1.0000   1.0000   1.0000
     1.0000   1.0000   1.0000   1.0000   1.0000   1.0000   1.0000   1.0000
     1.0000   1.0000   1.0000   1.0000   1.0000   1.0000   1.0000   1.0000
     1.0000   1.0000   1.0000   1.0000   1.0000   1.0000   1.0000   1.0000
     1.0000   1.0000   1.0000   1.0000   1.0000   1.0000   1.0000   1.0000
     1.0000   1.0000   1.0000   1.0000   1.0000   1.0000   1.0000   1.0000
     1.0000   1.0000   1.0000   1.0000   1.0000   1.0000   1.0000   1.0000
     1.0000   1.0000   1.0000   1.0000   1.0000   1.0000   1.0000   1.0000
     1.0000   1.0000   1.0000   1.0000   1.0000   1.0000   1.0000   1.0000
     1.0000   1.0000   1.0000   1.0000   1.0000   1.0000   1.0000   1.0000
     1.0000   1.0000   1.0000   1.0000   1.0000   1.0000   1.0000   1.0000
     1.0000   1.0000   1.0000   1.0000   1.0000   1.0000   1.0000   1.0000
     1.0000   1.0000   1.0000   1.0000   1.0000   1.0000   1.0000   1.0000
     1.0000   1.0000   1.0000   1.0000   1.0000   1.0000   1.0000   1.0000
     1.0000   1.0000   1.0000   1.0000   1.0000   1.0000   1.0000   1.0000
     1.0000   1.0000   1.0000   1.0000   1.0000   1.0000   1.0000   1.0000
     1.0000   1.0000   1.0000   1.0000   1.0000   1.0000   1.0000   1.0000
     1.0000   1.0000   1.0000   1.0000   1.0000   1.0000   1.0000   1.0000
     1.0000   1.0000   1.0000   1.0000   1.0000   1.0000   1.0000   1.0000
     1.0000   1.0000   1.0000   1.0000   1.0000   1.0000   1.0000   1.0000
     1.0000   1.0000   1.0000   1.0000   1.0000   1.0000   1.0000   1.0000
     1.0000   1.0000   1.0000   1.0000   1.0000   1.0000   1.0000   1.0000
     1.0000   1.0000   1.0000   1.0000   1.0000   1.0000   1.0000   1.0000
     1.0000   1.0000   1.0000   1.0000   1.0000   1.0000   1.0000   1.0000
     1.0000   1.0000   1.0000   1.0000   1.0000   1.0000   1.0000   1.0000
     1.0000   1.0000   1.0000   1.0000   1.0000   1.0000   1.0000   1.0000
     1.0000   1.0000   1.0000   1.0000   1.0000   1.0000   1.0000   1.0000
     1.0000   1.0000   1.0000   1.0000   1.0000   1.0000   1.0000   1.0000
     1.0000   1.0000   1.0000   1.0000   1.0000   1.0000   1.0000   1.0000
     1.0000   1.0000   1.0000   1.0000   1.0000   1.0000   1.0000   1.0000
     1.0000   1.0000   1.0000   1.0000   1.0000   1.0000   1.0000   1.0000
     1.0000   1.0000   1.0000   1.0000   1.0000   1.0000   1.0000   1.0000
     1.0000   1.0000   1.0000   1.0000   1.0000   1.0000   1.0000   1.0000
     1.0000   1.0000   1.0000   1.0000   1.0000   1.0000   1.0000   1.0000
     1.0000   1.0000   1.0000   1.0000   1.0000   1.0000   1.0000   1.0000
     1.0000   1.0000   1.0000   1.0000   1.0000   1.0000   1.0000   1.0000
     1.0000   1.0000   1.0000   1.0000   1.0000   1.0000   1.0000   1.0000
     1.0000   1.0000   1.0000   1.0000   1.0000   1.0000   1.0000   1.0000
     1.0000   1.0000   1.0000   1.0000   1.0000   1.0000   1.0000   1.0000
     1.0000   1.0000   1.0000   1.0000   1.0000   1.0000   1.0000   1.0000
     1.0000   1.0000   1.0000   1.0000   1.0000   1.0000   1.0000   1.0000
     1.0000   1.0000   1.0000   1.0000   1.0000   1.0000   1.0000   1.0000
     1.0000   1.0000   1.0000   1.0000   1.0000   1.0000   1.0000   1.0000
     1.0000   1.0000   1.0000   1.0000   1.0000   1.0000   1.0000   1.0000
     1.0000   1.0000   1.0000   1.0000   1.0000   1.0000   1.0000   1.0000
     1.0000   1.0000   1.0000   1.0000   1.0000   1.0000   1.0000   1.0000
     1.0000   1.0000   1.0000   1.0000   0.0000   0.0000   0.0000   0.0000
     0.0000   0.0000   0.0000   0.0000   0.0000   0.0000   0.0000   0.0000
     0.0000   0.0000   0.0000   0.0000   0.0000   0.0000   0.0000   0.0000
     0.0000   0.0000   0.0000   0.0000   0.0000   0.0000   0.0000   0.0000
     0.0000   0.0000   0.0000   0.0000   0.0000   0.0000   0.0000   0.0000
     0.0000   0.0000   0.0000   0.0000   0.0000   0.0000   0.0000   0.0000
     0.0000   0.0000   0.0000   0.0000   0.0000   0.0000   0.0000   0.0000
     0.0000   0.0000   0.0000   0.0000   0.0000   0.0000   0.0000   0.0000
     0.0000   0.0000   0.0000   0.0000   0.0000   0.0000   0.0000   0.0000
     0.0000   0.0000   0.0000   0.0000   0.0000   0.0000   0.0000   0.0000
     0.0000   0.0000   0.0000   0.0000   0.0000   0.0000   0.0000   0.0000
     0.0000   0.0000

          k =-0.0001 0.2885-0.0001 ( 44943 PWs)   bands (ev):

  -114.9781-114.9754-114.9738-114.9698-114.9698-114.9697-114.9673-114.9670
  -114.9670-114.9663-114.9660-114.9655-114.9651-114.9649-114.9637-114.9604
  -114.9594-114.9590-114.9587-114.9587-114.9586-114.9570-114.9566-114.9541
  -114.9540-114.9524-114.9519-114.9478 -69.3377 -69.3361 -69.3356 -69.3340
   -69.3308 -69.3307 -69.3307 -69.3305 -69.3300 -69.3299 -69.3294 -69.3290
   -69.3288 -69.3278 -69.3274 -69.3273 -69.3271 -69.3270 -69.3269 -69.3263
   -69.3258 -69.3257 -69.3255 -69.3254 -69.3250 -69.3246 -69.3245 -69.3235
   -69.3235 -69.3233 -69.3231 -69.3224 -69.3222 -69.3221 -69.3219 -69.3215
   -69.3206 -69.3204 -69.3203 -69.3200 -69.3199 -69.3196 -69.3196 -69.3195
   -69.3187 -69.3186 -69.3184 -69.3183 -69.3179 -69.3178 -69.3174 -69.3169
   -69.3166 -69.3163 -69.3161 -69.3160 -69.3158 -69.3156 -69.3151 -69.3148
   -69.3146 -69.3143 -69.3140 -69.3138 -69.3135 -69.3133 -69.3133 -69.3131
   -69.3125 -69.3124 -69.3107 -69.3105 -69.3103 -69.3101 -69.3093 -69.3087
   -69.3086 -69.3083 -69.3081 -69.3075 -69.3064 -69.3047 -69.3046 -69.3016
   -64.4347 -64.4305 -64.4206 -64.4195 -64.4189 -64.4176 -64.4168 -64.4014
   -31.4269 -31.4231 -31.4226 -31.4200 -31.4179 -31.4172 -31.4145 -31.4114
   -31.4110 -31.4094 -31.4086 -31.4072 -31.4057 -31.4052 -31.4047 -31.4047
   -31.4040 -31.4038 -31.4019 -31.4012 -31.3977 -31.3905 -31.3867 -31.3849
    -9.7272  -9.4571  -9.4086  -9.3733  -9.3350  -9.2912  -9.1996  -9.1844
    -9.1585  -9.1455  -9.1197  -9.0990  -9.0900  -9.0684  -9.0520  -9.0119
    -8.9998  -8.9787  -8.9496  -8.9419  -8.9292  -8.9064  -8.8984  -8.8785
    -8.8575  -8.8453  -8.8314  -8.8237  -8.8074  -8.7896  -8.7660  -8.7405
    -8.7082  -8.7028  -8.6594  -8.6394   2.0585   2.0743   2.0845   2.1004
     2.1103   2.1238   2.1468   2.1840   2.1947   2.1996   2.2199   2.2373
     2.2529   2.2753   2.2851   2.2918   2.3147   2.3264   2.3451   2.3597
     2.4077   2.4315   2.4517   2.4688   2.4804   2.5066   2.5210   2.5310
     2.5475   2.5631   2.5724   2.5822   2.5945   2.6062   2.6176   2.6230
     2.6302   2.6401   2.6479   2.6593   2.6723   2.6792   2.6958   2.6970
     2.7129   2.7206   2.7340   2.7384   2.7536   2.7603   2.7721   2.7778
     2.7834   2.7914   2.7982   2.8075   2.8161   2.8209   2.8317   2.8473
     2.8566   2.8721   2.8861   2.8972   2.9114   2.9177   2.9313   2.9500
     2.9624   2.9675   2.9895   2.9969   3.0095   3.0415   3.0684   3.0793
     3.0983   3.1184   3.1328   3.1527   3.1822   3.1927   3.2117   3.2394
     3.2657   3.2705   3.2823   3.2917   3.3007   3.3286   3.3467   3.3684
     3.3841   3.4010   3.4365   3.4522   3.4606   3.4852   3.4969   3.5128
     3.5305   3.5523   3.5741   3.5926   3.6032   3.6158   3.6367   3.6393
     3.6516   3.6589   3.6650   3.6769   3.6858   3.6932   3.7033   3.7115
     3.7144   3.7224   3.7304   3.7367   3.7465   3.7522   3.7547   3.7655
     3.7691   3.7800   3.7871   3.7942   3.7976   3.8084   3.8131   3.8166
     3.8285   3.8547   3.8672   3.8744   3.8917   3.9210   3.9376   3.9703
     3.9944   4.0322   4.0655   4.1306   4.1487   4.1721   4.1979   4.2410
     4.2652   4.2928   4.3383   4.3640   4.4116   4.4385   4.4596   4.5226
     4.5469   4.5616   4.5996   4.6204   4.6560   4.6943   4.7480   4.7688
     4.8055   4.8802   4.9596   5.0352   5.0921   5.1394   5.1819   5.2536
     5.3209   5.3469   5.3575   5.4026   5.4655   5.4983   5.5192   5.5440
     5.5789   5.6165   5.6505   5.6759   5.7345   5.7686   5.8246   5.8555
     5.9240   5.9290   5.9758   6.1121   6.1973   6.2407   6.2681   6.3052
     6.3322   6.3747   6.4012   6.4238   6.4603   6.4673   6.4963   6.5275
     6.5495   6.5713   6.5809   6.5984   6.6102   6.6369   6.6548   6.7109
     6.7430   6.7656   6.7835   6.7994   6.8265   6.8347   6.8494   6.8624
     6.8776   6.8876   6.8938   6.9106   6.9275   6.9422   6.9847   7.0008
     7.0216   7.0449   7.0836   7.1083   7.1451   7.2015   7.2435   7.2774
     7.3032   7.3658   7.3869   7.4468   7.4744   7.4971   7.5303   7.5409
     7.5516   7.5879   7.8530   7.8887   9.6894  11.5656  11.9486  11.9805
    12.1957  12.3237  12.9928  13.0465  13.1369  13.2701  13.3650  13.3864
    13.4462  13.4827  13.5664  13.7439  13.7704  13.8342  13.8638  13.9531
    14.0037  14.1643  15.0005  15.1163  15.1753  15.2090  15.2446  15.3298
    15.3820  15.4887  15.5539  15.6064  15.6468  15.6935  15.7556  15.7907
    15.8434  15.9329  16.0310  16.0591  16.1062  16.1833  16.2120  16.3090
    16.3592  16.4984  16.5988  16.6278  16.6587  16.6893  16.7052  16.7626
    16.8303  16.8780  16.9100  17.0011  17.0810  17.1453  17.1826  17.2132
    17.2480  17.2995  17.3723  17.4084  17.4431  17.6114  17.7476  17.8477
    18.0717  18.2256  18.2644  18.3145  18.4237  18.5615  18.6899  18.8511
    18.9216  18.9886  19.0058  19.0857  19.1331  19.1438  19.2219  19.2470
    19.3121  19.3828

     occupation numbers 
     1.0000   1.0000   1.0000   1.0000   1.0000   1.0000   1.0000   1.0000
     1.0000   1.0000   1.0000   1.0000   1.0000   1.0000   1.0000   1.0000
     1.0000   1.0000   1.0000   1.0000   1.0000   1.0000   1.0000   1.0000
     1.0000   1.0000   1.0000   1.0000   1.0000   1.0000   1.0000   1.0000
     1.0000   1.0000   1.0000   1.0000   1.0000   1.0000   1.0000   1.0000
     1.0000   1.0000   1.0000   1.0000   1.0000   1.0000   1.0000   1.0000
     1.0000   1.0000   1.0000   1.0000   1.0000   1.0000   1.0000   1.0000
     1.0000   1.0000   1.0000   1.0000   1.0000   1.0000   1.0000   1.0000
     1.0000   1.0000   1.0000   1.0000   1.0000   1.0000   1.0000   1.0000
     1.0000   1.0000   1.0000   1.0000   1.0000   1.0000   1.0000   1.0000
     1.0000   1.0000   1.0000   1.0000   1.0000   1.0000   1.0000   1.0000
     1.0000   1.0000   1.0000   1.0000   1.0000   1.0000   1.0000   1.0000
     1.0000   1.0000   1.0000   1.0000   1.0000   1.0000   1.0000   1.0000
     1.0000   1.0000   1.0000   1.0000   1.0000   1.0000   1.0000   1.0000
     1.0000   1.0000   1.0000   1.0000   1.0000   1.0000   1.0000   1.0000
     1.0000   1.0000   1.0000   1.0000   1.0000   1.0000   1.0000   1.0000
     1.0000   1.0000   1.0000   1.0000   1.0000   1.0000   1.0000   1.0000
     1.0000   1.0000   1.0000   1.0000   1.0000   1.0000   1.0000   1.0000
     1.0000   1.0000   1.0000   1.0000   1.0000   1.0000   1.0000   1.0000
     1.0000   1.0000   1.0000   1.0000   1.0000   1.0000   1.0000   1.0000
     1.0000   1.0000   1.0000   1.0000   1.0000   1.0000   1.0000   1.0000
     1.0000   1.0000   1.0000   1.0000   1.0000   1.0000   1.0000   1.0000
     1.0000   1.0000   1.0000   1.0000   1.0000   1.0000   1.0000   1.0000
     1.0000   1.0000   1.0000   1.0000   1.0000   1.0000   1.0000   1.0000
     1.0000   1.0000   1.0000   1.0000   1.0000   1.0000   1.0000   1.0000
     1.0000   1.0000   1.0000   1.0000   1.0000   1.0000   1.0000   1.0000
     1.0000   1.0000   1.0000   1.0000   1.0000   1.0000   1.0000   1.0000
     1.0000   1.0000   1.0000   1.0000   1.0000   1.0000   1.0000   1.0000
     1.0000   1.0000   1.0000   1.0000   1.0000   1.0000   1.0000   1.0000
     1.0000   1.0000   1.0000   1.0000   1.0000   1.0000   1.0000   1.0000
     1.0000   1.0000   1.0000   1.0000   1.0000   1.0000   1.0000   1.0000
     1.0000   1.0000   1.0000   1.0000   1.0000   1.0000   1.0000   1.0000
     1.0000   1.0000   1.0000   1.0000   1.0000   1.0000   1.0000   1.0000
     1.0000   1.0000   1.0000   1.0000   1.0000   1.0000   1.0000   1.0000
     1.0000   1.0000   1.0000   1.0000   1.0000   1.0000   1.0000   1.0000
     1.0000   1.0000   1.0000   1.0000   1.0000   1.0000   1.0000   1.0000
     1.0000   1.0000   1.0000   1.0000   1.0000   1.0000   1.0000   1.0000
     1.0000   1.0000   1.0000   1.0000   1.0000   1.0000   1.0000   1.0000
     1.0000   1.0000   1.0000   1.0000   1.0000   1.0000   1.0000   1.0000
     1.0000   1.0000   1.0000   1.0000   1.0000   1.0000   1.0000   1.0000
     1.0000   1.0000   1.0000   1.0000   1.0000   1.0000   1.0000   1.0000
     1.0000   1.0000   1.0000   1.0000   1.0000   1.0000   1.0000   1.0000
     1.0000   1.0000   1.0000   1.0000   1.0000   1.0000   1.0000   1.0000
     1.0000   1.0000   1.0000   1.0000   1.0000   1.0000   1.0000   1.0000
     1.0000   1.0000   1.0000   1.0000   1.0000   1.0000   1.0000   1.0000
     1.0000   1.0000   1.0000   1.0000   1.0000   1.0000   1.0000   1.0000
     1.0000   1.0000   1.0000   1.0000   1.0000   1.0000   1.0000   1.0000
     1.0000   1.0000   1.0000   1.0000   1.0000   1.0000   1.0000   1.0000
     1.0000   1.0000   1.0000   1.0000   1.0000   1.0000   1.0000   1.0000
     1.0000   1.0000   1.0000   1.0000   1.0000   1.0000   1.0000   1.0000
     1.0000   1.0000   1.0000   1.0000   1.0000   1.0000   1.0000   1.0000
     1.0000   1.0000   1.0000   1.0000   1.0000   1.0000   1.0000   1.0000
     1.0000   1.0000   1.0000   1.0000   1.0000   1.0000   1.0000   1.0000
     1.0000   1.0000   1.0000   1.0000   0.0000   0.0000   0.0000   0.0000
     0.0000   0.0000   0.0000   0.0000   0.0000   0.0000   0.0000   0.0000
     0.0000   0.0000   0.0000   0.0000   0.0000   0.0000   0.0000   0.0000
     0.0000   0.0000   0.0000   0.0000   0.0000   0.0000   0.0000   0.0000
     0.0000   0.0000   0.0000   0.0000   0.0000   0.0000   0.0000   0.0000
     0.0000   0.0000   0.0000   0.0000   0.0000   0.0000   0.0000   0.0000
     0.0000   0.0000   0.0000   0.0000   0.0000   0.0000   0.0000   0.0000
     0.0000   0.0000   0.0000   0.0000   0.0000   0.0000   0.0000   0.0000
     0.0000   0.0000   0.0000   0.0000   0.0000   0.0000   0.0000   0.0000
     0.0000   0.0000   0.0000   0.0000   0.0000   0.0000   0.0000   0.0000
     0.0000   0.0000   0.0000   0.0000   0.0000   0.0000   0.0000   0.0000
     0.0000   0.0000

          k =-0.0001 0.2885 0.2349 ( 44943 PWs)   bands (ev):

  -114.9781-114.9754-114.9738-114.9698-114.9698-114.9697-114.9673-114.9670
  -114.9670-114.9663-114.9660-114.9655-114.9651-114.9649-114.9637-114.9604
  -114.9594-114.9590-114.9587-114.9587-114.9586-114.9570-114.9566-114.9541
  -114.9540-114.9524-114.9519-114.9478 -69.3377 -69.3361 -69.3356 -69.3340
   -69.3308 -69.3307 -69.3307 -69.3305 -69.3300 -69.3299 -69.3294 -69.3290
   -69.3288 -69.3278 -69.3274 -69.3273 -69.3271 -69.3270 -69.3269 -69.3263
   -69.3258 -69.3257 -69.3255 -69.3254 -69.3250 -69.3246 -69.3245 -69.3235
   -69.3235 -69.3233 -69.3231 -69.3224 -69.3222 -69.3221 -69.3219 -69.3215
   -69.3206 -69.3204 -69.3204 -69.3200 -69.3199 -69.3196 -69.3196 -69.3195
   -69.3187 -69.3186 -69.3184 -69.3183 -69.3179 -69.3178 -69.3174 -69.3169
   -69.3166 -69.3163 -69.3161 -69.3160 -69.3158 -69.3156 -69.3151 -69.3148
   -69.3146 -69.3143 -69.3140 -69.3138 -69.3135 -69.3133 -69.3133 -69.3131
   -69.3125 -69.3124 -69.3107 -69.3105 -69.3103 -69.3101 -69.3093 -69.3087
   -69.3086 -69.3083 -69.3081 -69.3075 -69.3064 -69.3047 -69.3046 -69.3016
   -64.4347 -64.4305 -64.4206 -64.4195 -64.4189 -64.4176 -64.4168 -64.4014
   -31.4269 -31.4231 -31.4226 -31.4200 -31.4179 -31.4172 -31.4146 -31.4114
   -31.4110 -31.4094 -31.4086 -31.4072 -31.4057 -31.4053 -31.4047 -31.4045
   -31.4040 -31.4038 -31.4019 -31.4012 -31.3977 -31.3905 -31.3867 -31.3849
    -9.7010  -9.5130  -9.4330  -9.3543  -9.3143  -9.2566  -9.2086  -9.1999
    -9.1697  -9.1641  -9.1223  -9.1016  -9.0936  -9.0586  -9.0333  -9.0200
    -8.9802  -8.9636  -8.9575  -8.9403  -8.9173  -8.9130  -8.8864  -8.8755
    -8.8631  -8.8484  -8.8328  -8.8275  -8.8101  -8.7904  -8.7642  -8.7328
    -8.7101  -8.7033  -8.6646  -8.6503   2.0828   2.0973   2.1109   2.1305
     2.1348   2.1545   2.1772   2.1951   2.2048   2.2124   2.2408   2.2500
     2.2565   2.2687   2.2805   2.3015   2.3253   2.3374   2.3515   2.3820
     2.4234   2.4290   2.4516   2.4666   2.4709   2.4941   2.5048   2.5239
     2.5377   2.5499   2.5525   2.5638   2.5814   2.5926   2.5949   2.6024
     2.6104   2.6256   2.6413   2.6574   2.6627   2.6747   2.6872   2.6957
     2.7090   2.7187   2.7223   2.7381   2.7438   2.7579   2.7653   2.7686
     2.7911   2.7999   2.8043   2.8127   2.8215   2.8307   2.8351   2.8433
     2.8548   2.8749   2.8823   2.8890   2.9005   2.9140   2.9293   2.9397
     2.9480   2.9591   2.9766   2.9903   3.0057   3.0155   3.0359   3.0462
     3.0708   3.0770   3.1011   3.1106   3.1214   3.1381   3.1588   3.1939
     3.2319   3.2623   3.2820   3.2932   3.3209   3.3327   3.3481   3.3695
     3.3767   3.3997   3.4235   3.4392   3.4646   3.4740   3.5074   3.5239
     3.5325   3.5566   3.5774   3.5890   3.6008   3.6220   3.6353   3.6464
     3.6502   3.6652   3.6692   3.6769   3.6876   3.6945   3.7011   3.7105
     3.7178   3.7205   3.7262   3.7365   3.7386   3.7471   3.7615   3.7675
     3.7773   3.7888   3.7926   3.7997   3.8047   3.8138   3.8171   3.8263
     3.8300   3.8560   3.8667   3.8793   3.8870   3.9066   3.9204   3.9637
     4.0744   4.1286   4.1612   4.1671   4.1896   4.2156   4.2553   4.2785
     4.3238   4.3349   4.3470   4.3849   4.4210   4.4399   4.4580   4.5252
     4.5509   4.6038   4.6105   4.6589   4.7045   4.7240   4.7582   4.8194
     4.8308   4.8868   4.9330   5.0024   5.0584   5.1295   5.1697   5.1859
     5.2188   5.2543   5.3068   5.3874   5.4393   5.5061   5.5275   5.5889
     5.6530   5.6943   5.7712   5.8184   5.8356   5.8628   5.8890   5.9196
     5.9349   5.9959   6.0069   6.0735   6.0990   6.1420   6.1707   6.1883
     6.2191   6.2941   6.3002   6.3225   6.3355   6.3616   6.3828   6.4021
     6.4377   6.5080   6.5308   6.5588   6.5814   6.6190   6.6228   6.6407
     6.7008   6.7110   6.7586   6.8005   6.8296   6.8682   6.8921   6.9109
     6.9295   6.9527   6.9914   7.0008   7.0096   7.0485   7.0619   7.0954
     7.1144   7.1325   7.1370   7.1573   7.1829   7.2172   7.2250   7.2572
     7.3011   7.3484   7.3780   7.3883   7.4175   7.4474   7.5171   7.5201
     7.5983   7.6711   7.8202   7.8626   9.9384  11.2411  11.6566  12.2061
    12.3073  12.4469  12.7241  12.8699  12.9331  13.1395  13.2306  13.3757
    13.4721  13.5345  13.6017  13.8038  13.8544  14.0718  14.1828  14.2486
    14.3439  14.4151  14.9391  15.0204  15.0460  15.0940  15.1689  15.2261
    15.3352  15.3775  15.4065  15.4486  15.4698  15.5273  15.6073  15.6540
    15.9386  16.0710  16.0994  16.2085  16.2366  16.3512  16.3826  16.4378
    16.4562  16.4941  16.5393  16.5547  16.6367  16.6933  16.7088  16.7424
    16.8248  16.8597  16.9130  17.0171  17.0647  17.1177  17.1601  17.2157
    17.2393  17.2972  17.3865  17.4146  17.5697  17.6264  17.7189  17.7990
    18.0365  18.1383  18.1967  18.2658  18.3318  18.4986  18.6264  18.7694
    18.8454  18.8791  18.9346  18.9704  19.0781  19.2003  19.2663  19.3698
    19.4231  19.4677

     occupation numbers 
     1.0000   1.0000   1.0000   1.0000   1.0000   1.0000   1.0000   1.0000
     1.0000   1.0000   1.0000   1.0000   1.0000   1.0000   1.0000   1.0000
     1.0000   1.0000   1.0000   1.0000   1.0000   1.0000   1.0000   1.0000
     1.0000   1.0000   1.0000   1.0000   1.0000   1.0000   1.0000   1.0000
     1.0000   1.0000   1.0000   1.0000   1.0000   1.0000   1.0000   1.0000
     1.0000   1.0000   1.0000   1.0000   1.0000   1.0000   1.0000   1.0000
     1.0000   1.0000   1.0000   1.0000   1.0000   1.0000   1.0000   1.0000
     1.0000   1.0000   1.0000   1.0000   1.0000   1.0000   1.0000   1.0000
     1.0000   1.0000   1.0000   1.0000   1.0000   1.0000   1.0000   1.0000
     1.0000   1.0000   1.0000   1.0000   1.0000   1.0000   1.0000   1.0000
     1.0000   1.0000   1.0000   1.0000   1.0000   1.0000   1.0000   1.0000
     1.0000   1.0000   1.0000   1.0000   1.0000   1.0000   1.0000   1.0000
     1.0000   1.0000   1.0000   1.0000   1.0000   1.0000   1.0000   1.0000
     1.0000   1.0000   1.0000   1.0000   1.0000   1.0000   1.0000   1.0000
     1.0000   1.0000   1.0000   1.0000   1.0000   1.0000   1.0000   1.0000
     1.0000   1.0000   1.0000   1.0000   1.0000   1.0000   1.0000   1.0000
     1.0000   1.0000   1.0000   1.0000   1.0000   1.0000   1.0000   1.0000
     1.0000   1.0000   1.0000   1.0000   1.0000   1.0000   1.0000   1.0000
     1.0000   1.0000   1.0000   1.0000   1.0000   1.0000   1.0000   1.0000
     1.0000   1.0000   1.0000   1.0000   1.0000   1.0000   1.0000   1.0000
     1.0000   1.0000   1.0000   1.0000   1.0000   1.0000   1.0000   1.0000
     1.0000   1.0000   1.0000   1.0000   1.0000   1.0000   1.0000   1.0000
     1.0000   1.0000   1.0000   1.0000   1.0000   1.0000   1.0000   1.0000
     1.0000   1.0000   1.0000   1.0000   1.0000   1.0000   1.0000   1.0000
     1.0000   1.0000   1.0000   1.0000   1.0000   1.0000   1.0000   1.0000
     1.0000   1.0000   1.0000   1.0000   1.0000   1.0000   1.0000   1.0000
     1.0000   1.0000   1.0000   1.0000   1.0000   1.0000   1.0000   1.0000
     1.0000   1.0000   1.0000   1.0000   1.0000   1.0000   1.0000   1.0000
     1.0000   1.0000   1.0000   1.0000   1.0000   1.0000   1.0000   1.0000
     1.0000   1.0000   1.0000   1.0000   1.0000   1.0000   1.0000   1.0000
     1.0000   1.0000   1.0000   1.0000   1.0000   1.0000   1.0000   1.0000
     1.0000   1.0000   1.0000   1.0000   1.0000   1.0000   1.0000   1.0000
     1.0000   1.0000   1.0000   1.0000   1.0000   1.0000   1.0000   1.0000
     1.0000   1.0000   1.0000   1.0000   1.0000   1.0000   1.0000   1.0000
     1.0000   1.0000   1.0000   1.0000   1.0000   1.0000   1.0000   1.0000
     1.0000   1.0000   1.0000   1.0000   1.0000   1.0000   1.0000   1.0000
     1.0000   1.0000   1.0000   1.0000   1.0000   1.0000   1.0000   1.0000
     1.0000   1.0000   1.0000   1.0000   1.0000   1.0000   1.0000   1.0000
     1.0000   1.0000   1.0000   1.0000   1.0000   1.0000   1.0000   1.0000
     1.0000   1.0000   1.0000   1.0000   1.0000   1.0000   1.0000   1.0000
     1.0000   1.0000   1.0000   1.0000   1.0000   1.0000   1.0000   1.0000
     1.0000   1.0000   1.0000   1.0000   1.0000   1.0000   1.0000   1.0000
     1.0000   1.0000   1.0000   1.0000   1.0000   1.0000   1.0000   1.0000
     1.0000   1.0000   1.0000   1.0000   1.0000   1.0000   1.0000   1.0000
     1.0000   1.0000   1.0000   1.0000   1.0000   1.0000   1.0000   1.0000
     1.0000   1.0000   1.0000   1.0000   1.0000   1.0000   1.0000   1.0000
     1.0000   1.0000   1.0000   1.0000   1.0000   1.0000   1.0000   1.0000
     1.0000   1.0000   1.0000   1.0000   1.0000   1.0000   1.0000   1.0000
     1.0000   1.0000   1.0000   1.0000   1.0000   1.0000   1.0000   1.0000
     1.0000   1.0000   1.0000   1.0000   1.0000   1.0000   1.0000   1.0000
     1.0000   1.0000   1.0000   1.0000   1.0000   1.0000   1.0000   1.0000
     1.0000   1.0000   1.0000   1.0000   1.0000   1.0000   1.0000   1.0000
     1.0000   1.0000   1.0000   1.0000   1.0000   1.0000   1.0000   1.0000
     1.0000   1.0000   1.0000   1.0000   0.0000   0.0000   0.0000   0.0000
     0.0000   0.0000   0.0000   0.0000   0.0000   0.0000   0.0000   0.0000
     0.0000   0.0000   0.0000   0.0000   0.0000   0.0000   0.0000   0.0000
     0.0000   0.0000   0.0000   0.0000   0.0000   0.0000   0.0000   0.0000
     0.0000   0.0000   0.0000   0.0000   0.0000   0.0000   0.0000   0.0000
     0.0000   0.0000   0.0000   0.0000   0.0000   0.0000   0.0000   0.0000
     0.0000   0.0000   0.0000   0.0000   0.0000   0.0000   0.0000   0.0000
     0.0000   0.0000   0.0000   0.0000   0.0000   0.0000   0.0000   0.0000
     0.0000   0.0000   0.0000   0.0000   0.0000   0.0000   0.0000   0.0000
     0.0000   0.0000   0.0000   0.0000   0.0000   0.0000   0.0000   0.0000
     0.0000   0.0000   0.0000   0.0000   0.0000   0.0000   0.0000   0.0000
     0.0000   0.0000

          k =-0.0001 0.2886-0.4700 ( 44989 PWs)   bands (ev):

  -114.9781-114.9754-114.9738-114.9698-114.9698-114.9697-114.9673-114.9670
  -114.9670-114.9663-114.9660-114.9655-114.9651-114.9649-114.9637-114.9604
  -114.9594-114.9590-114.9587-114.9587-114.9586-114.9570-114.9566-114.9541
  -114.9540-114.9524-114.9519-114.9478 -69.3377 -69.3361 -69.3356 -69.3340
   -69.3308 -69.3307 -69.3307 -69.3305 -69.3300 -69.3299 -69.3294 -69.3290
   -69.3288 -69.3278 -69.3274 -69.3274 -69.3271 -69.3270 -69.3269 -69.3263
   -69.3258 -69.3257 -69.3255 -69.3254 -69.3250 -69.3246 -69.3245 -69.3235
   -69.3235 -69.3233 -69.3231 -69.3224 -69.3222 -69.3221 -69.3219 -69.3215
   -69.3206 -69.3204 -69.3204 -69.3200 -69.3199 -69.3196 -69.3196 -69.3195
   -69.3187 -69.3186 -69.3184 -69.3183 -69.3179 -69.3178 -69.3174 -69.3169
   -69.3166 -69.3163 -69.3161 -69.3160 -69.3159 -69.3156 -69.3151 -69.3148
   -69.3146 -69.3143 -69.3140 -69.3138 -69.3135 -69.3133 -69.3133 -69.3131
   -69.3125 -69.3124 -69.3107 -69.3105 -69.3103 -69.3101 -69.3093 -69.3087
   -69.3086 -69.3083 -69.3081 -69.3075 -69.3064 -69.3047 -69.3046 -69.3016
   -64.4347 -64.4305 -64.4206 -64.4195 -64.4189 -64.4176 -64.4168 -64.4014
   -31.4269 -31.4231 -31.4225 -31.4200 -31.4179 -31.4172 -31.4147 -31.4114
   -31.4110 -31.4094 -31.4086 -31.4072 -31.4057 -31.4054 -31.4047 -31.4044
   -31.4040 -31.4037 -31.4019 -31.4013 -31.3977 -31.3905 -31.3867 -31.3849
    -9.6274  -9.6238  -9.3900  -9.3709  -9.2868  -9.2660  -9.2402  -9.2293
    -9.1551  -9.1481  -9.1317  -9.0917  -9.0826  -9.0515  -9.0327  -9.0142
    -8.9860  -8.9793  -8.9483  -8.9271  -8.9078  -8.8960  -8.8895  -8.8697
    -8.8625  -8.8583  -8.8432  -8.8314  -8.8106  -8.7914  -8.7607  -8.7248
    -8.7112  -8.6939  -8.6775  -8.6636   2.1241   2.1339   2.1427   2.1514
     2.1608   2.1695   2.1856   2.2029   2.2170   2.2304   2.2465   2.2669
     2.2874   2.2960   2.3050   2.3363   2.3426   2.3532   2.3757   2.3858
     2.3995   2.4143   2.4347   2.4404   2.4485   2.4746   2.4813   2.4986
     2.5172   2.5298   2.5391   2.5533   2.5665   2.5751   2.5871   2.6026
     2.6072   2.6184   2.6270   2.6426   2.6548   2.6640   2.6773   2.6917
     2.7029   2.7101   2.7262   2.7277   2.7378   2.7513   2.7599   2.7783
     2.7843   2.8008   2.8060   2.8173   2.8263   2.8352   2.8397   2.8466
     2.8650   2.8722   2.8759   2.8914   2.8958   2.9063   2.9160   2.9243
     2.9417   2.9477   2.9554   2.9662   2.9720   2.9977   3.0133   3.0225
     3.0308   3.0447   3.0640   3.0757   3.0974   3.1048   3.1344   3.1625
     3.2117   3.2560   3.2764   3.2971   3.3137   3.3323   3.3429   3.3592
     3.3789   3.3983   3.4123   3.4465   3.4606   3.4844   3.5157   3.5250
     3.5477   3.5522   3.5790   3.5983   3.6089   3.6190   3.6348   3.6446
[...]
     4.9501   5.0283   5.0829   5.1114   5.2008   5.2511   5.2953   5.3172
     5.3538   5.4023   5.4331   5.4840   5.5239   5.5490   5.5769   5.6061
     5.6202   5.6704   5.6865   5.7260   5.7396   5.7810   5.8092   5.8753
     5.9476   5.9811   6.0908   6.1218   6.1374   6.1635   6.2045   6.2317
     6.2679   6.3019   6.3240   6.3435   6.3610   6.4127   6.4307   6.4461
     6.4693   6.4942   6.5321   6.5452   6.5737   6.6251   6.6590   6.6802
     6.7017   6.7169   6.7601   6.7726   6.7911   6.8149   6.8260   6.8510
     6.8578   6.8821   6.8898   6.9099   6.9204   6.9579   6.9826   6.9989
     7.0238   7.0381   7.0597   7.0784   7.1358   7.1596   7.1898   7.2284
     7.2484   7.3062   7.3300   7.3637   7.3736   7.4245   7.4417   7.5238
     7.6640   7.7021   7.7356   7.8169  10.6743  10.7928  11.7327  11.8329
    12.1631  12.2613  12.8062  12.8963  13.1535  13.2485  13.6877  13.8842
    13.9315  13.9710  14.0202  14.0583  14.0882  14.1202  14.1654  14.2277
    14.2616  14.3586  14.4161  14.5607  14.6865  14.7978  14.8040  14.8260
    14.8828  14.9219  15.3664  15.4337  15.4759  15.5078  15.5390  15.5687
    15.8071  16.0997  16.1389  16.1511  16.2270  16.4010  16.4374  16.4646
    16.4813  16.5332  16.5540  16.5994  16.6325  16.6583  16.7073  16.7679
    16.8033  16.9124  16.9897  17.0503  17.1358  17.2303  17.3174  17.4260
    17.4510  17.6126  17.7036  17.8078  17.9174  17.9434  18.0066  18.0846
    18.1741  18.2603  18.3410  18.5497  18.6398  18.6747  18.6971  18.7397
    18.7980  18.8231  18.8843  18.9218  18.9841  19.0942  19.1405  19.2268
    19.3042  19.4322

     occupation numbers 
     1.0000   1.0000   1.0000   1.0000   1.0000   1.0000   1.0000   1.0000
     1.0000   1.0000   1.0000   1.0000   1.0000   1.0000   1.0000   1.0000
     1.0000   1.0000   1.0000   1.0000   1.0000   1.0000   1.0000   1.0000
     1.0000   1.0000   1.0000   1.0000   1.0000   1.0000   1.0000   1.0000
     1.0000   1.0000   1.0000   1.0000   1.0000   1.0000   1.0000   1.0000
     1.0000   1.0000   1.0000   1.0000   1.0000   1.0000   1.0000   1.0000
     1.0000   1.0000   1.0000   1.0000   1.0000   1.0000   1.0000   1.0000
     1.0000   1.0000   1.0000   1.0000   1.0000   1.0000   1.0000   1.0000
     1.0000   1.0000   1.0000   1.0000   1.0000   1.0000   1.0000   1.0000
     1.0000   1.0000   1.0000   1.0000   1.0000   1.0000   1.0000   1.0000
     1.0000   1.0000   1.0000   1.0000   1.0000   1.0000   1.0000   1.0000
     1.0000   1.0000   1.0000   1.0000   1.0000   1.0000   1.0000   1.0000
     1.0000   1.0000   1.0000   1.0000   1.0000   1.0000   1.0000   1.0000
     1.0000   1.0000   1.0000   1.0000   1.0000   1.0000   1.0000   1.0000
     1.0000   1.0000   1.0000   1.0000   1.0000   1.0000   1.0000   1.0000
     1.0000   1.0000   1.0000   1.0000   1.0000   1.0000   1.0000   1.0000
     1.0000   1.0000   1.0000   1.0000   1.0000   1.0000   1.0000   1.0000
     1.0000   1.0000   1.0000   1.0000   1.0000   1.0000   1.0000   1.0000
     1.0000   1.0000   1.0000   1.0000   1.0000   1.0000   1.0000   1.0000
     1.0000   1.0000   1.0000   1.0000   1.0000   1.0000   1.0000   1.0000
     1.0000   1.0000   1.0000   1.0000   1.0000   1.0000   1.0000   1.0000
     1.0000   1.0000   1.0000   1.0000   1.0000   1.0000   1.0000   1.0000
     1.0000   1.0000   1.0000   1.0000   1.0000   1.0000   1.0000   1.0000
     1.0000   1.0000   1.0000   1.0000   1.0000   1.0000   1.0000   1.0000
     1.0000   1.0000   1.0000   1.0000   1.0000   1.0000   1.0000   1.0000
     1.0000   1.0000   1.0000   1.0000   1.0000   1.0000   1.0000   1.0000
     1.0000   1.0000   1.0000   1.0000   1.0000   1.0000   1.0000   1.0000
     1.0000   1.0000   1.0000   1.0000   1.0000   1.0000   1.0000   1.0000
     1.0000   1.0000   1.0000   1.0000   1.0000   1.0000   1.0000   1.0000
     1.0000   1.0000   1.0000   1.0000   1.0000   1.0000   1.0000   1.0000
     1.0000   1.0000   1.0000   1.0000   1.0000   1.0000   1.0000   1.0000
     1.0000   1.0000   1.0000   1.0000   1.0000   1.0000   1.0000   1.0000
     1.0000   1.0000   1.0000   1.0000   1.0000   1.0000   1.0000   1.0000
     1.0000   1.0000   1.0000   1.0000   1.0000   1.0000   1.0000   1.0000
     1.0000   1.0000   1.0000   1.0000   1.0000   1.0000   1.0000   1.0000
     1.0000   1.0000   1.0000   1.0000   1.0000   1.0000   1.0000   1.0000
     1.0000   1.0000   1.0000   1.0000   1.0000   1.0000   1.0000   1.0000
     1.0000   1.0000   1.0000   1.0000   1.0000   1.0000   1.0000   1.0000
     1.0000   1.0000   1.0000   1.0000   1.0000   1.0000   1.0000   1.0000
     1.0000   1.0000   1.0000   1.0000   1.0000   1.0000   1.0000   1.0000
     1.0000   1.0000   1.0000   1.0000   1.0000   1.0000   1.0000   1.0000
     1.0000   1.0000   1.0000   1.0000   1.0000   1.0000   1.0000   1.0000
     1.0000   1.0000   1.0000   1.0000   1.0000   1.0000   1.0000   1.0000
     1.0000   1.0000   1.0000   1.0000   1.0000   1.0000   1.0000   1.0000
     1.0000   1.0000   1.0000   1.0000   1.0000   1.0000   1.0000   1.0000
     1.0000   1.0000   1.0000   1.0000   1.0000   1.0000   1.0000   1.0000
     1.0000   1.0000   1.0000   1.0000   1.0000   1.0000   1.0000   1.0000
     1.0000   1.0000   1.0000   1.0000   1.0000   1.0000   1.0000   1.0000
     1.0000   1.0000   1.0000   1.0000   1.0000   1.0000   1.0000   1.0000
     1.0000   1.0000   1.0000   1.0000   1.0000   1.0000   1.0000   1.0000
     1.0000   1.0000   1.0000   1.0000   1.0000   1.0000   1.0000   1.0000
     1.0000   1.0000   1.0000   1.0000   1.0000   1.0000   1.0000   1.0000
     1.0000   1.0000   1.0000   1.0000   1.0000   1.0000   1.0000   1.0000
     1.0000   1.0000   1.0000   1.0000   0.0000   0.0000   0.0000   0.0000
     0.0000   0.0000   0.0000   0.0000   0.0000   0.0000   0.0000   0.0000
     0.0000   0.0000   0.0000   0.0000   0.0000   0.0000   0.0000   0.0000
     0.0000   0.0000   0.0000   0.0000   0.0000   0.0000   0.0000   0.0000
     0.0000   0.0000   0.0000   0.0000   0.0000   0.0000   0.0000   0.0000
     0.0000   0.0000   0.0000   0.0000   0.0000   0.0000   0.0000   0.0000
     0.0000   0.0000   0.0000   0.0000   0.0000   0.0000   0.0000   0.0000
     0.0000   0.0000   0.0000   0.0000   0.0000   0.0000   0.0000   0.0000
     0.0000   0.0000   0.0000   0.0000   0.0000   0.0000   0.0000   0.0000
     0.0000   0.0000   0.0000   0.0000   0.0000   0.0000   0.0000   0.0000
     0.0000   0.0000   0.0000   0.0000   0.0000   0.0000   0.0000   0.0000
     0.0000   0.0000

          k =-0.4996-0.8653-0.4697 ( 44978 PWs)   bands (ev):

  -114.9781-114.9754-114.9738-114.9698-114.9698-114.9697-114.9673-114.9670
  -114.9670-114.9663-114.9660-114.9655-114.9651-114.9649-114.9637-114.9604
  -114.9594-114.9590-114.9587-114.9587-114.9586-114.9570-114.9566-114.9541
  -114.9540-114.9524-114.9519-114.9478 -69.3377 -69.3361 -69.3356 -69.3340
   -69.3308 -69.3307 -69.3307 -69.3305 -69.3300 -69.3299 -69.3294 -69.3290
   -69.3288 -69.3278 -69.3274 -69.3274 -69.3271 -69.3270 -69.3269 -69.3263
   -69.3258 -69.3257 -69.3255 -69.3254 -69.3250 -69.3246 -69.3245 -69.3235
   -69.3235 -69.3233 -69.3231 -69.3224 -69.3222 -69.3221 -69.3219 -69.3215
   -69.3206 -69.3205 -69.3203 -69.3200 -69.3199 -69.3196 -69.3196 -69.3195
   -69.3187 -69.3186 -69.3184 -69.3183 -69.3179 -69.3178 -69.3174 -69.3169
   -69.3166 -69.3162 -69.3161 -69.3160 -69.3159 -69.3156 -69.3151 -69.3148
   -69.3146 -69.3143 -69.3140 -69.3138 -69.3135 -69.3133 -69.3133 -69.3131
   -69.3125 -69.3124 -69.3107 -69.3105 -69.3103 -69.3101 -69.3093 -69.3087
   -69.3086 -69.3083 -69.3081 -69.3075 -69.3064 -69.3047 -69.3046 -69.3016
   -64.4347 -64.4305 -64.4206 -64.4195 -64.4189 -64.4176 -64.4168 -64.4014
   -31.4269 -31.4231 -31.4225 -31.4200 -31.4179 -31.4172 -31.4147 -31.4114
   -31.4110 -31.4094 -31.4086 -31.4073 -31.4057 -31.4054 -31.4047 -31.4044
   -31.4040 -31.4037 -31.4019 -31.4013 -31.3977 -31.3905 -31.3867 -31.3849
    -9.5754  -9.5560  -9.4821  -9.4488  -9.3111  -9.3074  -9.2732  -9.2415
    -9.1134  -9.1007  -9.0860  -9.0648  -9.0531  -9.0236  -9.0142  -8.9942
    -8.9797  -8.9686  -8.9563  -8.9498  -8.9446  -8.9236  -8.9156  -8.8943
    -8.8802  -8.8368  -8.8310  -8.8191  -8.8093  -8.8070  -8.7444  -8.7294
    -8.7063  -8.6922  -8.6800  -8.6601   2.1413   2.1563   2.1752   2.1816
     2.1867   2.1970   2.2131   2.2273   2.2471   2.2616   2.2734   2.2904
     2.3085   2.3179   2.3311   2.3436   2.3494   2.3599   2.3675   2.3752
     2.3822   2.3999   2.4118   2.4213   2.4398   2.4549   2.4649   2.4811
     2.5038   2.5202   2.5353   2.5434   2.5514   2.5671   2.5773   2.5934
     2.6041   2.6145   2.6259   2.6319   2.6357   2.6559   2.6564   2.6689
     2.6821   2.6975   2.7035   2.7234   2.7309   2.7341   2.7435   2.7474
     2.7643   2.7680   2.7879   2.7921   2.8129   2.8228   2.8289   2.8356
     2.8468   2.8584   2.8686   2.8856   2.8963   2.9058   2.9167   2.9330
     2.9399   2.9464   2.9557   2.9674   2.9730   2.9835   2.9949   3.0039
     3.0247   3.0348   3.0616   3.0698   3.0898   3.0989   3.1048   3.1343
     3.2182   3.2378   3.2638   3.2760   3.3095   3.3283   3.3521   3.3607
     3.3776   3.4100   3.4467   3.4798   3.4937   3.5120   3.5265   3.5407
     3.5554   3.5652   3.5913   3.5954   3.6080   3.6138   3.6276   3.6344
     3.6422   3.6454   3.6583   3.6631   3.6774   3.6829   3.7020   3.7037
     3.7131   3.7180   3.7371   3.7452   3.7471   3.7536   3.7607   3.7759
     3.7824   3.7921   3.7992   3.8048   3.8057   3.8221   3.8280   3.8347
     3.8386   3.8513   3.8543   3.8697   3.8856   3.9357   3.9515   3.9656
     4.1319   4.1370   4.1606   4.1780   4.2102   4.2284   4.2739   4.2817
     4.3388   4.3755   4.4001   4.4142   4.4182   4.4629   4.4680   4.4953
     4.5260   4.5719   4.6481   4.7177   4.7348   4.7378   4.7679   4.7958
     4.8680   4.9577   4.9692   5.0504   5.2472   5.2783   5.3306   5.3549
     5.3933   5.4583   5.4777   5.5110   5.5322   5.5535   5.5793   5.6195
     5.7006   5.7636   5.7822   5.8064   5.8454   5.8748   5.9088   5.9182
     5.9524   5.9675   5.9756   5.9949   6.0218   6.0399   6.0547   6.0807
     6.1212   6.2230   6.2542   6.2917   6.3314   6.3386   6.4111   6.4490
     6.4788   6.4954   6.5102   6.5444   6.5543   6.5859   6.6156   6.6432
     6.6545   6.6748   6.7327   6.7692   6.7902   6.8122   6.8395   6.8544
     6.8682   6.9119   6.9407   6.9616   6.9743   6.9818   6.9865   6.9932
     7.0262   7.0431   7.0720   7.0991   7.1165   7.1380   7.2264   7.2462
     7.2553   7.3118   7.3861   7.4174   7.4631   7.5003   7.5322   7.5496
     7.6207   7.6563   7.7291   7.7651  11.0521  11.1129  11.2138  11.2912
    12.3659  12.3884  12.4973  12.5340  13.6024  13.6829  13.7710  13.8111
    13.8429  13.8790  13.9498  14.0045  14.0531  14.1197  14.1622  14.2807
    14.3556  14.4508  14.5873  14.6036  14.7610  14.7856  14.8824  14.9188
    15.0991  15.1379  15.1707  15.1907  15.2153  15.2502  15.2834  15.3071
    16.1053  16.1353  16.2944  16.3175  16.3291  16.3541  16.3719  16.4120
    16.4907  16.5378  16.6956  16.7093  16.7338  16.7402  16.7522  16.7644
    16.7833  16.8034  16.8239  16.8372  17.0723  17.1338  17.2339  17.3931
    17.4327  17.6378  17.6611  17.8334  17.9175  17.9589  18.0290  18.0782
    18.2327  18.2791  18.3101  18.3703  18.4685  18.5186  18.6390  18.7341
    18.8502  18.8907  19.0811  19.1370  19.1763  19.2956  19.3139  19.3466
    19.3937  19.4050

     occupation numbers 
     1.0000   1.0000   1.0000   1.0000   1.0000   1.0000   1.0000   1.0000
     1.0000   1.0000   1.0000   1.0000   1.0000   1.0000   1.0000   1.0000
     1.0000   1.0000   1.0000   1.0000   1.0000   1.0000   1.0000   1.0000
     1.0000   1.0000   1.0000   1.0000   1.0000   1.0000   1.0000   1.0000
     1.0000   1.0000   1.0000   1.0000   1.0000   1.0000   1.0000   1.0000
     1.0000   1.0000   1.0000   1.0000   1.0000   1.0000   1.0000   1.0000
     1.0000   1.0000   1.0000   1.0000   1.0000   1.0000   1.0000   1.0000
     1.0000   1.0000   1.0000   1.0000   1.0000   1.0000   1.0000   1.0000
     1.0000   1.0000   1.0000   1.0000   1.0000   1.0000   1.0000   1.0000
     1.0000   1.0000   1.0000   1.0000   1.0000   1.0000   1.0000   1.0000
     1.0000   1.0000   1.0000   1.0000   1.0000   1.0000   1.0000   1.0000
     1.0000   1.0000   1.0000   1.0000   1.0000   1.0000   1.0000   1.0000
     1.0000   1.0000   1.0000   1.0000   1.0000   1.0000   1.0000   1.0000
     1.0000   1.0000   1.0000   1.0000   1.0000   1.0000   1.0000   1.0000
     1.0000   1.0000   1.0000   1.0000   1.0000   1.0000   1.0000   1.0000
     1.0000   1.0000   1.0000   1.0000   1.0000   1.0000   1.0000   1.0000
     1.0000   1.0000   1.0000   1.0000   1.0000   1.0000   1.0000   1.0000
     1.0000   1.0000   1.0000   1.0000   1.0000   1.0000   1.0000   1.0000
     1.0000   1.0000   1.0000   1.0000   1.0000   1.0000   1.0000   1.0000
     1.0000   1.0000   1.0000   1.0000   1.0000   1.0000   1.0000   1.0000
     1.0000   1.0000   1.0000   1.0000   1.0000   1.0000   1.0000   1.0000
     1.0000   1.0000   1.0000   1.0000   1.0000   1.0000   1.0000   1.0000
     1.0000   1.0000   1.0000   1.0000   1.0000   1.0000   1.0000   1.0000
     1.0000   1.0000   1.0000   1.0000   1.0000   1.0000   1.0000   1.0000
     1.0000   1.0000   1.0000   1.0000   1.0000   1.0000   1.0000   1.0000
     1.0000   1.0000   1.0000   1.0000   1.0000   1.0000   1.0000   1.0000
     1.0000   1.0000   1.0000   1.0000   1.0000   1.0000   1.0000   1.0000
     1.0000   1.0000   1.0000   1.0000   1.0000   1.0000   1.0000   1.0000
     1.0000   1.0000   1.0000   1.0000   1.0000   1.0000   1.0000   1.0000
     1.0000   1.0000   1.0000   1.0000   1.0000   1.0000   1.0000   1.0000
     1.0000   1.0000   1.0000   1.0000   1.0000   1.0000   1.0000   1.0000
     1.0000   1.0000   1.0000   1.0000   1.0000   1.0000   1.0000   1.0000
     1.0000   1.0000   1.0000   1.0000   1.0000   1.0000   1.0000   1.0000
     1.0000   1.0000   1.0000   1.0000   1.0000   1.0000   1.0000   1.0000
     1.0000   1.0000   1.0000   1.0000   1.0000   1.0000   1.0000   1.0000
     1.0000   1.0000   1.0000   1.0000   1.0000   1.0000   1.0000   1.0000
     1.0000   1.0000   1.0000   1.0000   1.0000   1.0000   1.0000   1.0000
     1.0000   1.0000   1.0000   1.0000   1.0000   1.0000   1.0000   1.0000
     1.0000   1.0000   1.0000   1.0000   1.0000   1.0000   1.0000   1.0000
     1.0000   1.0000   1.0000   1.0000   1.0000   1.0000   1.0000   1.0000
     1.0000   1.0000   1.0000   1.0000   1.0000   1.0000   1.0000   1.0000
     1.0000   1.0000   1.0000   1.0000   1.0000   1.0000   1.0000   1.0000
     1.0000   1.0000   1.0000   1.0000   1.0000   1.0000   1.0000   1.0000
     1.0000   1.0000   1.0000   1.0000   1.0000   1.0000   1.0000   1.0000
     1.0000   1.0000   1.0000   1.0000   1.0000   1.0000   1.0000   1.0000
     1.0000   1.0000   1.0000   1.0000   1.0000   1.0000   1.0000   1.0000
     1.0000   1.0000   1.0000   1.0000   1.0000   1.0000   1.0000   1.0000
     1.0000   1.0000   1.0000   1.0000   1.0000   1.0000   1.0000   1.0000
     1.0000   1.0000   1.0000   1.0000   1.0000   1.0000   1.0000   1.0000
     1.0000   1.0000   1.0000   1.0000   1.0000   1.0000   1.0000   1.0000
     1.0000   1.0000   1.0000   1.0000   1.0000   1.0000   1.0000   1.0000
     1.0000   1.0000   1.0000   1.0000   1.0000   1.0000   1.0000   1.0000
     1.0000   1.0000   1.0000   1.0000   1.0000   1.0000   1.0000   1.0000
     1.0000   1.0000   1.0000   1.0000   0.0000   0.0000   0.0000   0.0000
     0.0000   0.0000   0.0000   0.0000   0.0000   0.0000   0.0000   0.0000
     0.0000   0.0000   0.0000   0.0000   0.0000   0.0000   0.0000   0.0000
     0.0000   0.0000   0.0000   0.0000   0.0000   0.0000   0.0000   0.0000
     0.0000   0.0000   0.0000   0.0000   0.0000   0.0000   0.0000   0.0000
     0.0000   0.0000   0.0000   0.0000   0.0000   0.0000   0.0000   0.0000
     0.0000   0.0000   0.0000   0.0000   0.0000   0.0000   0.0000   0.0000
     0.0000   0.0000   0.0000   0.0000   0.0000   0.0000   0.0000   0.0000
     0.0000   0.0000   0.0000   0.0000   0.0000   0.0000   0.0000   0.0000
     0.0000   0.0000   0.0000   0.0000   0.0000   0.0000   0.0000   0.0000
     0.0000   0.0000   0.0000   0.0000   0.0000   0.0000   0.0000   0.0000
     0.0000   0.0000

     the Fermi energy is     9.1197 ev

!    total energy              =  -15079.82340098 Ry
     Harris-Foulkes estimate   =  -15079.82340099 Ry
     estimated scf accuracy    <          4.1E-09 Ry

     The total energy is the sum of the following terms:

     one-electron contribution =  -12509.28542259 Ry
     hartree contribution      =    6573.75353595 Ry
     xc contribution           =   -1565.47941645 Ry
     ewald contribution        =   -7578.81209790 Ry
     smearing contrib. (-TS)   =      -0.00000000 Ry

     convergence has been achieved in  12 iterations

     Writing output data file ZnO.save/
 
     init_run     :     15.34s CPU     15.83s WALL (       1 calls)
     electrons    :    717.73s CPU    733.06s WALL (       1 calls)

     Called by init_run:
     wfcinit      :     13.03s CPU     13.33s WALL (       1 calls)
     wfcinit:atom :      0.10s CPU      0.13s WALL (       5 calls)
     wfcinit:wfcr :     12.50s CPU     12.75s WALL (       5 calls)
     potinit      :      1.02s CPU      1.08s WALL (       1 calls)
     hinit0       :      0.79s CPU      0.86s WALL (       1 calls)

     Called by electrons:
     c_bands      :    662.67s CPU    675.71s WALL (      12 calls)
     sum_band     :     48.08s CPU     48.88s WALL (      12 calls)
     v_of_rho     :      5.48s CPU      5.75s WALL (      13 calls)
     v_h          :      0.15s CPU      0.20s WALL (      13 calls)
     v_xc         :      5.33s CPU      5.55s WALL (      13 calls)
     newd         :      1.31s CPU      1.38s WALL (      13 calls)
     mix_rho      :      0.33s CPU      0.42s WALL (      12 calls)

     Called by c_bands:
     init_us_2    :      4.17s CPU      4.19s WALL (     125 calls)
     cegterg      :    617.62s CPU    630.37s WALL (      60 calls)

     Called by sum_band:
     sum_band:bec :      0.26s CPU      0.26s WALL (      60 calls)
     addusdens    :      1.07s CPU      1.12s WALL (      12 calls)

     Called by *egterg:
     h_psi        :    211.06s CPU    214.34s WALL (     234 calls)
     s_psi        :     52.40s CPU     52.41s WALL (     234 calls)
     g_psi        :      0.81s CPU      0.81s WALL (     169 calls)
     cdiaghg      :    219.63s CPU    225.28s WALL (     229 calls)
     cegterg:over :     61.30s CPU     62.62s WALL (     169 calls)
     cegterg:upda :     40.64s CPU     41.11s WALL (     169 calls)
     cegterg:last :     22.85s CPU     22.91s WALL (      60 calls)
     cdiaghg:chol :     10.17s CPU     10.21s WALL (     229 calls)
     cdiaghg:inve :      3.18s CPU      3.18s WALL (     229 calls)
     cdiaghg:para :     52.15s CPU     56.75s WALL (     458 calls)

     Called by h_psi:
     h_psi:pot    :    209.31s CPU    211.48s WALL (     234 calls)
     h_psi:calbec :     53.67s CPU     55.15s WALL (     234 calls)
     vloc_psi     :    103.03s CPU    103.57s WALL (     234 calls)
     add_vuspsi   :     52.59s CPU     52.77s WALL (     234 calls)

     General routines
     calbec       :     74.77s CPU     76.81s WALL (     294 calls)
     fft          :      1.24s CPU      1.69s WALL (     167 calls)
     ffts         :      0.06s CPU      0.07s WALL (      25 calls)
     fftw         :    116.07s CPU    116.63s WALL (  183356 calls)
     interpolate  :      0.15s CPU      0.20s WALL (      13 calls)
 
     Parallel routines
     fft_scatt_xy :     19.27s CPU     19.36s WALL (  183548 calls)
     fft_scatt_yz :     30.78s CPU     31.38s WALL (  183548 calls)
 
     PWSCF        :  12m19.51s CPU  12m39.93s WALL

 
   This run was terminated on:   1:37:58  15Jul2022            

=------------------------------------------------------------------------------=
   JOB DONE.
=------------------------------------------------------------------------------=
