
     Program PWSCF v.6.4.1 starts on 16Jun2022 at 20:11:41 

     This program is part of the open-source Quantum ESPRESSO suite
     for quantum simulation of materials; please cite
         "P. Giannozzi et al., J. Phys.:Condens. Matter 21 395502 (2009);
         "P. Giannozzi et al., J. Phys.:Condens. Matter 29 465901 (2017);
          URL http://www.quantum-espresso.org", 
     in publications or presentations arising from this work. More details at
     http://www.quantum-espresso.org/quote

     Parallel version (MPI), running on    64 processors

     MPI processes distributed on     1 nodes
     K-points division:     npool     =       4
     R & G space division:  proc/nbgrp/npool/nimage =      16
     Waiting for input...
     Reading input from standard input
Warning: card &IONS ignored
Warning: card   UPSCALE           = 100.D0, ignored
Warning: card / ignored
Warning: card &CELL ignored
Warning: card   CELL_DYNAMICS     = 'BFGS' ignored
Warning: card   PRESS_CONV_THR    = 0.5D0 ignored
Warning: card   CELL_DOFREE = 'ALL' ignored
Warning: card / ignored

     Current dimensions of program PWSCF are:
     Max number of different atomic species (ntypx) = 10
     Max number of k-points (npk) =  40000
     Max angular momentum in pseudopotentials (lmaxx) =  3

     Subspace diagonalization in iterative solution of the eigenvalue problem:
     one sub-group per band group will be used
     scalapack distributed-memory algorithm (size of sub-group:  2*  2 procs)

 
     Parallelization info
     --------------------
     sticks:   dense  smooth     PW     G-vecs:    dense   smooth      PW
     Min         108      57     18                 4742     1843     320
     Max         109      58     19                 4747     1850     324
     Sum        1735     925    295                75923    29555    5145
 


     bravais-lattice index     =            0
     lattice parameter (alat)  =       6.4763  a.u.
     unit-cell volume          =     305.9262 (a.u.)^3
     number of atoms/cell      =            4
     number of atomic types    =            3
     number of electrons       =        42.00
     number of Kohn-Sham states=           21
     kinetic-energy cutoff     =      80.0000  Ry
     charge density cutoff     =     600.0000  Ry
     convergence threshold     =      1.0E-06
     mixing beta               =       0.5000
     number of iterations used =            8  plain     mixing
     Exchange-correlation      = SLA  PW   PSX  PSC ( 1  4 10  8 0 0)
     Using LIBXC version       =    4   3   4

     celldm(1)=   6.476279  celldm(2)=   0.000000  celldm(3)=   0.000000
     celldm(4)=   0.000000  celldm(5)=   0.000000  celldm(6)=   0.000000

     crystal axes: (cart. coord. in units of alat)
               a(1) = (   1.000000   0.000000   0.000000 )  
               a(2) = (  -0.500000   0.866025   0.000000 )  
               a(3) = (  -0.000000  -0.000000   1.300497 )  

     reciprocal axes: (cart. coord. in units 2 pi/alat)
               b(1) = (  1.000000  0.577350  0.000000 )  
               b(2) = ( -0.000000  1.154701  0.000000 )  
               b(3) = ( -0.000000 -0.000000  0.768937 )  


     PseudoPot. # 1 for Mg read from file:
     ./GBRV_PBEsol/mg_pbesol_v1.4.uspp.F.UPF
     MD5 check sum: 4059f37963cf5867752dbf5ab2400678
     Pseudo is Ultrasoft, Zval = 10.0
     Generated by new atomic code, or converted to UPF format
     Using radial grid of  821 points,  7 beta functions with: 
                l(1) =   0
                l(2) =   0
                l(3) =   0
                l(4) =   1
                l(5) =   1
                l(6) =   2
                l(7) =   2
     Q(r) pseudized with  8 coefficients,  rinner =    1.200   1.200   1.200
                                                       1.200   1.200

     PseudoPot. # 2 for Zn read from file:
     ./GBRV_PBEsol/zn_pbesol_v1.uspp.F.UPF
     MD5 check sum: 7d8615e52efe7c1e2b1899de8658bae2
     Pseudo is Ultrasoft, Zval = 20.0
     Generated by new atomic code, or converted to UPF format
     Using radial grid of  943 points,  6 beta functions with: 
                l(1) =   0
                l(2) =   0
                l(3) =   1
                l(4) =   1
                l(5) =   2
                l(6) =   2
     Q(r) pseudized with  8 coefficients,  rinner =    1.100   1.100   1.100
                                                       1.100   1.100

     PseudoPot. # 3 for O  read from file:
     ./GBRV_PBEsol/o_pbesol_v1.2.uspp.F.UPF
     MD5 check sum: 501638753501ef6325af9037351f7734
     Pseudo is Ultrasoft + core correction, Zval =  6.0
     Generated by new atomic code, or converted to UPF format
     Using radial grid of  737 points,  5 beta functions with: 
                l(1) =   0
                l(2) =   0
                l(3) =   1
                l(4) =   1
                l(5) =   2
     Q(r) pseudized with  8 coefficients,  rinner =    0.900   0.900   0.900
                                                       0.900   0.900

     atomic species   valence    mass     pseudopotential
        Mg            10.00    24.30500     Mg( 1.00)
        Zn            20.00    65.38000     Zn( 1.00)
        O              6.00    15.99900     O ( 1.00)

     No symmetry found


                                    s                        frac. trans.

      isym =  1     identity                                     

 cryst.   s( 1) = (     1          0          0      )
                  (     0          1          0      )
                  (     0          0          1      )

 cart.    s( 1) = (  1.0000000  0.0000000  0.0000000 )
                  ( -0.0000000  1.0000000  0.0000000 )
                  (  0.0000000  0.0000000  1.0000000 )


   Cartesian axes

     site n.     atom                  positions (alat units)
         1           O   tau(   1) = (   0.5000002   0.2886755   0.0095533  )
         2           O   tau(   2) = (   0.0000002   0.5773493   0.6598017  )
         3           Zn  tau(   3) = (   0.5000000   0.2886747   0.7074625  )
         4           Mg  tau(   4) = (  -0.0000001   0.5773508   1.3619826  )

   Crystallographic axes

     site n.     atom                  positions (cryst. coord.)
         1           O   tau(   1) = (  0.6666670  0.3333337  0.0073459  )
         2           O   tau(   2) = (  0.3333329  0.6666657  0.5073458  )
         3           Zn  tau(   3) = (  0.6666664  0.3333329  0.5439939  )
         4           Mg  tau(   4) = (  0.3333337  0.6666677  1.0472785  )

     number of k points=   260
                       cart. coord. in units 2pi/alat
        k(    1) = (   0.0000000   0.0000000   0.0000000), wk =   0.0039062
        k(    2) = (  -0.0000000  -0.0000000   0.0961171), wk =   0.0078125
        k(    3) = (  -0.0000000  -0.0000000   0.1922342), wk =   0.0078125
        k(    4) = (  -0.0000000  -0.0000000   0.2883513), wk =   0.0078125
        k(    5) = (   0.0000000   0.0000000  -0.3844684), wk =   0.0039062
        k(    6) = (  -0.0000000   0.1443376   0.0000000), wk =   0.0078125
        k(    7) = (  -0.0000000   0.1443376   0.0961171), wk =   0.0078125
        k(    8) = (  -0.0000000   0.1443376   0.1922342), wk =   0.0078125
        k(    9) = (  -0.0000000   0.1443376   0.2883513), wk =   0.0078125
        k(   10) = (  -0.0000000   0.1443376  -0.3844684), wk =   0.0078125
        k(   11) = (  -0.0000000   0.1443376  -0.2883513), wk =   0.0078125
        k(   12) = (  -0.0000000   0.1443376  -0.1922342), wk =   0.0078125
        k(   13) = (  -0.0000000   0.1443376  -0.0961171), wk =   0.0078125
        k(   14) = (  -0.0000001   0.2886751   0.0000001), wk =   0.0078125
        k(   15) = (  -0.0000001   0.2886751   0.0961172), wk =   0.0078125
        k(   16) = (  -0.0000001   0.2886751   0.1922343), wk =   0.0078125
        k(   17) = (  -0.0000001   0.2886751   0.2883514), wk =   0.0078125
        k(   18) = (  -0.0000000   0.2886752  -0.3844683), wk =   0.0078125
        k(   19) = (  -0.0000000   0.2886752  -0.2883512), wk =   0.0078125
        k(   20) = (  -0.0000000   0.2886752  -0.1922341), wk =   0.0078125
        k(   21) = (  -0.0000001   0.2886751  -0.0961170), wk =   0.0078125
        k(   22) = (  -0.0000001   0.4330127   0.0000001), wk =   0.0078125
        k(   23) = (  -0.0000001   0.4330127   0.0961172), wk =   0.0078125
        k(   24) = (  -0.0000001   0.4330127   0.1922343), wk =   0.0078125
        k(   25) = (  -0.0000001   0.4330127   0.2883514), wk =   0.0078125
        k(   26) = (  -0.0000001   0.4330127  -0.3844683), wk =   0.0078125
        k(   27) = (  -0.0000001   0.4330127  -0.2883512), wk =   0.0078125
        k(   28) = (  -0.0000001   0.4330127  -0.1922341), wk =   0.0078125
        k(   29) = (  -0.0000001   0.4330127  -0.0961170), wk =   0.0078125
        k(   30) = (   0.0000001  -0.5773503  -0.0000001), wk =   0.0039062
        k(   31) = (   0.0000001  -0.5773503   0.0961170), wk =   0.0078125
        k(   32) = (   0.0000001  -0.5773503   0.1922341), wk =   0.0078125
        k(   33) = (   0.0000001  -0.5773503   0.2883512), wk =   0.0078125
        k(   34) = (   0.0000001  -0.5773503  -0.3844685), wk =   0.0039062
        k(   35) = (   0.1250000   0.0721688   0.0000000), wk =   0.0078125
        k(   36) = (   0.1250000   0.0721688   0.0961171), wk =   0.0078125
        k(   37) = (   0.1250000   0.0721687   0.1922342), wk =   0.0078125
        k(   38) = (   0.1250000   0.0721687   0.2883513), wk =   0.0078125
        k(   39) = (   0.1250000   0.0721688  -0.3844684), wk =   0.0078125
        k(   40) = (   0.1250000   0.0721688  -0.2883513), wk =   0.0078125
        k(   41) = (   0.1250000   0.0721688  -0.1922342), wk =   0.0078125
        k(   42) = (   0.1250000   0.0721688  -0.0961171), wk =   0.0078125
        k(   43) = (   0.1250000   0.2165063   0.0000001), wk =   0.0078125
        k(   44) = (   0.1250000   0.2165063   0.0961172), wk =   0.0078125
        k(   45) = (   0.1249999   0.2165063   0.1922343), wk =   0.0078125
        k(   46) = (   0.1249999   0.2165063   0.2883514), wk =   0.0078125
        k(   47) = (   0.1250000   0.2165064  -0.3844684), wk =   0.0078125
        k(   48) = (   0.1250000   0.2165063  -0.2883513), wk =   0.0078125
        k(   49) = (   0.1250000   0.2165063  -0.1922342), wk =   0.0078125
        k(   50) = (   0.1250000   0.2165063  -0.0961170), wk =   0.0078125
        k(   51) = (   0.1249999   0.3608439   0.0000001), wk =   0.0078125
        k(   52) = (   0.1249999   0.3608439   0.0961172), wk =   0.0078125
        k(   53) = (   0.1249999   0.3608439   0.1922343), wk =   0.0078125
        k(   54) = (   0.1249999   0.3608439   0.2883514), wk =   0.0078125
        k(   55) = (   0.1249999   0.3608439  -0.3844683), wk =   0.0078125
        k(   56) = (   0.1249999   0.3608439  -0.2883512), wk =   0.0078125
        k(   57) = (   0.1249999   0.3608439  -0.1922341), wk =   0.0078125
        k(   58) = (   0.1249999   0.3608439  -0.0961170), wk =   0.0078125
        k(   59) = (   0.1249999   0.5051815   0.0000001), wk =   0.0078125
        k(   60) = (   0.1249999   0.5051815   0.0961172), wk =   0.0078125
        k(   61) = (   0.1249999   0.5051815   0.1922343), wk =   0.0078125
        k(   62) = (   0.1249999   0.5051815   0.2883514), wk =   0.0078125
        k(   63) = (   0.1249999   0.5051815  -0.3844683), wk =   0.0078125
        k(   64) = (   0.1249999   0.5051815  -0.2883512), wk =   0.0078125
        k(   65) = (   0.1249999   0.5051815  -0.1922341), wk =   0.0078125
        k(   66) = (   0.1249999   0.5051815  -0.0961170), wk =   0.0078125
        k(   67) = (   0.1250001  -0.5051815  -0.0000001), wk =   0.0078125
        k(   68) = (   0.1250001  -0.5051815   0.0961170), wk =   0.0078125
        k(   69) = (   0.1250001  -0.5051815   0.1922341), wk =   0.0078125
        k(   70) = (   0.1250001  -0.5051815   0.2883512), wk =   0.0078125
        k(   71) = (   0.1250001  -0.5051815  -0.3844685), wk =   0.0078125
        k(   72) = (   0.1250001  -0.5051815  -0.2883514), wk =   0.0078125
        k(   73) = (   0.1250001  -0.5051815  -0.1922343), wk =   0.0078125
        k(   74) = (   0.1250001  -0.5051815  -0.0961172), wk =   0.0078125
        k(   75) = (   0.1250001  -0.3608439  -0.0000001), wk =   0.0078125
        k(   76) = (   0.1250001  -0.3608440   0.0961170), wk =   0.0078125
        k(   77) = (   0.1250001  -0.3608440   0.1922341), wk =   0.0078125
        k(   78) = (   0.1250001  -0.3608440   0.2883512), wk =   0.0078125
        k(   79) = (   0.1250001  -0.3608439  -0.3844685), wk =   0.0078125
        k(   80) = (   0.1250001  -0.3608439  -0.2883514), wk =   0.0078125
        k(   81) = (   0.1250001  -0.3608439  -0.1922343), wk =   0.0078125
        k(   82) = (   0.1250001  -0.3608439  -0.0961172), wk =   0.0078125
        k(   83) = (   0.1250000  -0.2165064  -0.0000000), wk =   0.0078125
        k(   84) = (   0.1250000  -0.2165064   0.0961171), wk =   0.0078125
        k(   85) = (   0.1250000  -0.2165064   0.1922342), wk =   0.0078125
        k(   86) = (   0.1250000  -0.2165064   0.2883513), wk =   0.0078125
        k(   87) = (   0.1250001  -0.2165064  -0.3844685), wk =   0.0078125
        k(   88) = (   0.1250001  -0.2165064  -0.2883514), wk =   0.0078125
        k(   89) = (   0.1250001  -0.2165064  -0.1922343), wk =   0.0078125
        k(   90) = (   0.1250000  -0.2165064  -0.0961171), wk =   0.0078125
        k(   91) = (   0.1250000  -0.0721688  -0.0000000), wk =   0.0078125
        k(   92) = (   0.1250000  -0.0721688   0.0961171), wk =   0.0078125
        k(   93) = (   0.1250000  -0.0721688   0.1922342), wk =   0.0078125
        k(   94) = (   0.1250000  -0.0721688   0.2883513), wk =   0.0078125
        k(   95) = (   0.1250000  -0.0721688  -0.3844684), wk =   0.0078125
        k(   96) = (   0.1250000  -0.0721688  -0.2883513), wk =   0.0078125
        k(   97) = (   0.1250000  -0.0721688  -0.1922342), wk =   0.0078125
        k(   98) = (   0.1250000  -0.0721688  -0.0961171), wk =   0.0078125
        k(   99) = (   0.2500000   0.1443375   0.0000000), wk =   0.0078125
        k(  100) = (   0.2500000   0.1443375   0.0961171), wk =   0.0078125
        k(  101) = (   0.2500000   0.1443375   0.1922342), wk =   0.0078125
        k(  102) = (   0.2500000   0.1443375   0.2883513), wk =   0.0078125
        k(  103) = (   0.2500000   0.1443375  -0.3844684), wk =   0.0078125
        k(  104) = (   0.2500000   0.1443375  -0.2883513), wk =   0.0078125
        k(  105) = (   0.2500000   0.1443375  -0.1922342), wk =   0.0078125
        k(  106) = (   0.2500000   0.1443375  -0.0961171), wk =   0.0078125
        k(  107) = (   0.2499999   0.2886751   0.0000001), wk =   0.0078125
        k(  108) = (   0.2499999   0.2886751   0.0961172), wk =   0.0078125
        k(  109) = (   0.2499999   0.2886751   0.1922343), wk =   0.0078125
        k(  110) = (   0.2499999   0.2886751   0.2883514), wk =   0.0078125
        k(  111) = (   0.2500000   0.2886751  -0.3844683), wk =   0.0078125
        k(  112) = (   0.2500000   0.2886751  -0.2883512), wk =   0.0078125
        k(  113) = (   0.2500000   0.2886751  -0.1922341), wk =   0.0078125
        k(  114) = (   0.2499999   0.2886751  -0.0961170), wk =   0.0078125
        k(  115) = (   0.2499999   0.4330127   0.0000001), wk =   0.0078125
        k(  116) = (   0.2499999   0.4330127   0.0961172), wk =   0.0078125
        k(  117) = (   0.2499999   0.4330126   0.1922343), wk =   0.0078125
        k(  118) = (   0.2499999   0.4330126   0.2883514), wk =   0.0078125
        k(  119) = (   0.2499999   0.4330127  -0.3844683), wk =   0.0078125
        k(  120) = (   0.2499999   0.4330127  -0.2883512), wk =   0.0078125
        k(  121) = (   0.2499999   0.4330127  -0.1922341), wk =   0.0078125
        k(  122) = (   0.2499999   0.4330127  -0.0961170), wk =   0.0078125
        k(  123) = (   0.2499999   0.5773502   0.0000001), wk =   0.0078125
        k(  124) = (   0.2499999   0.5773502   0.0961172), wk =   0.0078125
        k(  125) = (   0.2499999   0.5773502   0.1922343), wk =   0.0078125
        k(  126) = (   0.2499999   0.5773502   0.2883514), wk =   0.0078125
        k(  127) = (   0.2499999   0.5773503  -0.3844683), wk =   0.0078125
        k(  128) = (   0.2499999   0.5773502  -0.2883512), wk =   0.0078125
        k(  129) = (   0.2499999   0.5773502  -0.1922341), wk =   0.0078125
        k(  130) = (   0.2499999   0.5773502  -0.0961170), wk =   0.0078125
        k(  131) = (   0.2500001  -0.4330128  -0.0000001), wk =   0.0078125
        k(  132) = (   0.2500001  -0.4330128   0.0961170), wk =   0.0078125
        k(  133) = (   0.2500001  -0.4330128   0.1922341), wk =   0.0078125
        k(  134) = (   0.2500001  -0.4330128   0.2883512), wk =   0.0078125
        k(  135) = (   0.2500001  -0.4330127  -0.3844685), wk =   0.0078125
        k(  136) = (   0.2500001  -0.4330127  -0.2883514), wk =   0.0078125
        k(  137) = (   0.2500001  -0.4330127  -0.1922343), wk =   0.0078125
        k(  138) = (   0.2500001  -0.4330128  -0.0961172), wk =   0.0078125
        k(  139) = (   0.2500001  -0.2886752  -0.0000001), wk =   0.0078125
        k(  140) = (   0.2500001  -0.2886752   0.0961170), wk =   0.0078125
        k(  141) = (   0.2500000  -0.2886752   0.1922341), wk =   0.0078125
        k(  142) = (   0.2500000  -0.2886752   0.2883512), wk =   0.0078125
        k(  143) = (   0.2500001  -0.2886752  -0.3844685), wk =   0.0078125
        k(  144) = (   0.2500001  -0.2886752  -0.2883514), wk =   0.0078125
        k(  145) = (   0.2500001  -0.2886752  -0.1922343), wk =   0.0078125
        k(  146) = (   0.2500001  -0.2886752  -0.0961172), wk =   0.0078125
        k(  147) = (   0.2500000  -0.1443376  -0.0000000), wk =   0.0078125
        k(  148) = (   0.2500000  -0.1443376   0.0961171), wk =   0.0078125
        k(  149) = (   0.2500000  -0.1443376   0.1922342), wk =   0.0078125
        k(  150) = (   0.2500000  -0.1443376   0.2883513), wk =   0.0078125
        k(  151) = (   0.2500000  -0.1443376  -0.3844684), wk =   0.0078125
        k(  152) = (   0.2500000  -0.1443376  -0.2883513), wk =   0.0078125
        k(  153) = (   0.2500000  -0.1443376  -0.1922342), wk =   0.0078125
        k(  154) = (   0.2500000  -0.1443376  -0.0961171), wk =   0.0078125
        k(  155) = (   0.2500000  -0.0000000   0.0000000), wk =   0.0078125
        k(  156) = (   0.2500000  -0.0000001   0.0961171), wk =   0.0078125
        k(  157) = (   0.2500000  -0.0000001   0.1922342), wk =   0.0078125
        k(  158) = (   0.2500000  -0.0000001   0.2883513), wk =   0.0078125
        k(  159) = (   0.2500000  -0.0000000  -0.3844684), wk =   0.0078125
        k(  160) = (   0.2500000  -0.0000000  -0.2883513), wk =   0.0078125
        k(  161) = (   0.2500000  -0.0000000  -0.1922342), wk =   0.0078125
        k(  162) = (   0.2500000  -0.0000000  -0.0961171), wk =   0.0078125
        k(  163) = (   0.3750000   0.2165063   0.0000001), wk =   0.0078125
        k(  164) = (   0.3750000   0.2165063   0.0961172), wk =   0.0078125
        k(  165) = (   0.3749999   0.2165063   0.1922343), wk =   0.0078125
        k(  166) = (   0.3749999   0.2165063   0.2883514), wk =   0.0078125
        k(  167) = (   0.3750000   0.2165063  -0.3844683), wk =   0.0078125
        k(  168) = (   0.3750000   0.2165063  -0.2883512), wk =   0.0078125
        k(  169) = (   0.3750000   0.2165063  -0.1922341), wk =   0.0078125
        k(  170) = (   0.3750000   0.2165063  -0.0961170), wk =   0.0078125
        k(  171) = (   0.3749999   0.3608439   0.0000001), wk =   0.0078125
        k(  172) = (   0.3749999   0.3608438   0.0961172), wk =   0.0078125
        k(  173) = (   0.3749999   0.3608438   0.1922343), wk =   0.0078125
        k(  174) = (   0.3749999   0.3608438   0.2883514), wk =   0.0078125
        k(  175) = (   0.3749999   0.3608439  -0.3844683), wk =   0.0078125
        k(  176) = (   0.3749999   0.3608439  -0.2883512), wk =   0.0078125
        k(  177) = (   0.3749999   0.3608439  -0.1922341), wk =   0.0078125
        k(  178) = (   0.3749999   0.3608439  -0.0961170), wk =   0.0078125
        k(  179) = (   0.3749999   0.5051814   0.0000001), wk =   0.0078125
        k(  180) = (   0.3749999   0.5051814   0.0961172), wk =   0.0078125
        k(  181) = (   0.3749999   0.5051814   0.1922343), wk =   0.0078125
        k(  182) = (   0.3749999   0.5051814   0.2883514), wk =   0.0078125
        k(  183) = (   0.3749999   0.5051814  -0.3844683), wk =   0.0078125
        k(  184) = (   0.3749999   0.5051814  -0.2883512), wk =   0.0078125
        k(  185) = (   0.3749999   0.5051814  -0.1922341), wk =   0.0078125
        k(  186) = (   0.3749999   0.5051814  -0.0961170), wk =   0.0078125
        k(  187) = (   0.3749999   0.6495190   0.0000002), wk =   0.0078125
        k(  188) = (   0.3749999   0.6495190   0.0961173), wk =   0.0078125
        k(  189) = (   0.3749999   0.6495190   0.1922344), wk =   0.0078125
        k(  190) = (   0.3749999   0.6495190   0.2883515), wk =   0.0078125
        k(  191) = (   0.3749999   0.6495190  -0.3844682), wk =   0.0078125
        k(  192) = (   0.3749999   0.6495190  -0.2883511), wk =   0.0078125
        k(  193) = (   0.3749999   0.6495190  -0.1922340), wk =   0.0078125
        k(  194) = (   0.3749999   0.6495190  -0.0961169), wk =   0.0078125
        k(  195) = (   0.3750001  -0.3608440  -0.0000001), wk =   0.0078125
        k(  196) = (   0.3750001  -0.3608440   0.0961170), wk =   0.0078125
        k(  197) = (   0.3750001  -0.3608440   0.1922341), wk =   0.0078125
        k(  198) = (   0.3750001  -0.3608440   0.2883512), wk =   0.0078125
        k(  199) = (   0.3750001  -0.3608440  -0.3844685), wk =   0.0078125
        k(  200) = (   0.3750001  -0.3608440  -0.2883514), wk =   0.0078125
        k(  201) = (   0.3750001  -0.3608440  -0.1922343), wk =   0.0078125
        k(  202) = (   0.3750001  -0.3608440  -0.0961172), wk =   0.0078125
        k(  203) = (   0.3750000  -0.2165064  -0.0000000), wk =   0.0078125
        k(  204) = (   0.3750000  -0.2165064   0.0961171), wk =   0.0078125
        k(  205) = (   0.3750000  -0.2165064   0.1922342), wk =   0.0078125
        k(  206) = (   0.3750000  -0.2165064   0.2883513), wk =   0.0078125
        k(  207) = (   0.3750001  -0.2165064  -0.3844684), wk =   0.0078125
        k(  208) = (   0.3750001  -0.2165064  -0.2883513), wk =   0.0078125
        k(  209) = (   0.3750001  -0.2165064  -0.1922342), wk =   0.0078125
        k(  210) = (   0.3750000  -0.2165064  -0.0961171), wk =   0.0078125
        k(  211) = (   0.3750000  -0.0721689  -0.0000000), wk =   0.0078125
        k(  212) = (   0.3750000  -0.0721689   0.0961171), wk =   0.0078125
        k(  213) = (   0.3750000  -0.0721689   0.1922342), wk =   0.0078125
        k(  214) = (   0.3750000  -0.0721689   0.2883513), wk =   0.0078125
        k(  215) = (   0.3750000  -0.0721688  -0.3844684), wk =   0.0078125
        k(  216) = (   0.3750000  -0.0721688  -0.2883513), wk =   0.0078125
        k(  217) = (   0.3750000  -0.0721688  -0.1922342), wk =   0.0078125
        k(  218) = (   0.3750000  -0.0721689  -0.0961171), wk =   0.0078125
        k(  219) = (   0.3750000   0.0721687   0.0000000), wk =   0.0078125
        k(  220) = (   0.3750000   0.0721687   0.0961171), wk =   0.0078125
        k(  221) = (   0.3750000   0.0721687   0.1922342), wk =   0.0078125
        k(  222) = (   0.3750000   0.0721687   0.2883513), wk =   0.0078125
        k(  223) = (   0.3750000   0.0721687  -0.3844684), wk =   0.0078125
        k(  224) = (   0.3750000   0.0721687  -0.2883513), wk =   0.0078125
        k(  225) = (   0.3750000   0.0721687  -0.1922342), wk =   0.0078125
        k(  226) = (   0.3750000   0.0721687  -0.0961171), wk =   0.0078125
        k(  227) = (  -0.4999999  -0.2886750  -0.0000001), wk =   0.0039062
        k(  228) = (  -0.4999999  -0.2886750   0.0961170), wk =   0.0078125
        k(  229) = (  -0.5000000  -0.2886751   0.1922341), wk =   0.0078125
        k(  230) = (  -0.5000000  -0.2886751   0.2883512), wk =   0.0078125
        k(  231) = (  -0.4999999  -0.2886750  -0.3844685), wk =   0.0039062
        k(  232) = (  -0.5000000  -0.1443375  -0.0000000), wk =   0.0078125
        k(  233) = (  -0.5000000  -0.1443375   0.0961171), wk =   0.0078125
        k(  234) = (  -0.5000000  -0.1443375   0.1922342), wk =   0.0078125
        k(  235) = (  -0.5000000  -0.1443375   0.2883513), wk =   0.0078125
        k(  236) = (  -0.5000000  -0.1443374  -0.3844685), wk =   0.0078125
        k(  237) = (  -0.5000000  -0.1443375  -0.2883513), wk =   0.0078125
        k(  238) = (  -0.5000000  -0.1443375  -0.1922342), wk =   0.0078125
        k(  239) = (  -0.5000000  -0.1443375  -0.0961171), wk =   0.0078125
        k(  240) = (  -0.5000000   0.0000001  -0.0000000), wk =   0.0078125
        k(  241) = (  -0.5000000   0.0000001   0.0961171), wk =   0.0078125
        k(  242) = (  -0.5000000   0.0000001   0.1922342), wk =   0.0078125
        k(  243) = (  -0.5000000   0.0000001   0.2883513), wk =   0.0078125
        k(  244) = (  -0.5000000   0.0000001  -0.3844684), wk =   0.0078125
        k(  245) = (  -0.5000000   0.0000001  -0.2883513), wk =   0.0078125
        k(  246) = (  -0.5000000   0.0000001  -0.1922342), wk =   0.0078125
        k(  247) = (  -0.5000000   0.0000001  -0.0961171), wk =   0.0078125
        k(  248) = (  -0.5000000   0.1443377   0.0000000), wk =   0.0078125
        k(  249) = (  -0.5000000   0.1443377   0.0961171), wk =   0.0078125
        k(  250) = (  -0.5000000   0.1443377   0.1922342), wk =   0.0078125
        k(  251) = (  -0.5000000   0.1443376   0.2883513), wk =   0.0078125
        k(  252) = (  -0.5000000   0.1443377  -0.3844684), wk =   0.0078125
        k(  253) = (  -0.5000000   0.1443377  -0.2883513), wk =   0.0078125
        k(  254) = (  -0.5000000   0.1443377  -0.1922342), wk =   0.0078125
        k(  255) = (  -0.5000000   0.1443377  -0.0961171), wk =   0.0078125
        k(  256) = (  -0.4999998  -0.8660253  -0.0000002), wk =   0.0039062
        k(  257) = (  -0.4999998  -0.8660253   0.0961169), wk =   0.0078125
        k(  258) = (  -0.4999998  -0.8660253   0.1922340), wk =   0.0078125
        k(  259) = (  -0.4999998  -0.8660253   0.2883511), wk =   0.0078125
        k(  260) = (  -0.4999998  -0.8660253  -0.3844686), wk =   0.0039062

                       cryst. coord.
        k(    1) = (   0.0000000   0.0000000   0.0000000), wk =   0.0039062
        k(    2) = (   0.0000000  -0.0000000   0.1250000), wk =   0.0078125
        k(    3) = (   0.0000000  -0.0000000   0.2500000), wk =   0.0078125
        k(    4) = (  -0.0000000  -0.0000000   0.3750000), wk =   0.0078125
        k(    5) = (  -0.0000000   0.0000000  -0.5000000), wk =   0.0039062
        k(    6) = (   0.0000000   0.1250000  -0.0000000), wk =   0.0078125
        k(    7) = (   0.0000000   0.1250000   0.1250000), wk =   0.0078125
        k(    8) = (   0.0000000   0.1250000   0.2500000), wk =   0.0078125
        k(    9) = (   0.0000000   0.1250000   0.3750000), wk =   0.0078125
        k(   10) = (   0.0000000   0.1250000  -0.5000000), wk =   0.0078125
        k(   11) = (   0.0000000   0.1250000  -0.3750000), wk =   0.0078125
        k(   12) = (  -0.0000000   0.1250000  -0.2500000), wk =   0.0078125
        k(   13) = (   0.0000000   0.1250000  -0.1250000), wk =   0.0078125
        k(   14) = (   0.0000000   0.2500000  -0.0000000), wk =   0.0078125
        k(   15) = (   0.0000000   0.2500000   0.1250000), wk =   0.0078125
        k(   16) = (   0.0000000   0.2500000   0.2500000), wk =   0.0078125
        k(   17) = (   0.0000000   0.2500000   0.3750000), wk =   0.0078125
        k(   18) = (  -0.0000000   0.2500000  -0.5000000), wk =   0.0078125
        k(   19) = (   0.0000000   0.2500000  -0.3750000), wk =   0.0078125
        k(   20) = (   0.0000000   0.2500000  -0.2500000), wk =   0.0078125
        k(   21) = (  -0.0000000   0.2500000  -0.1250000), wk =   0.0078125
        k(   22) = (  -0.0000000   0.3750000   0.0000000), wk =   0.0078125
        k(   23) = (   0.0000000   0.3750000   0.1250000), wk =   0.0078125
        k(   24) = (  -0.0000000   0.3750000   0.2500000), wk =   0.0078125
        k(   25) = (  -0.0000000   0.3750000   0.3750000), wk =   0.0078125
        k(   26) = (  -0.0000000   0.3750000  -0.5000000), wk =   0.0078125
        k(   27) = (   0.0000000   0.3750000  -0.3750000), wk =   0.0078125
        k(   28) = (  -0.0000000   0.3750000  -0.2500000), wk =   0.0078125
        k(   29) = (  -0.0000000   0.3750000  -0.1250000), wk =   0.0078125
        k(   30) = (  -0.0000000  -0.5000000   0.0000000), wk =   0.0039062
        k(   31) = (  -0.0000000  -0.5000000   0.1250000), wk =   0.0078125
        k(   32) = (   0.0000000  -0.5000000   0.2500000), wk =   0.0078125
        k(   33) = (  -0.0000000  -0.5000000   0.3750000), wk =   0.0078125
        k(   34) = (  -0.0000000  -0.5000000  -0.5000000), wk =   0.0039062
        k(   35) = (   0.1250000   0.0000000  -0.0000000), wk =   0.0078125
        k(   36) = (   0.1250000   0.0000000   0.1250000), wk =   0.0078125
        k(   37) = (   0.1250000   0.0000000   0.2500000), wk =   0.0078125
        k(   38) = (   0.1250000   0.0000000   0.3750000), wk =   0.0078125
        k(   39) = (   0.1250000   0.0000000  -0.5000000), wk =   0.0078125
        k(   40) = (   0.1250000   0.0000000  -0.3750000), wk =   0.0078125
        k(   41) = (   0.1250000   0.0000000  -0.2500000), wk =   0.0078125
        k(   42) = (   0.1250000   0.0000000  -0.1250000), wk =   0.0078125
        k(   43) = (   0.1250000   0.1250000  -0.0000000), wk =   0.0078125
        k(   44) = (   0.1250000   0.1250000   0.1250000), wk =   0.0078125
        k(   45) = (   0.1250000   0.1250000   0.2500000), wk =   0.0078125
        k(   46) = (   0.1250000   0.1250000   0.3750000), wk =   0.0078125
        k(   47) = (   0.1250000   0.1250000  -0.5000000), wk =   0.0078125
        k(   48) = (   0.1250000   0.1250000  -0.3750000), wk =   0.0078125
        k(   49) = (   0.1250000   0.1250000  -0.2500000), wk =   0.0078125
        k(   50) = (   0.1250000   0.1250000  -0.1250000), wk =   0.0078125
        k(   51) = (   0.1250000   0.2500000   0.0000000), wk =   0.0078125
        k(   52) = (   0.1250000   0.2500000   0.1250000), wk =   0.0078125
        k(   53) = (   0.1250000   0.2500000   0.2500000), wk =   0.0078125
        k(   54) = (   0.1250000   0.2500000   0.3750000), wk =   0.0078125
        k(   55) = (   0.1250000   0.2500000  -0.5000000), wk =   0.0078125
        k(   56) = (   0.1250000   0.2500000  -0.3750000), wk =   0.0078125
        k(   57) = (   0.1250000   0.2500000  -0.2500000), wk =   0.0078125
        k(   58) = (   0.1250000   0.2500000  -0.1250000), wk =   0.0078125
        k(   59) = (   0.1250000   0.3750000  -0.0000000), wk =   0.0078125
        k(   60) = (   0.1250000   0.3750000   0.1250000), wk =   0.0078125
        k(   61) = (   0.1250000   0.3750000   0.2500000), wk =   0.0078125
        k(   62) = (   0.1250000   0.3750000   0.3750000), wk =   0.0078125
        k(   63) = (   0.1250000   0.3750000  -0.5000000), wk =   0.0078125
        k(   64) = (   0.1250000   0.3750000  -0.3750000), wk =   0.0078125
        k(   65) = (   0.1250000   0.3750000  -0.2500000), wk =   0.0078125
        k(   66) = (   0.1250000   0.3750000  -0.1250000), wk =   0.0078125
        k(   67) = (   0.1250000  -0.5000000   0.0000000), wk =   0.0078125
        k(   68) = (   0.1250000  -0.5000000   0.1250000), wk =   0.0078125
        k(   69) = (   0.1250000  -0.5000000   0.2500000), wk =   0.0078125
        k(   70) = (   0.1250000  -0.5000000   0.3750000), wk =   0.0078125
        k(   71) = (   0.1250000  -0.5000000  -0.5000000), wk =   0.0078125
        k(   72) = (   0.1250000  -0.5000000  -0.3750000), wk =   0.0078125
        k(   73) = (   0.1250000  -0.5000000  -0.2500000), wk =   0.0078125
        k(   74) = (   0.1250000  -0.5000000  -0.1250000), wk =   0.0078125
        k(   75) = (   0.1250000  -0.3750000   0.0000000), wk =   0.0078125
        k(   76) = (   0.1250000  -0.3750000   0.1250000), wk =   0.0078125
        k(   77) = (   0.1250000  -0.3750000   0.2500000), wk =   0.0078125
        k(   78) = (   0.1250000  -0.3750000   0.3750000), wk =   0.0078125
        k(   79) = (   0.1250000  -0.3750000  -0.5000000), wk =   0.0078125
        k(   80) = (   0.1250000  -0.3750000  -0.3750000), wk =   0.0078125
        k(   81) = (   0.1250000  -0.3750000  -0.2500000), wk =   0.0078125
        k(   82) = (   0.1250000  -0.3750000  -0.1250000), wk =   0.0078125
        k(   83) = (   0.1250000  -0.2500000   0.0000000), wk =   0.0078125
        k(   84) = (   0.1250000  -0.2500000   0.1250000), wk =   0.0078125
        k(   85) = (   0.1250000  -0.2500000   0.2500000), wk =   0.0078125
        k(   86) = (   0.1250000  -0.2500000   0.3750000), wk =   0.0078125
        k(   87) = (   0.1250000  -0.2500000  -0.5000000), wk =   0.0078125
        k(   88) = (   0.1250000  -0.2500000  -0.3750000), wk =   0.0078125
        k(   89) = (   0.1250000  -0.2500000  -0.2500000), wk =   0.0078125
        k(   90) = (   0.1250000  -0.2500000  -0.1250000), wk =   0.0078125
        k(   91) = (   0.1250000  -0.1250000   0.0000000), wk =   0.0078125
        k(   92) = (   0.1250000  -0.1250000   0.1250000), wk =   0.0078125
        k(   93) = (   0.1250000  -0.1250000   0.2500000), wk =   0.0078125
        k(   94) = (   0.1250000  -0.1250000   0.3750000), wk =   0.0078125
        k(   95) = (   0.1250000  -0.1250000  -0.5000000), wk =   0.0078125
        k(   96) = (   0.1250000  -0.1250000  -0.3750000), wk =   0.0078125
        k(   97) = (   0.1250000  -0.1250000  -0.2500000), wk =   0.0078125
        k(   98) = (   0.1250000  -0.1250000  -0.1250000), wk =   0.0078125
        k(   99) = (   0.2500000   0.0000000  -0.0000000), wk =   0.0078125
        k(  100) = (   0.2500000  -0.0000000   0.1250000), wk =   0.0078125
        k(  101) = (   0.2500000   0.0000000   0.2500000), wk =   0.0078125
        k(  102) = (   0.2500000   0.0000000   0.3750000), wk =   0.0078125
        k(  103) = (   0.2500000   0.0000000  -0.5000000), wk =   0.0078125
        k(  104) = (   0.2500000   0.0000000  -0.3750000), wk =   0.0078125
        k(  105) = (   0.2500000   0.0000000  -0.2500000), wk =   0.0078125
        k(  106) = (   0.2500000   0.0000000  -0.1250000), wk =   0.0078125
        k(  107) = (   0.2500000   0.1250000  -0.0000000), wk =   0.0078125
        k(  108) = (   0.2500000   0.1250000   0.1250000), wk =   0.0078125
        k(  109) = (   0.2500000   0.1250000   0.2500000), wk =   0.0078125
        k(  110) = (   0.2500000   0.1250000   0.3750000), wk =   0.0078125
        k(  111) = (   0.2500000   0.1250000  -0.5000000), wk =   0.0078125
        k(  112) = (   0.2500000   0.1250000  -0.3750000), wk =   0.0078125
        k(  113) = (   0.2500000   0.1250000  -0.2500000), wk =   0.0078125
        k(  114) = (   0.2500000   0.1250000  -0.1250000), wk =   0.0078125
        k(  115) = (   0.2500000   0.2500000  -0.0000000), wk =   0.0078125
        k(  116) = (   0.2500000   0.2500000   0.1250000), wk =   0.0078125
        k(  117) = (   0.2500000   0.2500000   0.2500000), wk =   0.0078125
        k(  118) = (   0.2500000   0.2500000   0.3750000), wk =   0.0078125
        k(  119) = (   0.2500000   0.2500000  -0.5000000), wk =   0.0078125
        k(  120) = (   0.2500000   0.2500000  -0.3750000), wk =   0.0078125
        k(  121) = (   0.2500000   0.2500000  -0.2500000), wk =   0.0078125
        k(  122) = (   0.2500000   0.2500000  -0.1250000), wk =   0.0078125
        k(  123) = (   0.2500000   0.3750000  -0.0000000), wk =   0.0078125
        k(  124) = (   0.2500000   0.3750000   0.1250000), wk =   0.0078125
        k(  125) = (   0.2500000   0.3750000   0.2500000), wk =   0.0078125
        k(  126) = (   0.2500000   0.3750000   0.3750000), wk =   0.0078125
        k(  127) = (   0.2500000   0.3750000  -0.5000000), wk =   0.0078125
        k(  128) = (   0.2500000   0.3750000  -0.3750000), wk =   0.0078125
        k(  129) = (   0.2500000   0.3750000  -0.2500000), wk =   0.0078125
        k(  130) = (   0.2500000   0.3750000  -0.1250000), wk =   0.0078125
        k(  131) = (   0.2500000  -0.5000000   0.0000000), wk =   0.0078125
        k(  132) = (   0.2500000  -0.5000000   0.1250000), wk =   0.0078125
        k(  133) = (   0.2500000  -0.5000000   0.2500000), wk =   0.0078125
        k(  134) = (   0.2500000  -0.5000000   0.3750000), wk =   0.0078125
        k(  135) = (   0.2500000  -0.5000000  -0.5000000), wk =   0.0078125
        k(  136) = (   0.2500000  -0.5000000  -0.3750000), wk =   0.0078125
        k(  137) = (   0.2500000  -0.5000000  -0.2500000), wk =   0.0078125
        k(  138) = (   0.2500000  -0.5000000  -0.1250000), wk =   0.0078125
        k(  139) = (   0.2500000  -0.3750000   0.0000000), wk =   0.0078125
        k(  140) = (   0.2500000  -0.3750000   0.1250000), wk =   0.0078125
        k(  141) = (   0.2500000  -0.3750000   0.2500000), wk =   0.0078125
        k(  142) = (   0.2500000  -0.3750000   0.3750000), wk =   0.0078125
        k(  143) = (   0.2500000  -0.3750000  -0.5000000), wk =   0.0078125
        k(  144) = (   0.2500000  -0.3750000  -0.3750000), wk =   0.0078125
        k(  145) = (   0.2500000  -0.3750000  -0.2500000), wk =   0.0078125
        k(  146) = (   0.2500000  -0.3750000  -0.1250000), wk =   0.0078125
        k(  147) = (   0.2500000  -0.2500000   0.0000000), wk =   0.0078125
        k(  148) = (   0.2500000  -0.2500000   0.1250000), wk =   0.0078125
        k(  149) = (   0.2500000  -0.2500000   0.2500000), wk =   0.0078125
        k(  150) = (   0.2500000  -0.2500000   0.3750000), wk =   0.0078125
        k(  151) = (   0.2500000  -0.2500000  -0.5000000), wk =   0.0078125
        k(  152) = (   0.2500000  -0.2500000  -0.3750000), wk =   0.0078125
        k(  153) = (   0.2500000  -0.2500000  -0.2500000), wk =   0.0078125
        k(  154) = (   0.2500000  -0.2500000  -0.1250000), wk =   0.0078125
        k(  155) = (   0.2500000  -0.1250000   0.0000000), wk =   0.0078125
        k(  156) = (   0.2500000  -0.1250000   0.1250000), wk =   0.0078125
        k(  157) = (   0.2500000  -0.1250000   0.2500000), wk =   0.0078125
        k(  158) = (   0.2500000  -0.1250000   0.3750000), wk =   0.0078125
        k(  159) = (   0.2500000  -0.1250000  -0.5000000), wk =   0.0078125
        k(  160) = (   0.2500000  -0.1250000  -0.3750000), wk =   0.0078125
        k(  161) = (   0.2500000  -0.1250000  -0.2500000), wk =   0.0078125
        k(  162) = (   0.2500000  -0.1250000  -0.1250000), wk =   0.0078125
        k(  163) = (   0.3750000   0.0000000  -0.0000000), wk =   0.0078125
        k(  164) = (   0.3750000   0.0000000   0.1250000), wk =   0.0078125
        k(  165) = (   0.3750000   0.0000000   0.2500000), wk =   0.0078125
        k(  166) = (   0.3750000   0.0000000   0.3750000), wk =   0.0078125
        k(  167) = (   0.3750000   0.0000000  -0.5000000), wk =   0.0078125
        k(  168) = (   0.3750000   0.0000000  -0.3750000), wk =   0.0078125
        k(  169) = (   0.3750000   0.0000000  -0.2500000), wk =   0.0078125
        k(  170) = (   0.3750000   0.0000000  -0.1250000), wk =   0.0078125
        k(  171) = (   0.3750000   0.1250000  -0.0000000), wk =   0.0078125
        k(  172) = (   0.3750000   0.1250000   0.1250000), wk =   0.0078125
        k(  173) = (   0.3750000   0.1250000   0.2500000), wk =   0.0078125
        k(  174) = (   0.3750000   0.1250000   0.3750000), wk =   0.0078125
        k(  175) = (   0.3750000   0.1250000  -0.5000000), wk =   0.0078125
        k(  176) = (   0.3750000   0.1250000  -0.3750000), wk =   0.0078125
        k(  177) = (   0.3750000   0.1250000  -0.2500000), wk =   0.0078125
        k(  178) = (   0.3750000   0.1250000  -0.1250000), wk =   0.0078125
        k(  179) = (   0.3750000   0.2500000  -0.0000000), wk =   0.0078125
        k(  180) = (   0.3750000   0.2500000   0.1250000), wk =   0.0078125
        k(  181) = (   0.3750000   0.2500000   0.2500000), wk =   0.0078125
        k(  182) = (   0.3750000   0.2500000   0.3750000), wk =   0.0078125
        k(  183) = (   0.3750000   0.2500000  -0.5000000), wk =   0.0078125
        k(  184) = (   0.3750000   0.2500000  -0.3750000), wk =   0.0078125
        k(  185) = (   0.3750000   0.2500000  -0.2500000), wk =   0.0078125
        k(  186) = (   0.3750000   0.2500000  -0.1250000), wk =   0.0078125
        k(  187) = (   0.3750000   0.3750000   0.0000000), wk =   0.0078125
        k(  188) = (   0.3750000   0.3750000   0.1250000), wk =   0.0078125
        k(  189) = (   0.3750000   0.3750000   0.2500000), wk =   0.0078125
        k(  190) = (   0.3750000   0.3750000   0.3750000), wk =   0.0078125
        k(  191) = (   0.3750000   0.3750000  -0.5000000), wk =   0.0078125
        k(  192) = (   0.3750000   0.3750000  -0.3750000), wk =   0.0078125
        k(  193) = (   0.3750000   0.3750000  -0.2500000), wk =   0.0078125
        k(  194) = (   0.3750000   0.3750000  -0.1250000), wk =   0.0078125
        k(  195) = (   0.3750000  -0.5000000   0.0000000), wk =   0.0078125
        k(  196) = (   0.3750000  -0.5000000   0.1250000), wk =   0.0078125
        k(  197) = (   0.3750000  -0.5000000   0.2500000), wk =   0.0078125
        k(  198) = (   0.3750000  -0.5000000   0.3750000), wk =   0.0078125
        k(  199) = (   0.3750000  -0.5000000  -0.5000000), wk =   0.0078125
        k(  200) = (   0.3750000  -0.5000000  -0.3750000), wk =   0.0078125
        k(  201) = (   0.3750000  -0.5000000  -0.2500000), wk =   0.0078125
        k(  202) = (   0.3750000  -0.5000000  -0.1250000), wk =   0.0078125
        k(  203) = (   0.3750000  -0.3750000   0.0000000), wk =   0.0078125
        k(  204) = (   0.3750000  -0.3750000   0.1250000), wk =   0.0078125
        k(  205) = (   0.3750000  -0.3750000   0.2500000), wk =   0.0078125
        k(  206) = (   0.3750000  -0.3750000   0.3750000), wk =   0.0078125
        k(  207) = (   0.3750000  -0.3750000  -0.5000000), wk =   0.0078125
        k(  208) = (   0.3750000  -0.3750000  -0.3750000), wk =   0.0078125
        k(  209) = (   0.3750000  -0.3750000  -0.2500000), wk =   0.0078125
        k(  210) = (   0.3750000  -0.3750000  -0.1250000), wk =   0.0078125
        k(  211) = (   0.3750000  -0.2500000   0.0000000), wk =   0.0078125
        k(  212) = (   0.3750000  -0.2500000   0.1250000), wk =   0.0078125
        k(  213) = (   0.3750000  -0.2500000   0.2500000), wk =   0.0078125
        k(  214) = (   0.3750000  -0.2500000   0.3750000), wk =   0.0078125
        k(  215) = (   0.3750000  -0.2500000  -0.5000000), wk =   0.0078125
        k(  216) = (   0.3750000  -0.2500000  -0.3750000), wk =   0.0078125
        k(  217) = (   0.3750000  -0.2500000  -0.2500000), wk =   0.0078125
        k(  218) = (   0.3750000  -0.2500000  -0.1250000), wk =   0.0078125
        k(  219) = (   0.3750000  -0.1250000   0.0000000), wk =   0.0078125
        k(  220) = (   0.3750000  -0.1250000   0.1250000), wk =   0.0078125
        k(  221) = (   0.3750000  -0.1250000   0.2500000), wk =   0.0078125
        k(  222) = (   0.3750000  -0.1250000   0.3750000), wk =   0.0078125
        k(  223) = (   0.3750000  -0.1250000  -0.5000000), wk =   0.0078125
        k(  224) = (   0.3750000  -0.1250000  -0.3750000), wk =   0.0078125
        k(  225) = (   0.3750000  -0.1250000  -0.2500000), wk =   0.0078125
        k(  226) = (   0.3750000  -0.1250000  -0.1250000), wk =   0.0078125
        k(  227) = (  -0.5000000  -0.0000000   0.0000000), wk =   0.0039062
        k(  228) = (  -0.5000000   0.0000000   0.1250000), wk =   0.0078125
        k(  229) = (  -0.5000000  -0.0000000   0.2500000), wk =   0.0078125
        k(  230) = (  -0.5000000  -0.0000000   0.3750000), wk =   0.0078125
        k(  231) = (  -0.5000000  -0.0000000  -0.5000000), wk =   0.0039062
        k(  232) = (  -0.5000000   0.1250000  -0.0000000), wk =   0.0078125
        k(  233) = (  -0.5000000   0.1250000   0.1250000), wk =   0.0078125
        k(  234) = (  -0.5000000   0.1250000   0.2500000), wk =   0.0078125
        k(  235) = (  -0.5000000   0.1250000   0.3750000), wk =   0.0078125
        k(  236) = (  -0.5000000   0.1250000  -0.5000000), wk =   0.0078125
        k(  237) = (  -0.5000000   0.1250000  -0.3750000), wk =   0.0078125
        k(  238) = (  -0.5000000   0.1250000  -0.2500000), wk =   0.0078125
        k(  239) = (  -0.5000000   0.1250000  -0.1250000), wk =   0.0078125
        k(  240) = (  -0.5000000   0.2500000  -0.0000000), wk =   0.0078125
        k(  241) = (  -0.5000000   0.2500000   0.1250000), wk =   0.0078125
        k(  242) = (  -0.5000000   0.2500000   0.2500000), wk =   0.0078125
        k(  243) = (  -0.5000000   0.2500000   0.3750000), wk =   0.0078125
        k(  244) = (  -0.5000000   0.2500000  -0.5000000), wk =   0.0078125
        k(  245) = (  -0.5000000   0.2500000  -0.3750000), wk =   0.0078125
        k(  246) = (  -0.5000000   0.2500000  -0.2500000), wk =   0.0078125
        k(  247) = (  -0.5000000   0.2500000  -0.1250000), wk =   0.0078125
        k(  248) = (  -0.5000000   0.3750000   0.0000000), wk =   0.0078125
        k(  249) = (  -0.5000000   0.3750000   0.1250000), wk =   0.0078125
        k(  250) = (  -0.5000000   0.3750000   0.2500000), wk =   0.0078125
        k(  251) = (  -0.5000000   0.3750000   0.3750000), wk =   0.0078125
        k(  252) = (  -0.5000000   0.3750000  -0.5000000), wk =   0.0078125
        k(  253) = (  -0.5000000   0.3750000  -0.3750000), wk =   0.0078125
        k(  254) = (  -0.5000000   0.3750000  -0.2500000), wk =   0.0078125
        k(  255) = (  -0.5000000   0.3750000  -0.1250000), wk =   0.0078125
        k(  256) = (  -0.5000000  -0.5000000   0.0000000), wk =   0.0039062
        k(  257) = (  -0.5000000  -0.5000000   0.1250000), wk =   0.0078125
        k(  258) = (  -0.5000000  -0.5000000   0.2500000), wk =   0.0078125
        k(  259) = (  -0.5000000  -0.5000000   0.3750000), wk =   0.0078125
        k(  260) = (  -0.5000000  -0.5000000  -0.5000000), wk =   0.0039062

     Dense  grid:    75923 G-vectors     FFT dimensions: (  54,  54,  72)

     Smooth grid:    29555 G-vectors     FFT dimensions: (  40,  40,  48)

     Dynamical RAM for                 wfc:       0.07 MB

     Dynamical RAM for     wfc (w. buffer):       4.89 MB

     Dynamical RAM for           str. fact:       0.22 MB

     Dynamical RAM for           local pot:       0.00 MB

     Dynamical RAM for          nlocal pot:       0.22 MB

     Dynamical RAM for                qrad:       8.10 MB

     Dynamical RAM for          rho,v,vnew:       0.55 MB

     Dynamical RAM for               rhoin:       0.18 MB

     Dynamical RAM for            rho*nmix:       1.16 MB

     Dynamical RAM for           G-vectors:       0.29 MB

     Dynamical RAM for          h,s,v(r/c):       0.08 MB

     Dynamical RAM for          <psi|beta>:       0.02 MB

     Dynamical RAM for                 psi:       0.30 MB

     Dynamical RAM for                hpsi:       0.30 MB

     Dynamical RAM for                spsi:       0.30 MB

     Dynamical RAM for      wfcinit/wfcrot:       0.20 MB

     Dynamical RAM for           addusdens:       3.80 MB

     Dynamical RAM for          addusforce:       3.94 MB

     Dynamical RAM for         addusstress:       4.01 MB

     Estimated static dynamical RAM per process >      16.45 MB

     Estimated max dynamical RAM per process >      20.46 MB

     Estimated total dynamical RAM >       1.28 GB

     Check: negative core charge=   -0.000003

     Initial potential from superposition of free atoms

     starting charge   41.69964, renormalised to   42.00000
     Starting wfcs are   26 randomized atomic wfcs

     total cpu time spent up to now is        1.1 secs

     Self-consistent Calculation

     iteration #  1     ecut=    80.00 Ry     beta= 0.50
     Davidson diagonalization with overlap
     ethr =  1.00E-02,  avg # of iterations =  2.0

     total cpu time spent up to now is        1.9 secs

     total energy              =    -650.64065121 Ry
     Harris-Foulkes estimate   =    -651.44514443 Ry
     estimated scf accuracy    <       1.20575406 Ry

     iteration #  2     ecut=    80.00 Ry     beta= 0.50
     Davidson diagonalization with overlap
     ethr =  2.87E-03,  avg # of iterations =  3.0

     total cpu time spent up to now is        2.8 secs

     total energy              =    -651.02010611 Ry
     Harris-Foulkes estimate   =    -651.29102911 Ry
     estimated scf accuracy    <       0.62122715 Ry

     iteration #  3     ecut=    80.00 Ry     beta= 0.50
     Davidson diagonalization with overlap
     ethr =  1.48E-03,  avg # of iterations =  2.0

     total cpu time spent up to now is        3.7 secs

     total energy              =    -651.12509910 Ry
     Harris-Foulkes estimate   =    -651.12858127 Ry
     estimated scf accuracy    <       0.01001636 Ry

     iteration #  4     ecut=    80.00 Ry     beta= 0.50
     Davidson diagonalization with overlap
     ethr =  2.38E-05,  avg # of iterations =  3.0

     total cpu time spent up to now is        4.6 secs

     total energy              =    -651.12579005 Ry
     Harris-Foulkes estimate   =    -651.12716478 Ry
     estimated scf accuracy    <       0.00354105 Ry

     iteration #  5     ecut=    80.00 Ry     beta= 0.50
     Davidson diagonalization with overlap
     ethr =  8.43E-06,  avg # of iterations =  2.7

     total cpu time spent up to now is        5.6 secs

     total energy              =    -651.12644492 Ry
     Harris-Foulkes estimate   =    -651.12647539 Ry
     estimated scf accuracy    <       0.00015418 Ry

     iteration #  6     ecut=    80.00 Ry     beta= 0.50
     Davidson diagonalization with overlap
     ethr =  3.67E-07,  avg # of iterations =  2.3

     total cpu time spent up to now is        6.4 secs

     total energy              =    -651.12646822 Ry
     Harris-Foulkes estimate   =    -651.12646461 Ry
     estimated scf accuracy    <       0.00001035 Ry

     iteration #  7     ecut=    80.00 Ry     beta= 0.50
     Davidson diagonalization with overlap
     ethr =  2.46E-08,  avg # of iterations =  2.0

     total cpu time spent up to now is        7.2 secs

     End of self-consistent calculation

          k = 0.0000 0.0000 0.0000 (  3653 PWs)   bands (ev):

  -115.3963 -69.7580 -69.7539 -69.7539 -64.7992 -31.7976 -31.7654 -31.7654
   -10.0326  -8.6675   1.9499   1.9499   3.0012   3.2166   3.2166   3.4521
     5.8151   5.8151   7.0288   7.3193   7.3193

     occupation numbers 
     1.0000   1.0000   1.0000   1.0000   1.0000   1.0000   1.0000   1.0000
     1.0000   1.0000   1.0000   1.0000   1.0000   1.0000   1.0000   1.0000
     1.0000   1.0000   1.0000   1.0000   1.0000

          k =-0.0000-0.0000 0.0961 (  3672 PWs)   bands (ev):

  -115.3963 -69.7580 -69.7539 -69.7539 -64.7992 -31.7978 -31.7654 -31.7654
    -9.9921  -8.7074   1.9504   1.9504   2.7656   3.1986   3.1986   3.6971
     5.8597   5.8597   6.7454   7.3017   7.3017

     occupation numbers 
     1.0000   1.0000   1.0000   1.0000   1.0000   1.0000   1.0000   1.0000
     1.0000   1.0000   1.0000   1.0000   1.0000   1.0000   1.0000   1.0000
     1.0000   1.0000   1.0000   1.0000   1.0000

          k =-0.0000-0.0000 0.1922 (  3720 PWs)   bands (ev):

  -115.3963 -69.7581 -69.7540 -69.7539 -64.7992 -31.7982 -31.7654 -31.7654
    -9.8813  -8.8171   1.9516   1.9516   2.4637   3.1566   3.1566   4.0236
     5.9704   5.9704   6.2545   7.2546   7.2546

     occupation numbers 
     1.0000   1.0000   1.0000   1.0000   1.0000   1.0000   1.0000   1.0000
     1.0000   1.0000   1.0000   1.0000   1.0000   1.0000   1.0000   1.0000
     1.0000   1.0000   1.0000   1.0000   1.0000

          k =-0.0000-0.0000 0.2884 (  3708 PWs)   bands (ev):

  -115.3963 -69.7581 -69.7539 -69.7539 -64.7992 -31.7986 -31.7654 -31.7654
    -9.7391  -8.9585   1.9528   1.9528   2.2643   3.1166   3.1166   4.2520
     5.8802   6.0880   6.0880   7.1987   7.1987

     occupation numbers 
     1.0000   1.0000   1.0000   1.0000   1.0000   1.0000   1.0000   1.0000
     1.0000   1.0000   1.0000   1.0000   1.0000   1.0000   1.0000   1.0000
     1.0000   1.0000   1.0000   1.0000   1.0000

          k = 0.0000 0.0000-0.3845 (  3696 PWs)   bands (ev):

  -115.3963 -69.7581 -69.7539 -69.7539 -64.7992 -31.7987 -31.7654 -31.7654
    -9.6615  -9.0359   1.9534   1.9534   2.1964   3.1006   3.1006   4.3339
     5.7426   6.1398   6.1398   7.1719   7.1719

     occupation numbers 
     1.0000   1.0000   1.0000   1.0000   1.0000   1.0000   1.0000   1.0000
     1.0000   1.0000   1.0000   1.0000   1.0000   1.0000   1.0000   1.0000
     1.0000   1.0000   1.0000   1.0000   1.0000

          k =-0.0000 0.1443 0.0000 (  3682 PWs)   bands (ev):

  -115.3963 -69.7580 -69.7541 -69.7540 -64.7991 -31.7974 -31.7684 -31.7661
    -9.9516  -8.6590   1.9231   2.0320   2.8427   3.2104   3.4603   3.4912
     5.4975   5.7322   6.6693   6.9474   7.1679

     occupation numbers 
     1.0000   1.0000   1.0000   1.0000   1.0000   1.0000   1.0000   1.0000
     1.0000   1.0000   1.0000   1.0000   1.0000   1.0000   1.0000   1.0000
     1.0000   1.0000   1.0000   1.0000   1.0000

          k =-0.0000 0.1443 0.0961 (  3690 PWs)   bands (ev):

  -115.3963 -69.7581 -69.7541 -69.7540 -64.7991 -31.7975 -31.7684 -31.7661
    -9.9133  -8.6946   1.9217   2.0322   2.7170   3.1910   3.1923   3.8571
     5.5428   5.7842   6.3548   7.1399   7.1526

     occupation numbers 
     1.0000   1.0000   1.0000   1.0000   1.0000   1.0000   1.0000   1.0000
     1.0000   1.0000   1.0000   1.0000   1.0000   1.0000   1.0000   1.0000
     1.0000   1.0000   1.0000   1.0000   1.0000

          k =-0.0000 0.1443 0.1922 (  3689 PWs)   bands (ev):

  -115.3963 -69.7581 -69.7541 -69.7540 -64.7991 -31.7979 -31.7684 -31.7660
    -9.8091  -8.7927   1.9149   2.0337   2.4688   3.0314   3.1494   4.1947
     5.6090   5.9102   6.0356   7.0717   7.2649

     occupation numbers 
     1.0000   1.0000   1.0000   1.0000   1.0000   1.0000   1.0000   1.0000
     1.0000   1.0000   1.0000   1.0000   1.0000   1.0000   1.0000   1.0000
     1.0000   1.0000   1.0000   1.0000   1.0000

          k =-0.0000 0.1443 0.2884 (  3710 PWs)   bands (ev):

  -115.3963 -69.7581 -69.7541 -69.7540 -64.7991 -31.7983 -31.7684 -31.7660
    -9.6772  -8.9187   1.9019   2.0358   2.2874   2.9278   3.1082   4.4204
     5.4843   6.0396   6.0469   6.9913   7.2590

     occupation numbers 
     1.0000   1.0000   1.0000   1.0000   1.0000   1.0000   1.0000   1.0000
     1.0000   1.0000   1.0000   1.0000   1.0000   1.0000   1.0000   1.0000
     1.0000   1.0000   1.0000   1.0000   1.0000

          k =-0.0000 0.1443-0.3845 (  3710 PWs)   bands (ev):

  -115.3963 -69.7581 -69.7541 -69.7540 -64.7991 -31.7984 -31.7684 -31.7660
    -9.6067  -8.9870   1.8943   2.0371   2.2260   2.8891   3.0912   4.4956
     5.4118   6.0918   6.1059   6.9556   7.2331

     occupation numbers 
     1.0000   1.0000   1.0000   1.0000   1.0000   1.0000   1.0000   1.0000
     1.0000   1.0000   1.0000   1.0000   1.0000   1.0000   1.0000   1.0000
     1.0000   1.0000   1.0000   1.0000   1.0000

          k =-0.0000 0.1443-0.2884 (  3710 PWs)   bands (ev):

  -115.3963 -69.7581 -69.7541 -69.7540 -64.7991 -31.7983 -31.7684 -31.7660
    -9.6772  -8.9188   1.9034   2.0369   2.2847   2.9291   3.1071   4.4050
     5.5387   6.0090   6.0378   7.0019   7.2466

     occupation numbers 
     1.0000   1.0000   1.0000   1.0000   1.0000   1.0000   1.0000   1.0000
     1.0000   1.0000   1.0000   1.0000   1.0000   1.0000   1.0000   1.0000
     1.0000   1.0000   1.0000   1.0000   1.0000

          k =-0.0000 0.1443-0.1922 (  3689 PWs)   bands (ev):

  -115.3963 -69.7581 -69.7541 -69.7540 -64.7991 -31.7979 -31.7684 -31.7660
    -9.8091  -8.7927   1.9154   2.0352   2.4676   3.0334   3.1480   4.1794
     5.6795   5.8998   5.9952   7.0842   7.2432

     occupation numbers 
     1.0000   1.0000   1.0000   1.0000   1.0000   1.0000   1.0000   1.0000
     1.0000   1.0000   1.0000   1.0000   1.0000   1.0000   1.0000   1.0000
     1.0000   1.0000   1.0000   1.0000   1.0000

          k =-0.0000 0.1443-0.0961 (  3690 PWs)   bands (ev):

  -115.3963 -69.7581 -69.7541 -69.7540 -64.7991 -31.7975 -31.7684 -31.7661
    -9.9133  -8.6946   1.9214   2.0332   2.7176   3.1913   3.1936   3.8472
     5.5623   5.7780   6.3632   7.1270   7.1476

     occupation numbers 
     1.0000   1.0000   1.0000   1.0000   1.0000   1.0000   1.0000   1.0000
     1.0000   1.0000   1.0000   1.0000   1.0000   1.0000   1.0000   1.0000
     1.0000   1.0000   1.0000   1.0000   1.0000

          k =-0.0000 0.2887 0.0000 (  3690 PWs)   bands (ev):

  -115.3962 -69.7580 -69.7545 -69.7541 -64.7987 -31.7968 -31.7757 -31.7677
    -9.7402  -8.6507   1.8986   2.2552   2.7002   3.1961   3.4624   3.9479
     4.8140   5.4908   5.7315   6.7094   6.8375

     occupation numbers 
     1.0000   1.0000   1.0000   1.0000   1.0000   1.0000   1.0000   1.0000
     1.0000   1.0000   1.0000   1.0000   1.0000   1.0000   1.0000   1.0000
     1.0000   1.0000   1.0000   1.0000   1.0000

          k =-0.0000 0.2887 0.0961 (  3692 PWs)   bands (ev):

  -115.3962 -69.7580 -69.7545 -69.7541 -64.7987 -31.7969 -31.7757 -31.7677
    -9.7086  -8.6744   1.8950   2.2553   2.6161   3.1774   3.2004   4.1696
     4.9019   5.5537   5.5865   6.7938   6.9203

     occupation numbers 
     1.0000   1.0000   1.0000   1.0000   1.0000   1.0000   1.0000   1.0000
     1.0000   1.0000   1.0000   1.0000   1.0000   1.0000   1.0000   1.0000
     1.0000   1.0000   1.0000   1.0000   1.0000

          k =-0.0000 0.2887 0.1922 (  3696 PWs)   bands (ev):

  -115.3962 -69.7580 -69.7545 -69.7541 -64.7987 -31.7973 -31.7756 -31.7677
    -9.6242  -8.7399   1.8764   2.2578   2.4423   2.8590   3.1322   4.3814
     4.9553   5.6114   5.7120   6.6818   7.1997

     occupation numbers 
     1.0000   1.0000   1.0000   1.0000   1.0000   1.0000   1.0000   1.0000
     1.0000   1.0000   1.0000   1.0000   1.0000   1.0000   1.0000   1.0000
     1.0000   1.0000   1.0000   1.0000   1.0000

          k =-0.0000 0.2887 0.2884 (  3694 PWs)   bands (ev):

  -115.3962 -69.7581 -69.7545 -69.7541 -64.7987 -31.7976 -31.7756 -31.7677
    -9.5223  -8.8230   1.8426   2.2614   2.3092   2.6145   3.0885   4.5310
     4.8171   5.8780   5.9093   6.5289   7.3392

     occupation numbers 
     1.0000   1.0000   1.0000   1.0000   1.0000   1.0000   1.0000   1.0000
     1.0000   1.0000   1.0000   1.0000   1.0000   1.0000   1.0000   1.0000
     1.0000   1.0000   1.0000   1.0000   1.0000

          k =-0.0000 0.2887-0.3845 (  3690 PWs)   bands (ev):

  -115.3962 -69.7581 -69.7544 -69.7541 -64.7987 -31.7978 -31.7756 -31.7677
    -9.4713  -8.8664   1.8273   2.2585   2.2639   2.5287   3.0701   4.5432
     4.8066   6.0053   6.0164   6.4404   7.3526

     occupation numbers 
     1.0000   1.0000   1.0000   1.0000   1.0000   1.0000   1.0000   1.0000
     1.0000   1.0000   1.0000   1.0000   1.0000   1.0000   1.0000   1.0000
     1.0000   1.0000   1.0000   1.0000   1.0000

          k =-0.0000 0.2887-0.2884 (  3694 PWs)   bands (ev):

  -115.3962 -69.7581 -69.7545 -69.7541 -64.7987 -31.7976 -31.7756 -31.7677
    -9.5223  -8.8231   1.8509   2.2637   2.2937   2.6223   3.0863   4.4206
     4.9736   5.8563   5.8900   6.5502   7.3031

     occupation numbers 
     1.0000   1.0000   1.0000   1.0000   1.0000   1.0000   1.0000   1.0000
     1.0000   1.0000   1.0000   1.0000   1.0000   1.0000   1.0000   1.0000
     1.0000   1.0000   1.0000   1.0000   1.0000

          k =-0.0000 0.2887-0.1922 (  3696 PWs)   bands (ev):

  -115.3962 -69.7580 -69.7545 -69.7541 -64.7987 -31.7973 -31.7756 -31.7677
    -9.6241  -8.7400   1.8795   2.2610   2.4403   2.8629   3.1292   4.2764
     5.1396   5.5713   5.6947   6.7019   7.1403

     occupation numbers 
     1.0000   1.0000   1.0000   1.0000   1.0000   1.0000   1.0000   1.0000
     1.0000   1.0000   1.0000   1.0000   1.0000   1.0000   1.0000   1.0000
     1.0000   1.0000   1.0000   1.0000   1.0000

          k =-0.0000 0.2887-0.0961 (  3692 PWs)   bands (ev):

  -115.3962 -69.7580 -69.7545 -69.7541 -64.7987 -31.7969 -31.7757 -31.7677
    -9.7086  -8.6745   1.8939   2.2575   2.6214   3.1754   3.2116   4.0927
     4.9770   5.5441   5.6227   6.8054   6.8606

     occupation numbers 
     1.0000   1.0000   1.0000   1.0000   1.0000   1.0000   1.0000   1.0000
     1.0000   1.0000   1.0000   1.0000   1.0000   1.0000   1.0000   1.0000
     1.0000   1.0000   1.0000   1.0000   1.0000

          k =-0.0000 0.4330 0.0000 (  3702 PWs)   bands (ev):

  -115.3962 -69.7580 -69.7549 -69.7542 -64.7984 -31.7961 -31.7829 -31.7693
    -9.4935  -8.6723   1.9540   2.5315   2.6233   3.1850   3.3798   4.2113
     4.4827   5.0100   5.1623   6.3718   6.5623

     occupation numbers 
     1.0000   1.0000   1.0000   1.0000   1.0000   1.0000   1.0000   1.0000
     1.0000   1.0000   1.0000   1.0000   1.0000   1.0000   1.0000   1.0000
     1.0000   1.0000   1.0000   1.0000   1.0000

          k =-0.0000 0.4330 0.0961 (  3703 PWs)   bands (ev):

  -115.3962 -69.7580 -69.7549 -69.7542 -64.7984 -31.7963 -31.7829 -31.7693
    -9.4724  -8.6799   1.9523   2.5303   2.5310   3.1658   3.2121   3.9879
     4.7049   5.1086   5.2279   6.5127   6.6094

     occupation numbers 
     1.0000   1.0000   1.0000   1.0000   1.0000   1.0000   1.0000   1.0000
     1.0000   1.0000   1.0000   1.0000   1.0000   1.0000   1.0000   1.0000
     1.0000   1.0000   1.0000   1.0000   1.0000

          k =-0.0000 0.4330 0.1922 (  3698 PWs)   bands (ev):

  -115.3962 -69.7580 -69.7549 -69.7542 -64.7984 -31.7966 -31.7829 -31.7693
    -9.4184  -8.7015   1.9296   2.3573   2.5329   2.8242   3.1196   3.8670
     4.6998   5.3983   5.5524   6.3794   7.0342

     occupation numbers 
     1.0000   1.0000   1.0000   1.0000   1.0000   1.0000   1.0000   1.0000
     1.0000   1.0000   1.0000   1.0000   1.0000   1.0000   1.0000   1.0000
     1.0000   1.0000   1.0000   1.0000   1.0000

          k =-0.0000 0.4330 0.2884 (  3704 PWs)   bands (ev):

  -115.3962 -69.7580 -69.7549 -69.7542 -64.7984 -31.7969 -31.7829 -31.7693
    -9.3586  -8.7286   1.8867   2.2254   2.4963   2.5361   3.0752   3.8370
     4.6869   5.6256   5.9134   6.1867   7.3556

     occupation numbers 
     1.0000   1.0000   1.0000   1.0000   1.0000   1.0000   1.0000   1.0000
     1.0000   1.0000   1.0000   1.0000   1.0000   1.0000   1.0000   1.0000
     1.0000   1.0000   1.0000   1.0000   1.0000

          k =-0.0000 0.4330-0.3845 (  3698 PWs)   bands (ev):

  -115.3962 -69.7580 -69.7548 -69.7542 -64.7984 -31.7971 -31.7829 -31.7693
    -9.3316  -8.7422   1.8719   2.1541   2.3945   2.5389   3.0562   3.8241
     4.6928   5.7826   6.0438   6.0601   7.4475

     occupation numbers 
     1.0000   1.0000   1.0000   1.0000   1.0000   1.0000   1.0000   1.0000
     1.0000   1.0000   1.0000   1.0000   1.0000   1.0000   1.0000   1.0000
     1.0000   1.0000   1.0000   1.0000   1.0000

          k =-0.0000 0.4330-0.2884 (  3704 PWs)   bands (ev):

  -115.3962 -69.7580 -69.7549 -69.7542 -64.7984 -31.7969 -31.7829 -31.7693
    -9.3585  -8.7288   1.8953   2.2091   2.5065   2.5392   3.0722   3.8148
     4.7133   5.6103   5.9356   6.2033   7.3149

     occupation numbers 
     1.0000   1.0000   1.0000   1.0000   1.0000   1.0000   1.0000   1.0000
     1.0000   1.0000   1.0000   1.0000   1.0000   1.0000   1.0000   1.0000
     1.0000   1.0000   1.0000   1.0000   1.0000

          k =-0.0000 0.4330-0.1922 (  3698 PWs)   bands (ev):

  -115.3962 -69.7580 -69.7549 -69.7542 -64.7984 -31.7966 -31.7829 -31.7693
    -9.4183  -8.7017   1.9239   2.3708   2.5370   2.8291   3.1157   3.8177
     4.7254   5.3860   5.6179   6.3936   6.9656

     occupation numbers 
     1.0000   1.0000   1.0000   1.0000   1.0000   1.0000   1.0000   1.0000
     1.0000   1.0000   1.0000   1.0000   1.0000   1.0000   1.0000   1.0000
     1.0000   1.0000   1.0000   1.0000   1.0000

          k =-0.0000 0.4330-0.0961 (  3703 PWs)   bands (ev):

  -115.3962 -69.7580 -69.7549 -69.7542 -64.7984 -31.7963 -31.7829 -31.7693
    -9.4723  -8.6800   1.9442   2.5338   2.5461   3.1632   3.2375   3.9134
     4.6585   5.2212   5.2567   6.5206   6.5404

     occupation numbers 
     1.0000   1.0000   1.0000   1.0000   1.0000   1.0000   1.0000   1.0000
     1.0000   1.0000   1.0000   1.0000   1.0000   1.0000   1.0000   1.0000
     1.0000   1.0000   1.0000   1.0000   1.0000

          k = 0.0000-0.5774-0.0000 (  3698 PWs)   bands (ev):

  -115.3962 -69.7580 -69.7550 -69.7542 -64.7983 -31.7959 -31.7859 -31.7700
    -9.3719  -8.6989   2.0181   2.6002   2.6707   3.1835   3.2672   4.0691
     4.6973   4.7562   4.9878   6.1658   6.4649

     occupation numbers 
     1.0000   1.0000   1.0000   1.0000   1.0000   1.0000   1.0000   1.0000
     1.0000   1.0000   1.0000   1.0000   1.0000   1.0000   1.0000   1.0000
     1.0000   1.0000   1.0000   1.0000   1.0000

          k = 0.0000-0.5774 0.0961 (  3694 PWs)   bands (ev):

  -115.3962 -69.7580 -69.7550 -69.7542 -64.7983 -31.7960 -31.7859 -31.7700
    -9.3580  -8.6970   2.0071   2.5179   2.6707   3.1633   3.2195   3.7063
     4.5412   5.0498   5.2825   6.3808   6.4184

     occupation numbers 
     1.0000   1.0000   1.0000   1.0000   1.0000   1.0000   1.0000   1.0000
     1.0000   1.0000   1.0000   1.0000   1.0000   1.0000   1.0000   1.0000
     1.0000   1.0000   1.0000   1.0000   1.0000

          k = 0.0000-0.5774 0.1922 (  3704 PWs)   bands (ev):

  -115.3962 -69.7580 -69.7550 -69.7542 -64.7983 -31.7963 -31.7859 -31.7700
    -9.3235  -8.6932   1.9693   2.3600   2.6709   2.8710   3.1176   3.4531
     4.5902   5.2149   5.7096   6.2880   6.8934

     occupation numbers 
     1.0000   1.0000   1.0000   1.0000   1.0000   1.0000   1.0000   1.0000
     1.0000   1.0000   1.0000   1.0000   1.0000   1.0000   1.0000   1.0000
     1.0000   1.0000   1.0000   1.0000   1.0000

          k = 0.0000-0.5774 0.2884 (  3704 PWs)   bands (ev):

  -115.3962 -69.7580 -69.7550 -69.7542 -64.7983 -31.7967 -31.7859 -31.7700
    -9.2876  -8.6904   1.9196   2.2178   2.5049   2.6711   3.0754   3.4240
     4.6298   5.4283   5.9991   6.1056   7.3291

     occupation numbers 
     1.0000   1.0000   1.0000   1.0000   1.0000   1.0000   1.0000   1.0000
     1.0000   1.0000   1.0000   1.0000   1.0000   1.0000   1.0000   1.0000
     1.0000   1.0000   1.0000   1.0000   1.0000

          k = 0.0000-0.5774-0.3845 (  3704 PWs)   bands (ev):

  -115.3962 -69.7580 -69.7550 -69.7543 -64.7983 -31.7968 -31.7858 -31.7700
    -9.2723  -8.6896   1.9041   2.1283   2.4017   2.6712   3.0588   3.4204
     4.6414   5.5613   5.9845   6.1127   7.4826

     occupation numbers 
     1.0000   1.0000   1.0000   1.0000   1.0000   1.0000   1.0000   1.0000
     1.0000   1.0000   1.0000   1.0000   1.0000   1.0000   1.0000   1.0000
     1.0000   1.0000   1.0000   1.0000   1.0000

          k = 0.1250 0.0722 0.0000 (  3682 PWs)   bands (ev):

  -115.3963 -69.7580 -69.7541 -69.7540 -64.7991 -31.7974 -31.7684 -31.7661
    -9.9516  -8.6590   1.9231   2.0320   2.8427   3.2104   3.4603   3.4912
     5.4975   5.7322   6.6693   6.9474   7.1679

     occupation numbers 
     1.0000   1.0000   1.0000   1.0000   1.0000   1.0000   1.0000   1.0000
     1.0000   1.0000   1.0000   1.0000   1.0000   1.0000   1.0000   1.0000
     1.0000   1.0000   1.0000   1.0000   1.0000

          k = 0.1250 0.0722 0.0961 (  3690 PWs)   bands (ev):

  -115.3963 -69.7581 -69.7541 -69.7540 -64.7991 -31.7975 -31.7684 -31.7661
    -9.9133  -8.6946   1.9214   2.0332   2.7176   3.1913   3.1936   3.8472
     5.5623   5.7780   6.3632   7.1270   7.1476

     occupation numbers 
     1.0000   1.0000   1.0000   1.0000   1.0000   1.0000   1.0000   1.0000
     1.0000   1.0000   1.0000   1.0000   1.0000   1.0000   1.0000   1.0000
     1.0000   1.0000   1.0000   1.0000   1.0000

          k = 0.1250 0.0722 0.1922 (  3689 PWs)   bands (ev):

  -115.3963 -69.7581 -69.7541 -69.7540 -64.7991 -31.7979 -31.7684 -31.7660
    -9.8091  -8.7927   1.9154   2.0353   2.4676   3.0334   3.1480   4.1794
     5.6795   5.8998   5.9952   7.0842   7.2432

     occupation numbers 
     1.0000   1.0000   1.0000   1.0000   1.0000   1.0000   1.0000   1.0000
     1.0000   1.0000   1.0000   1.0000   1.0000   1.0000   1.0000   1.0000
     1.0000   1.0000   1.0000   1.0000   1.0000

          k = 0.1250 0.0722 0.2884 (  3710 PWs)   bands (ev):

  -115.3963 -69.7581 -69.7541 -69.7540 -64.7991 -31.7983 -31.7684 -31.7660
    -9.6772  -8.9188   1.9034   2.0369   2.2847   2.9292   3.1071   4.4050
     5.5387   6.0090   6.0378   7.0019   7.2466

     occupation numbers 
     1.0000   1.0000   1.0000   1.0000   1.0000   1.0000   1.0000   1.0000
     1.0000   1.0000   1.0000   1.0000   1.0000   1.0000   1.0000   1.0000
     1.0000   1.0000   1.0000   1.0000   1.0000

          k = 0.1250 0.0722-0.3845 (  3710 PWs)   bands (ev):

  -115.3963 -69.7581 -69.7541 -69.7540 -64.7991 -31.7984 -31.7684 -31.7660
    -9.6067  -8.9870   1.8943   2.0371   2.2260   2.8891   3.0912   4.4956
     5.4118   6.0918   6.1059   6.9556   7.2331

     occupation numbers 
     1.0000   1.0000   1.0000   1.0000   1.0000   1.0000   1.0000   1.0000
     1.0000   1.0000   1.0000   1.0000   1.0000   1.0000   1.0000   1.0000
     1.0000   1.0000   1.0000   1.0000   1.0000

          k = 0.1250 0.0722-0.2884 (  3710 PWs)   bands (ev):

  -115.3963 -69.7581 -69.7541 -69.7540 -64.7991 -31.7983 -31.7684 -31.7660
    -9.6772  -8.9187   1.9019   2.0358   2.2874   2.9278   3.1082   4.4204
     5.4843   6.0396   6.0469   6.9913   7.2590

     occupation numbers 
     1.0000   1.0000   1.0000   1.0000   1.0000   1.0000   1.0000   1.0000
     1.0000   1.0000   1.0000   1.0000   1.0000   1.0000   1.0000   1.0000
     1.0000   1.0000   1.0000   1.0000   1.0000

          k = 0.1250 0.0722-0.1922 (  3689 PWs)   bands (ev):

  -115.3963 -69.7581 -69.7541 -69.7540 -64.7991 -31.7979 -31.7684 -31.7660
    -9.8091  -8.7927   1.9149   2.0337   2.4688   3.0314   3.1494   4.1947
     5.6090   5.9102   6.0356   7.0717   7.2649

     occupation numbers 
     1.0000   1.0000   1.0000   1.0000   1.0000   1.0000   1.0000   1.0000
     1.0000   1.0000   1.0000   1.0000   1.0000   1.0000   1.0000   1.0000
     1.0000   1.0000   1.0000   1.0000   1.0000

          k = 0.1250 0.0722-0.0961 (  3690 PWs)   bands (ev):

  -115.3963 -69.7581 -69.7541 -69.7540 -64.7991 -31.7975 -31.7684 -31.7661
    -9.9133  -8.6946   1.9217   2.0322   2.7170   3.1910   3.1923   3.8571
     5.5428   5.7842   6.3548   7.1399   7.1526

     occupation numbers 
     1.0000   1.0000   1.0000   1.0000   1.0000   1.0000   1.0000   1.0000
     1.0000   1.0000   1.0000   1.0000   1.0000   1.0000   1.0000   1.0000
     1.0000   1.0000   1.0000   1.0000   1.0000

          k = 0.1250 0.2165 0.0000 (  3677 PWs)   bands (ev):

  -115.3963 -69.7580 -69.7544 -69.7540 -64.7988 -31.7969 -31.7733 -31.7675
    -9.8051  -8.6508   1.9058   2.1816   2.7341   3.1945   3.4670   3.8214
     5.0595   5.4476   6.0729   6.7716   6.8762

     occupation numbers 
     1.0000   1.0000   1.0000   1.0000   1.0000   1.0000   1.0000   1.0000
     1.0000   1.0000   1.0000   1.0000   1.0000   1.0000   1.0000   1.0000
     1.0000   1.0000   1.0000   1.0000   1.0000

          k = 0.1250 0.2165 0.0961 (  3693 PWs)   bands (ev):

  -115.3963 -69.7581 -69.7543 -69.7541 -64.7988 -31.7971 -31.7732 -31.7675
    -9.7712  -8.6783   1.9021   2.1825   2.6492   3.1739   3.2027   4.0728
     5.1338   5.5138   5.8987   6.8146   6.9906

     occupation numbers 
     1.0000   1.0000   1.0000   1.0000   1.0000   1.0000   1.0000   1.0000
     1.0000   1.0000   1.0000   1.0000   1.0000   1.0000   1.0000   1.0000
     1.0000   1.0000   1.0000   1.0000   1.0000

          k = 0.1250 0.2165 0.1922 (  3689 PWs)   bands (ev):

  -115.3963 -69.7580 -69.7543 -69.7541 -64.7988 -31.7974 -31.7732 -31.7675
    -9.6802  -8.7542   1.8875   2.1847   2.4597   2.9019   3.1271   4.3432
     5.1924   5.6829   5.7888   6.7178   7.2389

     occupation numbers 
     1.0000   1.0000   1.0000   1.0000   1.0000   1.0000   1.0000   1.0000
     1.0000   1.0000   1.0000   1.0000   1.0000   1.0000   1.0000   1.0000
     1.0000   1.0000   1.0000   1.0000   1.0000

          k = 0.1250 0.2165 0.2884 (  3689 PWs)   bands (ev):

  -115.3963 -69.7581 -69.7543 -69.7541 -64.7988 -31.7978 -31.7732 -31.7675
    -9.5686  -8.8511   1.8590   2.1869   2.3084   2.7018   3.0825   4.5283
     5.0525   5.8442   5.9954   6.5791   7.3559

     occupation numbers 
     1.0000   1.0000   1.0000   1.0000   1.0000   1.0000   1.0000   1.0000
     1.0000   1.0000   1.0000   1.0000   1.0000   1.0000   1.0000   1.0000
     1.0000   1.0000   1.0000   1.0000   1.0000

          k = 0.1250 0.2165-0.3845 (  3706 PWs)   bands (ev):

  -115.3963 -69.7581 -69.7543 -69.7541 -64.7988 -31.7980 -31.7732 -31.7675
    -9.5115  -8.9021   1.8412   2.1878   2.2601   2.6287   3.0646   4.6159
     4.9530   5.9412   6.1113   6.4968   7.3753

     occupation numbers 
     1.0000   1.0000   1.0000   1.0000   1.0000   1.0000   1.0000   1.0000
     1.0000   1.0000   1.0000   1.0000   1.0000   1.0000   1.0000   1.0000
     1.0000   1.0000   1.0000   1.0000   1.0000

          k = 0.1250 0.2165-0.2884 (  3689 PWs)   bands (ev):

  -115.3963 -69.7581 -69.7543 -69.7541 -64.7988 -31.7978 -31.7732 -31.7675
    -9.5686  -8.8511   1.8590   2.1869   2.3084   2.7018   3.0825   4.5283
     5.0525   5.8442   5.9954   6.5791   7.3559

     occupation numbers 
     1.0000   1.0000   1.0000   1.0000   1.0000   1.0000   1.0000   1.0000
     1.0000   1.0000   1.0000   1.0000   1.0000   1.0000   1.0000   1.0000
     1.0000   1.0000   1.0000   1.0000   1.0000

          k = 0.1250 0.2165-0.1922 (  3689 PWs)   bands (ev):

  -115.3963 -69.7580 -69.7543 -69.7541 -64.7988 -31.7974 -31.7732 -31.7675
    -9.6802  -8.7542   1.8875   2.1847   2.4597   2.9019   3.1271   4.3432
     5.1924   5.6829   5.7888   6.7178   7.2389

     occupation numbers 
     1.0000   1.0000   1.0000   1.0000   1.0000   1.0000   1.0000   1.0000
     1.0000   1.0000   1.0000   1.0000   1.0000   1.0000   1.0000   1.0000
     1.0000   1.0000   1.0000   1.0000   1.0000

          k = 0.1250 0.2165-0.0961 (  3693 PWs)   bands (ev):

  -115.3963 -69.7581 -69.7543 -69.7541 -64.7988 -31.7971 -31.7732 -31.7675
    -9.7712  -8.6783   1.9021   2.1825   2.6492   3.1739   3.2027   4.0728
     5.1338   5.5138   5.8987   6.8146   6.9906

     occupation numbers 
     1.0000   1.0000   1.0000   1.0000   1.0000   1.0000   1.0000   1.0000
     1.0000   1.0000   1.0000   1.0000   1.0000   1.0000   1.0000   1.0000
     1.0000   1.0000   1.0000   1.0000   1.0000

          k = 0.1250 0.3608 0.0000 (  3699 PWs)   bands (ev):

  -115.3962 -69.7580 -69.7547 -69.7542 -64.7985 -31.7963 -31.7799 -31.7698
    -9.5725  -8.6602   1.9576   2.4320   2.6559   3.1698   3.4309   4.2692
     4.4957   4.9790   5.4623   6.4427   6.5310

     occupation numbers 
     1.0000   1.0000   1.0000   1.0000   1.0000   1.0000   1.0000   1.0000
     1.0000   1.0000   1.0000   1.0000   1.0000   1.0000   1.0000   1.0000
     1.0000   1.0000   1.0000   1.0000   1.0000

          k = 0.1250 0.3608 0.0961 (  3703 PWs)   bands (ev):

  -115.3962 -69.7580 -69.7547 -69.7542 -64.7985 -31.7965 -31.7799 -31.7698
    -9.5476  -8.6735   1.9561   2.4233   2.5811   3.1458   3.2197   4.1876
     4.6366   5.1975   5.3793   6.4314   6.7253

     occupation numbers 
     1.0000   1.0000   1.0000   1.0000   1.0000   1.0000   1.0000   1.0000
     1.0000   1.0000   1.0000   1.0000   1.0000   1.0000   1.0000   1.0000
     1.0000   1.0000   1.0000   1.0000   1.0000

          k = 0.1250 0.3608 0.1922 (  3696 PWs)   bands (ev):

  -115.3962 -69.7580 -69.7547 -69.7542 -64.7985 -31.7968 -31.7798 -31.7697
    -9.4826  -8.7102   1.9388   2.3571   2.4819   2.8278   3.0943   4.1582
     4.7193   5.3546   5.6615   6.2858   7.1320

     occupation numbers 
     1.0000   1.0000   1.0000   1.0000   1.0000   1.0000   1.0000   1.0000
     1.0000   1.0000   1.0000   1.0000   1.0000   1.0000   1.0000   1.0000
     1.0000   1.0000   1.0000   1.0000   1.0000

          k = 0.1250 0.3608 0.2884 (  3701 PWs)   bands (ev):

  -115.3962 -69.7580 -69.7547 -69.7542 -64.7985 -31.7971 -31.7798 -31.7697
    -9.4083  -8.7562   1.8969   2.2545   2.4596   2.5291   3.0437   4.1618
     4.7316   5.5059   5.9679   6.1366   7.4344

     occupation numbers 
     1.0000   1.0000   1.0000   1.0000   1.0000   1.0000   1.0000   1.0000
     1.0000   1.0000   1.0000   1.0000   1.0000   1.0000   1.0000   1.0000
     1.0000   1.0000   1.0000   1.0000   1.0000

          k = 0.1250 0.3608-0.3845 (  3696 PWs)   bands (ev):

  -115.3962 -69.7580 -69.7547 -69.7542 -64.7985 -31.7973 -31.7798 -31.7697
    -9.3735  -8.7793   1.8734   2.2139   2.4044   2.4766   3.0229   4.1548
     4.7428   5.6808   5.8378   6.2238   7.5287

     occupation numbers 
     1.0000   1.0000   1.0000   1.0000   1.0000   1.0000   1.0000   1.0000
     1.0000   1.0000   1.0000   1.0000   1.0000   1.0000   1.0000   1.0000
     1.0000   1.0000   1.0000   1.0000   1.0000

          k = 0.1250 0.3608-0.2884 (  3701 PWs)   bands (ev):

  -115.3962 -69.7580 -69.7547 -69.7542 -64.7985 -31.7971 -31.7798 -31.7697
    -9.4083  -8.7563   1.9027   2.2455   2.4573   2.5372   3.0420   4.1320
     4.7767   5.4935   5.9652   6.1497   7.4143

     occupation numbers 
     1.0000   1.0000   1.0000   1.0000   1.0000   1.0000   1.0000   1.0000
     1.0000   1.0000   1.0000   1.0000   1.0000   1.0000   1.0000   1.0000
     1.0000   1.0000   1.0000   1.0000   1.0000

          k = 0.1250 0.3608-0.1922 (  3696 PWs)   bands (ev):

  -115.3962 -69.7580 -69.7547 -69.7542 -64.7985 -31.7968 -31.7798 -31.7697
    -9.4825  -8.7103   1.9371   2.3665   2.4796   2.8299   3.0920   4.1054
     4.7776   5.3518   5.6787   6.2841   7.1013

     occupation numbers 
     1.0000   1.0000   1.0000   1.0000   1.0000   1.0000   1.0000   1.0000
     1.0000   1.0000   1.0000   1.0000   1.0000   1.0000   1.0000   1.0000
     1.0000   1.0000   1.0000   1.0000   1.0000

          k = 0.1250 0.3608-0.0961 (  3703 PWs)   bands (ev):

  -115.3962 -69.7580 -69.7547 -69.7542 -64.7985 -31.7965 -31.7799 -31.7698
    -9.5475  -8.6735   1.9523   2.4285   2.5853   3.1453   3.2294   4.1212
     4.6667   5.2209   5.4111   6.4111   6.7076

     occupation numbers 
     1.0000   1.0000   1.0000   1.0000   1.0000   1.0000   1.0000   1.0000
     1.0000   1.0000   1.0000   1.0000   1.0000   1.0000   1.0000   1.0000
     1.0000   1.0000   1.0000   1.0000   1.0000

          k = 0.1250 0.5052 0.0000 (  3687 PWs)   bands (ev):

  -115.3962 -69.7580 -69.7549 -69.7543 -64.7983 -31.7959 -31.7845 -31.7714
    -9.3760  -8.6957   2.0872   2.6032   2.6828   3.1575   3.2930   4.0666
     4.6283   4.8242   4.9579   6.1635   6.2846

     occupation numbers 
     1.0000   1.0000   1.0000   1.0000   1.0000   1.0000   1.0000   1.0000
     1.0000   1.0000   1.0000   1.0000   1.0000   1.0000   1.0000   1.0000
     1.0000   1.0000   1.0000   1.0000   1.0000

          k = 0.1250 0.5052 0.0961 (  3700 PWs)   bands (ev):

  -115.3962 -69.7580 -69.7549 -69.7543 -64.7983 -31.7960 -31.7845 -31.7714
    -9.3617  -8.6944   2.0857   2.5099   2.6876   3.1328   3.2199   3.7915
     4.4752   4.9257   5.3642   6.2136   6.4195

     occupation numbers 
     1.0000   1.0000   1.0000   1.0000   1.0000   1.0000   1.0000   1.0000
     1.0000   1.0000   1.0000   1.0000   1.0000   1.0000   1.0000   1.0000
     1.0000   1.0000   1.0000   1.0000   1.0000

          k = 0.1250 0.5052 0.1922 (  3698 PWs)   bands (ev):

  -115.3962 -69.7580 -69.7549 -69.7543 -64.7983 -31.7963 -31.7845 -31.7714
    -9.3263  -8.6919   2.0601   2.3482   2.6873   2.8655   3.0816   3.5628
     4.5628   4.9730   5.8226   6.0888   6.9569

     occupation numbers 
     1.0000   1.0000   1.0000   1.0000   1.0000   1.0000   1.0000   1.0000
     1.0000   1.0000   1.0000   1.0000   1.0000   1.0000   1.0000   1.0000
[...]
    -9.3262  -8.6919   2.0482   2.3700   2.6857   2.8671   3.0821   3.5413
     4.5633   4.9821   5.8463   6.0870   6.9315

     occupation numbers 
     1.0000   1.0000   1.0000   1.0000   1.0000   1.0000   1.0000   1.0000
     1.0000   1.0000   1.0000   1.0000   1.0000   1.0000   1.0000   1.0000
     1.0000   1.0000   1.0000   1.0000   1.0000

          k =-0.5000-0.1443-0.0961 (  3700 PWs)   bands (ev):

  -115.3962 -69.7580 -69.7549 -69.7543 -64.7983 -31.7960 -31.7845 -31.7714
    -9.3617  -8.6944   2.0764   2.5288   2.6845   3.1314   3.2365   3.7571
     4.4516   4.9494   5.4110   6.1864   6.4098

     occupation numbers 
     1.0000   1.0000   1.0000   1.0000   1.0000   1.0000   1.0000   1.0000
     1.0000   1.0000   1.0000   1.0000   1.0000   1.0000   1.0000   1.0000
     1.0000   1.0000   1.0000   1.0000   1.0000

          k =-0.5000 0.0000-0.0000 (  3691 PWs)   bands (ev):

  -115.3962 -69.7580 -69.7548 -69.7544 -64.7983 -31.7959 -31.7827 -31.7732
    -9.3800  -8.6926   2.1619   2.5977   2.7015   3.1331   3.3313   4.0732
     4.4663   4.8337   5.0968   6.0372   6.1895

     occupation numbers 
     1.0000   1.0000   1.0000   1.0000   1.0000   1.0000   1.0000   1.0000
     1.0000   1.0000   1.0000   1.0000   1.0000   1.0000   1.0000   1.0000
     1.0000   1.0000   1.0000   1.0000   1.0000

          k =-0.5000 0.0000 0.0961 (  3696 PWs)   bands (ev):

  -115.3962 -69.7580 -69.7548 -69.7544 -64.7983 -31.7960 -31.7827 -31.7732
    -9.3653  -8.6918   2.1627   2.5173   2.7007   3.1009   3.2391   3.9672
     4.1508   5.0217   5.4338   5.9887   6.4136

     occupation numbers 
     1.0000   1.0000   1.0000   1.0000   1.0000   1.0000   1.0000   1.0000
     1.0000   1.0000   1.0000   1.0000   1.0000   1.0000   1.0000   1.0000
     1.0000   1.0000   1.0000   1.0000   1.0000

          k =-0.5000 0.0000 0.1922 (  3699 PWs)   bands (ev):

  -115.3962 -69.7580 -69.7548 -69.7544 -64.7983 -31.7963 -31.7827 -31.7732
    -9.3289  -8.6906   2.1591   2.3461   2.6958   2.8568   3.0492   3.7332
     4.3231   4.9621   5.7820   5.9980   6.9759

     occupation numbers 
     1.0000   1.0000   1.0000   1.0000   1.0000   1.0000   1.0000   1.0000
     1.0000   1.0000   1.0000   1.0000   1.0000   1.0000   1.0000   1.0000
     1.0000   1.0000   1.0000   1.0000   1.0000

          k =-0.5000 0.0000 0.2884 (  3692 PWs)   bands (ev):

  -115.3962 -69.7580 -69.7548 -69.7544 -64.7983 -31.7967 -31.7827 -31.7732
    -9.2909  -8.6907   2.1268   2.2033   2.5093   2.6925   2.9972   3.6935
     4.5433   4.9156   5.5825   6.3093   7.4990

     occupation numbers 
     1.0000   1.0000   1.0000   1.0000   1.0000   1.0000   1.0000   1.0000
     1.0000   1.0000   1.0000   1.0000   1.0000   1.0000   1.0000   1.0000
     1.0000   1.0000   1.0000   1.0000   1.0000

          k =-0.5000 0.0000-0.3845 (  3704 PWs)   bands (ev):

  -115.3962 -69.7580 -69.7548 -69.7544 -64.7983 -31.7968 -31.7827 -31.7732
    -9.2746  -8.6913   2.0898   2.1515   2.4024   2.6894   2.9787   3.6877
     4.6647   4.8984   5.4629   6.4259   7.7015

     occupation numbers 
     1.0000   1.0000   1.0000   1.0000   1.0000   1.0000   1.0000   1.0000
     1.0000   1.0000   1.0000   1.0000   1.0000   1.0000   1.0000   1.0000
     1.0000   1.0000   1.0000   1.0000   1.0000

          k =-0.5000 0.0000-0.2884 (  3692 PWs)   bands (ev):

  -115.3962 -69.7580 -69.7548 -69.7544 -64.7983 -31.7967 -31.7827 -31.7732
    -9.2909  -8.6907   2.1268   2.2033   2.5093   2.6925   2.9972   3.6935
     4.5433   4.9156   5.5825   6.3093   7.4990

     occupation numbers 
     1.0000   1.0000   1.0000   1.0000   1.0000   1.0000   1.0000   1.0000
     1.0000   1.0000   1.0000   1.0000   1.0000   1.0000   1.0000   1.0000
     1.0000   1.0000   1.0000   1.0000   1.0000

          k =-0.5000 0.0000-0.1922 (  3699 PWs)   bands (ev):

  -115.3962 -69.7580 -69.7548 -69.7544 -64.7983 -31.7963 -31.7827 -31.7732
    -9.3289  -8.6906   2.1591   2.3461   2.6958   2.8568   3.0492   3.7332
     4.3231   4.9621   5.7820   5.9980   6.9759

     occupation numbers 
     1.0000   1.0000   1.0000   1.0000   1.0000   1.0000   1.0000   1.0000
     1.0000   1.0000   1.0000   1.0000   1.0000   1.0000   1.0000   1.0000
     1.0000   1.0000   1.0000   1.0000   1.0000

          k =-0.5000 0.0000-0.0961 (  3696 PWs)   bands (ev):

  -115.3962 -69.7580 -69.7548 -69.7544 -64.7983 -31.7960 -31.7827 -31.7732
    -9.3653  -8.6918   2.1627   2.5173   2.7007   3.1009   3.2391   3.9672
     4.1508   5.0217   5.4338   5.9887   6.4136

     occupation numbers 
     1.0000   1.0000   1.0000   1.0000   1.0000   1.0000   1.0000   1.0000
     1.0000   1.0000   1.0000   1.0000   1.0000   1.0000   1.0000   1.0000
     1.0000   1.0000   1.0000   1.0000   1.0000

          k =-0.5000 0.1443 0.0000 (  3687 PWs)   bands (ev):

  -115.3962 -69.7580 -69.7549 -69.7543 -64.7983 -31.7959 -31.7845 -31.7714
    -9.3760  -8.6957   2.0872   2.6032   2.6828   3.1575   3.2930   4.0666
     4.6283   4.8242   4.9579   6.1635   6.2846

     occupation numbers 
     1.0000   1.0000   1.0000   1.0000   1.0000   1.0000   1.0000   1.0000
     1.0000   1.0000   1.0000   1.0000   1.0000   1.0000   1.0000   1.0000
     1.0000   1.0000   1.0000   1.0000   1.0000

          k =-0.5000 0.1443 0.0961 (  3700 PWs)   bands (ev):

  -115.3962 -69.7580 -69.7549 -69.7543 -64.7983 -31.7960 -31.7845 -31.7714
    -9.3617  -8.6944   2.0764   2.5288   2.6845   3.1314   3.2365   3.7571
     4.4516   4.9494   5.4110   6.1864   6.4098

     occupation numbers 
     1.0000   1.0000   1.0000   1.0000   1.0000   1.0000   1.0000   1.0000
     1.0000   1.0000   1.0000   1.0000   1.0000   1.0000   1.0000   1.0000
     1.0000   1.0000   1.0000   1.0000   1.0000

          k =-0.5000 0.1443 0.1922 (  3698 PWs)   bands (ev):

  -115.3962 -69.7580 -69.7549 -69.7543 -64.7983 -31.7963 -31.7845 -31.7714
    -9.3262  -8.6919   2.0482   2.3700   2.6857   2.8671   3.0821   3.5413
     4.5633   4.9821   5.8463   6.0870   6.9315

     occupation numbers 
     1.0000   1.0000   1.0000   1.0000   1.0000   1.0000   1.0000   1.0000
     1.0000   1.0000   1.0000   1.0000   1.0000   1.0000   1.0000   1.0000
     1.0000   1.0000   1.0000   1.0000   1.0000

          k =-0.5000 0.1443 0.2884 (  3701 PWs)   bands (ev):

  -115.3962 -69.7580 -69.7549 -69.7543 -64.7983 -31.7967 -31.7845 -31.7714
    -9.2893  -8.6906   2.0051   2.2253   2.5071   2.6899   3.0341   3.5181
     4.6630   5.0970   5.7941   6.2312   7.4198

     occupation numbers 
     1.0000   1.0000   1.0000   1.0000   1.0000   1.0000   1.0000   1.0000
     1.0000   1.0000   1.0000   1.0000   1.0000   1.0000   1.0000   1.0000
     1.0000   1.0000   1.0000   1.0000   1.0000

          k =-0.5000 0.1443-0.3845 (  3698 PWs)   bands (ev):

  -115.3962 -69.7580 -69.7549 -69.7543 -64.7983 -31.7968 -31.7844 -31.7714
    -9.2735  -8.6904   1.9829   2.1502   2.4013   2.6891   3.0161   3.5182
     4.6855   5.2083   5.6670   6.3326   7.6076

     occupation numbers 
     1.0000   1.0000   1.0000   1.0000   1.0000   1.0000   1.0000   1.0000
     1.0000   1.0000   1.0000   1.0000   1.0000   1.0000   1.0000   1.0000
     1.0000   1.0000   1.0000   1.0000   1.0000

          k =-0.5000 0.1443-0.2884 (  3701 PWs)   bands (ev):

  -115.3962 -69.7580 -69.7549 -69.7543 -64.7983 -31.7967 -31.7845 -31.7714
    -9.2893  -8.6905   2.0047   2.2256   2.5047   2.6895   3.0345   3.5257
     4.6558   5.0981   5.7947   6.2211   7.4343

     occupation numbers 
     1.0000   1.0000   1.0000   1.0000   1.0000   1.0000   1.0000   1.0000
     1.0000   1.0000   1.0000   1.0000   1.0000   1.0000   1.0000   1.0000
     1.0000   1.0000   1.0000   1.0000   1.0000

          k =-0.5000 0.1443-0.1922 (  3698 PWs)   bands (ev):

  -115.3962 -69.7580 -69.7549 -69.7543 -64.7983 -31.7963 -31.7845 -31.7714
    -9.3263  -8.6919   2.0601   2.3482   2.6873   2.8655   3.0816   3.5627
     4.5628   4.9730   5.8226   6.0888   6.9569

     occupation numbers 
     1.0000   1.0000   1.0000   1.0000   1.0000   1.0000   1.0000   1.0000
     1.0000   1.0000   1.0000   1.0000   1.0000   1.0000   1.0000   1.0000
     1.0000   1.0000   1.0000   1.0000   1.0000

          k =-0.5000 0.1443-0.0961 (  3700 PWs)   bands (ev):

  -115.3962 -69.7580 -69.7549 -69.7543 -64.7983 -31.7960 -31.7845 -31.7714
    -9.3617  -8.6944   2.0857   2.5099   2.6876   3.1328   3.2199   3.7915
     4.4752   4.9257   5.3642   6.2136   6.4195

     occupation numbers 
     1.0000   1.0000   1.0000   1.0000   1.0000   1.0000   1.0000   1.0000
     1.0000   1.0000   1.0000   1.0000   1.0000   1.0000   1.0000   1.0000
     1.0000   1.0000   1.0000   1.0000   1.0000

          k =-0.5000-0.8660-0.0000 (  3698 PWs)   bands (ev):

  -115.3962 -69.7580 -69.7550 -69.7542 -64.7983 -31.7959 -31.7859 -31.7700
    -9.3719  -8.6989   2.0181   2.6002   2.6707   3.1835   3.2672   4.0691
     4.6973   4.7562   4.9878   6.1658   6.4649

     occupation numbers 
     1.0000   1.0000   1.0000   1.0000   1.0000   1.0000   1.0000   1.0000
     1.0000   1.0000   1.0000   1.0000   1.0000   1.0000   1.0000   1.0000
     1.0000   1.0000   1.0000   1.0000   1.0000

          k =-0.5000-0.8660 0.0961 (  3694 PWs)   bands (ev):

  -115.3962 -69.7580 -69.7550 -69.7542 -64.7983 -31.7960 -31.7859 -31.7700
    -9.3580  -8.6970   2.0071   2.5179   2.6708   3.1633   3.2195   3.7063
     4.5412   5.0498   5.2825   6.3808   6.4184

     occupation numbers 
     1.0000   1.0000   1.0000   1.0000   1.0000   1.0000   1.0000   1.0000
     1.0000   1.0000   1.0000   1.0000   1.0000   1.0000   1.0000   1.0000
     1.0000   1.0000   1.0000   1.0000   1.0000

          k =-0.5000-0.8660 0.1922 (  3704 PWs)   bands (ev):

  -115.3962 -69.7580 -69.7550 -69.7542 -64.7983 -31.7963 -31.7859 -31.7700
    -9.3235  -8.6932   1.9693   2.3600   2.6709   2.8710   3.1176   3.4531
     4.5902   5.2149   5.7096   6.2880   6.8934

     occupation numbers 
     1.0000   1.0000   1.0000   1.0000   1.0000   1.0000   1.0000   1.0000
     1.0000   1.0000   1.0000   1.0000   1.0000   1.0000   1.0000   1.0000
     1.0000   1.0000   1.0000   1.0000   1.0000

          k =-0.5000-0.8660 0.2884 (  3704 PWs)   bands (ev):

  -115.3962 -69.7580 -69.7550 -69.7543 -64.7983 -31.7967 -31.7859 -31.7700
    -9.2876  -8.6904   1.9196   2.2177   2.5049   2.6711   3.0754   3.4240
     4.6298   5.4283   5.9991   6.1056   7.3291

     occupation numbers 
     1.0000   1.0000   1.0000   1.0000   1.0000   1.0000   1.0000   1.0000
     1.0000   1.0000   1.0000   1.0000   1.0000   1.0000   1.0000   1.0000
     1.0000   1.0000   1.0000   1.0000   1.0000

          k =-0.5000-0.8660-0.3845 (  3704 PWs)   bands (ev):

  -115.3962 -69.7580 -69.7550 -69.7543 -64.7983 -31.7968 -31.7858 -31.7700
    -9.2723  -8.6896   1.9041   2.1283   2.4017   2.6712   3.0588   3.4204
     4.6414   5.5613   5.9845   6.1127   7.4826

     occupation numbers 
     1.0000   1.0000   1.0000   1.0000   1.0000   1.0000   1.0000   1.0000
     1.0000   1.0000   1.0000   1.0000   1.0000   1.0000   1.0000   1.0000
     1.0000   1.0000   1.0000   1.0000   1.0000

     highest occupied level (ev):     7.7583

!    total energy              =    -651.12646943 Ry
     Harris-Foulkes estimate   =    -651.12646922 Ry
     estimated scf accuracy    <       0.00000034 Ry

     The total energy is the sum of the following terms:

     one-electron contribution =    -524.50820838 Ry
     hartree contribution      =     276.31217758 Ry
     xc contribution           =     -73.09591767 Ry
     ewald contribution        =    -329.83452097 Ry

     convergence has been achieved in   7 iterations

     Forces acting on atoms (cartesian axes, Ry/au):

     atom    1 type  3   force =    -0.00000063    0.00000100    0.00666254
     atom    2 type  3   force =    -0.00000028    0.00000033    0.00417773
     atom    3 type  2   force =     0.00000085    0.00000051    0.00108267
     atom    4 type  1   force =     0.00000006   -0.00000184   -0.01192294
     The non-local contrib.  to forces
     atom    1 type  3   force =    -0.00000034   -0.00000146   -0.12521429
     atom    2 type  3   force =     0.00000047    0.00000150   -0.03790102
     atom    3 type  2   force =     0.00000234   -0.00000505   -0.26855979
     atom    4 type  1   force =     0.00000043   -0.00000131   -0.11753903
     The ionic contribution  to forces
     atom    1 type  3   force =    -0.00000123    0.00002741    2.98060873
     atom    2 type  3   force =    -0.00001606    0.00001761   -0.64748135
     atom    3 type  2   force =     0.00001641   -0.00002829   -1.15484183
     atom    4 type  1   force =     0.00000088   -0.00001673   -1.17828555
     The local contribution  to forces
     atom    1 type  3   force =     0.00000146   -0.00002579   -2.84954037
     atom    2 type  3   force =     0.00001586   -0.00001855    0.68967894
     atom    3 type  2   force =    -0.00001886    0.00003355    1.42400031
     atom    4 type  1   force =    -0.00000067    0.00001648    1.28411214
     The core correction contribution to forces
     atom    1 type  3   force =     0.00000001    0.00000000    0.00080914
     atom    2 type  3   force =     0.00000000   -0.00000002   -0.00022422
     atom    3 type  2   force =     0.00000000    0.00000000    0.00000000
     atom    4 type  1   force =     0.00000000    0.00000000    0.00000000
     The Hubbard contrib.    to forces
     atom    1 type  3   force =     0.00000000    0.00000000    0.00000000
     atom    2 type  3   force =     0.00000000    0.00000000    0.00000000
     atom    3 type  2   force =     0.00000000    0.00000000    0.00000000
     atom    4 type  1   force =     0.00000000    0.00000000    0.00000000
     The SCF correction term to forces
     atom    1 type  3   force =     0.00000000    0.00000000    0.00000000
     atom    2 type  3   force =     0.00000000    0.00000000    0.00000000
     atom    3 type  2   force =     0.00000000    0.00000000    0.00000000
     atom    4 type  1   force =     0.00000000    0.00000000    0.00000000

     Total force =     0.000000     Total SCF correction =     0.000000


     Computing stress (Cartesian axis) and pressure

          total   stress  (Ry/bohr**3)                   (kbar)     P=    5.13
   0.00003607  -0.00000000  -0.00000000          5.31     -0.00     -0.00
  -0.00000000   0.00003607   0.00000001         -0.00      5.31      0.00
  -0.00000000   0.00000001   0.00003253         -0.00      0.00      4.79

     kinetic stress (kbar)  27561.76      0.00     -0.00
                                0.00  27561.76     -0.00
                               -0.00     -0.00  27705.91

     local   stress (kbar)  -9812.48     -0.00     -0.01
                               -0.00  -9812.50      0.03
                               -0.01      0.03  -9450.92

     nonloc. stress (kbar)   1851.99      0.00      0.00
                                0.00   1851.98     -0.00
                                0.00     -0.00   1799.49

     hartree stress (kbar)  44398.86      0.00      0.00
                                0.00  44398.87     -0.01
                                0.00     -0.01  44067.39

     exc-cor stress (kbar) -10908.15      0.00      0.00
                                0.00 -10908.15     -0.00
                                0.00     -0.00 -10909.30

     corecor stress (kbar)   -259.82      0.00      0.00
                                0.00   -259.82      0.00
                                0.00      0.00   -260.08

     ewald   stress (kbar) -52826.86      0.00      0.01
                                0.00 -52826.84     -0.01
                                0.01     -0.01 -52947.71

     hubbard stress (kbar)      0.00      0.00      0.00
                                0.00      0.00      0.00
                                0.00      0.00      0.00

     london  stress (kbar)      0.00      0.00      0.00
                                0.00      0.00      0.00
                                0.00      0.00      0.00

     DFT-D3  stress (kbar)      0.00      0.00      0.00
                                0.00      0.00      0.00
                                0.00      0.00      0.00

     XDM     stress (kbar)      0.00      0.00      0.00
                                0.00      0.00      0.00
                                0.00      0.00      0.00

     dft-nl  stress (kbar)      0.00      0.00      0.00
                                0.00      0.00      0.00
                                0.00      0.00      0.00

     TS-vdW  stress (kbar)      0.00      0.00      0.00
                                0.00      0.00      0.00
                                0.00      0.00      0.00



     Writing output data file ZnO.save/
 
     init_run     :      0.46s CPU      0.75s WALL (       1 calls)
     electrons    :      5.70s CPU      6.17s WALL (       1 calls)
     forces       :      0.16s CPU      0.17s WALL (       1 calls)
     stress       :      0.29s CPU      0.30s WALL (       1 calls)

     Called by init_run:
     wfcinit      :      0.27s CPU      0.41s WALL (       1 calls)
     wfcinit:atom :      0.00s CPU      0.00s WALL (      65 calls)
     wfcinit:wfcr :      0.25s CPU      0.38s WALL (      65 calls)
     potinit      :      0.07s CPU      0.09s WALL (       1 calls)
     hinit0       :      0.10s CPU      0.19s WALL (       1 calls)

     Called by electrons:
     c_bands      :      4.75s CPU      5.14s WALL (       7 calls)
     sum_band     :      0.67s CPU      0.70s WALL (       7 calls)
     v_of_rho     :      0.25s CPU      0.26s WALL (       8 calls)
     v_h          :      0.00s CPU      0.00s WALL (       8 calls)
     v_xc         :      0.31s CPU      0.32s WALL (      10 calls)
     newd         :      0.05s CPU      0.08s WALL (       8 calls)
     mix_rho      :      0.01s CPU      0.02s WALL (       7 calls)

     Called by c_bands:
     init_us_2    :      0.08s CPU      0.09s WALL (    1105 calls)
     cegterg      :      4.39s CPU      4.65s WALL (     455 calls)

     Called by sum_band:
     sum_band:bec :      0.00s CPU      0.01s WALL (     455 calls)
     addusdens    :      0.04s CPU      0.05s WALL (       7 calls)

     Called by *egterg:
     h_psi        :      2.58s CPU      2.69s WALL (    1635 calls)
     s_psi        :      0.10s CPU      0.10s WALL (    1635 calls)
     g_psi        :      0.01s CPU      0.01s WALL (    1115 calls)
     cdiaghg      :      1.24s CPU      1.44s WALL (    1570 calls)
     cegterg:over :      0.33s CPU      0.39s WALL (    1115 calls)
     cegterg:upda :      0.16s CPU      0.17s WALL (    1115 calls)
     cegterg:last :      0.09s CPU      0.09s WALL (     455 calls)
     cdiaghg:chol :      0.06s CPU      0.15s WALL (    1570 calls)
     cdiaghg:inve :      0.02s CPU      0.03s WALL (    1570 calls)
     cdiaghg:para :      0.13s CPU      0.14s WALL (    3140 calls)

     Called by h_psi:
     h_psi:pot    :      2.57s CPU      2.68s WALL (    1635 calls)
     h_psi:calbec :      0.18s CPU      0.19s WALL (    1635 calls)
     vloc_psi     :      2.29s CPU      2.39s WALL (    1635 calls)
     add_vuspsi   :      0.10s CPU      0.10s WALL (    1635 calls)

     General routines
     calbec       :      0.28s CPU      0.29s WALL (    2415 calls)
     fft          :      0.04s CPU      0.07s WALL (     127 calls)
     ffts         :      0.00s CPU      0.00s WALL (      15 calls)
     fftw         :      2.63s CPU      2.72s WALL (   60341 calls)
     interpolate  :      0.00s CPU      0.01s WALL (       8 calls)
 
     Parallel routines
     fft_scatt_xy :      0.37s CPU      0.38s WALL (   60483 calls)
     fft_scatt_yz :      1.46s CPU      1.52s WALL (   60483 calls)
 
     PWSCF        :      7.14s CPU      8.89s WALL

 
   This run was terminated on:  20:11:50  16Jun2022            

=------------------------------------------------------------------------------=
   JOB DONE.
=------------------------------------------------------------------------------=
