
     Program PWSCF v.6.4.1 starts on  8Nov2021 at 19:33: 1 

     This program is part of the open-source Quantum ESPRESSO suite
     for quantum simulation of materials; please cite
         "P. Giannozzi et al., J. Phys.:Condens. Matter 21 395502 (2009);
         "P. Giannozzi et al., J. Phys.:Condens. Matter 29 465901 (2017);
          URL http://www.quantum-espresso.org", 
     in publications or presentations arising from this work. More details at
     http://www.quantum-espresso.org/quote

     Parallel version (MPI), running on   128 processors

     MPI processes distributed on     2 nodes
     K-points division:     npool     =       8
     R & G space division:  proc/nbgrp/npool/nimage =      16
     Waiting for input...
     Reading input from standard input
Warning: card &CELL ignored
Warning: card   CELL_DYNAMICS     = 'BFGS' ignored
Warning: card   PRESS_CONV_THR    = 0.5D0 ignored
Warning: card   CELL_DOFREE = 'ALL' ignored
Warning: card / ignored

     Current dimensions of program PWSCF are:
     Max number of different atomic species (ntypx) = 10
     Max number of k-points (npk) =  40000
     Max angular momentum in pseudopotentials (lmaxx) =  3

     Subspace diagonalization in iterative solution of the eigenvalue problem:
     one sub-group per band group will be used
     scalapack distributed-memory algorithm (size of sub-group:  2*  2 procs)

 
     Parallelization info
     --------------------
     sticks:   dense  smooth     PW     G-vecs:    dense   smooth      PW
     Min         817     390    107                64685    21493    3093
     Max         819     391    108                64687    21495    3096
     Sum       13081    6245   1723              1034981   343899   49525
 


     bravais-lattice index     =            0
     lattice parameter (alat)  =      19.4735  a.u.
     unit-cell volume          =    5482.1528 (a.u.)^3
     number of atoms/cell      =           72
     number of atomic types    =            3
     number of electrons       =       876.00
     number of Kohn-Sham states=          526
     kinetic-energy cutoff     =      60.0000  Ry
     charge density cutoff     =     500.0000  Ry
     convergence threshold     =      1.0E-08
     mixing beta               =       0.5000
     number of iterations used =            8  plain     mixing
     Exchange-correlation      = SLA  PW   PSX  PSC ( 1  4 10  8 0 0)
     Using LIBXC version       =    4   3   4
     nstep                     =          200


     celldm(1)=  19.473450  celldm(2)=   0.000000  celldm(3)=   0.000000
     celldm(4)=   0.000000  celldm(5)=   0.000000  celldm(6)=   0.000000

     crystal axes: (cart. coord. in units of alat)
               a(1) = (   1.000000   0.000006   0.000001 )  
               a(2) = (  -0.499994   0.865986  -0.000032 )  
               a(3) = (  -0.000000  -0.000037   0.857255 )  

     reciprocal axes: (cart. coord. in units 2 pi/alat)
               b(1) = (  0.999997  0.577367  0.000025 )  
               b(2) = ( -0.000007  1.154750  0.000049 )  
               b(3) = ( -0.000001  0.000043  1.166514 )  


     PseudoPot. # 1 for Zn read from file:
     ./GBRV_PBEsol/zn_pbesol_v1.uspp.F.UPF
     MD5 check sum: 7d8615e52efe7c1e2b1899de8658bae2
     Pseudo is Ultrasoft, Zval = 20.0
     Generated by new atomic code, or converted to UPF format
     Using radial grid of  943 points,  6 beta functions with: 
                l(1) =   0
                l(2) =   0
                l(3) =   1
                l(4) =   1
                l(5) =   2
                l(6) =   2
     Q(r) pseudized with  8 coefficients,  rinner =    1.100   1.100   1.100
                                                       1.100   1.100

     PseudoPot. # 2 for O  read from file:
     ./GBRV_PBEsol/o_pbesol_v1.2.uspp.F.UPF
     MD5 check sum: 501638753501ef6325af9037351f7734
     Pseudo is Ultrasoft + core correction, Zval =  6.0
     Generated by new atomic code, or converted to UPF format
     Using radial grid of  737 points,  5 beta functions with: 
                l(1) =   0
                l(2) =   0
                l(3) =   1
                l(4) =   1
                l(5) =   2
     Q(r) pseudized with  8 coefficients,  rinner =    0.900   0.900   0.900
                                                       0.900   0.900

     PseudoPot. # 3 for Mg read from file:
     ./GBRV_PBEsol/mg_pbesol_v1.4.uspp.F.UPF
     MD5 check sum: 4059f37963cf5867752dbf5ab2400678
     Pseudo is Ultrasoft, Zval = 10.0
     Generated by new atomic code, or converted to UPF format
     Using radial grid of  821 points,  7 beta functions with: 
                l(1) =   0
                l(2) =   0
                l(3) =   0
                l(4) =   1
                l(5) =   1
                l(6) =   2
                l(7) =   2
     Q(r) pseudized with  8 coefficients,  rinner =    1.200   1.200   1.200
                                                       1.200   1.200

     atomic species   valence    mass     pseudopotential
        Zn            20.00    65.38000     Zn( 1.00)
        O              6.00    15.99900     O ( 1.00)
        Mg            10.00    24.30500     Mg( 1.00)

     No symmetry found


                                    s                        frac. trans.

      isym =  1     identity                                     

 cryst.   s( 1) = (     1          0          0      )
                  (     0          1          0      )
                  (     0          0          1      )

 cart.    s( 1) = (  1.0000000  0.0000000 -0.0000000 )
                  (  0.0000000  1.0000000 -0.0000000 )
                  ( -0.0000000 -0.0000000  1.0000000 )


   Cartesian axes

     site n.     atom                  positions (alat units)
         1           Mg  tau(   1) = (   0.0001681   0.7698956   0.4327582  )
         2           Mg  tau(   2) = (   0.4996908   0.6724325   0.6440402  )
         3           Mg  tau(   3) = (   0.8329716   0.0963115   0.6459970  )
         4           Mg  tau(   4) = (   0.0008581   0.3849505   0.6473828  )
         5           Mg  tau(   5) = (   0.3326704   0.7685961   0.0032700  )
         6           Mg  tau(   6) = (  -0.3322925   0.7696977   0.0033643  )
         7           O   tau(   7) = (   0.5003590   0.6741748   0.0008700  )
         8           O   tau(   8) = (   0.8332313   0.0957767   0.0013447  )
         9           O   tau(   9) = (   0.0001118   0.3848142   0.0019469  )
        10           O   tau(  10) = (   0.4996306   0.0955147   0.0025102  )
        11           O   tau(  11) = (  -0.1660487   0.6735096   0.0028772  )
        12           O   tau(  12) = (   0.1664264   0.0963167   0.0029549  )
        13           O   tau(  13) = (   0.1660699   0.6733470   0.0030737  )
        14           O   tau(  14) = (   0.6667600   0.3852598   0.0032843  )
        15           O   tau(  15) = (   0.3335240   0.3851687   0.0033788  )
        16           O   tau(  16) = (   0.3335012   0.7698348   0.2148699  )
        17           O   tau(  17) = (  -0.3332110   0.7696821   0.2154121  )
        18           O   tau(  18) = (   0.6665544   0.1923370   0.2170139  )
        19           O   tau(  19) = (  -0.0004133   0.1926168   0.2170972  )
        20           O   tau(  20) = (   0.5000968   0.4812512   0.2171115  )
        21           O   tau(  21) = (   0.1665348   0.4808044   0.2173530  )
        22           O   tau(  22) = (  -0.1663615   0.4808315   0.2173731  )
        23           O   tau(  23) = (   0.3333456   0.1924551   0.2176205  )
        24           O   tau(  24) = (   0.0000635   0.7698888   0.2192474  )
        25           O   tau(  25) = (  -0.1668842   0.6736886   0.4311689  )
        26           O   tau(  26) = (   0.1666812   0.0957450   0.4311976  )
        27           O   tau(  27) = (   0.1672239   0.6737897   0.4311873  )
        28           O   tau(  28) = (   0.5000516   0.6735726   0.4316915  )
        29           O   tau(  29) = (   0.6666664   0.3848138   0.4317466  )
        30           O   tau(  30) = (   0.4998180   0.0963052   0.4317639  )
        31           O   tau(  31) = (   0.3335087   0.3847975   0.4319216  )
        32           O   tau(  32) = (   0.8327493   0.0958508   0.4320721  )
        33           O   tau(  33) = (   0.0002255   0.3853572   0.4327723  )
        34           O   tau(  34) = (   0.0003902   0.7695178   0.6440364  )
        35           O   tau(  35) = (  -0.0004492   0.1925655   0.6446409  )
        36           O   tau(  36) = (  -0.1667422   0.4808023   0.6455231  )
        37           O   tau(  37) = (   0.6665312   0.1926327   0.6458597  )
        38           O   tau(  38) = (   0.4999870   0.4807554   0.6458959  )
        39           O   tau(  39) = (   0.1672890   0.4812794   0.6459824  )
        40           O   tau(  40) = (   0.3326011   0.1925180   0.6462282  )
        41           O   tau(  41) = (  -0.3338624   0.7695642   0.6473007  )
        42           O   tau(  42) = (   0.3341606   0.7700815   0.6473689  )
        43           Zn  tau(  43) = (   0.5001933   0.6732517   0.2148735  )
        44           Zn  tau(  44) = (   0.8331741   0.0968127   0.2154375  )
        45           Zn  tau(  45) = (  -0.0000232   0.3847878   0.2170064  )
        46           Zn  tau(  46) = (   0.4998377   0.0962419   0.2171011  )
        47           Zn  tau(  47) = (  -0.1660476   0.6730315   0.2171040  )
        48           Zn  tau(  48) = (   0.1662209   0.6731832   0.2173459  )
        49           Zn  tau(  49) = (   0.1664415   0.0968717   0.2173874  )
        50           Zn  tau(  50) = (   0.6669589   0.3848423   0.2176137  )
        51           Zn  tau(  51) = (   0.3333665   0.3847779   0.2192617  )
        52           Zn  tau(  52) = (   0.3332040   0.7694078   0.4311657  )
        53           Zn  tau(  53) = (  -0.3329474   0.7694251   0.4311726  )
        54           Zn  tau(  54) = (   0.5003355   0.4805333   0.4311946  )
        55           Zn  tau(  55) = (  -0.0001220   0.1924892   0.4317088  )
        56           Zn  tau(  56) = (   0.6656048   0.1927715   0.4317537  )
        57           Zn  tau(  57) = (   0.1673266   0.4816734   0.4317495  )
        58           Zn  tau(  58) = (  -0.1672644   0.4813416   0.4319178  )
        59           Zn  tau(  59) = (   0.3337029   0.1922944   0.4320682  )
        60           Zn  tau(  60) = (  -0.1675543   0.6732770   0.6446232  )
        61           Zn  tau(  61) = (   0.1686858   0.6732745   0.6455162  )
        62           Zn  tau(  62) = (   0.4997038   0.0974309   0.6458631  )
        63           Zn  tau(  63) = (   0.1658538   0.0962829   0.6459099  )
        64           Zn  tau(  64) = (   0.3339090   0.3850881   0.6462211  )
        65           Zn  tau(  65) = (   0.6658147   0.3848214   0.6473155  )
        66           Zn  tau(  66) = (   0.0000318   0.7685289   0.0008663  )
        67           Zn  tau(  67) = (   0.0002286   0.1922370   0.0013406  )
        68           Zn  tau(  68) = (  -0.1665202   0.4818282   0.0019432  )
        69           Zn  tau(  69) = (   0.6663820   0.1927658   0.0025067  )
        70           Zn  tau(  70) = (   0.1670471   0.4815111   0.0028845  )
        71           Zn  tau(  71) = (   0.4998679   0.4819059   0.0029409  )
        72           Zn  tau(  72) = (   0.3326221   0.1929050   0.0030915  )

   Crystallographic axes

     site n.     atom                  positions (cryst. coord.)
         1           Mg  tau(   1) = (  0.4446916  0.8890579  0.5048513  )
         2           Mg  tau(   2) = (  0.8879459  0.7765196  0.7513101  )
         3           Mg  tau(   3) = (  0.8885922  0.1112420  0.7535677  )
         4           Mg  tau(   4) = (  0.2231322  0.4445533  0.7551974  )
         5           Mg  tau(   5) = (  0.7764316  0.8875340  0.0038471  )
         6           Mg  tau(   6) = (  0.1121069  0.8888104  0.0039577  )
         7           O   tau(   7) = (  0.8896039  0.7784998  0.0010434  )
         8           O   tau(   8) = (  0.8885270  0.1105927  0.0015721  )
         9           O   tau(   9) = (  0.2222910  0.4443642  0.0022876  )
        10           O   tau(  10) = (  0.5547761  0.1102924  0.0029319  )
        11           O   tau(  11) = (  0.2228143  0.7777361  0.0033853  )
        12           O   tau(  12) = (  0.2220360  0.1112207  0.0034509  )
        13           O   tau(  13) = (  0.5548380  0.7775462  0.0036143  )
        14           O   tau(  14) = (  0.8891943  0.4448744  0.0038472  )
        15           O   tau(  15) = (  0.5559068  0.4447714  0.0039577  )
        16           O   tau(  16) = (  0.7779829  0.8889748  0.2506814  )
        17           O   tau(  17) = (  0.1111848  0.8888029  0.2513143  )
        18           O   tau(  18) = (  0.7776068  0.2221074  0.2531574  )
        19           O   tau(  19) = (  0.1108028  0.2224348  0.2532550  )
        20           O   tau(  20) = (  0.7779593  0.5557320  0.2532838  )
        21           O   tau(  21) = (  0.4441405  0.5552183  0.2535657  )
        22           O   tau(  22) = (  0.1112609  0.5552517  0.2535894  )
        23           O   tau(  23) = (  0.4444673  0.2222459  0.2538653  )
        24           O   tau(  24) = (  0.4445776  0.8890396  0.2557880  )
        25           O   tau(  25) = (  0.2220930  0.7779640  0.5029933  )
        26           O   tau(  26) = (  0.2219715  0.1105816  0.5030019  )
        27           O   tau(  27) = (  0.5562583  0.7780785  0.5030146  )
        28           O   tau(  28) = (  0.8889596  0.7778256  0.5036025  )
        29           O   tau(  29) = (  0.8888539  0.4443804  0.5036542  )
        30           O   tau(  30) = (  0.5554306  0.1112264  0.5036622  )
        31           O   tau(  31) = (  0.5556880  0.4443639  0.5038587  )
        32           O   tau(  32) = (  0.8880985  0.1106994  0.5040214  )
        33           O   tau(  33) = (  0.2227290  0.4450124  0.5048513  )
        34           O   tau(  34) = (  0.4447008  0.8886320  0.7513101  )
        35           O   tau(  35) = (  0.1107481  0.2223967  0.7519906  )
        36           O   tau(  36) = (  0.1108741  0.5552391  0.7530322  )
        37           O   tau(  37) = (  0.7777650  0.2224699  0.7534119  )
        38           O   tau(  38) = (  0.7775740  0.5551805  0.7534665  )
        39           O   tau(  39) = (  0.4451796  0.5557878  0.7535677  )
        40           O   tau(  40) = (  0.4437698  0.2223396  0.7538419  )
        41           O   tau(  41) = (  0.1104761  0.8886880  0.7551183  )
        42           O   tau(  42) = (  0.7787956  0.8892809  0.7551974  )
        43           Zn  tau(  43) = (  0.8889106  0.7774444  0.2506814  )
        44           Zn  tau(  44) = (  0.8890733  0.1117996  0.2513143  )
        45           Zn  tau(  45) = (  0.2221462  0.4443443  0.2531574  )
        46           Zn  tau(  46) = (  0.5554084  0.1111427  0.2532551  )
        47           Zn  tau(  47) = (  0.2225448  0.7771945  0.2532838  )
        48           Zn  tau(  48) = (  0.5548997  0.7773676  0.2535657  )
        49           Zn  tau(  49) = (  0.2223770  0.1118722  0.2535894  )
        50           Zn  tau(  50) = (  0.8891575  0.4444028  0.2538653  )
        51           Zn  tau(  51) = (  0.5555290  0.4443307  0.2557880  )
        52           Zn  tau(  52) = (  0.7774446  0.8884923  0.5029933  )
        53           Zn  tau(  53) = (  0.1113053  0.8885167  0.5030019  )
        54           Zn  tau(  54) = (  0.7777889  0.5549136  0.5030146  )
        55           Zn  tau(  55) = (  0.1110258  0.2222980  0.5036025  )
        56           Zn  tau(  56) = (  0.7769134  0.2226197  0.5036543  )
        57           Zn  tau(  57) = (  0.4454394  0.5562323  0.5036621  )
        58           Zn  tau(  58) = (  0.1106578  0.5558513  0.5038587  )
        59           Zn  tau(  59) = (  0.4447372  0.2220710  0.5040213  )
        60           Zn  tau(  60) = (  0.2211906  0.7774992  0.7519906  )
        61           Zn  tau(  61) = (  0.5574281  0.7774941  0.7530321  )
        62           Zn  tau(  62) = (  0.5559718  0.1125368  0.7534118  )
        63           Zn  tau(  63) = (  0.2214601  0.1112133  0.7534666  )
        64           Zn  tau(  64) = (  0.5562614  0.4447099  0.7538419  )
        65           Zn  tau(  65) = (  0.8880121  0.4443998  0.7551182  )
        66           Zn  tau(  66) = (  0.4437552  0.8874585  0.0010435  )
        67           Zn  tau(  67) = (  0.1112200  0.2219857  0.0015721  )
        68           Zn  tau(  68) = (  0.1116723  0.5563921  0.0022876  )
        69           Zn  tau(  69) = (  0.7776765  0.2225920  0.0029318  )
        70           Zn  tau(  70) = (  0.4450554  0.5560238  0.0033853  )
        71           Zn  tau(  71) = (  0.7781031  0.5564775  0.0034509  )
        72           Zn  tau(  72) = (  0.4439981  0.2227549  0.0036143  )

     number of k points=    36  Marzari-Vanderbilt smearing, width (Ry)=  0.0010
                       cart. coord. in units 2pi/alat
        k(    1) = (   0.0000000   0.0000000   0.0000000), wk =   0.0312500
        k(    2) = (  -0.0000002   0.0000107   0.2916284), wk =   0.0625000
        k(    3) = (   0.0000004  -0.0000214  -0.5832568), wk =   0.0312500
        k(    4) = (  -0.0000016   0.2886874   0.0000123), wk =   0.0625000
        k(    5) = (  -0.0000018   0.2886981   0.2916407), wk =   0.0625000
        k(    6) = (  -0.0000013   0.2886660  -0.5832445), wk =   0.0625000
        k(    7) = (  -0.0000015   0.2886767  -0.2916161), wk =   0.0625000
        k(    8) = (   0.0000033  -0.5773748  -0.0000246), wk =   0.0312500
        k(    9) = (   0.0000031  -0.5773641   0.2916038), wk =   0.0625000
        k(   10) = (   0.0000037  -0.5773962  -0.5832814), wk =   0.0312500
        k(   11) = (   0.2499992   0.1443418   0.0000063), wk =   0.0625000
        k(   12) = (   0.2499990   0.1443525   0.2916347), wk =   0.0625000
        k(   13) = (   0.2499996   0.1443204  -0.5832505), wk =   0.0625000
        k(   14) = (   0.2499994   0.1443311  -0.2916221), wk =   0.0625000
        k(   15) = (   0.2499975   0.4330292   0.0000186), wk =   0.0625000
        k(   16) = (   0.2499974   0.4330399   0.2916470), wk =   0.0625000
        k(   17) = (   0.2499979   0.4330078  -0.5832382), wk =   0.0625000
        k(   18) = (   0.2499977   0.4330185  -0.2916098), wk =   0.0625000
        k(   19) = (   0.2500025  -0.4330330  -0.0000183), wk =   0.0625000
        k(   20) = (   0.2500023  -0.4330222   0.2916101), wk =   0.0625000
        k(   21) = (   0.2500028  -0.4330544  -0.5832751), wk =   0.0625000
        k(   22) = (   0.2500026  -0.4330437  -0.2916467), wk =   0.0625000
        k(   23) = (   0.2500008  -0.1443456  -0.0000060), wk =   0.0625000
        k(   24) = (   0.2500006  -0.1443348   0.2916224), wk =   0.0625000
        k(   25) = (   0.2500012  -0.1443670  -0.5832628), wk =   0.0625000
        k(   26) = (   0.2500010  -0.1443563  -0.2916344), wk =   0.0625000
        k(   27) = (  -0.4999984  -0.2886837  -0.0000125), wk =   0.0312500
        k(   28) = (  -0.4999985  -0.2886729   0.2916158), wk =   0.0625000
        k(   29) = (  -0.4999980  -0.2887051  -0.5832693), wk =   0.0312500
        k(   30) = (  -0.5000000   0.0000037  -0.0000002), wk =   0.0625000
        k(   31) = (  -0.5000002   0.0000145   0.2916281), wk =   0.0625000
        k(   32) = (  -0.4999996  -0.0000177  -0.5832570), wk =   0.0625000
        k(   33) = (  -0.4999998  -0.0000070  -0.2916286), wk =   0.0625000
        k(   34) = (  -0.4999951  -0.8660584  -0.0000371), wk =   0.0312500
        k(   35) = (  -0.4999953  -0.8660477   0.2915912), wk =   0.0625000
        k(   36) = (  -0.4999947  -0.8660799  -0.5832939), wk =   0.0312500

                       cryst. coord.
        k(    1) = (   0.0000000   0.0000000   0.0000000), wk =   0.0312500
        k(    2) = (  -0.0000000  -0.0000000   0.2500000), wk =   0.0625000
        k(    3) = (   0.0000000   0.0000000  -0.5000000), wk =   0.0312500
        k(    4) = (   0.0000000   0.2500000  -0.0000000), wk =   0.0625000
        k(    5) = (   0.0000000   0.2500000   0.2500000), wk =   0.0625000
        k(    6) = (   0.0000000   0.2500000  -0.5000000), wk =   0.0625000
        k(    7) = (   0.0000000   0.2500000  -0.2500000), wk =   0.0625000
        k(    8) = (  -0.0000000  -0.5000000   0.0000000), wk =   0.0312500
        k(    9) = (  -0.0000000  -0.5000000   0.2500000), wk =   0.0625000
        k(   10) = (  -0.0000000  -0.5000000  -0.5000000), wk =   0.0312500
        k(   11) = (   0.2500000   0.0000000  -0.0000000), wk =   0.0625000
        k(   12) = (   0.2500000   0.0000000   0.2500000), wk =   0.0625000
        k(   13) = (   0.2500000   0.0000000  -0.5000000), wk =   0.0625000
        k(   14) = (   0.2500000  -0.0000000  -0.2500000), wk =   0.0625000
        k(   15) = (   0.2500000   0.2500000  -0.0000000), wk =   0.0625000
        k(   16) = (   0.2500000   0.2500000   0.2500000), wk =   0.0625000
        k(   17) = (   0.2500000   0.2500000  -0.5000000), wk =   0.0625000
        k(   18) = (   0.2500000   0.2500000  -0.2500000), wk =   0.0625000
        k(   19) = (   0.2500000  -0.5000000  -0.0000000), wk =   0.0625000
        k(   20) = (   0.2500000  -0.5000000   0.2500000), wk =   0.0625000
        k(   21) = (   0.2500000  -0.5000000  -0.5000000), wk =   0.0625000
        k(   22) = (   0.2500000  -0.5000000  -0.2500000), wk =   0.0625000
        k(   23) = (   0.2500000  -0.2500000  -0.0000000), wk =   0.0625000
        k(   24) = (   0.2500000  -0.2500000   0.2500000), wk =   0.0625000
        k(   25) = (   0.2500000  -0.2500000  -0.5000000), wk =   0.0625000
        k(   26) = (   0.2500000  -0.2500000  -0.2500000), wk =   0.0625000
        k(   27) = (  -0.5000000  -0.0000000   0.0000000), wk =   0.0312500
        k(   28) = (  -0.5000000  -0.0000000   0.2500000), wk =   0.0625000
        k(   29) = (  -0.5000000  -0.0000000  -0.5000000), wk =   0.0312500
        k(   30) = (  -0.5000000   0.2500000   0.0000000), wk =   0.0625000
        k(   31) = (  -0.5000000   0.2500000   0.2500000), wk =   0.0625000
        k(   32) = (  -0.5000000   0.2500000  -0.5000000), wk =   0.0625000
        k(   33) = (  -0.5000000   0.2500000  -0.2500000), wk =   0.0625000
        k(   34) = (  -0.5000000  -0.5000000   0.0000000), wk =   0.0312500
        k(   35) = (  -0.5000000  -0.5000000   0.2500000), wk =   0.0625000
        k(   36) = (  -0.5000000  -0.5000000  -0.5000000), wk =   0.0312500

     Dense  grid:  1034981 G-vectors     FFT dimensions: ( 144, 144, 120)

     Smooth grid:   343899 G-vectors     FFT dimensions: ( 100, 100,  90)

     Dynamical RAM for                 wfc:      21.58 MB

     Dynamical RAM for     wfc (w. buffer):     129.49 MB

     Dynamical RAM for           str. fact:       2.96 MB

     Dynamical RAM for           local pot:       0.00 MB

     Dynamical RAM for          nlocal pot:      46.04 MB

     Dynamical RAM for                qrad:      22.22 MB

     Dynamical RAM for          rho,v,vnew:       6.76 MB

     Dynamical RAM for               rhoin:       2.25 MB

     Dynamical RAM for            rho*nmix:      15.79 MB

     Dynamical RAM for           G-vectors:       3.87 MB

     Dynamical RAM for          h,s,v(r/c):      50.66 MB

     Dynamical RAM for          <psi|beta>:       9.01 MB

     Dynamical RAM for                 psi:      86.33 MB

     Dynamical RAM for                hpsi:      86.33 MB

     Dynamical RAM for                spsi:      86.33 MB

     Dynamical RAM for      wfcinit/wfcrot:      53.57 MB

     Dynamical RAM for           addusdens:      30.60 MB

     Dynamical RAM for          addusforce:      52.50 MB

     Dynamical RAM for         addusstress:      27.57 MB

     Estimated static dynamical RAM per process >     239.65 MB

     Estimated max dynamical RAM per process >     558.31 MB

     Estimated total dynamical RAM >      69.79 GB

     Check: negative core charge=   -0.000002

     Initial potential from superposition of free atoms

     starting charge  874.19467, renormalised to  876.00000
     Starting wfcs are  564 randomized atomic wfcs

     total cpu time spent up to now is       17.2 secs

     Self-consistent Calculation

     iteration #  1     ecut=    60.00 Ry     beta= 0.50
     Davidson diagonalization with overlap
     ethr =  1.00E-02,  avg # of iterations =  4.8

     total cpu time spent up to now is       86.8 secs

     total energy              =  -15745.15839088 Ry
     Harris-Foulkes estimate   =  -15756.05261232 Ry
     estimated scf accuracy    <      16.65709650 Ry

     iteration #  2     ecut=    60.00 Ry     beta= 0.50
     Davidson diagonalization with overlap
     ethr =  1.90E-03,  avg # of iterations =  4.0

     total cpu time spent up to now is      179.0 secs

     total energy              =  -15749.92487793 Ry
     Harris-Foulkes estimate   =  -15753.52970216 Ry
     estimated scf accuracy    <       8.20959240 Ry

     iteration #  3     ecut=    60.00 Ry     beta= 0.50
     Davidson diagonalization with overlap
     ethr =  9.37E-04,  avg # of iterations =  3.3

     total cpu time spent up to now is      246.8 secs

     total energy              =  -15751.43695212 Ry
     Harris-Foulkes estimate   =  -15751.52199034 Ry
     estimated scf accuracy    <       0.21078026 Ry

     iteration #  4     ecut=    60.00 Ry     beta= 0.50
     Davidson diagonalization with overlap
     ethr =  2.41E-05,  avg # of iterations =  5.4

     total cpu time spent up to now is      343.7 secs

     total energy              =  -15751.46122832 Ry
     Harris-Foulkes estimate   =  -15751.49722816 Ry
     estimated scf accuracy    <       0.10463362 Ry

     iteration #  5     ecut=    60.00 Ry     beta= 0.50
     Davidson diagonalization with overlap
     ethr =  1.19E-05,  avg # of iterations =  5.4

     total cpu time spent up to now is      427.2 secs

     total energy              =  -15751.47584855 Ry
     Harris-Foulkes estimate   =  -15751.47730387 Ry
     estimated scf accuracy    <       0.00450236 Ry

     iteration #  6     ecut=    60.00 Ry     beta= 0.50
     Davidson diagonalization with overlap
     ethr =  5.14E-07,  avg # of iterations =  2.4

     total cpu time spent up to now is      491.6 secs

     total energy              =  -15751.47663243 Ry
     Harris-Foulkes estimate   =  -15751.47689409 Ry
     estimated scf accuracy    <       0.00069174 Ry

     iteration #  7     ecut=    60.00 Ry     beta= 0.50
     Davidson diagonalization with overlap
     ethr =  7.90E-08,  avg # of iterations =  2.0

     total cpu time spent up to now is      537.0 secs

     total energy              =  -15751.47677733 Ry
     Harris-Foulkes estimate   =  -15751.47680548 Ry
     estimated scf accuracy    <       0.00012552 Ry

     iteration #  8     ecut=    60.00 Ry     beta= 0.50
     Davidson diagonalization with overlap
     ethr =  1.43E-08,  avg # of iterations =  2.0

     total cpu time spent up to now is      581.8 secs

     total energy              =  -15751.47680298 Ry
     Harris-Foulkes estimate   =  -15751.47680202 Ry
     estimated scf accuracy    <       0.00001802 Ry

     iteration #  9     ecut=    60.00 Ry     beta= 0.50
     Davidson diagonalization with overlap
     ethr =  2.06E-09,  avg # of iterations =  2.0

     total cpu time spent up to now is      635.5 secs

     total energy              =  -15751.47680615 Ry
     Harris-Foulkes estimate   =  -15751.47680693 Ry
     estimated scf accuracy    <       0.00000312 Ry

     iteration # 10     ecut=    60.00 Ry     beta= 0.50
     Davidson diagonalization with overlap
     ethr =  3.56E-10,  avg # of iterations =  2.0

     total cpu time spent up to now is      680.3 secs

     total energy              =  -15751.47680667 Ry
     Harris-Foulkes estimate   =  -15751.47680676 Ry
     estimated scf accuracy    <       0.00000046 Ry

     iteration # 11     ecut=    60.00 Ry     beta= 0.50
     Davidson diagonalization with overlap
     ethr =  5.20E-11,  avg # of iterations =  2.0

     total cpu time spent up to now is      725.2 secs

     total energy              =  -15751.47680676 Ry
     Harris-Foulkes estimate   =  -15751.47680676 Ry
     estimated scf accuracy    <       0.00000004 Ry

     iteration # 12     ecut=    60.00 Ry     beta= 0.50
     Davidson diagonalization with overlap
     ethr =  4.38E-12,  avg # of iterations =  2.0

     total cpu time spent up to now is      778.1 secs

     End of self-consistent calculation

          k = 0.0000 0.0000 0.0000 ( 43057 PWs)   bands (ev):

  -114.2335-114.2214-114.2186-114.2166-114.2131-114.2128-114.2120-114.2068
  -114.2044-114.2042-114.2037-114.2031-114.1981-114.1964-114.1918-114.1908
  -114.1877-114.1875-114.1872-114.1867-114.1815-114.1779-114.1764-114.1764
  -114.1754-114.1673-114.1665-114.1592-114.1487-114.1461 -68.5987 -68.5914
   -68.5899 -68.5884 -68.5856 -68.5834 -68.5811 -68.5789 -68.5786 -68.5784
   -68.5767 -68.5754 -68.5751 -68.5731 -68.5730 -68.5709 -68.5705 -68.5701
   -68.5692 -68.5691 -68.5687 -68.5679 -68.5673 -68.5672 -68.5661 -68.5654
   -68.5650 -68.5643 -68.5631 -68.5625 -68.5616 -68.5614 -68.5610 -68.5607
   -68.5590 -68.5587 -68.5584 -68.5579 -68.5578 -68.5575 -68.5556 -68.5548
   -68.5539 -68.5535 -68.5531 -68.5524 -68.5493 -68.5490 -68.5483 -68.5476
   -68.5475 -68.5473 -68.5471 -68.5458 -68.5448 -68.5444 -68.5443 -68.5443
   -68.5438 -68.5431 -68.5428 -68.5424 -68.5420 -68.5412 -68.5381 -68.5379
   -68.5370 -68.5349 -68.5347 -68.5342 -68.5335 -68.5332 -68.5329 -68.5323
   -68.5320 -68.5296 -68.5293 -68.5282 -68.5246 -68.5231 -68.5207 -68.5178
   -68.5175 -68.5160 -68.5149 -68.5119 -68.5051 -68.5030 -68.5017 -68.4977
   -63.8224 -63.8154 -63.8010 -63.7956 -63.7913 -63.7818 -30.8090 -30.8049
   -30.8025 -30.8021 -30.7968 -30.7950 -30.7930 -30.7915 -30.7866 -30.7841
   -30.7766 -30.7753 -30.7729 -30.7690 -30.7673 -30.7649 -30.7597 -30.7578
    -9.1133  -8.6576  -8.6350  -8.6260  -8.5989  -8.5817  -8.5723  -8.4611
    -8.4413  -8.2364  -8.2295  -8.2218  -8.2098  -8.1948  -8.1847  -8.1802
    -8.1645  -8.1538  -8.1506  -8.1464  -8.1337  -8.1305  -8.1087  -8.0909
    -8.0509  -8.0067  -7.9876  -7.9552  -7.9394  -7.8599  -7.8551  -7.8344
    -7.8090  -7.7641  -7.7428  -7.6667   2.5836   2.5896   2.6007   2.6149
     2.6395   2.6489   2.6849   2.6915   2.7343   2.7474   2.7598   2.7659
     2.8283   2.8781   2.9254   2.9438   2.9560   2.9812   3.0165   3.0475
     3.0544   3.0573   3.0961   3.1248   3.1472   3.1574   3.2354   3.2496
     3.3186   3.3291   3.3564   3.3674   3.4006   3.4095   3.4201   3.4275
     3.4282   3.4289   3.4409   3.4551   3.4669   3.4753   3.4822   3.4859
     3.4879   3.4921   3.4971   3.5004   3.5058   3.5088   3.5178   3.5229
     3.5286   3.5574   3.5652   3.5819   3.5978   3.6010   3.6065   3.6081
     3.6124   3.6133   3.6285   3.6334   3.6569   3.6646   3.6706   3.6914
     3.7049   3.7230   3.7437   3.7604   3.7755   3.7925   3.8181   3.8225
     3.8299   3.8503   3.8696   3.8858   3.8963   3.9170   3.9190   3.9311
     3.9396   3.9517   3.9593   3.9882   4.0015   4.0244   4.0280   4.0406
     4.0588   4.0650   4.0761   4.0916   4.1001   4.1125   4.1168   4.1424
     4.1805   4.1903   4.2165   4.2412   4.2518   4.2593   4.2694   4.2770
     4.2839   4.2941   4.3204   4.3418   4.3495   4.3655   4.3959   4.4193
     4.4442   4.4556   4.4623   4.4829   4.5052   4.5098   4.5267   4.5332
     4.5427   4.5611   4.5734   4.5803   4.5826   4.5890   4.6027   4.6057
     4.6127   4.6299   4.6329   4.6520   4.6624   4.6646   4.6768   4.6828
     4.6968   4.6978   4.7114   4.7160   4.7460   4.7503   4.7656   4.7754
     4.7767   4.8013   4.8176   4.8352   4.9626   5.1292   5.2289   5.2434
     5.2738   5.3114   5.3531   5.3974   5.4102   5.4590   5.4619   5.4759
     5.5090   5.5671   5.6042   5.6397   5.6488   5.6632   5.6863   5.7142
     5.7245   5.7465   5.7649   5.7856   5.7984   5.8014   5.8088   5.8241
     5.8400   5.8502   5.8577   5.8716   5.8893   5.9209   5.9309   5.9519
     6.0166   6.2233   6.2369   6.2765   6.3717   6.4187   6.4478   6.5187
     6.5759   6.5794   6.5976   6.5989   6.6164   6.6453   6.6617   6.6810
     6.7570   6.7768   6.7942   6.8034   6.8254   7.1468   7.1702   7.2032
     7.2449   7.2575   7.2741   7.3236   7.3374   7.3451   7.3544   7.3655
     7.4053   7.5240   7.5328   7.5543   7.5859   7.6034   7.6240   7.6979
     7.7489   7.7745   7.8334   7.8577   7.8942   7.9068   7.9224   7.9377
     7.9896   8.0275   8.0424   8.0799   8.1728   8.2436   8.2683   8.2957
     8.3096   8.3185   8.4741   8.4911   8.5035   8.5105   8.5135   8.5185
     8.6507   8.6609   8.7745   8.8499   8.8523   8.9083  10.0451  13.2065
    13.2668  13.2774  13.3171  13.3529  13.4106  13.4390  13.6071  14.1285
    14.5208  14.5265  14.5465  14.5707  14.5779  14.5867  14.6000  14.6103
    14.6479  14.6814  14.7405  14.7830  15.6658  15.6883  15.8378  15.9849
    16.0124  16.1515  16.3708  16.4025  16.4055  16.4967  16.5833  16.6662
    16.9533  16.9723  16.9881  16.9922  17.0091  17.0745  17.0964  17.1337
    17.1821  17.1942  17.2544  17.2595  17.2935  17.3520  17.8589  17.8657
    17.8812  17.8831  17.8862  17.8887  17.8955  17.9037  17.9074  17.9136
    18.2805  18.3997  18.4334  18.4797  18.4924  18.5879  18.6348  18.7403
    18.8885  18.9878  19.0725  19.4843  19.5667  19.5764  19.7206  20.1529
    20.1596  20.2412  20.2440  20.2887  20.3128  20.3283  20.3443  20.3446
    20.3542  20.3862  20.4021  20.4129  20.4184  20.4637

     occupation numbers 
     1.0000   1.0000   1.0000   1.0000   1.0000   1.0000   1.0000   1.0000
     1.0000   1.0000   1.0000   1.0000   1.0000   1.0000   1.0000   1.0000
     1.0000   1.0000   1.0000   1.0000   1.0000   1.0000   1.0000   1.0000
     1.0000   1.0000   1.0000   1.0000   1.0000   1.0000   1.0000   1.0000
     1.0000   1.0000   1.0000   1.0000   1.0000   1.0000   1.0000   1.0000
     1.0000   1.0000   1.0000   1.0000   1.0000   1.0000   1.0000   1.0000
     1.0000   1.0000   1.0000   1.0000   1.0000   1.0000   1.0000   1.0000
     1.0000   1.0000   1.0000   1.0000   1.0000   1.0000   1.0000   1.0000
     1.0000   1.0000   1.0000   1.0000   1.0000   1.0000   1.0000   1.0000
     1.0000   1.0000   1.0000   1.0000   1.0000   1.0000   1.0000   1.0000
     1.0000   1.0000   1.0000   1.0000   1.0000   1.0000   1.0000   1.0000
     1.0000   1.0000   1.0000   1.0000   1.0000   1.0000   1.0000   1.0000
     1.0000   1.0000   1.0000   1.0000   1.0000   1.0000   1.0000   1.0000
     1.0000   1.0000   1.0000   1.0000   1.0000   1.0000   1.0000   1.0000
     1.0000   1.0000   1.0000   1.0000   1.0000   1.0000   1.0000   1.0000
     1.0000   1.0000   1.0000   1.0000   1.0000   1.0000   1.0000   1.0000
     1.0000   1.0000   1.0000   1.0000   1.0000   1.0000   1.0000   1.0000
     1.0000   1.0000   1.0000   1.0000   1.0000   1.0000   1.0000   1.0000
     1.0000   1.0000   1.0000   1.0000   1.0000   1.0000   1.0000   1.0000
     1.0000   1.0000   1.0000   1.0000   1.0000   1.0000   1.0000   1.0000
     1.0000   1.0000   1.0000   1.0000   1.0000   1.0000   1.0000   1.0000
     1.0000   1.0000   1.0000   1.0000   1.0000   1.0000   1.0000   1.0000
     1.0000   1.0000   1.0000   1.0000   1.0000   1.0000   1.0000   1.0000
     1.0000   1.0000   1.0000   1.0000   1.0000   1.0000   1.0000   1.0000
     1.0000   1.0000   1.0000   1.0000   1.0000   1.0000   1.0000   1.0000
     1.0000   1.0000   1.0000   1.0000   1.0000   1.0000   1.0000   1.0000
     1.0000   1.0000   1.0000   1.0000   1.0000   1.0000   1.0000   1.0000
     1.0000   1.0000   1.0000   1.0000   1.0000   1.0000   1.0000   1.0000
     1.0000   1.0000   1.0000   1.0000   1.0000   1.0000   1.0000   1.0000
     1.0000   1.0000   1.0000   1.0000   1.0000   1.0000   1.0000   1.0000
     1.0000   1.0000   1.0000   1.0000   1.0000   1.0000   1.0000   1.0000
     1.0000   1.0000   1.0000   1.0000   1.0000   1.0000   1.0000   1.0000
     1.0000   1.0000   1.0000   1.0000   1.0000   1.0000   1.0000   1.0000
     1.0000   1.0000   1.0000   1.0000   1.0000   1.0000   1.0000   1.0000
     1.0000   1.0000   1.0000   1.0000   1.0000   1.0000   1.0000   1.0000
     1.0000   1.0000   1.0000   1.0000   1.0000   1.0000   1.0000   1.0000
     1.0000   1.0000   1.0000   1.0000   1.0000   1.0000   1.0000   1.0000
     1.0000   1.0000   1.0000   1.0000   1.0000   1.0000   1.0000   1.0000
     1.0000   1.0000   1.0000   1.0000   1.0000   1.0000   1.0000   1.0000
     1.0000   1.0000   1.0000   1.0000   1.0000   1.0000   1.0000   1.0000
     1.0000   1.0000   1.0000   1.0000   1.0000   1.0000   1.0000   1.0000
     1.0000   1.0000   1.0000   1.0000   1.0000   1.0000   1.0000   1.0000
     1.0000   1.0000   1.0000   1.0000   1.0000   1.0000   1.0000   1.0000
     1.0000   1.0000   1.0000   1.0000   1.0000   1.0000   1.0000   1.0000
     1.0000   1.0000   1.0000   1.0000   1.0000   1.0000   1.0000   1.0000
     1.0000   1.0000   1.0000   1.0000   1.0000   1.0000   1.0000   1.0000
     1.0000   1.0000   1.0000   1.0000   1.0000   1.0000   1.0000   1.0000
     1.0000   1.0000   1.0000   1.0000   1.0000   1.0000   1.0000   1.0000
     1.0000   1.0000   1.0000   1.0000   1.0000   1.0000   1.0000   1.0000
     1.0000   1.0000   1.0000   1.0000   1.0000   1.0000   1.0000   1.0000
     1.0000   1.0000   1.0000   1.0000   1.0000   1.0000   1.0000   1.0000
     1.0000   1.0000   1.0000   1.0000   1.0000   1.0000   1.0000   1.0000
     1.0000   1.0000   1.0000   1.0000   1.0000   1.0000   1.0000   1.0000
     1.0000   1.0000   1.0000   1.0000   1.0000   1.0000   1.0000   1.0000
     1.0000   1.0000   1.0000   1.0000   1.0000   1.0000   0.0000   0.0000
     0.0000   0.0000   0.0000   0.0000   0.0000   0.0000   0.0000   0.0000
     0.0000   0.0000   0.0000   0.0000   0.0000   0.0000   0.0000   0.0000
     0.0000   0.0000   0.0000   0.0000   0.0000   0.0000   0.0000   0.0000
     0.0000   0.0000   0.0000   0.0000   0.0000   0.0000   0.0000   0.0000
     0.0000   0.0000   0.0000   0.0000   0.0000   0.0000   0.0000   0.0000
     0.0000   0.0000   0.0000   0.0000   0.0000   0.0000   0.0000   0.0000
     0.0000   0.0000   0.0000   0.0000   0.0000   0.0000   0.0000   0.0000
     0.0000   0.0000   0.0000   0.0000   0.0000   0.0000   0.0000   0.0000
     0.0000   0.0000   0.0000   0.0000   0.0000   0.0000   0.0000   0.0000
     0.0000   0.0000   0.0000   0.0000   0.0000   0.0000   0.0000   0.0000
     0.0000   0.0000   0.0000   0.0000   0.0000   0.0000

          k =-0.0000 0.0000 0.2916 ( 42971 PWs)   bands (ev):

  -114.2335-114.2214-114.2186-114.2166-114.2131-114.2128-114.2120-114.2068
  -114.2044-114.2042-114.2037-114.2031-114.1981-114.1964-114.1918-114.1908
  -114.1877-114.1875-114.1872-114.1867-114.1815-114.1779-114.1764-114.1764
  -114.1754-114.1673-114.1665-114.1592-114.1487-114.1461 -68.5987 -68.5914
   -68.5899 -68.5884 -68.5856 -68.5834 -68.5811 -68.5789 -68.5786 -68.5784
   -68.5767 -68.5754 -68.5751 -68.5731 -68.5730 -68.5709 -68.5705 -68.5701
   -68.5692 -68.5691 -68.5687 -68.5679 -68.5673 -68.5672 -68.5661 -68.5654
   -68.5650 -68.5643 -68.5631 -68.5625 -68.5616 -68.5614 -68.5610 -68.5607
   -68.5590 -68.5587 -68.5584 -68.5579 -68.5578 -68.5575 -68.5556 -68.5547
   -68.5540 -68.5535 -68.5531 -68.5524 -68.5493 -68.5490 -68.5483 -68.5476
   -68.5475 -68.5473 -68.5471 -68.5458 -68.5448 -68.5444 -68.5443 -68.5443
   -68.5438 -68.5431 -68.5428 -68.5424 -68.5420 -68.5412 -68.5381 -68.5379
   -68.5370 -68.5349 -68.5347 -68.5342 -68.5335 -68.5332 -68.5329 -68.5323
   -68.5320 -68.5296 -68.5293 -68.5282 -68.5246 -68.5231 -68.5207 -68.5178
   -68.5175 -68.5160 -68.5149 -68.5119 -68.5051 -68.5030 -68.5017 -68.4977
   -63.8224 -63.8154 -63.8010 -63.7956 -63.7913 -63.7818 -30.8090 -30.8049
   -30.8025 -30.8021 -30.7968 -30.7950 -30.7930 -30.7915 -30.7866 -30.7841
   -30.7766 -30.7753 -30.7729 -30.7690 -30.7673 -30.7649 -30.7597 -30.7578
    -9.0665  -8.7151  -8.6213  -8.6024  -8.5916  -8.5592  -8.5469  -8.5339
    -8.3759  -8.3514  -8.3382  -8.3123  -8.2891  -8.2694  -8.2061  -8.1495
    -8.1441  -8.1190  -8.1099  -8.0860  -8.0767  -8.0537  -8.0393  -8.0248
    -8.0105  -7.9942  -7.9770  -7.9546  -7.9374  -7.8777  -7.8721  -7.8496
    -7.8335  -7.7752  -7.7535  -7.6779   2.6147   2.6206   2.6572   2.6737
     2.6994   2.7310   2.7651   2.7864   2.8129   2.8251   2.8452   2.8726
     2.8979   2.9042   2.9338   2.9457   2.9769   2.9976   3.0276   3.0529
     3.0577   3.0738   3.0941   3.1251   3.1479   3.1602   3.2290   3.2414
     3.2846   3.2899   3.2981   3.3436   3.3558   3.3619   3.3856   3.3985
     3.4147   3.4366   3.4426   3.4569   3.4753   3.4773   3.4838   3.4892
     3.4976   3.4994   3.5077   3.5106   3.5141   3.5246   3.5287   3.5383
     3.5416   3.5524   3.5569   3.5664   3.5704   3.5782   3.5911   3.6011
     3.6053   3.6064   3.6122   3.6155   3.6284   3.6376   3.6484   3.6590
     3.6684   3.6765   3.6970   3.7016   3.7254   3.7336   3.7530   3.7654
     3.7747   3.7847   3.8054   3.8121   3.8264   3.8443   3.8483   3.8826
     3.9037   3.9159   3.9332   3.9461   3.9659   3.9762   3.9878   4.0048
     4.0188   4.0496   4.0647   4.0733   4.0929   4.1022   4.1454   4.1551
     4.1863   4.2134   4.2379   4.2509   4.2670   4.2775   4.2875   4.2923
     4.2941   4.3067   4.3367   4.3424   4.3551   4.3719   4.3908   4.4224
     4.4452   4.4542   4.4582   4.4776   4.4856   4.4969   4.5044   4.5120
     4.5319   4.5453   4.5559   4.5705   4.5925   4.5989   4.6099   4.6207
     4.6285   4.6396   4.6444   4.6471   4.6555   4.6637   4.6719   4.6816
     4.6949   4.7094   4.7277   4.7460   4.7572   4.7757   4.7773   4.7844
     4.7950   4.7998   4.8111   4.8226   5.0813   5.1190   5.2064   5.2332
     5.2476   5.2647   5.2910   5.3212   5.3555   5.3711   5.4160   5.4402
     5.4589   5.4826   5.5083   5.5175   5.5332   5.5424   5.5644   5.5909
     5.6404   5.6543   5.6767   5.7159   5.7462   5.7869   5.8293   5.8496
     5.8794   5.9722   6.0158   6.0292   6.0664   6.0807   6.1637   6.1848
     6.2462   6.2715   6.3081   6.3600   6.4015   6.4400   6.4471   6.4995
     6.5416   6.5507   6.5641   6.5969   6.6187   6.6467   6.7017   6.7240
     6.8736   6.9570   6.9855   7.0170   7.0591   7.0818   7.1008   7.1437
     7.1710   7.2228   7.2373   7.4046   7.4381   7.4820   7.5251   7.5391
     7.5594   7.5924   7.6210   7.6462   7.6912   7.7105   7.7240   7.7634
     7.7985   7.8112   7.8232   7.8506   7.8740   7.8796   7.8919   7.9021
     7.9119   7.9224   7.9474   7.9652   7.9930   7.9969   8.1440   8.1524
     8.3303   8.3500   8.4128   8.4227   8.4629   8.5060   8.6109   8.6209
     8.6287   8.6525   8.6642   8.6778   8.6854   8.6982  10.4943  12.4513
    13.3139  13.3243  13.3819  13.4236  13.4629  13.4767  13.8815  13.9159
    13.9347  13.9786  14.0279  14.0842  14.1878  14.4112  15.2211  15.2342
    15.2634  15.2842  15.3216  15.3254  15.7388  15.7564  15.8889  16.0318
    16.0582  16.1678  16.4079  16.4323  16.4465  16.5216  16.5810  16.6511
    16.7352  16.7378  16.8989  16.9566  16.9637  17.0256  17.0594  17.1488
    17.1797  17.2107  17.2818  17.3145  17.3266  17.3431  17.5273  17.6147
    17.6563  17.7406  17.7569  17.8002  17.9277  17.9511  17.9548  18.0225
    18.0380  18.0672  18.1482  18.2327  18.2609  18.3060  18.3300  18.3753
    18.7843  18.8903  19.0845  19.4949  19.5213  19.6147  19.7203  19.8302
    20.0681  20.0760  20.1570  20.1830  20.2117  20.2206  20.2548  20.2889
    20.3784  20.3806  20.4686  20.5518  20.6137  20.6987

     occupation numbers 
     1.0000   1.0000   1.0000   1.0000   1.0000   1.0000   1.0000   1.0000
     1.0000   1.0000   1.0000   1.0000   1.0000   1.0000   1.0000   1.0000
     1.0000   1.0000   1.0000   1.0000   1.0000   1.0000   1.0000   1.0000
     1.0000   1.0000   1.0000   1.0000   1.0000   1.0000   1.0000   1.0000
     1.0000   1.0000   1.0000   1.0000   1.0000   1.0000   1.0000   1.0000
     1.0000   1.0000   1.0000   1.0000   1.0000   1.0000   1.0000   1.0000
     1.0000   1.0000   1.0000   1.0000   1.0000   1.0000   1.0000   1.0000
     1.0000   1.0000   1.0000   1.0000   1.0000   1.0000   1.0000   1.0000
     1.0000   1.0000   1.0000   1.0000   1.0000   1.0000   1.0000   1.0000
     1.0000   1.0000   1.0000   1.0000   1.0000   1.0000   1.0000   1.0000
     1.0000   1.0000   1.0000   1.0000   1.0000   1.0000   1.0000   1.0000
     1.0000   1.0000   1.0000   1.0000   1.0000   1.0000   1.0000   1.0000
     1.0000   1.0000   1.0000   1.0000   1.0000   1.0000   1.0000   1.0000
     1.0000   1.0000   1.0000   1.0000   1.0000   1.0000   1.0000   1.0000
     1.0000   1.0000   1.0000   1.0000   1.0000   1.0000   1.0000   1.0000
     1.0000   1.0000   1.0000   1.0000   1.0000   1.0000   1.0000   1.0000
     1.0000   1.0000   1.0000   1.0000   1.0000   1.0000   1.0000   1.0000
     1.0000   1.0000   1.0000   1.0000   1.0000   1.0000   1.0000   1.0000
     1.0000   1.0000   1.0000   1.0000   1.0000   1.0000   1.0000   1.0000
     1.0000   1.0000   1.0000   1.0000   1.0000   1.0000   1.0000   1.0000
     1.0000   1.0000   1.0000   1.0000   1.0000   1.0000   1.0000   1.0000
     1.0000   1.0000   1.0000   1.0000   1.0000   1.0000   1.0000   1.0000
     1.0000   1.0000   1.0000   1.0000   1.0000   1.0000   1.0000   1.0000
     1.0000   1.0000   1.0000   1.0000   1.0000   1.0000   1.0000   1.0000
     1.0000   1.0000   1.0000   1.0000   1.0000   1.0000   1.0000   1.0000
     1.0000   1.0000   1.0000   1.0000   1.0000   1.0000   1.0000   1.0000
     1.0000   1.0000   1.0000   1.0000   1.0000   1.0000   1.0000   1.0000
     1.0000   1.0000   1.0000   1.0000   1.0000   1.0000   1.0000   1.0000
     1.0000   1.0000   1.0000   1.0000   1.0000   1.0000   1.0000   1.0000
     1.0000   1.0000   1.0000   1.0000   1.0000   1.0000   1.0000   1.0000
     1.0000   1.0000   1.0000   1.0000   1.0000   1.0000   1.0000   1.0000
     1.0000   1.0000   1.0000   1.0000   1.0000   1.0000   1.0000   1.0000
     1.0000   1.0000   1.0000   1.0000   1.0000   1.0000   1.0000   1.0000
     1.0000   1.0000   1.0000   1.0000   1.0000   1.0000   1.0000   1.0000
     1.0000   1.0000   1.0000   1.0000   1.0000   1.0000   1.0000   1.0000
     1.0000   1.0000   1.0000   1.0000   1.0000   1.0000   1.0000   1.0000
     1.0000   1.0000   1.0000   1.0000   1.0000   1.0000   1.0000   1.0000
     1.0000   1.0000   1.0000   1.0000   1.0000   1.0000   1.0000   1.0000
     1.0000   1.0000   1.0000   1.0000   1.0000   1.0000   1.0000   1.0000
     1.0000   1.0000   1.0000   1.0000   1.0000   1.0000   1.0000   1.0000
     1.0000   1.0000   1.0000   1.0000   1.0000   1.0000   1.0000   1.0000
     1.0000   1.0000   1.0000   1.0000   1.0000   1.0000   1.0000   1.0000
     1.0000   1.0000   1.0000   1.0000   1.0000   1.0000   1.0000   1.0000
     1.0000   1.0000   1.0000   1.0000   1.0000   1.0000   1.0000   1.0000
     1.0000   1.0000   1.0000   1.0000   1.0000   1.0000   1.0000   1.0000
     1.0000   1.0000   1.0000   1.0000   1.0000   1.0000   1.0000   1.0000
     1.0000   1.0000   1.0000   1.0000   1.0000   1.0000   1.0000   1.0000
     1.0000   1.0000   1.0000   1.0000   1.0000   1.0000   1.0000   1.0000
     1.0000   1.0000   1.0000   1.0000   1.0000   1.0000   1.0000   1.0000
     1.0000   1.0000   1.0000   1.0000   1.0000   1.0000   1.0000   1.0000
     1.0000   1.0000   1.0000   1.0000   1.0000   1.0000   1.0000   1.0000
     1.0000   1.0000   1.0000   1.0000   1.0000   1.0000   1.0000   1.0000
     1.0000   1.0000   1.0000   1.0000   1.0000   1.0000   1.0000   1.0000
     1.0000   1.0000   1.0000   1.0000   1.0000   1.0000   1.0000   1.0000
     1.0000   1.0000   1.0000   1.0000   1.0000   1.0000   0.0000   0.0000
     0.0000   0.0000   0.0000   0.0000   0.0000   0.0000   0.0000   0.0000
     0.0000   0.0000   0.0000   0.0000   0.0000   0.0000   0.0000   0.0000
     0.0000   0.0000   0.0000   0.0000   0.0000   0.0000   0.0000   0.0000
     0.0000   0.0000   0.0000   0.0000   0.0000   0.0000   0.0000   0.0000
     0.0000   0.0000   0.0000   0.0000   0.0000   0.0000   0.0000   0.0000
     0.0000   0.0000   0.0000   0.0000   0.0000   0.0000   0.0000   0.0000
     0.0000   0.0000   0.0000   0.0000   0.0000   0.0000   0.0000   0.0000
     0.0000   0.0000   0.0000   0.0000   0.0000   0.0000   0.0000   0.0000
     0.0000   0.0000   0.0000   0.0000   0.0000   0.0000   0.0000   0.0000
     0.0000   0.0000   0.0000   0.0000   0.0000   0.0000   0.0000   0.0000
     0.0000   0.0000   0.0000   0.0000   0.0000   0.0000

          k = 0.0000-0.0000-0.5833 ( 42906 PWs)   bands (ev):

  -114.2335-114.2214-114.2186-114.2166-114.2131-114.2128-114.2120-114.2068
  -114.2044-114.2042-114.2037-114.2031-114.1981-114.1964-114.1918-114.1908
  -114.1877-114.1875-114.1872-114.1867-114.1815-114.1779-114.1764-114.1764
  -114.1754-114.1673-114.1665-114.1592-114.1487-114.1461 -68.5987 -68.5914
   -68.5899 -68.5884 -68.5856 -68.5834 -68.5811 -68.5789 -68.5786 -68.5784
   -68.5767 -68.5754 -68.5751 -68.5731 -68.5730 -68.5709 -68.5705 -68.5701
   -68.5692 -68.5691 -68.5687 -68.5679 -68.5673 -68.5672 -68.5661 -68.5655
   -68.5650 -68.5644 -68.5631 -68.5625 -68.5616 -68.5614 -68.5610 -68.5607
   -68.5590 -68.5587 -68.5583 -68.5579 -68.5578 -68.5575 -68.5556 -68.5547
   -68.5540 -68.5535 -68.5531 -68.5524 -68.5493 -68.5490 -68.5483 -68.5476
   -68.5475 -68.5473 -68.5471 -68.5458 -68.5448 -68.5444 -68.5443 -68.5443
   -68.5438 -68.5431 -68.5428 -68.5424 -68.5420 -68.5412 -68.5381 -68.5379
   -68.5370 -68.5349 -68.5347 -68.5342 -68.5335 -68.5332 -68.5329 -68.5323
   -68.5320 -68.5296 -68.5293 -68.5282 -68.5246 -68.5231 -68.5207 -68.5178
   -68.5175 -68.5160 -68.5149 -68.5119 -68.5051 -68.5030 -68.5017 -68.4977
   -63.8224 -63.8154 -63.8010 -63.7956 -63.7913 -63.7818 -30.8090 -30.8049
   -30.8025 -30.8021 -30.7968 -30.7950 -30.7930 -30.7915 -30.7866 -30.7841
   -30.7766 -30.7753 -30.7729 -30.7690 -30.7673 -30.7649 -30.7597 -30.7578
    -8.9667  -8.8781  -8.5506  -8.5444  -8.5318  -8.5087  -8.5027  -8.4850
    -8.4823  -8.4622  -8.4373  -8.4057  -8.3688  -8.3421  -8.1461  -8.1408
    -8.1063  -8.0924  -8.0683  -8.0553  -8.0500  -8.0261  -7.9987  -7.9803
    -7.9767  -7.9677  -7.9593  -7.9349  -7.9304  -7.9128  -7.8964  -7.8753
    -7.8673  -7.7886  -7.7662  -7.6902   2.7332   2.7473   2.7533   2.7651
     2.7770   2.7835   2.8000   2.8094   2.8394   2.8610   2.8845   2.9221
     3.0076   3.0149   3.0260   3.0297   3.0381   3.0549   3.0598   3.0736
     3.0785   3.0881   3.1207   3.1484   3.1561   3.1669   3.1835   3.1916
     3.1968   3.2069   3.2237   3.2602   3.2818   3.2940   3.3350   3.3484
     3.3773   3.3824   3.3969   3.4300   3.4465   3.4644   3.4780   3.4844
     3.4873   3.4965   3.5034   3.5084   3.5097   3.5142   3.5184   3.5241
     3.5284   3.5347   3.5433   3.5542   3.5624   3.5649   3.5785   3.5848
     3.5981   3.6149   3.6223   3.6309   3.6381   3.6495   3.6520   3.6584
     3.6614   3.6639   3.6750   3.6805   3.6861   3.6986   3.7050   3.7068
     3.7168   3.7306   3.7536   3.7683   3.7725   3.7909   3.8107   3.8278
     3.8352   3.8428   3.8811   3.9108   3.9293   3.9343   3.9621   3.9677
     3.9827   4.0149   4.0391   4.0402   4.0658   4.0765   4.1447   4.1593
     4.1918   4.2419   4.2693   4.2772   4.2815   4.2978   4.3021   4.3137
     4.3173   4.3325   4.3374   4.3563   4.3664   4.3715   4.3875   4.4099
     4.4252   4.4335   4.4483   4.4551   4.4738   4.4859   4.4955   4.5212
     4.5283   4.5470   4.5548   4.5644   4.5742   4.5897   4.6132   4.6161
     4.6277   4.6401   4.6434   4.6545   4.6556   4.6731   4.6766   4.6819
     4.6931   4.7180   4.7430   4.7453   4.7556   4.7709   4.7753   4.7802
     4.7854   4.7926   4.9086   4.9584   5.0760   5.0788   5.1320   5.1990
     5.2343   5.2607   5.2728   5.2866   5.3136   5.3346   5.3612   5.3977
     5.4261   5.4324   5.4673   5.4702   5.4915   5.5124   5.5444   5.5714
     5.6336   5.6422   5.6920   5.7368   5.7554   5.7662   5.8001   5.8334
     5.8533   5.8675   5.9024   5.9315   6.0300   6.1138   6.1933   6.2250
     6.2843   6.2923   6.4098   6.4202   6.5168   6.5693   6.6486   6.6799
     6.6972   6.7213   6.7412   6.7777   6.7965   6.8139   6.8614   6.8699
     6.8844   6.8950   6.9250   6.9615   6.9866   7.0992   7.2130   7.2426
     7.2575   7.2758   7.2879   7.3074   7.3293   7.3489   7.5441   7.5846
     7.6086   7.6365   7.6647   7.6716   7.6940   7.7177   7.7302   7.7506
     7.7693   7.7768   7.7960   7.8178   7.8847   7.9237   7.9466   7.9522
     7.9775   8.0436   8.0504   8.0616   8.0838   8.0934   8.1475   8.2305
     8.2810   8.3307   8.3479   8.3923   8.4054   8.4172   8.4255   8.4288
     8.4370   8.4484   8.4963   8.5078   8.6263   8.6290  11.3697  11.4928
    13.4642  13.4746  13.5000  13.5097  13.5447  13.5523  13.5665  13.5893
    13.6337  13.6828  13.8016  13.8536  14.1854  14.4741  15.6733  15.6879
    15.6987  15.7114  15.7239  15.7380  15.7713  15.7948  15.8852  16.0257
    16.0406  16.1344  16.4693  16.4837  16.5080  16.5637  16.5792  16.6052
    16.6115  16.6767  16.6955  16.7441  16.7673  16.9281  17.1409  17.1718
    17.1780  17.1898  17.2129  17.2391  17.3160  17.4230  17.4287  17.5094
    17.5385  17.5926  17.6104  17.6304  17.6463  17.6680  17.6955  17.7333
    17.7542  17.7896  17.8923  17.9119  18.1640  18.4952  18.5947  18.6385
    18.6861  19.0016  19.0372  19.3454  19.3928  19.4537  19.5641  19.6492
    19.9067  19.9293  20.0289  20.0338  20.1563  20.1921  20.1960  20.3418
    20.5773  20.6209  20.6357  20.6579  20.6722  20.6933

     occupation numbers 
     1.0000   1.0000   1.0000   1.0000   1.0000   1.0000   1.0000   1.0000
     1.0000   1.0000   1.0000   1.0000   1.0000   1.0000   1.0000   1.0000
     1.0000   1.0000   1.0000   1.0000   1.0000   1.0000   1.0000   1.0000
     1.0000   1.0000   1.0000   1.0000   1.0000   1.0000   1.0000   1.0000
     1.0000   1.0000   1.0000   1.0000   1.0000   1.0000   1.0000   1.0000
     1.0000   1.0000   1.0000   1.0000   1.0000   1.0000   1.0000   1.0000
     1.0000   1.0000   1.0000   1.0000   1.0000   1.0000   1.0000   1.0000
     1.0000   1.0000   1.0000   1.0000   1.0000   1.0000   1.0000   1.0000
     1.0000   1.0000   1.0000   1.0000   1.0000   1.0000   1.0000   1.0000
     1.0000   1.0000   1.0000   1.0000   1.0000   1.0000   1.0000   1.0000
     1.0000   1.0000   1.0000   1.0000   1.0000   1.0000   1.0000   1.0000
     1.0000   1.0000   1.0000   1.0000   1.0000   1.0000   1.0000   1.0000
     1.0000   1.0000   1.0000   1.0000   1.0000   1.0000   1.0000   1.0000
     1.0000   1.0000   1.0000   1.0000   1.0000   1.0000   1.0000   1.0000
     1.0000   1.0000   1.0000   1.0000   1.0000   1.0000   1.0000   1.0000
     1.0000   1.0000   1.0000   1.0000   1.0000   1.0000   1.0000   1.0000
     1.0000   1.0000   1.0000   1.0000   1.0000   1.0000   1.0000   1.0000
     1.0000   1.0000   1.0000   1.0000   1.0000   1.0000   1.0000   1.0000
     1.0000   1.0000   1.0000   1.0000   1.0000   1.0000   1.0000   1.0000
     1.0000   1.0000   1.0000   1.0000   1.0000   1.0000   1.0000   1.0000
     1.0000   1.0000   1.0000   1.0000   1.0000   1.0000   1.0000   1.0000
     1.0000   1.0000   1.0000   1.0000   1.0000   1.0000   1.0000   1.0000
     1.0000   1.0000   1.0000   1.0000   1.0000   1.0000   1.0000   1.0000
     1.0000   1.0000   1.0000   1.0000   1.0000   1.0000   1.0000   1.0000
     1.0000   1.0000   1.0000   1.0000   1.0000   1.0000   1.0000   1.0000
     1.0000   1.0000   1.0000   1.0000   1.0000   1.0000   1.0000   1.0000
     1.0000   1.0000   1.0000   1.0000   1.0000   1.0000   1.0000   1.0000
     1.0000   1.0000   1.0000   1.0000   1.0000   1.0000   1.0000   1.0000
     1.0000   1.0000   1.0000   1.0000   1.0000   1.0000   1.0000   1.0000
     1.0000   1.0000   1.0000   1.0000   1.0000   1.0000   1.0000   1.0000
     1.0000   1.0000   1.0000   1.0000   1.0000   1.0000   1.0000   1.0000
     1.0000   1.0000   1.0000   1.0000   1.0000   1.0000   1.0000   1.0000
     1.0000   1.0000   1.0000   1.0000   1.0000   1.0000   1.0000   1.0000
     1.0000   1.0000   1.0000   1.0000   1.0000   1.0000   1.0000   1.0000
     1.0000   1.0000   1.0000   1.0000   1.0000   1.0000   1.0000   1.0000
     1.0000   1.0000   1.0000   1.0000   1.0000   1.0000   1.0000   1.0000
     1.0000   1.0000   1.0000   1.0000   1.0000   1.0000   1.0000   1.0000
     1.0000   1.0000   1.0000   1.0000   1.0000   1.0000   1.0000   1.0000
     1.0000   1.0000   1.0000   1.0000   1.0000   1.0000   1.0000   1.0000
     1.0000   1.0000   1.0000   1.0000   1.0000   1.0000   1.0000   1.0000
     1.0000   1.0000   1.0000   1.0000   1.0000   1.0000   1.0000   1.0000
     1.0000   1.0000   1.0000   1.0000   1.0000   1.0000   1.0000   1.0000
     1.0000   1.0000   1.0000   1.0000   1.0000   1.0000   1.0000   1.0000
     1.0000   1.0000   1.0000   1.0000   1.0000   1.0000   1.0000   1.0000
     1.0000   1.0000   1.0000   1.0000   1.0000   1.0000   1.0000   1.0000
     1.0000   1.0000   1.0000   1.0000   1.0000   1.0000   1.0000   1.0000
     1.0000   1.0000   1.0000   1.0000   1.0000   1.0000   1.0000   1.0000
     1.0000   1.0000   1.0000   1.0000   1.0000   1.0000   1.0000   1.0000
     1.0000   1.0000   1.0000   1.0000   1.0000   1.0000   1.0000   1.0000
     1.0000   1.0000   1.0000   1.0000   1.0000   1.0000   1.0000   1.0000
     1.0000   1.0000   1.0000   1.0000   1.0000   1.0000   1.0000   1.0000
     1.0000   1.0000   1.0000   1.0000   1.0000   1.0000   1.0000   1.0000
     1.0000   1.0000   1.0000   1.0000   1.0000   1.0000   1.0000   1.0000
     1.0000   1.0000   1.0000   1.0000   1.0000   1.0000   1.0000   1.0000
     1.0000   1.0000   1.0000   1.0000   1.0000   1.0000   0.0000   0.0000
     0.0000   0.0000   0.0000   0.0000   0.0000   0.0000   0.0000   0.0000
     0.0000   0.0000   0.0000   0.0000   0.0000   0.0000   0.0000   0.0000
     0.0000   0.0000   0.0000   0.0000   0.0000   0.0000   0.0000   0.0000
     0.0000   0.0000   0.0000   0.0000   0.0000   0.0000   0.0000   0.0000
     0.0000   0.0000   0.0000   0.0000   0.0000   0.0000   0.0000   0.0000
     0.0000   0.0000   0.0000   0.0000   0.0000   0.0000   0.0000   0.0000
     0.0000   0.0000   0.0000   0.0000   0.0000   0.0000   0.0000   0.0000
     0.0000   0.0000   0.0000   0.0000   0.0000   0.0000   0.0000   0.0000
     0.0000   0.0000   0.0000   0.0000   0.0000   0.0000   0.0000   0.0000
     0.0000   0.0000   0.0000   0.0000   0.0000   0.0000   0.0000   0.0000
     0.0000   0.0000   0.0000   0.0000   0.0000   0.0000

          k =-0.0000 0.2887 0.0000 ( 43023 PWs)   bands (ev):

  -114.2335-114.2214-114.2186-114.2166-114.2131-114.2128-114.2120-114.2068
  -114.2044-114.2042-114.2037-114.2031-114.1981-114.1964-114.1918-114.1908
  -114.1877-114.1875-114.1872-114.1867-114.1815-114.1779-114.1764-114.1764
  -114.1754-114.1673-114.1665-114.1592-114.1487-114.1461 -68.5987 -68.5914
   -68.5899 -68.5884 -68.5856 -68.5834 -68.5811 -68.5789 -68.5786 -68.5784
   -68.5767 -68.5754 -68.5751 -68.5731 -68.5730 -68.5709 -68.5705 -68.5701
   -68.5692 -68.5691 -68.5687 -68.5679 -68.5673 -68.5672 -68.5661 -68.5654
   -68.5650 -68.5643 -68.5631 -68.5625 -68.5616 -68.5614 -68.5610 -68.5607
   -68.5590 -68.5587 -68.5584 -68.5579 -68.5578 -68.5575 -68.5556 -68.5548
   -68.5539 -68.5535 -68.5531 -68.5524 -68.5493 -68.5490 -68.5483 -68.5476
   -68.5475 -68.5473 -68.5471 -68.5458 -68.5448 -68.5444 -68.5443 -68.5443
   -68.5438 -68.5431 -68.5428 -68.5424 -68.5420 -68.5412 -68.5381 -68.5379
   -68.5370 -68.5349 -68.5347 -68.5342 -68.5335 -68.5332 -68.5329 -68.5323
   -68.5320 -68.5296 -68.5293 -68.5282 -68.5246 -68.5231 -68.5207 -68.5178
   -68.5175 -68.5160 -68.5149 -68.5119 -68.5051 -68.5030 -68.5017 -68.4977
   -63.8224 -63.8154 -63.8010 -63.7956 -63.7913 -63.7818 -30.8090 -30.8049
   -30.8025 -30.8021 -30.7968 -30.7950 -30.7930 -30.7915 -30.7866 -30.7841
   -30.7766 -30.7753 -30.7729 -30.7690 -30.7673 -30.7649 -30.7597 -30.7578
    -9.0762  -8.7976  -8.6971  -8.6796  -8.5122  -8.5015  -8.4485  -8.4313
    -8.4132  -8.2944  -8.2808  -8.2499  -8.2400  -8.2332  -8.2181  -8.2060
    -8.1828  -8.1397  -8.1355  -8.1226  -8.1132  -8.0995  -8.0781  -8.0630
    -8.0469  -8.0151  -7.9856  -7.9409  -7.9336  -7.8767  -7.8598  -7.8427
    -7.8039  -7.7636  -7.7454  -7.6664   2.5765   2.5857   2.5970   2.6180
     2.6287   2.6572   2.6921   2.7185   2.7411   2.7525   2.7831   2.8123
     2.8284   2.8762   2.9193   2.9453   2.9777   3.0077   3.0196   3.0434
     3.0684   3.0868   3.0943   3.1254   3.1478   3.1678   3.2294   3.2438
     3.2843   3.2969   3.3233   3.3436   3.3556   3.3798   3.3874   3.3915
     3.4193   3.4275   3.4294   3.4325   3.4386   3.4429   3.4469   3.4611
     3.4700   3.4732   3.4846   3.4996   3.5018   3.5056   3.5168   3.5271
     3.5367   3.5466   3.5641   3.5760   3.5927   3.5951   3.5974   3.6116
     3.6251   3.6345   3.6427   3.6564   3.6627   3.6768   3.6869   3.7033
     3.7157   3.7278   3.7416   3.7519   3.7715   3.7953   3.8073   3.8155
     3.8210   3.8333   3.8621   3.8717   3.8834   3.8915   3.9139   3.9230
     3.9420   3.9480   3.9750   3.9852   4.0153   4.0233   4.0382   4.0464
     4.0520   4.0653   4.0739   4.0900   4.1009   4.1069   4.1352   4.1512
     4.1999   4.2121   4.2180   4.2332   4.2567   4.2620   4.2747   4.2836
     4.2959   4.3158   4.3331   4.3445   4.3662   4.3738   4.4201   4.4371
     4.4485   4.4626   4.4712   4.4835   4.5020   4.5106   4.5211   4.5340
     4.5413   4.5561   4.5706   4.5857   4.5882   4.5951   4.6061   4.6170
     4.6278   4.6354   4.6409   4.6451   4.6524   4.6693   4.6771   4.6847
     4.6904   4.7014   4.7076   4.7212   4.7319   4.7455   4.7482   4.7639
     4.8091   4.8285   4.9112   4.9192   4.9666   5.1070   5.1858   5.2223
     5.2433   5.2797   5.3060   5.3251   5.3503   5.3870   5.4255   5.4434
     5.4868   5.5068   5.5570   5.5764   5.6052   5.6288   5.6664   5.6927
     5.7407   5.7502   5.7914   5.8170   5.8584   5.8706   5.9170   5.9279
     5.9601   5.9657   5.9806   5.9967   6.0196   6.0643   6.0775   6.1019
     6.1197   6.1281   6.1778   6.2369   6.2808   6.3151   6.3896   6.4462
     6.4836   6.5061   6.5405   6.5940   6.6470   6.7481   6.7892   6.8130
     6.8327   6.8933   6.9132   6.9631   6.9700   6.9920   7.0251   7.0567
     7.0676   7.0839   7.0971   7.2520   7.2954   7.3069   7.3512   7.3882
     7.4284   7.4622   7.5453   7.5763   7.5915   7.6214   7.6343   7.6525
     7.6650   7.6788   7.7219   7.7410   7.8404   7.9100   7.9252   8.0320
     8.0683   8.0849   8.1029   8.1276   8.1427   8.1751   8.2001   8.2397
     8.2799   8.3199   8.4128   8.4994   8.5045   8.5351   8.5574   8.5851
     8.5964   8.6220   8.7559   8.8256   8.8277   8.8730  10.5110  12.3776
    12.9956  13.0155  13.4661  13.4937  13.9494  13.9777  14.1683  14.2043
    14.2443  14.3514  14.4905  14.5114  14.5483  14.6177  14.8695  14.8821
    14.8870  14.9080  14.9456  15.0013  15.4720  15.6365  15.6784  15.7912
    15.8608  16.0218  16.1083  16.2030  16.2202  16.2415  16.2792  16.3055
    16.4236  16.5810  16.7383  16.7861  16.9437  17.0072  17.1038  17.2410
    17.3245  17.5950  17.6704  17.6810  17.6891  17.7141  17.8019  17.9038
    17.9221  17.9673  17.9747  18.0692  18.1581  18.1933  18.2259  18.2397
    18.3109  18.3314  18.3858  18.5429  18.5675  18.6166  18.6809  18.7231
    18.8681  18.9512  19.0478  19.3240  19.4844  19.5640  19.6835  19.7395
    19.9148  19.9568  20.0033  20.0224  20.1135  20.1262  20.1744  20.2014
    20.2586  20.2975  20.3235  20.3656  20.4062  20.4531

     occupation numbers 
     1.0000   1.0000   1.0000   1.0000   1.0000   1.0000   1.0000   1.0000
     1.0000   1.0000   1.0000   1.0000   1.0000   1.0000   1.0000   1.0000
     1.0000   1.0000   1.0000   1.0000   1.0000   1.0000   1.0000   1.0000
     1.0000   1.0000   1.0000   1.0000   1.0000   1.0000   1.0000   1.0000
     1.0000   1.0000   1.0000   1.0000   1.0000   1.0000   1.0000   1.0000
     1.0000   1.0000   1.0000   1.0000   1.0000   1.0000   1.0000   1.0000
     1.0000   1.0000   1.0000   1.0000   1.0000   1.0000   1.0000   1.0000
     1.0000   1.0000   1.0000   1.0000   1.0000   1.0000   1.0000   1.0000
     1.0000   1.0000   1.0000   1.0000   1.0000   1.0000   1.0000   1.0000
     1.0000   1.0000   1.0000   1.0000   1.0000   1.0000   1.0000   1.0000
     1.0000   1.0000   1.0000   1.0000   1.0000   1.0000   1.0000   1.0000
     1.0000   1.0000   1.0000   1.0000   1.0000   1.0000   1.0000   1.0000
     1.0000   1.0000   1.0000   1.0000   1.0000   1.0000   1.0000   1.0000
     1.0000   1.0000   1.0000   1.0000   1.0000   1.0000   1.0000   1.0000
     1.0000   1.0000   1.0000   1.0000   1.0000   1.0000   1.0000   1.0000
     1.0000   1.0000   1.0000   1.0000   1.0000   1.0000   1.0000   1.0000
     1.0000   1.0000   1.0000   1.0000   1.0000   1.0000   1.0000   1.0000
     1.0000   1.0000   1.0000   1.0000   1.0000   1.0000   1.0000   1.0000
     1.0000   1.0000   1.0000   1.0000   1.0000   1.0000   1.0000   1.0000
     1.0000   1.0000   1.0000   1.0000   1.0000   1.0000   1.0000   1.0000
     1.0000   1.0000   1.0000   1.0000   1.0000   1.0000   1.0000   1.0000
     1.0000   1.0000   1.0000   1.0000   1.0000   1.0000   1.0000   1.0000
     1.0000   1.0000   1.0000   1.0000   1.0000   1.0000   1.0000   1.0000
     1.0000   1.0000   1.0000   1.0000   1.0000   1.0000   1.0000   1.0000
     1.0000   1.0000   1.0000   1.0000   1.0000   1.0000   1.0000   1.0000
     1.0000   1.0000   1.0000   1.0000   1.0000   1.0000   1.0000   1.0000
     1.0000   1.0000   1.0000   1.0000   1.0000   1.0000   1.0000   1.0000
     1.0000   1.0000   1.0000   1.0000   1.0000   1.0000   1.0000   1.0000
     1.0000   1.0000   1.0000   1.0000   1.0000   1.0000   1.0000   1.0000
     1.0000   1.0000   1.0000   1.0000   1.0000   1.0000   1.0000   1.0000
     1.0000   1.0000   1.0000   1.0000   1.0000   1.0000   1.0000   1.0000
     1.0000   1.0000   1.0000   1.0000   1.0000   1.0000   1.0000   1.0000
     1.0000   1.0000   1.0000   1.0000   1.0000   1.0000   1.0000   1.0000
     1.0000   1.0000   1.0000   1.0000   1.0000   1.0000   1.0000   1.0000
     1.0000   1.0000   1.0000   1.0000   1.0000   1.0000   1.0000   1.0000
     1.0000   1.0000   1.0000   1.0000   1.0000   1.0000   1.0000   1.0000
     1.0000   1.0000   1.0000   1.0000   1.0000   1.0000   1.0000   1.0000
     1.0000   1.0000   1.0000   1.0000   1.0000   1.0000   1.0000   1.0000
     1.0000   1.0000   1.0000   1.0000   1.0000   1.0000   1.0000   1.0000
     1.0000   1.0000   1.0000   1.0000   1.0000   1.0000   1.0000   1.0000
     1.0000   1.0000   1.0000   1.0000   1.0000   1.0000   1.0000   1.0000
     1.0000   1.0000   1.0000   1.0000   1.0000   1.0000   1.0000   1.0000
     1.0000   1.0000   1.0000   1.0000   1.0000   1.0000   1.0000   1.0000
     1.0000   1.0000   1.0000   1.0000   1.0000   1.0000   1.0000   1.0000
     1.0000   1.0000   1.0000   1.0000   1.0000   1.0000   1.0000   1.0000
     1.0000   1.0000   1.0000   1.0000   1.0000   1.0000   1.0000   1.0000
     1.0000   1.0000   1.0000   1.0000   1.0000   1.0000   1.0000   1.0000
     1.0000   1.0000   1.0000   1.0000   1.0000   1.0000   1.0000   1.0000
     1.0000   1.0000   1.0000   1.0000   1.0000   1.0000   1.0000   1.0000
     1.0000   1.0000   1.0000   1.0000   1.0000   1.0000   1.0000   1.0000
     1.0000   1.0000   1.0000   1.0000   1.0000   1.0000   1.0000   1.0000
     1.0000   1.0000   1.0000   1.0000   1.0000   1.0000   1.0000   1.0000
     1.0000   1.0000   1.0000   1.0000   1.0000   1.0000   1.0000   1.0000
     1.0000   1.0000   1.0000   1.0000   1.0000   1.0000   1.0000   1.0000
     1.0000   1.0000   1.0000   1.0000   1.0000   1.0000   0.0000   0.0000
     0.0000   0.0000   0.0000   0.0000   0.0000   0.0000   0.0000   0.0000
     0.0000   0.0000   0.0000   0.0000   0.0000   0.0000   0.0000   0.0000
     0.0000   0.0000   0.0000   0.0000   0.0000   0.0000   0.0000   0.0000
     0.0000   0.0000   0.0000   0.0000   0.0000   0.0000   0.0000   0.0000
     0.0000   0.0000   0.0000   0.0000   0.0000   0.0000   0.0000   0.0000
     0.0000   0.0000   0.0000   0.0000   0.0000   0.0000   0.0000   0.0000
     0.0000   0.0000   0.0000   0.0000   0.0000   0.0000   0.0000   0.0000
     0.0000   0.0000   0.0000   0.0000   0.0000   0.0000   0.0000   0.0000
     0.0000   0.0000   0.0000   0.0000   0.0000   0.0000   0.0000   0.0000
     0.0000   0.0000   0.0000   0.0000   0.0000   0.0000   0.0000   0.0000
     0.0000   0.0000   0.0000   0.0000   0.0000   0.0000

          k =-0.0000 0.2887 0.2916 ( 43015 PWs)   bands (ev):

  -114.2335-114.2214-114.2186-114.2166-114.2131-114.2128-114.2120-114.2068
  -114.2044-114.2042-114.2037-114.2031-114.1981-114.1964-114.1918-114.1908
  -114.1877-114.1875-114.1872-114.1867-114.1815-114.1779-114.1764-114.1764
  -114.1754-114.1673-114.1665-114.1592-114.1487-114.1461 -68.5987 -68.5914
   -68.5899 -68.5884 -68.5856 -68.5834 -68.5811 -68.5789 -68.5786 -68.5784
   -68.5767 -68.5754 -68.5751 -68.5731 -68.5730 -68.5709 -68.5705 -68.5701
   -68.5692 -68.5691 -68.5687 -68.5679 -68.5673 -68.5672 -68.5661 -68.5654
   -68.5650 -68.5643 -68.5631 -68.5625 -68.5616 -68.5614 -68.5610 -68.5607
   -68.5590 -68.5587 -68.5584 -68.5579 -68.5578 -68.5575 -68.5556 -68.5547
   -68.5540 -68.5535 -68.5531 -68.5524 -68.5493 -68.5490 -68.5483 -68.5476
   -68.5475 -68.5473 -68.5471 -68.5458 -68.5448 -68.5444 -68.5443 -68.5443
   -68.5438 -68.5431 -68.5428 -68.5424 -68.5420 -68.5412 -68.5381 -68.5379
   -68.5370 -68.5349 -68.5347 -68.5342 -68.5335 -68.5332 -68.5329 -68.5323
   -68.5320 -68.5296 -68.5293 -68.5282 -68.5246 -68.5231 -68.5207 -68.5178
   -68.5175 -68.5160 -68.5149 -68.5119 -68.5051 -68.5030 -68.5017 -68.4977
   -63.8224 -63.8154 -63.8010 -63.7956 -63.7913 -63.7818 -30.8090 -30.8049
   -30.8025 -30.8021 -30.7968 -30.7950 -30.7930 -30.7915 -30.7866 -30.7841
   -30.7766 -30.7753 -30.7729 -30.7690 -30.7673 -30.7649 -30.7597 -30.7578
    -9.0303  -8.7601  -8.6857  -8.6588  -8.6442  -8.4737  -8.4673  -8.4534
    -8.4130  -8.3916  -8.3621  -8.2649  -8.2550  -8.2289  -8.2181  -8.1982
    -8.1768  -8.1165  -8.1089  -8.0873  -8.0817  -8.0637  -8.0380  -8.0209
    -8.0060  -7.9889  -7.9694  -7.9429  -7.9311  -7.8839  -7.8740  -7.8604
    -7.8290  -7.7771  -7.7549  -7.6786   2.6034   2.6274   2.6629   2.6998
     2.7253   2.7501   2.7641   2.8023   2.8177   2.8393   2.8517   2.8849
     2.8904   2.9113   2.9433   2.9637   2.9831   3.0041   3.0221   3.0379
     3.0654   3.0908   3.1004   3.1191   3.1364   3.1673   3.2127   3.2316
     3.2551   3.2703   3.2879   3.3126   3.3371   3.3458   3.3738   3.3889
     3.3965   3.4062   3.4224   3.4254   3.4420   3.4460   3.4514   3.4596
     3.4727   3.4787   3.4901   3.5007   3.5110   3.5188   3.5262   3.5354
     3.5397   3.5461   3.5516   3.5665   3.5734   3.5823   3.5912   3.5983
     3.6051   3.6148   3.6202   3.6275   3.6400   3.6509   3.6566   3.6667
     3.6777   3.6851   3.6954   3.7072   3.7152   3.7401   3.7486   3.7614
     3.7712   3.7850   3.7962   3.8063   3.8151   3.8359   3.8457   3.8619
     3.9138   3.9170   3.9345   3.9478   3.9593   3.9770   3.9910   4.0130
     4.0354   4.0573   4.0743   4.0953   4.1095   4.1264   4.1636   4.1699
     4.1928   4.2068   4.2226   4.2453   4.2559   4.2812   4.2954   4.2998
     4.3172   4.3267   4.3382   4.3586   4.3717   4.3860   4.3927   4.4264
     4.4535   4.4567   4.4682   4.4759   4.4888   4.4965   4.5073   4.5120
     4.5343   4.5461   4.5600   4.5745   4.5911   4.5935   4.6110   4.6196
     4.6238   4.6389   4.6423   4.6481   4.6505   4.6626   4.6729   4.6847
     4.6896   4.6989   4.7077   4.7149   4.7317   4.7362   4.7432   4.7605
     4.7869   4.8051   4.9723   4.9818   5.0612   5.1234   5.1913   5.2171
     5.2374   5.2692   5.2892   5.3092   5.3361   5.3398   5.3924   5.4361
     5.4650   5.4728   5.4928   5.5203   5.5370   5.5607   5.5910   5.6045
     5.6284   5.6587   5.6772   5.7002   5.7447   5.7678   5.8288   5.8997
     5.9521   5.9864   6.0332   6.0752   6.1058   6.1488   6.2245   6.2518
     6.2769   6.2981   6.3165   6.3541   6.4396   6.4647   6.4798   6.5228
     6.5508   6.5792   6.5990   6.6667   6.7023   6.7264   6.7627   6.7821
     6.8126   6.8462   6.8815   6.9478   6.9741   7.0003   7.0462   7.1127
     7.2141   7.2324   7.2647   7.3564   7.3893   7.4283   7.4567   7.4964
     7.5183   7.5479   7.5778   7.5943   7.6141   7.6338   7.6892   7.7088
     7.7233   7.7564   7.7916   7.8107   7.8505   7.8749   7.8855   7.9001
     7.9568   8.0011   8.0154   8.0369   8.0751   8.0814   8.1051   8.1378
     8.2648   8.3402   8.3673   8.4301   8.4652   8.4922   8.5353   8.5614
     8.5940   8.6342   8.6656   8.7013   8.7167   8.7491  10.8322  12.4820
    12.5838  13.0689  13.1055  13.4645  13.8037  13.8439  13.9536  13.9939
    14.1087  14.2456  14.3616  14.4289  14.5126  14.6600  14.9503  15.2358
    15.2887  15.3176  15.4514  15.4664  15.5353  15.6748  15.7197  15.8083
    15.8724  15.9570  16.0390  16.1220  16.1811  16.2607  16.4428  16.4924
    16.5100  16.6021  16.8069  16.8482  16.9834  17.0355  17.1308  17.2447
    17.3288  17.3605  17.4314  17.5276  17.5554  17.6053  17.6345  17.6473
    17.7246  17.7728  17.8531  17.9008  17.9253  17.9743  18.0177  18.0574
    18.0955  18.1796  18.2203  18.2690  18.3490  18.4128  18.5729  18.6991
    18.8085  18.8547  19.0194  19.3992  19.4981  19.5667  19.6872  19.7627
    19.8435  19.8925  19.9374  19.9908  20.0276  20.2127  20.2809  20.3354
    20.3957  20.4193  20.4897  20.6395  20.6695  20.7559

     occupation numbers 
     1.0000   1.0000   1.0000   1.0000   1.0000   1.0000   1.0000   1.0000
     1.0000   1.0000   1.0000   1.0000   1.0000   1.0000   1.0000   1.0000
     1.0000   1.0000   1.0000   1.0000   1.0000   1.0000   1.0000   1.0000
     1.0000   1.0000   1.0000   1.0000   1.0000   1.0000   1.0000   1.0000
     1.0000   1.0000   1.0000   1.0000   1.0000   1.0000   1.0000   1.0000
     1.0000   1.0000   1.0000   1.0000   1.0000   1.0000   1.0000   1.0000
     1.0000   1.0000   1.0000   1.0000   1.0000   1.0000   1.0000   1.0000
     1.0000   1.0000   1.0000   1.0000   1.0000   1.0000   1.0000   1.0000
     1.0000   1.0000   1.0000   1.0000   1.0000   1.0000   1.0000   1.0000
     1.0000   1.0000   1.0000   1.0000   1.0000   1.0000   1.0000   1.0000
     1.0000   1.0000   1.0000   1.0000   1.0000   1.0000   1.0000   1.0000
     1.0000   1.0000   1.0000   1.0000   1.0000   1.0000   1.0000   1.0000
     1.0000   1.0000   1.0000   1.0000   1.0000   1.0000   1.0000   1.0000
     1.0000   1.0000   1.0000   1.0000   1.0000   1.0000   1.0000   1.0000
     1.0000   1.0000   1.0000   1.0000   1.0000   1.0000   1.0000   1.0000
     1.0000   1.0000   1.0000   1.0000   1.0000   1.0000   1.0000   1.0000
     1.0000   1.0000   1.0000   1.0000   1.0000   1.0000   1.0000   1.0000
     1.0000   1.0000   1.0000   1.0000   1.0000   1.0000   1.0000   1.0000
     1.0000   1.0000   1.0000   1.0000   1.0000   1.0000   1.0000   1.0000
     1.0000   1.0000   1.0000   1.0000   1.0000   1.0000   1.0000   1.0000
     1.0000   1.0000   1.0000   1.0000   1.0000   1.0000   1.0000   1.0000
     1.0000   1.0000   1.0000   1.0000   1.0000   1.0000   1.0000   1.0000
     1.0000   1.0000   1.0000   1.0000   1.0000   1.0000   1.0000   1.0000
     1.0000   1.0000   1.0000   1.0000   1.0000   1.0000   1.0000   1.0000
     1.0000   1.0000   1.0000   1.0000   1.0000   1.0000   1.0000   1.0000
     1.0000   1.0000   1.0000   1.0000   1.0000   1.0000   1.0000   1.0000
     1.0000   1.0000   1.0000   1.0000   1.0000   1.0000   1.0000   1.0000
     1.0000   1.0000   1.0000   1.0000   1.0000   1.0000   1.0000   1.0000
     1.0000   1.0000   1.0000   1.0000   1.0000   1.0000   1.0000   1.0000
     1.0000   1.0000   1.0000   1.0000   1.0000   1.0000   1.0000   1.0000
     1.0000   1.0000   1.0000   1.0000   1.0000   1.0000   1.0000   1.0000
     1.0000   1.0000   1.0000   1.0000   1.0000   1.0000   1.0000   1.0000
     1.0000   1.0000   1.0000   1.0000   1.0000   1.0000   1.0000   1.0000
     1.0000   1.0000   1.0000   1.0000   1.0000   1.0000   1.0000   1.0000
     1.0000   1.0000   1.0000   1.0000   1.0000   1.0000   1.0000   1.0000
     1.0000   1.0000   1.0000   1.0000   1.0000   1.0000   1.0000   1.0000
     1.0000   1.0000   1.0000   1.0000   1.0000   1.0000   1.0000   1.0000
     1.0000   1.0000   1.0000   1.0000   1.0000   1.0000   1.0000   1.0000
     1.0000   1.0000   1.0000   1.0000   1.0000   1.0000   1.0000   1.0000
     1.0000   1.0000   1.0000   1.0000   1.0000   1.0000   1.0000   1.0000
     1.0000   1.0000   1.0000   1.0000   1.0000   1.0000   1.0000   1.0000
     1.0000   1.0000   1.0000   1.0000   1.0000   1.0000   1.0000   1.0000
     1.0000   1.0000   1.0000   1.0000   1.0000   1.0000   1.0000   1.0000
     1.0000   1.0000   1.0000   1.0000   1.0000   1.0000   1.0000   1.0000
     1.0000   1.0000   1.0000   1.0000   1.0000   1.0000   1.0000   1.0000
     1.0000   1.0000   1.0000   1.0000   1.0000   1.0000   1.0000   1.0000
     1.0000   1.0000   1.0000   1.0000   1.0000   1.0000   1.0000   1.0000
     1.0000   1.0000   1.0000   1.0000   1.0000   1.0000   1.0000   1.0000
     1.0000   1.0000   1.0000   1.0000   1.0000   1.0000   1.0000   1.0000
     1.0000   1.0000   1.0000   1.0000   1.0000   1.0000   1.0000   1.0000
     1.0000   1.0000   1.0000   1.0000   1.0000   1.0000   1.0000   1.0000
     1.0000   1.0000   1.0000   1.0000   1.0000   1.0000   1.0000   1.0000
     1.0000   1.0000   1.0000   1.0000   1.0000   1.0000   1.0000   1.0000
     1.0000   1.0000   1.0000   1.0000   1.0000   1.0000   1.0000   1.0000
     1.0000   1.0000   1.0000   1.0000   1.0000   1.0000   0.0000   0.0000
     0.0000   0.0000   0.0000   0.0000   0.0000   0.0000   0.0000   0.0000
     0.0000   0.0000   0.0000   0.0000   0.0000   0.0000   0.0000   0.0000
     0.0000   0.0000   0.0000   0.0000   0.0000   0.0000   0.0000   0.0000
     0.0000   0.0000   0.0000   0.0000   0.0000   0.0000   0.0000   0.0000
     0.0000   0.0000   0.0000   0.0000   0.0000   0.0000   0.0000   0.0000
     0.0000   0.0000   0.0000   0.0000   0.0000   0.0000   0.0000   0.0000
     0.0000   0.0000   0.0000   0.0000   0.0000   0.0000   0.0000   0.0000
     0.0000   0.0000   0.0000   0.0000   0.0000   0.0000   0.0000   0.0000
     0.0000   0.0000   0.0000   0.0000   0.0000   0.0000   0.0000   0.0000
     0.0000   0.0000   0.0000   0.0000   0.0000   0.0000   0.0000   0.0000
     0.0000   0.0000   0.0000   0.0000   0.0000   0.0000

          k =-0.0000 0.2887-0.5832 ( 43022 PWs)   bands (ev):

  -114.2335-114.2214-114.2186-114.2166-114.2131-114.2128-114.2120-114.2068
  -114.2044-114.2042-114.2037-114.2031-114.1981-114.1964-114.1918-114.1908
  -114.1877-114.1875-114.1872-114.1867-114.1815-114.1779-114.1764-114.1764
  -114.1754-114.1673-114.1665-114.1592-114.1487-114.1461 -68.5987 -68.5914
   -68.5899 -68.5884 -68.5856 -68.5834 -68.5811 -68.5789 -68.5786 -68.5784
   -68.5767 -68.5754 -68.5751 -68.5731 -68.5730 -68.5709 -68.5705 -68.5701
   -68.5692 -68.5691 -68.5687 -68.5679 -68.5673 -68.5672 -68.5661 -68.5655
   -68.5650 -68.5644 -68.5631 -68.5625 -68.5616 -68.5614 -68.5610 -68.5607
   -68.5590 -68.5587 -68.5583 -68.5579 -68.5578 -68.5575 -68.5556 -68.5547
   -68.5540 -68.5535 -68.5531 -68.5524 -68.5493 -68.5490 -68.5483 -68.5476
   -68.5475 -68.5473 -68.5471 -68.5458 -68.5448 -68.5444 -68.5443 -68.5443
   -68.5438 -68.5431 -68.5428 -68.5424 -68.5420 -68.5412 -68.5381 -68.5379
   -68.5370 -68.5349 -68.5347 -68.5342 -68.5335 -68.5332 -68.5329 -68.5323
   -68.5320 -68.5296 -68.5293 -68.5282 -68.5246 -68.5231 -68.5207 -68.5178
   -68.5175 -68.5160 -68.5149 -68.5119 -68.5051 -68.5030 -68.5017 -68.4977
   -63.8224 -63.8154 -63.8010 -63.7956 -63.7913 -63.7818 -30.8090 -30.8049
   -30.8025 -30.8021 -30.7968 -30.7950 -30.7930 -30.7915 -30.7866 -30.7841
   -30.7766 -30.7753 -30.7729 -30.7690 -30.7673 -30.7649 -30.7597 -30.7578
    -8.9326  -8.8457  -8.6814  -8.6138  -8.5890  -8.5681  -8.5096  -8.4664
    -8.4234  -8.4101  -8.3721  -8.3372  -8.3220  -8.2621  -8.2116  -8.1971
    -8.1285  -8.1217  -8.0589  -8.0506  -8.0365  -8.0167  -7.9950  -7.9782
[...]
     atom   27 type  2   force =     0.00000000    0.00000000    0.00000000
     atom   28 type  2   force =     0.00000000    0.00000000    0.00000000
     atom   29 type  2   force =     0.00000000    0.00000000    0.00000000
     atom   30 type  2   force =     0.00000000    0.00000000    0.00000000
     atom   31 type  2   force =     0.00000000    0.00000000    0.00000000
     atom   32 type  2   force =     0.00000000    0.00000000    0.00000000
     atom   33 type  2   force =     0.00000000    0.00000000    0.00000000
     atom   34 type  2   force =     0.00000000    0.00000000    0.00000000
     atom   35 type  2   force =     0.00000000    0.00000000    0.00000000
     atom   36 type  2   force =     0.00000000    0.00000000    0.00000000
     atom   37 type  2   force =     0.00000000    0.00000000    0.00000000
     atom   38 type  2   force =     0.00000000    0.00000000    0.00000000
     atom   39 type  2   force =     0.00000000    0.00000000    0.00000000
     atom   40 type  2   force =     0.00000000    0.00000000    0.00000000
     atom   41 type  2   force =     0.00000000    0.00000000    0.00000000
     atom   42 type  2   force =     0.00000000    0.00000000    0.00000000
     atom   43 type  1   force =     0.00000000    0.00000000    0.00000000
     atom   44 type  1   force =     0.00000000    0.00000000    0.00000000
     atom   45 type  1   force =     0.00000000    0.00000000    0.00000000
     atom   46 type  1   force =     0.00000000    0.00000000    0.00000000
     atom   47 type  1   force =     0.00000000    0.00000000    0.00000000
     atom   48 type  1   force =     0.00000000    0.00000000    0.00000000
     atom   49 type  1   force =     0.00000000    0.00000000    0.00000000
     atom   50 type  1   force =     0.00000000    0.00000000    0.00000000
     atom   51 type  1   force =     0.00000000    0.00000000    0.00000000
     atom   52 type  1   force =     0.00000000    0.00000000    0.00000000
     atom   53 type  1   force =     0.00000000    0.00000000    0.00000000
     atom   54 type  1   force =     0.00000000    0.00000000    0.00000000
     atom   55 type  1   force =     0.00000000    0.00000000    0.00000000
     atom   56 type  1   force =     0.00000000    0.00000000    0.00000000
     atom   57 type  1   force =     0.00000000    0.00000000    0.00000000
     atom   58 type  1   force =     0.00000000    0.00000000    0.00000000
     atom   59 type  1   force =     0.00000000    0.00000000    0.00000000
     atom   60 type  1   force =     0.00000000    0.00000000    0.00000000
     atom   61 type  1   force =     0.00000000    0.00000000    0.00000000
     atom   62 type  1   force =     0.00000000    0.00000000    0.00000000
     atom   63 type  1   force =     0.00000000    0.00000000    0.00000000
     atom   64 type  1   force =     0.00000000    0.00000000    0.00000000
     atom   65 type  1   force =     0.00000000    0.00000000    0.00000000
     atom   66 type  1   force =     0.00000000    0.00000000    0.00000000
     atom   67 type  1   force =     0.00000000    0.00000000    0.00000000
     atom   68 type  1   force =     0.00000000    0.00000000    0.00000000
     atom   69 type  1   force =     0.00000000    0.00000000    0.00000000
     atom   70 type  1   force =     0.00000000    0.00000000    0.00000000
     atom   71 type  1   force =     0.00000000    0.00000000    0.00000000
     atom   72 type  1   force =     0.00000000    0.00000000    0.00000000
     The SCF correction term to forces
     atom    1 type  3   force =     0.00000048   -0.00000082    0.00000000
     atom    2 type  3   force =    -0.00000022    0.00000046    0.00000000
     atom    3 type  3   force =    -0.00000067   -0.00000025    0.00000000
     atom    4 type  3   force =     0.00000000    0.00000066    0.00000000
     atom    5 type  3   force =    -0.00000029    0.00000028    0.00000000
     atom    6 type  3   force =    -0.00000024    0.00000060    0.00000000
     atom    7 type  2   force =    -0.00000008   -0.00000115    0.00000000
     atom    8 type  2   force =    -0.00000049    0.00000027    0.00000000
     atom    9 type  2   force =     0.00000020   -0.00000009    0.00000000
     atom   10 type  2   force =    -0.00000015    0.00000047    0.00000000
     atom   11 type  2   force =     0.00000079    0.00000014    0.00000000
     atom   12 type  2   force =    -0.00000056    0.00000012    0.00000000
     atom   13 type  2   force =    -0.00000050   -0.00000004    0.00000000
     atom   14 type  2   force =     0.00000122   -0.00000059    0.00000000
     atom   15 type  2   force =    -0.00000006   -0.00000066    0.00000000
     atom   16 type  2   force =     0.00000041    0.00000030    0.00000000
     atom   17 type  2   force =    -0.00000011    0.00000028    0.00000000
     atom   18 type  2   force =    -0.00000015   -0.00000006    0.00000000
     atom   19 type  2   force =    -0.00000038    0.00000005    0.00000000
     atom   20 type  2   force =     0.00000013   -0.00000064    0.00000000
     atom   21 type  2   force =     0.00000039    0.00000010    0.00000000
     atom   22 type  2   force =     0.00000062    0.00000019    0.00000000
     atom   23 type  2   force =    -0.00000058   -0.00000004    0.00000000
     atom   24 type  2   force =     0.00000044    0.00000103    0.00000000
     atom   25 type  2   force =     0.00000057    0.00000020    0.00000000
     atom   26 type  2   force =    -0.00000072    0.00000036    0.00000000
     atom   27 type  2   force =    -0.00000057    0.00000001    0.00000000
     atom   28 type  2   force =     0.00000010   -0.00000026    0.00000000
     atom   29 type  2   force =     0.00000115   -0.00000015    0.00000000
     atom   30 type  2   force =    -0.00000064    0.00000062    0.00000000
     atom   31 type  2   force =    -0.00000024   -0.00000045    0.00000000
     atom   32 type  2   force =    -0.00000052    0.00000058    0.00000000
     atom   33 type  2   force =     0.00000003    0.00000002    0.00000000
     atom   34 type  2   force =     0.00000009    0.00000073    0.00000000
     atom   35 type  2   force =     0.00000022    0.00000018    0.00000000
     atom   36 type  2   force =     0.00000078    0.00000002    0.00000000
     atom   37 type  2   force =    -0.00000033   -0.00000033    0.00000000
     atom   38 type  2   force =    -0.00000019   -0.00000091    0.00000000
     atom   39 type  2   force =    -0.00000024   -0.00000037    0.00000000
     atom   40 type  2   force =    -0.00000064   -0.00000033    0.00000000
     atom   41 type  2   force =     0.00000029    0.00000018    0.00000000
     atom   42 type  2   force =    -0.00000068    0.00000038    0.00000000
     atom   43 type  1   force =    -0.00000195    0.00000297    0.00000000
     atom   44 type  1   force =    -0.00000206   -0.00000175    0.00000000
     atom   45 type  1   force =    -0.00000174   -0.00000124    0.00000000
     atom   46 type  1   force =     0.00000361    0.00000082    0.00000000
     atom   47 type  1   force =     0.00000227    0.00000094    0.00000000
     atom   48 type  1   force =    -0.00000318    0.00000324    0.00000000
     atom   49 type  1   force =     0.00000594   -0.00000149    0.00000000
     atom   50 type  1   force =     0.00000011    0.00000087    0.00000000
     atom   51 type  1   force =    -0.00000107   -0.00000025    0.00000000
     atom   52 type  1   force =     0.00000116    0.00000151    0.00000000
     atom   53 type  1   force =    -0.00000268    0.00000342    0.00000000
     atom   54 type  1   force =     0.00000040   -0.00000420    0.00000000
     atom   55 type  1   force =    -0.00000217    0.00000402    0.00000000
     atom   56 type  1   force =     0.00000255   -0.00000005    0.00000000
     atom   57 type  1   force =    -0.00000049   -0.00000033    0.00000000
     atom   58 type  1   force =     0.00000270    0.00000024    0.00000000
     atom   59 type  1   force =    -0.00000565    0.00000003    0.00000000
     atom   60 type  1   force =     0.00000574    0.00000180    0.00000000
     atom   61 type  1   force =    -0.00000220    0.00000202    0.00000000
     atom   62 type  1   force =    -0.00000490   -0.00000193    0.00000000
     atom   63 type  1   force =    -0.00000646   -0.00000083    0.00000000
     atom   64 type  1   force =     0.00000033   -0.00000382    0.00000000
     atom   65 type  1   force =     0.00000733   -0.00000321    0.00000000
     atom   66 type  1   force =     0.00000286    0.00000160    0.00000000
     atom   67 type  1   force =    -0.00000201   -0.00000071    0.00000000
     atom   68 type  1   force =     0.00000516   -0.00000397    0.00000000
     atom   69 type  1   force =     0.00000113   -0.00000006    0.00000000
     atom   70 type  1   force =     0.00000064   -0.00000308    0.00000000
     atom   71 type  1   force =     0.00000071   -0.00000095    0.00000000
     atom   72 type  1   force =    -0.00000308    0.00000054    0.00000000

     Total force =     0.000049     Total SCF correction =     0.000022
     SCF correction compared to forces is large: reduce conv_thr to get better values


     Computing stress (Cartesian axis) and pressure

          total   stress  (Ry/bohr**3)                   (kbar)     P=    1.73
   0.00001285   0.00000000   0.00000001          1.89      0.00      0.00
   0.00000000   0.00001287  -0.00000001          0.00      1.89     -0.00
   0.00000001  -0.00000001   0.00000963          0.00     -0.00      1.42

     kinetic stress (kbar)  32820.51     -0.12     -0.03
                               -0.12  32820.48      0.12
                               -0.03      0.12  33073.43

     local   stress (kbar)   -671.14    -25.94   -413.84
                              -25.94    669.60    315.43
                             -413.84    315.43 -21163.35

     nonloc. stress (kbar)   -555.81      0.06      0.01
                                0.06   -555.78     -0.08
                                0.01     -0.08   -640.90

     hartree stress (kbar)  57646.83     12.35    202.83
                               12.35  56983.87   -155.16
                              202.83   -155.16  67364.92

     exc-cor stress (kbar) -13532.94      0.00      0.00
                                0.00 -13532.94     -0.00
                                0.00     -0.00 -13534.50

     corecor stress (kbar)   -260.74      0.00      0.00
                                0.00   -260.74     -0.00
                                0.00     -0.00   -261.18

     ewald   stress (kbar) -75444.82     13.65    211.03
                               13.65 -76122.59   -160.31
                              211.03   -160.31 -64837.00

     hubbard stress (kbar)      0.00      0.00      0.00
                                0.00      0.00      0.00
                                0.00      0.00      0.00

     london  stress (kbar)      0.00      0.00      0.00
                                0.00      0.00      0.00
                                0.00      0.00      0.00

     DFT-D3  stress (kbar)      0.00      0.00      0.00
                                0.00      0.00      0.00
                                0.00      0.00      0.00

     XDM     stress (kbar)      0.00      0.00      0.00
                                0.00      0.00      0.00
                                0.00      0.00      0.00

     dft-nl  stress (kbar)      0.00      0.00      0.00
                                0.00      0.00      0.00
                                0.00      0.00      0.00

     TS-vdW  stress (kbar)      0.00      0.00      0.00
                                0.00      0.00      0.00
                                0.00      0.00      0.00


     Message from routine bfgs:
     history already reset at previous step: stopping

     bfgs converged in  10 scf cycles and   9 bfgs steps
     (criteria: energy <  1.0E-07 Ry, force <  1.0E-06 Ry/Bohr)

     End of BFGS Geometry Optimization

     Final energy   =  -15751.4768070607 Ry
Begin final coordinates

ATOMIC_POSITIONS (crystal)
Mg       0.444685589   0.889052042   0.504851277    1   1   0
Mg       0.887948694   0.776533930   0.751310091    1   1   0
Mg       0.888614697   0.111260387   0.753567703    1   1   0
Mg       0.223118403   0.444543772   0.755197351    1   1   0
Mg       0.776428726   0.887537262   0.003847146    1   1   0
Mg       0.112108664   0.888821538   0.003957708    1   1   0
O        0.889596461   0.778488152   0.001043402    1   1   0
O        0.888540803   0.110611626   0.001572131    1   1   0
O        0.222286748   0.444379395   0.002287567    1   1   0
O        0.554779748   0.110295227   0.002931866    1   1   0
O        0.222809725   0.777733683   0.003385263    1   1   0
O        0.222054528   0.111243879   0.003450916    1   1   0
O        0.554823759   0.777541884   0.003614286    1   1   0
O        0.889185003   0.444868257   0.003847160    1   1   0
O        0.555897870   0.444770236   0.003957711    1   1   0
O        0.777996487   0.888977960   0.250681356    1   1   0
O        0.111187690   0.888809847   0.251314342    1   1   0
O        0.777587040   0.222095933   0.253157399    1   1   0
O        0.110798315   0.222448437   0.253255047    1   1   0
O        0.777957797   0.555716954   0.253283767    1   1   0
O        0.444149373   0.555213096   0.253565728    1   1   0
O        0.111255728   0.555249428   0.253589371    1   1   0
O        0.444451405   0.222238187   0.253865279    1   1   0
O        0.444579102   0.889033413   0.255788018    1   1   0
O        0.222078782   0.777940555   0.502993306    1   1   0
O        0.221990150   0.110582649   0.503001870    1   1   0
O        0.556251574   0.778060082   0.503014624    1   1   0
O        0.888967004   0.777833929   0.503602487    1   1   0
O        0.888842740   0.444379911   0.503654216    1   1   0
O        0.555431289   0.111223815   0.503662158    1   1   0
O        0.555692557   0.444362462   0.503858679    1   1   0
O        0.888103752   0.110708699   0.504021376    1   1   0
O        0.222718445   0.444994850   0.504851279    1   1   0
O        0.444691059   0.888638610   0.751310137    1   1   0
O        0.110778977   0.222384172   0.751990635    1   1   0
O        0.110854889   0.555230666   0.753032182    1   1   0
O        0.777774893   0.222483364   0.753411852    1   1   0
O        0.777561733   0.555190393   0.753466489    1   1   0
O        0.445167686   0.555782373   0.753567688    1   1   0
O        0.443820479   0.222353803   0.753841896    1   1   0
O        0.110495206   0.888702343   0.755118275    1   1   0
O        0.778776789   0.889286001   0.755197366    1   1   0
Zn       0.888911278   0.777427555   0.250681374    1   1   0
Zn       0.889069983   0.111807313   0.251314315    1   1   0
Zn       0.222156783   0.444358710   0.253157404    1   1   0
Zn       0.555389660   0.111138530   0.253255121    1   1   0
Zn       0.222541885   0.777192217   0.253283779    1   1   0
Zn       0.554911699   0.777362956   0.253565676    1   1   0
Zn       0.222362537   0.111881553   0.253589357    1   1   0
Zn       0.889153783   0.444386688   0.253865267    1   1   0
Zn       0.555529686   0.444317210   0.255788015    1   1   0
Zn       0.777439356   0.888495100   0.502993328    1   1   0
Zn       0.111319095   0.888518090   0.503001875    1   1   0
Zn       0.777788710   0.554921019   0.503014598    1   1   0
Zn       0.111032681   0.222280802   0.503602449    1   1   0
Zn       0.776904917   0.222623493   0.503654252    1   1   0
Zn       0.445430552   0.556212238   0.503662134    1   1   0
Zn       0.110642602   0.555830195   0.503858727    1   1   0
Zn       0.444755717   0.222076430   0.504021349    1   1   0
Zn       0.221181115   0.777483635   0.751990630    1   1   0
Zn       0.557402803   0.777485760   0.753032137    1   1   0
Zn       0.555995047   0.112533347   0.753411803    1   1   0
Zn       0.221522284   0.111232274   0.753466643    1   1   0
Zn       0.556255005   0.444718416   0.753841930    1   1   0
Zn       0.887993947   0.444410844   0.755118249    1   1   0
Zn       0.443749807   0.887465452   0.001043466    1   1   0
Zn       0.111235864   0.222004456   0.001572063    1   1   0
Zn       0.111658509   0.556395479   0.002287574    1   1   0
Zn       0.777673073   0.222589953   0.002931829    1   1   0
Zn       0.445048684   0.556020703   0.003385298    1   1   0
Zn       0.778089959   0.556466029   0.003450921    1   1   0
Zn       0.444012614   0.222760351   0.003614318    1   1   0
End final coordinates



     Writing output data file ZnO.save/
 
     init_run     :     14.91s CPU     15.75s WALL (       1 calls)
     electrons    :   3875.57s CPU   3946.21s WALL (      10 calls)
     update_pot   :     15.96s CPU     16.27s WALL (       9 calls)
     forces       :     96.60s CPU     98.79s WALL (      10 calls)
     stress       :   1439.30s CPU   1445.76s WALL (      10 calls)

     Called by init_run:
     wfcinit      :     12.79s CPU     13.27s WALL (       1 calls)
     wfcinit:atom :      0.10s CPU      0.12s WALL (       5 calls)
     wfcinit:wfcr :     12.28s CPU     12.72s WALL (       5 calls)
     potinit      :      0.99s CPU      1.04s WALL (       1 calls)
     hinit0       :      0.74s CPU      0.91s WALL (       1 calls)

     Called by electrons:
     c_bands      :   3629.52s CPU   3693.18s WALL (      56 calls)
     sum_band     :    219.55s CPU    223.33s WALL (      56 calls)
     v_of_rho     :     24.46s CPU     25.86s WALL (      57 calls)
     v_h          :      0.61s CPU      0.82s WALL (      57 calls)
     v_xc         :     32.15s CPU     33.67s WALL (      77 calls)
     newd         :      4.63s CPU      4.83s WALL (      57 calls)
     mix_rho      :      0.89s CPU      1.21s WALL (      56 calls)

     Called by c_bands:
     init_us_2    :     20.13s CPU     20.30s WALL (     665 calls)
     cegterg      :   3299.23s CPU   3361.10s WALL (     280 calls)

     Called by sum_band:
     sum_band:bec :      1.21s CPU      1.22s WALL (     280 calls)
     addusdens    :      4.93s CPU      5.06s WALL (      56 calls)

     Called by *egterg:
     h_psi        :    929.74s CPU    944.54s WALL (     989 calls)
     s_psi        :    226.37s CPU    226.74s WALL (     989 calls)
     g_psi        :      3.55s CPU      3.58s WALL (     704 calls)
     cdiaghg      :   1483.70s CPU   1511.08s WALL (     894 calls)
     cegterg:over :    285.96s CPU    293.20s WALL (     704 calls)
     cegterg:upda :    191.74s CPU    193.94s WALL (     704 calls)
     cegterg:last :    103.47s CPU    103.79s WALL (     280 calls)
     cdiaghg:chol :     54.56s CPU     54.81s WALL (     894 calls)
     cdiaghg:inve :     16.48s CPU     16.53s WALL (     894 calls)
     cdiaghg:para :    278.23s CPU    299.28s WALL (    1788 calls)

     Called by h_psi:
     h_psi:pot    :    922.94s CPU    932.89s WALL (     989 calls)
     h_psi:calbec :    232.46s CPU    238.90s WALL (     989 calls)
     vloc_psi     :    462.70s CPU    465.60s WALL (     989 calls)
     add_vuspsi   :    227.75s CPU    228.38s WALL (     989 calls)

     General routines
     calbec       :    420.57s CPU    431.87s WALL (    1519 calls)
     fft          :      7.50s CPU      9.99s WALL (     989 calls)
     ffts         :      0.24s CPU      0.25s WALL (     113 calls)
     fftw         :    536.16s CPU    539.58s WALL (  856664 calls)
     interpolate  :      0.62s CPU      0.72s WALL (      57 calls)
 
     Parallel routines
     fft_scatt_xy :     66.27s CPU     66.66s WALL (  857766 calls)
     fft_scatt_yz :    155.85s CPU    159.28s WALL (  857766 calls)
 
     PWSCF        :      1h30m CPU      1h32m WALL

 
   This run was terminated on:  21: 5:14   8Nov2021            

=------------------------------------------------------------------------------=
   JOB DONE.
=------------------------------------------------------------------------------=
