
     Program PWSCF v.6.4.1 starts on  8Nov2021 at 13:39:46 

     This program is part of the open-source Quantum ESPRESSO suite
     for quantum simulation of materials; please cite
         "P. Giannozzi et al., J. Phys.:Condens. Matter 21 395502 (2009);
         "P. Giannozzi et al., J. Phys.:Condens. Matter 29 465901 (2017);
          URL http://www.quantum-espresso.org", 
     in publications or presentations arising from this work. More details at
     http://www.quantum-espresso.org/quote

     Parallel version (MPI), running on   128 processors

     MPI processes distributed on     2 nodes
     K-points division:     npool     =       8
     R & G space division:  proc/nbgrp/npool/nimage =      16
     Waiting for input...
     Reading input from standard input
Warning: card &IONS ignored
Warning: card   UPSCALE           = 100.D0, ignored
Warning: card / ignored
Warning: card &CELL ignored
Warning: card   CELL_DYNAMICS     = 'BFGS' ignored
Warning: card   PRESS_CONV_THR    = 0.5D0 ignored
Warning: card   CELL_DOFREE = 'ALL' ignored
Warning: card / ignored

     Current dimensions of program PWSCF are:
     Max number of different atomic species (ntypx) = 10
     Max number of k-points (npk) =  40000
     Max angular momentum in pseudopotentials (lmaxx) =  3

     Subspace diagonalization in iterative solution of the eigenvalue problem:
     one sub-group per band group will be used
     scalapack distributed-memory algorithm (size of sub-group:  2*  2 procs)

 
     Parallelization info
     --------------------
     sticks:   dense  smooth     PW     G-vecs:    dense   smooth      PW
     Min         728     349     95                67905    22590    3256
     Max         729     350     96                67908    22595    3260
     Sum       11661    5599   1531              1086517   361485   52135
 


     bravais-lattice index     =            0
     lattice parameter (alat)  =      18.3818  a.u.
     unit-cell volume          =    5754.8625 (a.u.)^3
     number of atoms/cell      =           72
     number of atomic types    =            3
     number of electrons       =       856.00
     number of Kohn-Sham states=          514
     kinetic-energy cutoff     =      60.0000  Ry
     charge density cutoff     =     500.0000  Ry
     convergence threshold     =      1.0E-08
     mixing beta               =       0.5000
     number of iterations used =            8  plain     mixing
     Exchange-correlation      = SLA  PW   PSX  PSC ( 1  4 10  8 0 0)
     Using LIBXC version       =    4   3   4

     celldm(1)=  18.381787  celldm(2)=   0.000000  celldm(3)=   0.000000
     celldm(4)=   0.000000  celldm(5)=   0.000000  celldm(6)=   0.000000

     crystal axes: (cart. coord. in units of alat)
               a(1) = (   1.000000   0.000460  -0.000016 )  
               a(2) = (  -0.499600   0.866214   0.000205 )  
               a(3) = (  -0.000017   0.000244   1.069378 )  

     reciprocal axes: (cart. coord. in units 2 pi/alat)
               b(1) = (  0.999735  0.576610 -0.000115 )  
               b(2) = ( -0.000531  1.154143 -0.000263 )  
               b(3) = (  0.000015 -0.000213  0.935123 )  


     PseudoPot. # 1 for Zn read from file:
     ./GBRV_PBEsol/zn_pbesol_v1.uspp.F.UPF
     MD5 check sum: 7d8615e52efe7c1e2b1899de8658bae2
     Pseudo is Ultrasoft, Zval = 20.0
     Generated by new atomic code, or converted to UPF format
     Using radial grid of  943 points,  6 beta functions with: 
                l(1) =   0
                l(2) =   0
                l(3) =   1
                l(4) =   1
                l(5) =   2
                l(6) =   2
     Q(r) pseudized with  8 coefficients,  rinner =    1.100   1.100   1.100
                                                       1.100   1.100

     PseudoPot. # 2 for O  read from file:
     ./GBRV_PBEsol/o_pbesol_v1.2.uspp.F.UPF
     MD5 check sum: 501638753501ef6325af9037351f7734
     Pseudo is Ultrasoft + core correction, Zval =  6.0
     Generated by new atomic code, or converted to UPF format
     Using radial grid of  737 points,  5 beta functions with: 
                l(1) =   0
                l(2) =   0
                l(3) =   1
                l(4) =   1
                l(5) =   2
     Q(r) pseudized with  8 coefficients,  rinner =    0.900   0.900   0.900
                                                       0.900   0.900

     PseudoPot. # 3 for Mg read from file:
     ./GBRV_PBEsol/mg_pbesol_v1.4.uspp.F.UPF
     MD5 check sum: 4059f37963cf5867752dbf5ab2400678
     Pseudo is Ultrasoft, Zval = 10.0
     Generated by new atomic code, or converted to UPF format
     Using radial grid of  821 points,  7 beta functions with: 
                l(1) =   0
                l(2) =   0
                l(3) =   0
                l(4) =   1
                l(5) =   1
                l(6) =   2
                l(7) =   2
     Q(r) pseudized with  8 coefficients,  rinner =    1.200   1.200   1.200
                                                       1.200   1.200

     atomic species   valence    mass     pseudopotential
        Zn            20.00    65.38000     Zn( 1.00)
        O              6.00    15.99900     O ( 1.00)
        Mg            10.00    24.30500     Mg( 1.00)

     No symmetry found


                                    s                        frac. trans.

      isym =  1     identity                                     

 cryst.   s( 1) = (     1          0          0      )
                  (     0          1          0      )
                  (     0          0          1      )

 cart.    s( 1) = (  1.0000000 -0.0000000  0.0000000 )
                  ( -0.0000000  1.0000000 -0.0000000 )
                  (  0.0000000  0.0000000  1.0000000 )


   Cartesian axes

     site n.     atom                  positions (alat units)
         1           Zn  tau(   1) = (   0.1657727   0.0972062   0.2731214  )
         2           Zn  tau(   2) = (   0.1687766   0.0951673   0.8035841  )
         3           Zn  tau(   3) = (   0.0007264   0.3851070   0.2711862  )
         4           Zn  tau(   4) = (   0.0005057   0.3862972   0.8057183  )
         5           Zn  tau(   5) = (  -0.1658443   0.6745215   0.2709444  )
         6           Zn  tau(   6) = (  -0.1657644   0.6740938   0.8065040  )
         7           Zn  tau(   7) = (   0.4988520   0.0964986   0.2706632  )
         8           Zn  tau(   8) = (   0.5005364   0.0959265   0.8062114  )
         9           Zn  tau(   9) = (   0.3326749   0.3864280   0.2702048  )
        10           Mg  tau(  10) = (   0.3350819   0.3834622   0.8046522  )
        11           Mg  tau(  11) = (   0.1669437   0.6758526   0.2715267  )
        12           Zn  tau(  12) = (   0.1672038   0.6738023   0.8060067  )
        13           Zn  tau(  13) = (   0.8350157   0.0969622   0.2689216  )
        14           Zn  tau(  14) = (   0.8312747   0.0962377   0.8067820  )
        15           Mg  tau(  15) = (   0.6667279   0.3872499   0.2703243  )
        16           Zn  tau(  16) = (   0.6666184   0.3851205   0.8045572  )
        17           Zn  tau(  17) = (   0.4997920   0.6750700   0.2708320  )
        18           Mg  tau(  18) = (   0.5015891   0.6744645   0.8052188  )
        19           Mg  tau(  19) = (  -0.0009694   0.1920707   0.5380649  )
        20           Zn  tau(  20) = (  -0.0005374   0.1920468   0.0025100  )
        21           Zn  tau(  21) = (  -0.1648309   0.4814995   0.5374857  )
        22           Zn  tau(  22) = (  -0.1681748   0.4802642   0.0041940  )
        23           Zn  tau(  23) = (  -0.3330036   0.7698571   0.5392653  )
        24           Zn  tau(  24) = (  -0.3319965   0.7703698   0.0039451  )
        25           Zn  tau(  25) = (   0.3333688   0.1935735   0.5385728  )
        26           Zn  tau(  26) = (   0.3336851   0.1912489   0.0007685  )
        27           Mg  tau(  27) = (   0.1669734   0.4810404   0.5396228  )
        28           Mg  tau(  28) = (   0.1655382   0.4822894   0.0048183  )
        29           Zn  tau(  29) = (  -0.0002687   0.7711879   0.5361689  )
        30           Zn  tau(  30) = (   0.0008002   0.7701342   0.0030933  )
        31           Zn  tau(  31) = (   0.6663071   0.1914545   0.5382930  )
        32           Mg  tau(  32) = (   0.6665539   0.1931975   0.0061261  )
        33           Zn  tau(  33) = (   0.4982845   0.4822789   0.5358173  )
        34           Zn  tau(  34) = (   0.5022378   0.4803494   0.0021866  )
        35           Zn  tau(  35) = (   0.3342592   0.7709136   0.5402597  )
        36           Zn  tau(  36) = (   0.3322193   0.7706095   0.0041378  )
        37           O   tau(  37) = (   0.1661648   0.0965015   0.0039872  )
        38           O   tau(  38) = (   0.1666025   0.0964049   0.5380405  )
        39           O   tau(  39) = (   0.0000861   0.3847302   0.0025538  )
        40           O   tau(  40) = (   0.0012839   0.3845690   0.5374610  )
        41           O   tau(  41) = (  -0.1659131   0.6732050   0.0042379  )
        42           O   tau(  42) = (  -0.1663101   0.6738520   0.5392409  )
        43           O   tau(  43) = (   0.5005858   0.0962324   0.0037787  )
        44           O   tau(  44) = (   0.4996896   0.0970268   0.5385483  )
        45           O   tau(  45) = (   0.3328340   0.3855567   0.0008127  )
        46           O   tau(  46) = (   0.3327255   0.3855860   0.5395985  )
        47           O   tau(  47) = (   0.1668469   0.6732874   0.0048617  )
        48           O   tau(  48) = (   0.1670076   0.6736069   0.5361440  )
        49           O   tau(  49) = (   0.8330850   0.0967383   0.0029271  )
        50           O   tau(  50) = (   0.8326810   0.0966272   0.5382688  )
        51           O   tau(  51) = (   0.6667717   0.3842891   0.0061695  )
        52           O   tau(  52) = (   0.6666172   0.3853173   0.5357926  )
        53           O   tau(  53) = (   0.5002177   0.6738796   0.0022306  )
        54           O   tau(  54) = (   0.5004257   0.6743403   0.5402351  )
        55           O   tau(  55) = (  -0.0000109   0.1933869   0.2731458  )
        56           O   tau(  56) = (   0.0001258   0.1921769   0.8036088  )
        57           O   tau(  57) = (  -0.1659958   0.4817882   0.2712108  )
        58           O   tau(  58) = (  -0.1667631   0.4808863   0.8057424  )
        59           O   tau(  59) = (  -0.3332826   0.7704192   0.2709688  )
        60           O   tau(  60) = (  -0.3323521   0.7698188   0.8065283  )
        61           O   tau(  61) = (   0.3327647   0.1940454   0.2706880  )
        62           O   tau(  62) = (   0.3340798   0.1919784   0.8062358  )
        63           O   tau(  63) = (   0.1667377   0.4831911   0.2702294  )
        64           O   tau(  64) = (   0.1683751   0.4809456   0.8046770  )
        65           O   tau(  65) = (   0.0003462   0.7708540   0.2715509  )
        66           O   tau(  66) = (   0.0012659   0.7697145   0.8060311  )
        67           O   tau(  67) = (   0.6667551   0.1935252   0.2689462  )
        68           O   tau(  68) = (   0.6662682   0.1934728   0.8068067  )
        69           O   tau(  69) = (   0.4992903   0.4824680   0.2703486  )
        70           O   tau(  70) = (   0.5004395   0.4817211   0.8045817  )
        71           O   tau(  71) = (   0.3337108   0.7710523   0.2708564  )
        72           O   tau(  72) = (   0.3338455   0.7698482   0.8052431  )

   Crystallographic axes

     site n.     atom                  positions (cryst. coord.)
         1           Zn  tau(   1) = (  0.2217473  0.1120300  0.2553838  )
         2           Zn  tau(   2) = (  0.2235135  0.1095357  0.7514320  )
         3           Zn  tau(   3) = (  0.2227514  0.4443969  0.2535105  )
         4           Zn  tau(   4) = (  0.2231553  0.4456300  0.7533634  )
         5           Zn  tau(   5) = (  0.2231042  0.7785111  0.2532204  )
         6           Zn  tau(   6) = (  0.2228756  0.7778766  0.7540344  )
         7           Zn  tau(   7) = (  0.5543306  0.1110372  0.2530901  )
         8           Zn  tau(   8) = (  0.5556228  0.1102351  0.7538935  )
         9           Zn  tau(   9) = (  0.5553737  0.4457455  0.2525974  )
        10           Mg  tau(  10) = (  0.5560083  0.4421807  0.7523719  )
        11           Mg  tau(  11) = (  0.5565714  0.7798706  0.2537695  )
        12           Zn  tau(  12) = (  0.5555875  0.7773635  0.7535744  )
        13           Zn  tau(  13) = (  0.8906726  0.1113942  0.2514663  )
        14           Zn  tau(  14) = (  0.8864529  0.1104186  0.7544319  )
        15           Mg  tau(  15) = (  0.8898121  0.4465168  0.2527138  )
        16           Zn  tau(  16) = (  0.8884130  0.4439186  0.7522876  )
        17           Zn  tau(  17) = (  0.8888803  0.7787907  0.2531250  )
        18           Mg  tau(  18) = (  0.8902661  0.7779504  0.7528423  )
        19           Mg  tau(  19) = (  0.1097187  0.2215361  0.5031159  )
        20           Zn  tau(  20) = (  0.1101985  0.2216491  0.0023063  )
        21           Zn  tau(  21) = (  0.1127881  0.5556654  0.5025103  )
        22           Zn  tau(  22) = (  0.1087944  0.5543818  0.0038174  )
        23           Zn  tau(  23) = (  0.1109297  0.8885602  0.5041107  )
        24           Zn  tau(  24) = (  0.1122940  0.8892922  0.0035205  )
        25           Zn  tau(  25) = (  0.4448347  0.2230929  0.5035954  )
        26           Zn  tau(  26) = (  0.4438725  0.2205512  0.0006829  )
        27           Mg  tau(  27) = (  0.4442395  0.5549588  0.5045137  )
        28           Mg  tau(  28) = (  0.4435866  0.5565418  0.0044056  )
        29           Zn  tau(  29) = (  0.4443441  0.8899202  0.5012197  )
        30           Zn  tau(  30) = (  0.4448667  0.8888438  0.0027288  )
        31           Zn  tau(  31) = (  0.7764629  0.2204705  0.5033391  )
        32           Mg  tau(  32) = (  0.7777761  0.2226221  0.0056973  )
        33           Zn  tau(  33) = (  0.7761774  0.5562134  0.5009597  )
        34           Zn  tau(  34) = (  0.7790786  0.5541247  0.0019499  )
        35           Zn  tau(  35) = (  0.7786246  0.8894251  0.5050501  )
        36           Zn  tau(  36) = (  0.7764718  0.8892161  0.0037104  )
        37           O   tau(  37) = (  0.2217640  0.1112872  0.0037104  )
        38           O   tau(  38) = (  0.2220843  0.1110351  0.5031159  )
        39           O   tau(  39) = (  0.2219250  0.4440330  0.0023063  )
        40           O   tau(  40) = (  0.2229678  0.4437056  0.5025103  )
        41           O   tau(  41) = (  0.2223070  0.7770618  0.0038174  )
        42           O   tau(  42) = (  0.2222215  0.7776681  0.5041107  )
        43           O   tau(  43) = (  0.5559412  0.1107992  0.0035205  )
        44           O   tau(  44) = (  0.5554416  0.1115759  0.5035954  )
        45           O   tau(  45) = (  0.5550615  0.4448107  0.0006829  )
        46           O   tau(  46) = (  0.5549077  0.4447029  0.5045137  )
        47           O   tau(  47) = (  0.5550263  0.7769801  0.0044056  )
        48           O   tau(  48) = (  0.5553098  0.7772090  0.5012197  )
        49           O   tau(  49) = (  0.8886441  0.1112068  0.0027288  )
        50           O   tau(  50) = (  0.8881144  0.1109380  0.5033391  )
        51           O   tau(  51) = (  0.8881791  0.4431690  0.0056973  )
        52           O   tau(  52) = (  0.8885564  0.4442165  0.5009597  )
        53           O   tau(  53) = (  0.8886505  0.7774873  0.0019499  )
        54           O   tau(  54) = (  0.8890620  0.7778774  0.5050501  )
        55           O   tau(  55) = (  0.1114663  0.2231243  0.2553838  )
        56           O   tau(  56) = (  0.1108441  0.2215882  0.7514320  )
        57           O   tau(  57) = (  0.1118208  0.5560693  0.2535105  )
        58           O   tau(  58) = (  0.1104719  0.5548882  0.7533634  )
        59           O   tau(  59) = (  0.1110058  0.8892796  0.2532204  )
        60           O   tau(  60) = (  0.1115281  0.8884454  0.7540344  )
        61           O   tau(  61) = (  0.4445337  0.2237083  0.2530901  )
        62           O   tau(  62) = (  0.4445948  0.2211811  0.7538935  )
        63           O   tau(  63) = (  0.4452751  0.5575121  0.2525974  )
        64           O   tau(  64) = (  0.4455556  0.5547790  0.7523719  )
        65           O   tau(  65) = (  0.4447968  0.8896042  0.2537695  )
        66           O   tau(  66) = (  0.4449975  0.8881480  0.7535744  )
        67           O   tau(  67) = (  0.7781359  0.2229311  0.2514663  )
        68           O   tau(  68) = (  0.7775568  0.2227294  0.7544319  )
        69           O   tau(  69) = (  0.7773225  0.5565009  0.2527138  )
        70           O   tau(  70) = (  0.7779791  0.5554977  0.7522876  )
        71           O   tau(  71) = (  0.7781875  0.8896563  0.2531250  )
        72           O   tau(  72) = (  0.7775661  0.8881259  0.7528423  )

     number of k points=    36  Marzari-Vanderbilt smearing, width (Ry)=  0.0010
                       cart. coord. in units 2pi/alat
        k(    1) = (   0.0000000   0.0000000   0.0000000), wk =   0.0312500
        k(    2) = (   0.0000037  -0.0000532   0.2337807), wk =   0.0625000
        k(    3) = (  -0.0000073   0.0001063  -0.4675613), wk =   0.0312500
        k(    4) = (  -0.0001327   0.2885358  -0.0000658), wk =   0.0625000
        k(    5) = (  -0.0001290   0.2884826   0.2337149), wk =   0.0625000
        k(    6) = (  -0.0001401   0.2886421  -0.4676271), wk =   0.0625000
        k(    7) = (  -0.0001364   0.2885889  -0.2338464), wk =   0.0625000
        k(    8) = (   0.0002654  -0.5770715   0.0001315), wk =   0.0312500
        k(    9) = (   0.0002691  -0.5771247   0.2339122), wk =   0.0625000
        k(   10) = (   0.0002581  -0.5769652  -0.4674298), wk =   0.0312500
        k(   11) = (   0.2499337   0.1441525  -0.0000289), wk =   0.0625000
        k(   12) = (   0.2499374   0.1440993   0.2337518), wk =   0.0625000
        k(   13) = (   0.2499264   0.1442588  -0.4675902), wk =   0.0625000
        k(   14) = (   0.2499301   0.1442056  -0.2338095), wk =   0.0625000
        k(   15) = (   0.2498010   0.4326882  -0.0000946), wk =   0.0625000
        k(   16) = (   0.2498047   0.4326351   0.2336861), wk =   0.0625000
        k(   17) = (   0.2497937   0.4327946  -0.4676560), wk =   0.0625000
        k(   18) = (   0.2497973   0.4327414  -0.2338753), wk =   0.0625000
        k(   19) = (   0.2501992  -0.4329191   0.0001027), wk =   0.0625000
        k(   20) = (   0.2502028  -0.4329722   0.2338833), wk =   0.0625000
        k(   21) = (   0.2501918  -0.4328127  -0.4674587), wk =   0.0625000
        k(   22) = (   0.2501955  -0.4328659  -0.2336780), wk =   0.0625000
        k(   23) = (   0.2500664  -0.1443833   0.0000369), wk =   0.0625000
        k(   24) = (   0.2500701  -0.1444364   0.2338176), wk =   0.0625000
        k(   25) = (   0.2500591  -0.1442770  -0.4675245), wk =   0.0625000
        k(   26) = (   0.2500628  -0.1443301  -0.2337438), wk =   0.0625000
        k(   27) = (  -0.4998674  -0.2883050   0.0000577), wk =   0.0312500
        k(   28) = (  -0.4998638  -0.2883581   0.2338384), wk =   0.0625000
        k(   29) = (  -0.4998748  -0.2881987  -0.4675036), wk =   0.0312500
        k(   30) = (  -0.5000002   0.0002308  -0.0000080), wk =   0.0625000
        k(   31) = (  -0.4999965   0.0001777   0.2337726), wk =   0.0625000
        k(   32) = (  -0.5000075   0.0003371  -0.4675694), wk =   0.0625000
        k(   33) = (  -0.5000038   0.0002840  -0.2337887), wk =   0.0625000
        k(   34) = (  -0.4996020  -0.8653765   0.0001892), wk =   0.0312500
        k(   35) = (  -0.4995983  -0.8654296   0.2339699), wk =   0.0625000
        k(   36) = (  -0.4996094  -0.8652702  -0.4673721), wk =   0.0312500

                       cryst. coord.
        k(    1) = (   0.0000000   0.0000000   0.0000000), wk =   0.0312500
        k(    2) = (  -0.0000000   0.0000000   0.2500000), wk =   0.0625000
        k(    3) = (   0.0000000  -0.0000000  -0.5000000), wk =   0.0312500
        k(    4) = (  -0.0000000   0.2500000   0.0000000), wk =   0.0625000
        k(    5) = (  -0.0000000   0.2500000   0.2500000), wk =   0.0625000
        k(    6) = (  -0.0000000   0.2500000  -0.5000000), wk =   0.0625000
        k(    7) = (   0.0000000   0.2500000  -0.2500000), wk =   0.0625000
        k(    8) = (   0.0000000  -0.5000000  -0.0000000), wk =   0.0312500
        k(    9) = (   0.0000000  -0.5000000   0.2500000), wk =   0.0625000
        k(   10) = (   0.0000000  -0.5000000  -0.5000000), wk =   0.0312500
        k(   11) = (   0.2500000  -0.0000000  -0.0000000), wk =   0.0625000
        k(   12) = (   0.2500000  -0.0000000   0.2500000), wk =   0.0625000
        k(   13) = (   0.2500000  -0.0000000  -0.5000000), wk =   0.0625000
        k(   14) = (   0.2500000  -0.0000000  -0.2500000), wk =   0.0625000
        k(   15) = (   0.2500000   0.2500000  -0.0000000), wk =   0.0625000
        k(   16) = (   0.2500000   0.2500000   0.2500000), wk =   0.0625000
        k(   17) = (   0.2500000   0.2500000  -0.5000000), wk =   0.0625000
        k(   18) = (   0.2500000   0.2500000  -0.2500000), wk =   0.0625000
        k(   19) = (   0.2500000  -0.5000000  -0.0000000), wk =   0.0625000
        k(   20) = (   0.2500000  -0.5000000   0.2500000), wk =   0.0625000
        k(   21) = (   0.2500000  -0.5000000  -0.5000000), wk =   0.0625000
        k(   22) = (   0.2500000  -0.5000000  -0.2500000), wk =   0.0625000
        k(   23) = (   0.2500000  -0.2500000  -0.0000000), wk =   0.0625000
        k(   24) = (   0.2500000  -0.2500000   0.2500000), wk =   0.0625000
        k(   25) = (   0.2500000  -0.2500000  -0.5000000), wk =   0.0625000
        k(   26) = (   0.2500000  -0.2500000  -0.2500000), wk =   0.0625000
        k(   27) = (  -0.5000000   0.0000000   0.0000000), wk =   0.0312500
        k(   28) = (  -0.5000000   0.0000000   0.2500000), wk =   0.0625000
        k(   29) = (  -0.5000000   0.0000000  -0.5000000), wk =   0.0312500
        k(   30) = (  -0.5000000   0.2500000   0.0000000), wk =   0.0625000
        k(   31) = (  -0.5000000   0.2500000   0.2500000), wk =   0.0625000
        k(   32) = (  -0.5000000   0.2500000  -0.5000000), wk =   0.0625000
        k(   33) = (  -0.5000000   0.2500000  -0.2500000), wk =   0.0625000
        k(   34) = (  -0.5000000  -0.5000000   0.0000000), wk =   0.0312500
        k(   35) = (  -0.5000000  -0.5000000   0.2500000), wk =   0.0625000
        k(   36) = (  -0.5000000  -0.5000000  -0.5000000), wk =   0.0312500

     Dense  grid:  1086517 G-vectors     FFT dimensions: ( 135, 135, 144)

     Smooth grid:   361485 G-vectors     FFT dimensions: (  96,  96, 100)

     Dynamical RAM for                 wfc:      22.13 MB

     Dynamical RAM for     wfc (w. buffer):     132.80 MB

     Dynamical RAM for           str. fact:       3.11 MB

     Dynamical RAM for           local pot:       0.00 MB

     Dynamical RAM for          nlocal pot:      48.40 MB

     Dynamical RAM for                qrad:      20.97 MB

     Dynamical RAM for          rho,v,vnew:       6.86 MB

     Dynamical RAM for               rhoin:       2.29 MB

     Dynamical RAM for            rho*nmix:      16.58 MB

     Dynamical RAM for           G-vectors:       4.06 MB

     Dynamical RAM for          h,s,v(r/c):      48.38 MB

     Dynamical RAM for          <psi|beta>:       8.82 MB

     Dynamical RAM for                 psi:      88.53 MB

     Dynamical RAM for                hpsi:      88.53 MB

     Dynamical RAM for                spsi:      88.53 MB

     Dynamical RAM for      wfcinit/wfcrot:      54.07 MB

     Dynamical RAM for           addusdens:      32.12 MB

     Dynamical RAM for          addusforce:      55.10 MB

     Dynamical RAM for         addusstress:      28.95 MB

     Estimated static dynamical RAM per process >     245.47 MB

     Estimated max dynamical RAM per process >     568.26 MB

     Estimated total dynamical RAM >      71.03 GB

     Check: negative core charge=   -0.000002

     Initial potential from superposition of free atoms

     starting charge  853.59448, renormalised to  856.00000
     Starting wfcs are  548 randomized atomic wfcs

     total cpu time spent up to now is       16.6 secs

     Self-consistent Calculation

     iteration #  1     ecut=    60.00 Ry     beta= 0.50
     Davidson diagonalization with overlap
     ethr =  1.00E-02,  avg # of iterations =  4.9

     total cpu time spent up to now is       84.6 secs

     total energy              =  -15071.68188905 Ry
     Harris-Foulkes estimate   =  -15084.33143301 Ry
     estimated scf accuracy    <      19.21887115 Ry

     iteration #  2     ecut=    60.00 Ry     beta= 0.50
     Davidson diagonalization with overlap
     ethr =  2.25E-03,  avg # of iterations =  3.8

     total cpu time spent up to now is      167.1 secs

     total energy              =  -15077.26697754 Ry
     Harris-Foulkes estimate   =  -15081.59290831 Ry
     estimated scf accuracy    <       9.88048259 Ry

     iteration #  3     ecut=    60.00 Ry     beta= 0.50
     Davidson diagonalization with overlap
     ethr =  1.15E-03,  avg # of iterations =  2.0

     total cpu time spent up to now is      218.1 secs

     total energy              =  -15079.07044021 Ry
     Harris-Foulkes estimate   =  -15079.13882336 Ry
     estimated scf accuracy    <       0.18769869 Ry

     iteration #  4     ecut=    60.00 Ry     beta= 0.50
     Davidson diagonalization with overlap
     ethr =  2.19E-05,  avg # of iterations =  5.5

     total cpu time spent up to now is      312.7 secs

     total energy              =  -15079.08608540 Ry
     Harris-Foulkes estimate   =  -15079.11715235 Ry
     estimated scf accuracy    <       0.08607619 Ry

     iteration #  5     ecut=    60.00 Ry     beta= 0.50
     Davidson diagonalization with overlap
     ethr =  1.01E-05,  avg # of iterations =  4.3

     total cpu time spent up to now is      380.0 secs

     total energy              =  -15079.10020201 Ry
     Harris-Foulkes estimate   =  -15079.10141683 Ry
     estimated scf accuracy    <       0.00432861 Ry

     iteration #  6     ecut=    60.00 Ry     beta= 0.50
     Davidson diagonalization with overlap
     ethr =  5.06E-07,  avg # of iterations =  2.2

     total cpu time spent up to now is      436.6 secs

     total energy              =  -15079.10094475 Ry
     Harris-Foulkes estimate   =  -15079.10104708 Ry
     estimated scf accuracy    <       0.00037258 Ry

     iteration #  7     ecut=    60.00 Ry     beta= 0.50
     Davidson diagonalization with overlap
     ethr =  4.35E-08,  avg # of iterations =  2.0

     total cpu time spent up to now is      489.4 secs

     total energy              =  -15079.10103412 Ry
     Harris-Foulkes estimate   =  -15079.10104372 Ry
     estimated scf accuracy    <       0.00008361 Ry

     iteration #  8     ecut=    60.00 Ry     beta= 0.50
     Davidson diagonalization with overlap
     ethr =  9.77E-09,  avg # of iterations =  2.0

     total cpu time spent up to now is      534.5 secs

     total energy              =  -15079.10105170 Ry
     Harris-Foulkes estimate   =  -15079.10105043 Ry
     estimated scf accuracy    <       0.00001414 Ry

     iteration #  9     ecut=    60.00 Ry     beta= 0.50
     Davidson diagonalization with overlap
     ethr =  1.65E-09,  avg # of iterations =  2.0

     total cpu time spent up to now is      584.7 secs

     total energy              =  -15079.10105380 Ry
     Harris-Foulkes estimate   =  -15079.10105453 Ry
     estimated scf accuracy    <       0.00000235 Ry

     iteration # 10     ecut=    60.00 Ry     beta= 0.50
     Davidson diagonalization with overlap
     ethr =  2.75E-10,  avg # of iterations =  2.0

     total cpu time spent up to now is      637.4 secs

     total energy              =  -15079.10105431 Ry
     Harris-Foulkes estimate   =  -15079.10105435 Ry
     estimated scf accuracy    <       0.00000030 Ry

     iteration # 11     ecut=    60.00 Ry     beta= 0.50
     Davidson diagonalization with overlap
     ethr =  3.50E-11,  avg # of iterations =  2.0

     total cpu time spent up to now is      686.0 secs

     total energy              =  -15079.10105437 Ry
     Harris-Foulkes estimate   =  -15079.10105438 Ry
     estimated scf accuracy    <       0.00000005 Ry

     iteration # 12     ecut=    60.00 Ry     beta= 0.50
     Davidson diagonalization with overlap
     ethr =  5.78E-12,  avg # of iterations =  2.0

     total cpu time spent up to now is      731.8 secs

     End of self-consistent calculation

          k = 0.0000 0.0000 0.0000 ( 45257 PWs)   bands (ev):

  -115.2278-115.2115-115.2085-115.2070-115.2026-115.1826-115.1780-115.1762
  -115.1693-115.1693-115.1669-115.1660-115.1658-115.1620-115.1612-115.1556
  -115.1524-115.1476-115.1451-115.1390-115.1375-115.1340-115.1233-115.1226
  -115.1184-115.1147-115.1087-115.1006 -69.6732 -69.6656 -69.6631 -69.6532
   -69.6509 -69.6291 -69.6267 -69.6253 -69.6191 -69.6177 -69.6174 -69.6154
   -69.6132 -69.6115 -69.6092 -69.6082 -69.6010 -69.5969 -69.5925 -69.5915
   -69.5890 -69.5844 -69.5731 -69.5721 -69.5656 -69.5638 -69.5570 -69.5503
   -69.5414 -69.5385 -69.5215 -69.5199 -69.5197 -69.5171 -69.5170 -69.5163
   -69.5116 -69.5095 -69.4969 -69.4913 -69.4906 -69.4871 -69.4854 -69.4854
   -69.4827 -69.4822 -69.4821 -69.4787 -69.4786 -69.4780 -69.4776 -69.4770
   -69.4759 -69.4735 -69.4734 -69.4717 -69.4704 -69.4662 -69.4661 -69.4659
   -69.4621 -69.4600 -69.4583 -69.4580 -69.4574 -69.4545 -69.4526 -69.4500
   -69.4469 -69.4437 -69.4433 -69.4390 -69.4354 -69.4333 -69.4316 -69.4313
   -69.4309 -69.4283 -69.4269 -69.4223 -69.4198 -69.4182 -69.4129 -69.4083
   -64.5553 -64.5234 -64.5226 -64.5053 -64.5013 -64.4902 -64.4450 -64.4416
   -31.5931 -31.5574 -31.5557 -31.5441 -31.5339 -31.5299 -31.5264 -31.5227
   -31.5003 -31.4958 -31.4949 -31.4937 -31.4805 -31.4798 -31.4783 -31.4765
   -31.4758 -31.4743 -31.4670 -31.4617 -31.4194 -31.4155 -31.4141 -31.4122
    -9.9353  -9.6606  -9.6274  -9.5229  -9.4677  -9.4387  -9.4118  -9.3870
    -9.3757  -9.3136  -9.2899  -9.2616  -9.2402  -9.2348  -9.2129  -9.1967
    -9.1721  -9.1585  -9.1215  -9.1059  -9.0869  -9.0321  -9.0188  -8.9944
    -8.9745  -8.9579  -8.9468  -8.9413  -8.9034  -8.8953  -8.8798  -8.8542
    -8.8488  -8.8446  -8.6281  -8.6032   1.6704   1.6818   1.6898   1.7035
     1.7186   1.7331   1.7525   1.7564   1.7725   1.7889   1.8078   1.8211
     1.8321   1.8393   1.8918   1.8926   1.9121   1.9291   1.9415   2.0124
     2.0241   2.0353   2.0623   2.0955   2.1066   2.1241   2.1412   2.1486
     2.1841   2.2095   2.2726   2.2814   2.3413   2.3502   2.4280   2.4460
     2.4463   2.4545   2.4624   2.4739   2.4765   2.4888   2.4917   2.5145
     2.5365   2.5675   2.5848   2.6004   2.6122   2.6205   2.6280   2.6348
     2.6392   2.6487   2.6602   2.6759   2.6808   2.6963   2.7028   2.7074
     2.7197   2.7262   2.7452   2.7495   2.7569   2.7863   2.8019   2.8083
     2.8293   2.8528   2.8558   2.8779   2.8954   2.9018   2.9093   2.9307
     2.9464   2.9616   2.9899   3.0209   3.0382   3.0471   3.0516   3.0670
     3.0845   3.0910   3.1027   3.1330   3.1717   3.1981   3.2236   3.2438
     3.2558   3.2592   3.2678   3.2833   3.2896   3.3127   3.3246   3.3455
     3.3501   3.3627   3.3650   3.3722   3.3916   3.4037   3.4127   3.4228
     3.4313   3.4485   3.4528   3.4663   3.4767   3.4810   3.4905   3.5032
     3.5142   3.5174   3.5254   3.5377   3.5434   3.5588   3.5666   3.5738
     3.5775   3.5835   3.5941   3.6148   3.6186   3.6263   3.6347   3.6499
     3.6535   3.6764   3.7139   3.7397   3.7529   3.7822   3.7877   3.8065
     3.8333   3.8723   3.9113   4.2045   4.2306   4.2342   4.2571   4.3123
     4.3218   4.3799   4.3897   4.4141   4.4229   4.4405   4.4558   4.4787
     4.4843   4.5142   4.5338   4.5522   4.6482   4.7393   4.7682   4.7920
     4.8091   4.8511   4.9055   4.9482   4.9661   4.9965   5.0095   5.0854
     5.1416   5.1556   5.1779   5.2174   5.2247   5.2277   5.2664   5.3154
     5.3371   5.3558   5.3638   5.3893   5.4486   5.4842   5.5713   5.5895
     5.7039   6.0575   6.1397   6.1537   6.2100   6.2645   6.3126   6.3240
     6.3600   6.4105   6.4522   6.4680   6.4977   6.5058   6.5224   6.5385
     6.5458   6.5633   6.5874   6.5948   6.6004   6.6322   6.6438   6.6590
     6.6839   6.7112   6.7406   6.7951   6.8167   6.8233   6.8458   6.8753
     6.8907   6.9057   6.9124   6.9346   7.0055   7.0391   7.0487   7.0530
     7.0695   7.1040   7.1180   7.1252   7.1456   7.1724   7.1905   7.1995
     7.3320   7.3536   7.4015   7.4366   7.6489   7.6560   7.8081   7.8110
     7.8174   7.8220   7.9580   7.9667   9.3687  11.7365  11.7495  12.5991
    12.6358  12.6660  12.7125  12.7339  12.8146  13.2609  13.3817  13.3899
    13.4110  13.4292  13.4499  13.4712  13.4917  13.5344  13.5754  13.6697
    13.7149  13.8394  15.3245  15.3871  15.4477  15.4994  15.5170  15.5549
    15.5818  15.6518  15.7077  15.7277  15.7517  15.7690  15.8081  15.8278
    15.8984  15.9332  16.0090  16.0949  16.1090  16.1234  16.1634  16.2243
    16.3031  16.3160  16.3194  16.3261  16.4352  16.6490  16.6832  16.7592
    16.7711  16.7877  16.8320  16.8487  16.9024  16.9102  16.9283  16.9531
    16.9547  16.9744  16.9890  17.0202  17.0395  17.3984  17.4411  17.5025
    17.6074  17.6761  17.8492  17.8790  18.1256  18.1996  18.2186  18.2377
    18.2513  18.2835  18.3118  18.3267  18.3761  18.3859  18.4333  18.4718
    18.5200  18.5914

     occupation numbers 
     1.0000   1.0000   1.0000   1.0000   1.0000   1.0000   1.0000   1.0000
     1.0000   1.0000   1.0000   1.0000   1.0000   1.0000   1.0000   1.0000
     1.0000   1.0000   1.0000   1.0000   1.0000   1.0000   1.0000   1.0000
     1.0000   1.0000   1.0000   1.0000   1.0000   1.0000   1.0000   1.0000
     1.0000   1.0000   1.0000   1.0000   1.0000   1.0000   1.0000   1.0000
     1.0000   1.0000   1.0000   1.0000   1.0000   1.0000   1.0000   1.0000
     1.0000   1.0000   1.0000   1.0000   1.0000   1.0000   1.0000   1.0000
     1.0000   1.0000   1.0000   1.0000   1.0000   1.0000   1.0000   1.0000
     1.0000   1.0000   1.0000   1.0000   1.0000   1.0000   1.0000   1.0000
     1.0000   1.0000   1.0000   1.0000   1.0000   1.0000   1.0000   1.0000
     1.0000   1.0000   1.0000   1.0000   1.0000   1.0000   1.0000   1.0000
     1.0000   1.0000   1.0000   1.0000   1.0000   1.0000   1.0000   1.0000
     1.0000   1.0000   1.0000   1.0000   1.0000   1.0000   1.0000   1.0000
     1.0000   1.0000   1.0000   1.0000   1.0000   1.0000   1.0000   1.0000
     1.0000   1.0000   1.0000   1.0000   1.0000   1.0000   1.0000   1.0000
     1.0000   1.0000   1.0000   1.0000   1.0000   1.0000   1.0000   1.0000
     1.0000   1.0000   1.0000   1.0000   1.0000   1.0000   1.0000   1.0000
     1.0000   1.0000   1.0000   1.0000   1.0000   1.0000   1.0000   1.0000
     1.0000   1.0000   1.0000   1.0000   1.0000   1.0000   1.0000   1.0000
     1.0000   1.0000   1.0000   1.0000   1.0000   1.0000   1.0000   1.0000
     1.0000   1.0000   1.0000   1.0000   1.0000   1.0000   1.0000   1.0000
     1.0000   1.0000   1.0000   1.0000   1.0000   1.0000   1.0000   1.0000
     1.0000   1.0000   1.0000   1.0000   1.0000   1.0000   1.0000   1.0000
     1.0000   1.0000   1.0000   1.0000   1.0000   1.0000   1.0000   1.0000
     1.0000   1.0000   1.0000   1.0000   1.0000   1.0000   1.0000   1.0000
     1.0000   1.0000   1.0000   1.0000   1.0000   1.0000   1.0000   1.0000
     1.0000   1.0000   1.0000   1.0000   1.0000   1.0000   1.0000   1.0000
     1.0000   1.0000   1.0000   1.0000   1.0000   1.0000   1.0000   1.0000
     1.0000   1.0000   1.0000   1.0000   1.0000   1.0000   1.0000   1.0000
     1.0000   1.0000   1.0000   1.0000   1.0000   1.0000   1.0000   1.0000
     1.0000   1.0000   1.0000   1.0000   1.0000   1.0000   1.0000   1.0000
     1.0000   1.0000   1.0000   1.0000   1.0000   1.0000   1.0000   1.0000
     1.0000   1.0000   1.0000   1.0000   1.0000   1.0000   1.0000   1.0000
     1.0000   1.0000   1.0000   1.0000   1.0000   1.0000   1.0000   1.0000
     1.0000   1.0000   1.0000   1.0000   1.0000   1.0000   1.0000   1.0000
     1.0000   1.0000   1.0000   1.0000   1.0000   1.0000   1.0000   1.0000
     1.0000   1.0000   1.0000   1.0000   1.0000   1.0000   1.0000   1.0000
     1.0000   1.0000   1.0000   1.0000   1.0000   1.0000   1.0000   1.0000
     1.0000   1.0000   1.0000   1.0000   1.0000   1.0000   1.0000   1.0000
     1.0000   1.0000   1.0000   1.0000   1.0000   1.0000   1.0000   1.0000
     1.0000   1.0000   1.0000   1.0000   1.0000   1.0000   1.0000   1.0000
     1.0000   1.0000   1.0000   1.0000   1.0000   1.0000   1.0000   1.0000
     1.0000   1.0000   1.0000   1.0000   1.0000   1.0000   1.0000   1.0000
     1.0000   1.0000   1.0000   1.0000   1.0000   1.0000   1.0000   1.0000
     1.0000   1.0000   1.0000   1.0000   1.0000   1.0000   1.0000   1.0000
     1.0000   1.0000   1.0000   1.0000   1.0000   1.0000   1.0000   1.0000
     1.0000   1.0000   1.0000   1.0000   1.0000   1.0000   1.0000   1.0000
     1.0000   1.0000   1.0000   1.0000   1.0000   1.0000   1.0000   1.0000
     1.0000   1.0000   1.0000   1.0000   1.0000   1.0000   1.0000   1.0000
     1.0000   1.0000   1.0000   1.0000   1.0000   1.0000   1.0000   1.0000
     1.0000   1.0000   1.0000   1.0000   1.0000   1.0000   1.0000   1.0000
     1.0000   1.0000   1.0000   1.0000   1.0000   1.0000   1.0000   1.0000
     1.0000   1.0000   1.0000   1.0000   1.0000   1.0000   1.0000   1.0000
     1.0000   1.0000   1.0000   1.0000   0.0000   0.0000   0.0000   0.0000
     0.0000   0.0000   0.0000   0.0000   0.0000   0.0000   0.0000   0.0000
     0.0000   0.0000   0.0000   0.0000   0.0000   0.0000   0.0000   0.0000
     0.0000   0.0000   0.0000   0.0000   0.0000   0.0000   0.0000   0.0000
     0.0000   0.0000   0.0000   0.0000   0.0000   0.0000   0.0000   0.0000
     0.0000   0.0000   0.0000   0.0000   0.0000   0.0000   0.0000   0.0000
     0.0000   0.0000   0.0000   0.0000   0.0000   0.0000   0.0000   0.0000
     0.0000   0.0000   0.0000   0.0000   0.0000   0.0000   0.0000   0.0000
     0.0000   0.0000   0.0000   0.0000   0.0000   0.0000   0.0000   0.0000
     0.0000   0.0000   0.0000   0.0000   0.0000   0.0000   0.0000   0.0000
     0.0000   0.0000   0.0000   0.0000   0.0000   0.0000   0.0000   0.0000
     0.0000   0.0000

          k = 0.0000-0.0001 0.2338 ( 45135 PWs)   bands (ev):

  -115.2278-115.2115-115.2085-115.2070-115.2026-115.1826-115.1780-115.1762
  -115.1693-115.1693-115.1669-115.1660-115.1658-115.1620-115.1612-115.1556
  -115.1524-115.1476-115.1451-115.1390-115.1375-115.1340-115.1233-115.1226
  -115.1184-115.1147-115.1087-115.1006 -69.6732 -69.6656 -69.6631 -69.6532
   -69.6509 -69.6291 -69.6267 -69.6253 -69.6191 -69.6177 -69.6174 -69.6154
   -69.6132 -69.6115 -69.6092 -69.6082 -69.6010 -69.5969 -69.5925 -69.5915
   -69.5890 -69.5844 -69.5731 -69.5721 -69.5656 -69.5638 -69.5570 -69.5503
   -69.5414 -69.5385 -69.5215 -69.5199 -69.5197 -69.5171 -69.5170 -69.5163
   -69.5116 -69.5095 -69.4969 -69.4913 -69.4906 -69.4871 -69.4854 -69.4854
   -69.4827 -69.4822 -69.4821 -69.4787 -69.4786 -69.4780 -69.4776 -69.4770
   -69.4759 -69.4735 -69.4734 -69.4717 -69.4704 -69.4662 -69.4661 -69.4659
   -69.4621 -69.4600 -69.4583 -69.4580 -69.4574 -69.4545 -69.4526 -69.4500
   -69.4469 -69.4437 -69.4433 -69.4390 -69.4354 -69.4333 -69.4316 -69.4313
   -69.4309 -69.4283 -69.4269 -69.4223 -69.4198 -69.4182 -69.4129 -69.4083
   -64.5553 -64.5234 -64.5226 -64.5053 -64.5013 -64.4902 -64.4450 -64.4416
   -31.5931 -31.5574 -31.5557 -31.5441 -31.5339 -31.5298 -31.5265 -31.5227
   -31.5003 -31.4958 -31.4949 -31.4937 -31.4805 -31.4798 -31.4783 -31.4765
   -31.4758 -31.4743 -31.4670 -31.4617 -31.4194 -31.4155 -31.4141 -31.4122
    -9.9122  -9.7496  -9.5667  -9.5144  -9.4580  -9.4287  -9.3990  -9.3833
    -9.3690  -9.3301  -9.3087  -9.2808  -9.2628  -9.2510  -9.2213  -9.1804
    -9.1637  -9.1538  -9.1301  -9.0883  -9.0607  -9.0294  -9.0143  -8.9943
    -8.9743  -8.9616  -8.9543  -8.9316  -8.9021  -8.8978  -8.8828  -8.8575
    -8.8511  -8.8481  -8.6291  -8.6039   1.6674   1.6786   1.6851   1.6974
     1.7095   1.7338   1.7498   1.7682   1.7747   1.8018   1.8139   1.8260
     1.8490   1.8533   1.8881   1.9004   1.9114   1.9349   1.9517   2.0128
     2.0137   2.0360   2.0660   2.0935   2.1023   2.1256   2.1373   2.1447
     2.1818   2.2107   2.2775   2.2906   2.3370   2.3457   2.4277   2.4433
     2.4506   2.4548   2.4621   2.4762   2.4858   2.4916   2.4954   2.5135
     2.5559   2.5808   2.5874   2.6008   2.6099   2.6154   2.6216   2.6372
     2.6539   2.6654   2.6732   2.6812   2.6881   2.7019   2.7059   2.7130
     2.7175   2.7283   2.7393   2.7477   2.7563   2.7782   2.7928   2.8101
     2.8200   2.8421   2.8553   2.8697   2.8760   2.8893   2.8971   2.9087
     2.9163   2.9498   2.9706   2.9849   3.0105   3.0404   3.0535   3.0649
     3.0733   3.0883   3.1094   3.1248   3.1487   3.1610   3.2197   3.2365
     3.2525   3.2578   3.2738   3.2793   3.2869   3.3169   3.3312   3.3432
     3.3503   3.3701   3.3716   3.3760   3.3957   3.3997   3.4149   3.4243
     3.4323   3.4424   3.4471   3.4638   3.4677   3.4871   3.4967   3.5023
     3.5148   3.5191   3.5288   3.5358   3.5481   3.5530   3.5664   3.5756
     3.5802   3.5891   3.5965   3.6113   3.6187   3.6283   3.6527   3.6634
     3.6942   3.7015   3.7239   3.7494   3.7654   3.7839   3.7991   3.8143
     3.8546   3.8719   3.9874   4.0442   4.0470   4.2852   4.3198   4.3460
     4.3755   4.3884   4.4097   4.4135   4.4327   4.4451   4.4545   4.4807
     4.4955   4.5078   4.5181   4.5518   4.6096   4.7136   4.7512   4.7561
     4.7681   4.8156   4.8562   4.8904   4.9278   4.9482   4.9587   4.9905
     5.0974   5.1069   5.1853   5.2191   5.2591   5.3307   5.3707   5.3897
     5.4281   5.4361   5.4829   5.5412   5.5727   5.5858   5.6525   5.6955
     5.8364   6.0627   6.1309   6.1480   6.1999   6.2357   6.2692   6.3000
     6.3148   6.3387   6.3913   6.4054   6.4345   6.4524   6.4805   6.4913
     6.5064   6.5400   6.5703   6.5795   6.6136   6.6200   6.6529   6.6590
     6.6748   6.6893   6.7097   6.7197   6.7290   6.7692   6.8024   6.8384
     6.8581   6.8780   6.8970   6.9149   6.9656   7.0349   7.0703   7.1095
     7.1426   7.1619   7.1823   7.2099   7.2224   7.2404   7.2515   7.2672
     7.2901   7.3177   7.3345   7.3437   7.6622   7.6686   7.7508   7.7610
     7.8680   7.8769   7.9476   7.9566   9.6400  11.0089  12.3352  12.6135
    12.6524  12.6829  12.7330  12.7631  12.8376  12.9583  12.9878  13.0249
    13.0943  13.1301  13.2579  13.4989  13.9569  13.9914  14.0290  14.0732
    14.1255  14.2351  15.1152  15.1404  15.1664  15.2297  15.2610  15.3780
    15.4708  15.5593  15.6367  15.7437  15.8316  15.8387  15.8805  15.9420
    16.0240  16.0684  16.1119  16.1160  16.1827  16.2256  16.2346  16.2539
    16.2919  16.3479  16.4074  16.4315  16.5820  16.6164  16.6414  16.6735
    16.6891  16.7629  16.7845  16.8186  16.8413  16.8804  16.9045  16.9348
    16.9588  17.0133  17.0400  17.0458  17.0715  17.1141  17.3837  17.4393
    17.4924  17.5358  17.7538  17.9042  17.9965  18.0193  18.0415  18.0544
    18.1166  18.1699  18.2106  18.3194  18.3792  18.4447  18.4604  18.5257
    18.5525  18.6129

     occupation numbers 
     1.0000   1.0000   1.0000   1.0000   1.0000   1.0000   1.0000   1.0000
     1.0000   1.0000   1.0000   1.0000   1.0000   1.0000   1.0000   1.0000
     1.0000   1.0000   1.0000   1.0000   1.0000   1.0000   1.0000   1.0000
     1.0000   1.0000   1.0000   1.0000   1.0000   1.0000   1.0000   1.0000
     1.0000   1.0000   1.0000   1.0000   1.0000   1.0000   1.0000   1.0000
     1.0000   1.0000   1.0000   1.0000   1.0000   1.0000   1.0000   1.0000
     1.0000   1.0000   1.0000   1.0000   1.0000   1.0000   1.0000   1.0000
     1.0000   1.0000   1.0000   1.0000   1.0000   1.0000   1.0000   1.0000
     1.0000   1.0000   1.0000   1.0000   1.0000   1.0000   1.0000   1.0000
     1.0000   1.0000   1.0000   1.0000   1.0000   1.0000   1.0000   1.0000
     1.0000   1.0000   1.0000   1.0000   1.0000   1.0000   1.0000   1.0000
     1.0000   1.0000   1.0000   1.0000   1.0000   1.0000   1.0000   1.0000
     1.0000   1.0000   1.0000   1.0000   1.0000   1.0000   1.0000   1.0000
     1.0000   1.0000   1.0000   1.0000   1.0000   1.0000   1.0000   1.0000
     1.0000   1.0000   1.0000   1.0000   1.0000   1.0000   1.0000   1.0000
     1.0000   1.0000   1.0000   1.0000   1.0000   1.0000   1.0000   1.0000
     1.0000   1.0000   1.0000   1.0000   1.0000   1.0000   1.0000   1.0000
     1.0000   1.0000   1.0000   1.0000   1.0000   1.0000   1.0000   1.0000
     1.0000   1.0000   1.0000   1.0000   1.0000   1.0000   1.0000   1.0000
     1.0000   1.0000   1.0000   1.0000   1.0000   1.0000   1.0000   1.0000
     1.0000   1.0000   1.0000   1.0000   1.0000   1.0000   1.0000   1.0000
     1.0000   1.0000   1.0000   1.0000   1.0000   1.0000   1.0000   1.0000
     1.0000   1.0000   1.0000   1.0000   1.0000   1.0000   1.0000   1.0000
     1.0000   1.0000   1.0000   1.0000   1.0000   1.0000   1.0000   1.0000
     1.0000   1.0000   1.0000   1.0000   1.0000   1.0000   1.0000   1.0000
     1.0000   1.0000   1.0000   1.0000   1.0000   1.0000   1.0000   1.0000
     1.0000   1.0000   1.0000   1.0000   1.0000   1.0000   1.0000   1.0000
     1.0000   1.0000   1.0000   1.0000   1.0000   1.0000   1.0000   1.0000
     1.0000   1.0000   1.0000   1.0000   1.0000   1.0000   1.0000   1.0000
     1.0000   1.0000   1.0000   1.0000   1.0000   1.0000   1.0000   1.0000
     1.0000   1.0000   1.0000   1.0000   1.0000   1.0000   1.0000   1.0000
     1.0000   1.0000   1.0000   1.0000   1.0000   1.0000   1.0000   1.0000
     1.0000   1.0000   1.0000   1.0000   1.0000   1.0000   1.0000   1.0000
     1.0000   1.0000   1.0000   1.0000   1.0000   1.0000   1.0000   1.0000
     1.0000   1.0000   1.0000   1.0000   1.0000   1.0000   1.0000   1.0000
     1.0000   1.0000   1.0000   1.0000   1.0000   1.0000   1.0000   1.0000
     1.0000   1.0000   1.0000   1.0000   1.0000   1.0000   1.0000   1.0000
     1.0000   1.0000   1.0000   1.0000   1.0000   1.0000   1.0000   1.0000
     1.0000   1.0000   1.0000   1.0000   1.0000   1.0000   1.0000   1.0000
     1.0000   1.0000   1.0000   1.0000   1.0000   1.0000   1.0000   1.0000
     1.0000   1.0000   1.0000   1.0000   1.0000   1.0000   1.0000   1.0000
     1.0000   1.0000   1.0000   1.0000   1.0000   1.0000   1.0000   1.0000
     1.0000   1.0000   1.0000   1.0000   1.0000   1.0000   1.0000   1.0000
     1.0000   1.0000   1.0000   1.0000   1.0000   1.0000   1.0000   1.0000
     1.0000   1.0000   1.0000   1.0000   1.0000   1.0000   1.0000   1.0000
     1.0000   1.0000   1.0000   1.0000   1.0000   1.0000   1.0000   1.0000
     1.0000   1.0000   1.0000   1.0000   1.0000   1.0000   1.0000   1.0000
     1.0000   1.0000   1.0000   1.0000   1.0000   1.0000   1.0000   1.0000
     1.0000   1.0000   1.0000   1.0000   1.0000   1.0000   1.0000   1.0000
     1.0000   1.0000   1.0000   1.0000   1.0000   1.0000   1.0000   1.0000
     1.0000   1.0000   1.0000   1.0000   1.0000   1.0000   1.0000   1.0000
     1.0000   1.0000   1.0000   1.0000   1.0000   1.0000   1.0000   1.0000
     1.0000   1.0000   1.0000   1.0000   1.0000   1.0000   1.0000   1.0000
     1.0000   1.0000   1.0000   1.0000   0.0000   0.0000   0.0000   0.0000
     0.0000   0.0000   0.0000   0.0000   0.0000   0.0000   0.0000   0.0000
     0.0000   0.0000   0.0000   0.0000   0.0000   0.0000   0.0000   0.0000
     0.0000   0.0000   0.0000   0.0000   0.0000   0.0000   0.0000   0.0000
     0.0000   0.0000   0.0000   0.0000   0.0000   0.0000   0.0000   0.0000
     0.0000   0.0000   0.0000   0.0000   0.0000   0.0000   0.0000   0.0000
     0.0000   0.0000   0.0000   0.0000   0.0000   0.0000   0.0000   0.0000
     0.0000   0.0000   0.0000   0.0000   0.0000   0.0000   0.0000   0.0000
     0.0000   0.0000   0.0000   0.0000   0.0000   0.0000   0.0000   0.0000
     0.0000   0.0000   0.0000   0.0000   0.0000   0.0000   0.0000   0.0000
     0.0000   0.0000   0.0000   0.0000   0.0000   0.0000   0.0000   0.0000
     0.0000   0.0000

          k =-0.0000 0.0001-0.4676 ( 45202 PWs)   bands (ev):

  -115.2278-115.2115-115.2085-115.2070-115.2026-115.1826-115.1780-115.1762
  -115.1693-115.1693-115.1669-115.1660-115.1658-115.1620-115.1612-115.1556
  -115.1524-115.1476-115.1451-115.1390-115.1375-115.1340-115.1233-115.1226
  -115.1184-115.1147-115.1087-115.1006 -69.6732 -69.6656 -69.6631 -69.6532
   -69.6509 -69.6291 -69.6267 -69.6253 -69.6191 -69.6177 -69.6174 -69.6154
   -69.6132 -69.6115 -69.6092 -69.6082 -69.6010 -69.5969 -69.5925 -69.5915
   -69.5890 -69.5844 -69.5731 -69.5721 -69.5656 -69.5638 -69.5570 -69.5503
   -69.5414 -69.5385 -69.5215 -69.5199 -69.5197 -69.5171 -69.5170 -69.5163
   -69.5116 -69.5095 -69.4969 -69.4913 -69.4906 -69.4871 -69.4854 -69.4854
   -69.4827 -69.4822 -69.4821 -69.4787 -69.4786 -69.4780 -69.4776 -69.4770
   -69.4759 -69.4735 -69.4734 -69.4717 -69.4704 -69.4662 -69.4661 -69.4659
   -69.4621 -69.4600 -69.4583 -69.4580 -69.4574 -69.4545 -69.4526 -69.4500
   -69.4469 -69.4437 -69.4433 -69.4390 -69.4354 -69.4333 -69.4316 -69.4313
   -69.4309 -69.4283 -69.4269 -69.4223 -69.4198 -69.4182 -69.4129 -69.4083
   -64.5553 -64.5234 -64.5226 -64.5053 -64.5013 -64.4902 -64.4450 -64.4416
   -31.5931 -31.5574 -31.5557 -31.5441 -31.5339 -31.5298 -31.5265 -31.5227
   -31.5003 -31.4958 -31.4949 -31.4937 -31.4805 -31.4798 -31.4783 -31.4765
   -31.4758 -31.4743 -31.4670 -31.4617 -31.4194 -31.4155 -31.4141 -31.4122
    -9.8552  -9.8367  -9.5451  -9.5025  -9.4473  -9.4177  -9.3880  -9.3728
    -9.3596  -9.3516  -9.3208  -9.3004  -9.2809  -9.2706  -9.2207  -9.1966
    -9.1484  -9.1398  -9.1306  -9.0729  -9.0481  -9.0246  -9.0075  -8.9952
    -8.9718  -8.9674  -8.9596  -8.9181  -8.9096  -8.8984  -8.8848  -8.8615
    -8.8556  -8.8498  -8.6301  -8.6046   1.6645   1.6759   1.6812   1.6929
     1.7055   1.7299   1.7525   1.7725   1.7764   1.8109   1.8269   1.8312
     1.8591   1.8662   1.8889   1.9019   1.9209   1.9420   1.9697   1.9885
     2.0153   2.0372   2.0719   2.0895   2.0958   2.1267   2.1325   2.1428
     2.1787   2.2129   2.2826   2.3002   2.3302   2.3418   2.4274   2.4424
     2.4538   2.4542   2.4617   2.4784   2.4888   2.4989   2.5058   2.5109
     2.5767   2.5843   2.5949   2.6015   2.6107   2.6150   2.6215   2.6427
     2.6604   2.6713   2.6803   2.6906   2.6972   2.7031   2.7107   2.7152
     2.7256   2.7325   2.7432   2.7511   2.7583   2.7754   2.7810   2.8014
     2.8139   2.8380   2.8399   2.8632   2.8648   2.8695   2.8880   2.9040
     2.9065   2.9088   2.9479   2.9611   2.9871   3.0027   3.0316   3.0514
     3.0722   3.0746   3.1142   3.1221   3.1333   3.1392   3.2183   3.2390
     3.2516   3.2658   3.2792   3.2836   3.3008   3.3150   3.3217   3.3386
     3.3518   3.3664   3.3797   3.3825   3.4021   3.4046   3.4190   3.4237
     3.4312   3.4373   3.4407   3.4535   3.4707   3.4824   3.5010   3.5065
     3.5109   3.5255   3.5281   3.5377   3.5438   3.5550   3.5679   3.5799
     3.5842   3.5877   3.5968   3.6010   3.6102   3.6326   3.6552   3.6737
     3.7154   3.7307   3.7516   3.7817   3.7829   3.8070   3.8505   3.8579
     3.8606   3.8688   3.8793   3.8942   4.2076   4.2486   4.2921   4.3365
     4.3677   4.3829   4.4049   4.4246   4.4281   4.4397   4.4596   4.4866
     4.5022   4.5169   4.5669   4.5952   4.6395   4.6454   4.6644   4.6893
     4.7140   4.7547   4.8021   4.8476   4.8947   4.9392   4.9516   5.0055
     5.0803   5.0947   5.1816   5.2204   5.2549   5.3261   5.3681   5.4243
     5.4275   5.5746   5.7487   5.7833   5.8181   5.8532   5.9056   5.9272
     5.9371   5.9624   5.9966   6.0431   6.0514   6.0757   6.1480   6.2170
     6.2483   6.2535   6.3015   6.3223   6.3393   6.4027   6.4101   6.4296
     6.4355   6.4457   6.4661   6.4926   6.5905   6.6283   6.6686   6.6964
     6.7302   6.7474   6.7695   6.8204   6.8222   6.8276   6.8564   6.8581
     6.8752   6.8880   6.8964   6.9133   6.9502   6.9877   7.0052   7.0139
     7.0676   7.1506   7.1663   7.2196   7.2453   7.2580   7.2932   7.3064
     7.3113   7.3156   7.3418   7.3481   7.6912   7.6967   7.7047   7.7194
     7.9141   7.9172   7.9178   7.9340  10.2562  10.2719  12.5853  12.6413
    12.6982  12.7309  12.7657  12.7711  12.7808  12.7955  12.8194  12.8854
    12.9628  13.0403  13.0842  13.3562  14.5345  14.5609  14.5816  14.6065
    14.6125  14.6156  14.6537  14.6681  14.7112  14.7489  14.8039  14.8493
    15.6512  15.6671  15.6950  15.7604  15.7999  15.8363  15.8852  15.9143
    16.1384  16.1470  16.1549  16.1623  16.2999  16.3183  16.3273  16.3795
    16.4078  16.4483  16.4750  16.5047  16.5290  16.5503  16.5565  16.5633
    16.5769  16.6306  16.6684  16.8143  16.8758  16.9033  16.9415  16.9708
    16.9843  16.9872  17.0152  17.0380  17.0730  17.0788  17.2322  17.2702
    17.3178  17.4111  17.7899  17.8077  17.9157  17.9266  17.9678  18.0684
    18.1317  18.1719  18.2079  18.2445  18.2819  18.3678  18.3767  18.4718
    18.6270  18.6696

     occupation numbers 
     1.0000   1.0000   1.0000   1.0000   1.0000   1.0000   1.0000   1.0000
     1.0000   1.0000   1.0000   1.0000   1.0000   1.0000   1.0000   1.0000
     1.0000   1.0000   1.0000   1.0000   1.0000   1.0000   1.0000   1.0000
     1.0000   1.0000   1.0000   1.0000   1.0000   1.0000   1.0000   1.0000
     1.0000   1.0000   1.0000   1.0000   1.0000   1.0000   1.0000   1.0000
     1.0000   1.0000   1.0000   1.0000   1.0000   1.0000   1.0000   1.0000
     1.0000   1.0000   1.0000   1.0000   1.0000   1.0000   1.0000   1.0000
     1.0000   1.0000   1.0000   1.0000   1.0000   1.0000   1.0000   1.0000
     1.0000   1.0000   1.0000   1.0000   1.0000   1.0000   1.0000   1.0000
     1.0000   1.0000   1.0000   1.0000   1.0000   1.0000   1.0000   1.0000
     1.0000   1.0000   1.0000   1.0000   1.0000   1.0000   1.0000   1.0000
     1.0000   1.0000   1.0000   1.0000   1.0000   1.0000   1.0000   1.0000
     1.0000   1.0000   1.0000   1.0000   1.0000   1.0000   1.0000   1.0000
     1.0000   1.0000   1.0000   1.0000   1.0000   1.0000   1.0000   1.0000
     1.0000   1.0000   1.0000   1.0000   1.0000   1.0000   1.0000   1.0000
     1.0000   1.0000   1.0000   1.0000   1.0000   1.0000   1.0000   1.0000
     1.0000   1.0000   1.0000   1.0000   1.0000   1.0000   1.0000   1.0000
     1.0000   1.0000   1.0000   1.0000   1.0000   1.0000   1.0000   1.0000
     1.0000   1.0000   1.0000   1.0000   1.0000   1.0000   1.0000   1.0000
     1.0000   1.0000   1.0000   1.0000   1.0000   1.0000   1.0000   1.0000
     1.0000   1.0000   1.0000   1.0000   1.0000   1.0000   1.0000   1.0000
     1.0000   1.0000   1.0000   1.0000   1.0000   1.0000   1.0000   1.0000
     1.0000   1.0000   1.0000   1.0000   1.0000   1.0000   1.0000   1.0000
     1.0000   1.0000   1.0000   1.0000   1.0000   1.0000   1.0000   1.0000
     1.0000   1.0000   1.0000   1.0000   1.0000   1.0000   1.0000   1.0000
     1.0000   1.0000   1.0000   1.0000   1.0000   1.0000   1.0000   1.0000
     1.0000   1.0000   1.0000   1.0000   1.0000   1.0000   1.0000   1.0000
     1.0000   1.0000   1.0000   1.0000   1.0000   1.0000   1.0000   1.0000
     1.0000   1.0000   1.0000   1.0000   1.0000   1.0000   1.0000   1.0000
     1.0000   1.0000   1.0000   1.0000   1.0000   1.0000   1.0000   1.0000
     1.0000   1.0000   1.0000   1.0000   1.0000   1.0000   1.0000   1.0000
     1.0000   1.0000   1.0000   1.0000   1.0000   1.0000   1.0000   1.0000
     1.0000   1.0000   1.0000   1.0000   1.0000   1.0000   1.0000   1.0000
     1.0000   1.0000   1.0000   1.0000   1.0000   1.0000   1.0000   1.0000
     1.0000   1.0000   1.0000   1.0000   1.0000   1.0000   1.0000   1.0000
     1.0000   1.0000   1.0000   1.0000   1.0000   1.0000   1.0000   1.0000
     1.0000   1.0000   1.0000   1.0000   1.0000   1.0000   1.0000   1.0000
     1.0000   1.0000   1.0000   1.0000   1.0000   1.0000   1.0000   1.0000
     1.0000   1.0000   1.0000   1.0000   1.0000   1.0000   1.0000   1.0000
     1.0000   1.0000   1.0000   1.0000   1.0000   1.0000   1.0000   1.0000
     1.0000   1.0000   1.0000   1.0000   1.0000   1.0000   1.0000   1.0000
     1.0000   1.0000   1.0000   1.0000   1.0000   1.0000   1.0000   1.0000
     1.0000   1.0000   1.0000   1.0000   1.0000   1.0000   1.0000   1.0000
     1.0000   1.0000   1.0000   1.0000   1.0000   1.0000   1.0000   1.0000
     1.0000   1.0000   1.0000   1.0000   1.0000   1.0000   1.0000   1.0000
     1.0000   1.0000   1.0000   1.0000   1.0000   1.0000   1.0000   1.0000
     1.0000   1.0000   1.0000   1.0000   1.0000   1.0000   1.0000   1.0000
     1.0000   1.0000   1.0000   1.0000   1.0000   1.0000   1.0000   1.0000
     1.0000   1.0000   1.0000   1.0000   1.0000   1.0000   1.0000   1.0000
     1.0000   1.0000   1.0000   1.0000   1.0000   1.0000   1.0000   1.0000
     1.0000   1.0000   1.0000   1.0000   1.0000   1.0000   1.0000   1.0000
     1.0000   1.0000   1.0000   1.0000   1.0000   1.0000   1.0000   1.0000
     1.0000   1.0000   1.0000   1.0000   1.0000   1.0000   1.0000   1.0000
     1.0000   1.0000   1.0000   1.0000   0.0000   0.0000   0.0000   0.0000
     0.0000   0.0000   0.0000   0.0000   0.0000   0.0000   0.0000   0.0000
     0.0000   0.0000   0.0000   0.0000   0.0000   0.0000   0.0000   0.0000
     0.0000   0.0000   0.0000   0.0000   0.0000   0.0000   0.0000   0.0000
     0.0000   0.0000   0.0000   0.0000   0.0000   0.0000   0.0000   0.0000
     0.0000   0.0000   0.0000   0.0000   0.0000   0.0000   0.0000   0.0000
     0.0000   0.0000   0.0000   0.0000   0.0000   0.0000   0.0000   0.0000
     0.0000   0.0000   0.0000   0.0000   0.0000   0.0000   0.0000   0.0000
     0.0000   0.0000   0.0000   0.0000   0.0000   0.0000   0.0000   0.0000
     0.0000   0.0000   0.0000   0.0000   0.0000   0.0000   0.0000   0.0000
     0.0000   0.0000   0.0000   0.0000   0.0000   0.0000   0.0000   0.0000
     0.0000   0.0000

          k =-0.0001 0.2885-0.0001 ( 45162 PWs)   bands (ev):

  -115.2278-115.2115-115.2085-115.2070-115.2026-115.1826-115.1780-115.1762
  -115.1693-115.1693-115.1669-115.1660-115.1658-115.1620-115.1612-115.1556
  -115.1524-115.1476-115.1451-115.1390-115.1375-115.1340-115.1233-115.1226
  -115.1184-115.1147-115.1087-115.1006 -69.6732 -69.6656 -69.6631 -69.6532
   -69.6509 -69.6291 -69.6267 -69.6253 -69.6191 -69.6177 -69.6174 -69.6154
   -69.6132 -69.6115 -69.6092 -69.6082 -69.6010 -69.5969 -69.5925 -69.5915
   -69.5890 -69.5844 -69.5731 -69.5721 -69.5656 -69.5638 -69.5570 -69.5503
   -69.5414 -69.5385 -69.5215 -69.5199 -69.5197 -69.5171 -69.5170 -69.5163
   -69.5116 -69.5095 -69.4969 -69.4913 -69.4906 -69.4871 -69.4854 -69.4854
   -69.4827 -69.4822 -69.4821 -69.4787 -69.4786 -69.4780 -69.4776 -69.4770
   -69.4759 -69.4735 -69.4734 -69.4717 -69.4704 -69.4662 -69.4661 -69.4659
   -69.4621 -69.4600 -69.4583 -69.4580 -69.4574 -69.4544 -69.4526 -69.4500
   -69.4469 -69.4437 -69.4433 -69.4390 -69.4354 -69.4333 -69.4316 -69.4313
   -69.4309 -69.4283 -69.4269 -69.4223 -69.4198 -69.4182 -69.4129 -69.4083
   -64.5553 -64.5234 -64.5226 -64.5053 -64.5013 -64.4902 -64.4450 -64.4416
   -31.5931 -31.5574 -31.5557 -31.5441 -31.5339 -31.5299 -31.5264 -31.5227
   -31.5003 -31.4958 -31.4949 -31.4937 -31.4805 -31.4798 -31.4783 -31.4765
   -31.4758 -31.4743 -31.4670 -31.4617 -31.4194 -31.4155 -31.4141 -31.4122
    -9.8952  -9.6475  -9.6248  -9.5965  -9.5119  -9.4585  -9.4162  -9.3567
    -9.3325  -9.3242  -9.2928  -9.2882  -9.2677  -9.2325  -9.1953  -9.1874
    -9.1741  -9.1509  -9.1067  -9.0855  -9.0638  -9.0259  -9.0104  -8.9877
    -8.9786  -8.9613  -8.9549  -8.9434  -8.9193  -8.9041  -8.8786  -8.8718
    -8.8381  -8.8318  -8.6285  -8.6001   1.6988   1.7030   1.7140   1.7321
     1.7447   1.7512   1.7692   1.7802   1.7965   1.8033   1.8143   1.8298
     1.8530   1.8641   1.8746   1.8924   1.9020   1.9224   1.9506   1.9745
     1.9936   2.0399   2.0918   2.0976   2.1212   2.1344   2.1452   2.1624
     2.1754   2.1858   2.2048   2.2331   2.3626   2.3772   2.3810   2.3947
     2.4117   2.4177   2.4274   2.4476   2.4633   2.4715   2.4866   2.5025
     2.5236   2.5527   2.5701   2.5927   2.6072   2.6164   2.6330   2.6410
     2.6485   2.6592   2.6785   2.6892   2.6973   2.7077   2.7128   2.7222
     2.7308   2.7421   2.7531   2.7613   2.7773   2.7855   2.7911   2.8104
     2.8239   2.8367   2.8398   2.8680   2.8755   2.8969   2.9071   2.9259
     2.9345   2.9685   2.9748   2.9941   3.0142   3.0270   3.0350   3.0482
     3.0732   3.0843   3.1172   3.1287   3.1514   3.1641   3.2013   3.2168
     3.2245   3.2453   3.2564   3.2724   3.2740   3.2996   3.3043   3.3269
     3.3344   3.3400   3.3588   3.3643   3.3782   3.3836   3.3971   3.4018
     3.4067   3.4220   3.4336   3.4593   3.4687   3.4788   3.4852   3.4917
     3.5005   3.5078   3.5198   3.5317   3.5419   3.5433   3.5545   3.5595
     3.5735   3.5835   3.5916   3.5960   3.6102   3.6237   3.6465   3.6499
     3.6718   3.6927   3.7056   3.7289   3.7493   3.7611   3.7769   3.8050
     3.8973   4.0276   4.0681   4.1758   4.2034   4.2656   4.2840   4.3285
     4.3496   4.3629   4.3744   4.3851   4.3999   4.4468   4.4640   4.5111
     4.5746   4.6148   4.6483   4.6780   4.6968   4.7207   4.7323   4.7588
     4.7903   4.8279   4.8655   4.8910   4.9704   5.0128   5.0423   5.1025
     5.1554   5.1828   5.2159   5.2630   5.3339   5.3624   5.3761   5.4198
     5.4853   5.5093   5.5549   5.6028   5.6367   5.6948   5.7204   5.7373
     5.8242   5.8722   5.9277   5.9640   6.0533   6.0782   6.1241   6.1919
     6.2149   6.2363   6.2496   6.2606   6.2836   6.3435   6.4078   6.4393
     6.4682   6.5169   6.5497   6.6095   6.6505   6.6765   6.7226   6.7596
     6.7750   6.7904   6.8142   6.8204   6.8715   6.8950   6.9230   6.9336
     6.9683   6.9768   7.0041   7.0256   7.0507   7.0604   7.0809   7.0930
     7.1068   7.1228   7.1385   7.1555   7.1856   7.2028   7.2175   7.2450
     7.3160   7.3307   7.3725   7.3976   7.4197   7.5460   7.5798   7.6355
     7.6430   7.7175   7.7209   7.8824   9.8442  11.7077  11.9330  11.9559
    12.3481  12.4151  13.0028  13.0305  13.2722  13.3003  13.3371  13.3726
    13.4030  13.4548  13.5635  13.6875  13.7042  13.7789  13.8028  13.8992
    13.9122  14.0623  14.8851  14.9397  15.0088  15.0551  15.1121  15.2289
    15.2649  15.4913  15.6227  15.6597  15.6832  15.7503  15.7864  15.8263
    15.8609  15.8953  15.9442  16.0463  16.1212  16.1319  16.1755  16.3043
    16.3755  16.4091  16.5387  16.5612  16.6465  16.6773  16.7042  16.7444
    16.7839  16.8171  16.8458  16.9005  16.9447  17.0081  17.0231  17.0571
    17.0803  17.1422  17.1994  17.2408  17.3576  17.4708  17.5366  17.6096
    17.7045  17.7883  17.8436  17.9556  18.0317  18.0862  18.0961  18.1397
    18.1963  18.2550  18.3380  18.3535  18.4191  18.4492  18.5512  18.5689
    18.6107  18.6648

     occupation numbers 
     1.0000   1.0000   1.0000   1.0000   1.0000   1.0000   1.0000   1.0000
     1.0000   1.0000   1.0000   1.0000   1.0000   1.0000   1.0000   1.0000
     1.0000   1.0000   1.0000   1.0000   1.0000   1.0000   1.0000   1.0000
     1.0000   1.0000   1.0000   1.0000   1.0000   1.0000   1.0000   1.0000
     1.0000   1.0000   1.0000   1.0000   1.0000   1.0000   1.0000   1.0000
     1.0000   1.0000   1.0000   1.0000   1.0000   1.0000   1.0000   1.0000
     1.0000   1.0000   1.0000   1.0000   1.0000   1.0000   1.0000   1.0000
     1.0000   1.0000   1.0000   1.0000   1.0000   1.0000   1.0000   1.0000
     1.0000   1.0000   1.0000   1.0000   1.0000   1.0000   1.0000   1.0000
     1.0000   1.0000   1.0000   1.0000   1.0000   1.0000   1.0000   1.0000
     1.0000   1.0000   1.0000   1.0000   1.0000   1.0000   1.0000   1.0000
     1.0000   1.0000   1.0000   1.0000   1.0000   1.0000   1.0000   1.0000
     1.0000   1.0000   1.0000   1.0000   1.0000   1.0000   1.0000   1.0000
     1.0000   1.0000   1.0000   1.0000   1.0000   1.0000   1.0000   1.0000
     1.0000   1.0000   1.0000   1.0000   1.0000   1.0000   1.0000   1.0000
     1.0000   1.0000   1.0000   1.0000   1.0000   1.0000   1.0000   1.0000
     1.0000   1.0000   1.0000   1.0000   1.0000   1.0000   1.0000   1.0000
     1.0000   1.0000   1.0000   1.0000   1.0000   1.0000   1.0000   1.0000
     1.0000   1.0000   1.0000   1.0000   1.0000   1.0000   1.0000   1.0000
     1.0000   1.0000   1.0000   1.0000   1.0000   1.0000   1.0000   1.0000
     1.0000   1.0000   1.0000   1.0000   1.0000   1.0000   1.0000   1.0000
     1.0000   1.0000   1.0000   1.0000   1.0000   1.0000   1.0000   1.0000
     1.0000   1.0000   1.0000   1.0000   1.0000   1.0000   1.0000   1.0000
     1.0000   1.0000   1.0000   1.0000   1.0000   1.0000   1.0000   1.0000
     1.0000   1.0000   1.0000   1.0000   1.0000   1.0000   1.0000   1.0000
     1.0000   1.0000   1.0000   1.0000   1.0000   1.0000   1.0000   1.0000
     1.0000   1.0000   1.0000   1.0000   1.0000   1.0000   1.0000   1.0000
     1.0000   1.0000   1.0000   1.0000   1.0000   1.0000   1.0000   1.0000
     1.0000   1.0000   1.0000   1.0000   1.0000   1.0000   1.0000   1.0000
     1.0000   1.0000   1.0000   1.0000   1.0000   1.0000   1.0000   1.0000
     1.0000   1.0000   1.0000   1.0000   1.0000   1.0000   1.0000   1.0000
     1.0000   1.0000   1.0000   1.0000   1.0000   1.0000   1.0000   1.0000
     1.0000   1.0000   1.0000   1.0000   1.0000   1.0000   1.0000   1.0000
     1.0000   1.0000   1.0000   1.0000   1.0000   1.0000   1.0000   1.0000
     1.0000   1.0000   1.0000   1.0000   1.0000   1.0000   1.0000   1.0000
     1.0000   1.0000   1.0000   1.0000   1.0000   1.0000   1.0000   1.0000
     1.0000   1.0000   1.0000   1.0000   1.0000   1.0000   1.0000   1.0000
     1.0000   1.0000   1.0000   1.0000   1.0000   1.0000   1.0000   1.0000
     1.0000   1.0000   1.0000   1.0000   1.0000   1.0000   1.0000   1.0000
     1.0000   1.0000   1.0000   1.0000   1.0000   1.0000   1.0000   1.0000
     1.0000   1.0000   1.0000   1.0000   1.0000   1.0000   1.0000   1.0000
     1.0000   1.0000   1.0000   1.0000   1.0000   1.0000   1.0000   1.0000
     1.0000   1.0000   1.0000   1.0000   1.0000   1.0000   1.0000   1.0000
     1.0000   1.0000   1.0000   1.0000   1.0000   1.0000   1.0000   1.0000
     1.0000   1.0000   1.0000   1.0000   1.0000   1.0000   1.0000   1.0000
     1.0000   1.0000   1.0000   1.0000   1.0000   1.0000   1.0000   1.0000
     1.0000   1.0000   1.0000   1.0000   1.0000   1.0000   1.0000   1.0000
     1.0000   1.0000   1.0000   1.0000   1.0000   1.0000   1.0000   1.0000
     1.0000   1.0000   1.0000   1.0000   1.0000   1.0000   1.0000   1.0000
     1.0000   1.0000   1.0000   1.0000   1.0000   1.0000   1.0000   1.0000
     1.0000   1.0000   1.0000   1.0000   1.0000   1.0000   1.0000   1.0000
     1.0000   1.0000   1.0000   1.0000   1.0000   1.0000   1.0000   1.0000
     1.0000   1.0000   1.0000   1.0000   1.0000   1.0000   1.0000   1.0000
     1.0000   1.0000   1.0000   1.0000   0.0000   0.0000   0.0000   0.0000
     0.0000   0.0000   0.0000   0.0000   0.0000   0.0000   0.0000   0.0000
     0.0000   0.0000   0.0000   0.0000   0.0000   0.0000   0.0000   0.0000
     0.0000   0.0000   0.0000   0.0000   0.0000   0.0000   0.0000   0.0000
     0.0000   0.0000   0.0000   0.0000   0.0000   0.0000   0.0000   0.0000
     0.0000   0.0000   0.0000   0.0000   0.0000   0.0000   0.0000   0.0000
     0.0000   0.0000   0.0000   0.0000   0.0000   0.0000   0.0000   0.0000
     0.0000   0.0000   0.0000   0.0000   0.0000   0.0000   0.0000   0.0000
     0.0000   0.0000   0.0000   0.0000   0.0000   0.0000   0.0000   0.0000
     0.0000   0.0000   0.0000   0.0000   0.0000   0.0000   0.0000   0.0000
     0.0000   0.0000   0.0000   0.0000   0.0000   0.0000   0.0000   0.0000
     0.0000   0.0000

          k =-0.0001 0.2885 0.2337 ( 45171 PWs)   bands (ev):

  -115.2278-115.2115-115.2085-115.2070-115.2026-115.1826-115.1780-115.1762
  -115.1693-115.1693-115.1669-115.1660-115.1658-115.1620-115.1612-115.1556
  -115.1524-115.1476-115.1451-115.1390-115.1375-115.1340-115.1233-115.1226
  -115.1184-115.1147-115.1087-115.1006 -69.6732 -69.6656 -69.6631 -69.6532
   -69.6509 -69.6291 -69.6267 -69.6253 -69.6191 -69.6177 -69.6174 -69.6154
   -69.6132 -69.6115 -69.6092 -69.6082 -69.6010 -69.5969 -69.5925 -69.5915
   -69.5890 -69.5844 -69.5731 -69.5721 -69.5656 -69.5638 -69.5570 -69.5503
   -69.5414 -69.5385 -69.5215 -69.5199 -69.5197 -69.5171 -69.5170 -69.5163
   -69.5116 -69.5095 -69.4969 -69.4913 -69.4906 -69.4871 -69.4854 -69.4854
   -69.4827 -69.4822 -69.4821 -69.4787 -69.4786 -69.4780 -69.4776 -69.4770
   -69.4759 -69.4735 -69.4734 -69.4717 -69.4704 -69.4662 -69.4661 -69.4659
   -69.4621 -69.4600 -69.4583 -69.4580 -69.4574 -69.4544 -69.4526 -69.4500
   -69.4469 -69.4437 -69.4433 -69.4390 -69.4354 -69.4333 -69.4316 -69.4313
   -69.4309 -69.4283 -69.4269 -69.4223 -69.4198 -69.4182 -69.4129 -69.4083
   -64.5553 -64.5234 -64.5226 -64.5053 -64.5013 -64.4902 -64.4450 -64.4416
   -31.5931 -31.5574 -31.5557 -31.5441 -31.5339 -31.5298 -31.5265 -31.5227
   -31.5003 -31.4958 -31.4949 -31.4937 -31.4805 -31.4798 -31.4783 -31.4765
   -31.4758 -31.4743 -31.4670 -31.4617 -31.4194 -31.4155 -31.4141 -31.4122
    -9.8733  -9.7162  -9.6157  -9.5682  -9.4980  -9.4498  -9.4201  -9.3717
    -9.3536  -9.3131  -9.3020  -9.2786  -9.2612  -9.2224  -9.2051  -9.1906
    -9.1708  -9.1462  -9.1150  -9.0810  -9.0503  -9.0206  -9.0101  -8.9829
    -8.9795  -8.9643  -8.9579  -8.9372  -8.9161  -8.9084  -8.8889  -8.8738
    -8.8364  -8.8344  -8.6289  -8.6009   1.6956   1.7017   1.7119   1.7308
     1.7351   1.7536   1.7640   1.7866   1.8002   1.8184   1.8221   1.8323
     1.8517   1.8643   1.8735   1.9004   1.9123   1.9337   1.9537   1.9812
     1.9947   2.0337   2.0878   2.0986   2.1198   2.1392   2.1483   2.1648
     2.1761   2.1850   2.2044   2.2351   2.3682   2.3755   2.3861   2.4007
     2.4087   2.4214   2.4310   2.4477   2.4639   2.4754   2.4905   2.5056
     2.5371   2.5616   2.5840   2.5985   2.6101   2.6148   2.6258   2.6407
     2.6519   2.6589   2.6798   2.6893   2.6963   2.7063   2.7100   2.7179
     2.7284   2.7436   2.7501   2.7559   2.7754   2.7801   2.7981   2.8094
     2.8209   2.8300   2.8402   2.8523   2.8646   2.8803   2.8948   2.9072
     2.9215   2.9306   2.9494   2.9735   2.9811   3.0181   3.0389   3.0479
     3.0727   3.0851   3.1155   3.1252   3.1409   3.1702   3.1883   3.2124
     3.2256   3.2427   3.2599   3.2689   3.2827   3.2895   3.3122   3.3268
     3.3358   3.3399   3.3650   3.3704   3.3808   3.3846   3.3989   3.4048
     3.4187   3.4275   3.4429   3.4485   3.4609   3.4764   3.4875   3.4964
     3.5073   3.5120   3.5206   3.5246   3.5359   3.5423   3.5548   3.5633
     3.5738   3.5823   3.5941   3.6009   3.6175   3.6268   3.6397   3.6483
     3.6623   3.6710   3.7062   3.7237   3.7369   3.7546   3.7701   3.8080
     4.0328   4.0379   4.0919   4.1519   4.2209   4.2321   4.3065   4.3237
     4.3338   4.3479   4.3681   4.3823   4.3939   4.4409   4.4575   4.5101
     4.5675   4.5879   4.6345   4.6540   4.6705   4.6918   4.7169   4.7426
     4.8103   4.8367   4.8698   4.9388   4.9665   4.9806   5.0077   5.0951
     5.1385   5.1624   5.1949   5.2471   5.2884   5.3549   5.4398   5.4978
     5.5391   5.6066   5.6601   5.6995   5.7122   5.7393   5.7777   5.8645
     5.8798   5.8938   5.9572   5.9733   5.9853   6.0729   6.1154   6.1750
     6.2160   6.2642   6.3012   6.3305   6.3464   6.3687   6.3870   6.4001
     6.4400   6.4950   6.5158   6.5350   6.5805   6.5962   6.6253   6.6310
     6.6791   6.7024   6.7379   6.7809   6.8238   6.8611   6.8732   6.8870
     6.9203   6.9486   6.9683   7.0162   7.0619   7.0842   7.1013   7.1286
     7.1443   7.1511   7.1866   7.1974   7.2147   7.2415   7.2653   7.2737
     7.2915   7.3412   7.3554   7.3907   7.4488   7.5580   7.5635   7.6532
     7.6622   7.7013   7.7840   7.8709  10.0445  11.2442  11.7861  12.3360
    12.3832  12.4664  12.7059  12.8783  12.9421  13.2396  13.3236  13.3779
    13.4267  13.5313  13.5789  13.7152  13.7812  13.9902  14.1103  14.1936
    14.2646  14.3662  14.8122  14.8826  14.9714  15.0648  15.1301  15.1751
    15.2163  15.2631  15.2947  15.3643  15.3846  15.4676  15.8863  15.9587
    16.0171  16.0425  16.0824  16.1302  16.1898  16.2440  16.3347  16.3692
    16.4153  16.4752  16.5281  16.5599  16.5719  16.6151  16.6399  16.6736
    16.7163  16.7432  16.7809  16.8212  16.8889  16.9258  16.9426  17.0188
    17.1007  17.1627  17.2511  17.3270  17.3815  17.4601  17.5085  17.6394
    17.6667  17.7149  17.7845  17.8071  17.8651  17.9216  18.0399  18.1003
    18.2225  18.2523  18.3010  18.3757  18.4340  18.4738  18.5786  18.6273
    18.6751  18.7345

     occupation numbers 
     1.0000   1.0000   1.0000   1.0000   1.0000   1.0000   1.0000   1.0000
     1.0000   1.0000   1.0000   1.0000   1.0000   1.0000   1.0000   1.0000
     1.0000   1.0000   1.0000   1.0000   1.0000   1.0000   1.0000   1.0000
     1.0000   1.0000   1.0000   1.0000   1.0000   1.0000   1.0000   1.0000
     1.0000   1.0000   1.0000   1.0000   1.0000   1.0000   1.0000   1.0000
     1.0000   1.0000   1.0000   1.0000   1.0000   1.0000   1.0000   1.0000
     1.0000   1.0000   1.0000   1.0000   1.0000   1.0000   1.0000   1.0000
     1.0000   1.0000   1.0000   1.0000   1.0000   1.0000   1.0000   1.0000
     1.0000   1.0000   1.0000   1.0000   1.0000   1.0000   1.0000   1.0000
     1.0000   1.0000   1.0000   1.0000   1.0000   1.0000   1.0000   1.0000
     1.0000   1.0000   1.0000   1.0000   1.0000   1.0000   1.0000   1.0000
     1.0000   1.0000   1.0000   1.0000   1.0000   1.0000   1.0000   1.0000
     1.0000   1.0000   1.0000   1.0000   1.0000   1.0000   1.0000   1.0000
     1.0000   1.0000   1.0000   1.0000   1.0000   1.0000   1.0000   1.0000
     1.0000   1.0000   1.0000   1.0000   1.0000   1.0000   1.0000   1.0000
     1.0000   1.0000   1.0000   1.0000   1.0000   1.0000   1.0000   1.0000
     1.0000   1.0000   1.0000   1.0000   1.0000   1.0000   1.0000   1.0000
     1.0000   1.0000   1.0000   1.0000   1.0000   1.0000   1.0000   1.0000
     1.0000   1.0000   1.0000   1.0000   1.0000   1.0000   1.0000   1.0000
     1.0000   1.0000   1.0000   1.0000   1.0000   1.0000   1.0000   1.0000
     1.0000   1.0000   1.0000   1.0000   1.0000   1.0000   1.0000   1.0000
     1.0000   1.0000   1.0000   1.0000   1.0000   1.0000   1.0000   1.0000
     1.0000   1.0000   1.0000   1.0000   1.0000   1.0000   1.0000   1.0000
     1.0000   1.0000   1.0000   1.0000   1.0000   1.0000   1.0000   1.0000
     1.0000   1.0000   1.0000   1.0000   1.0000   1.0000   1.0000   1.0000
     1.0000   1.0000   1.0000   1.0000   1.0000   1.0000   1.0000   1.0000
     1.0000   1.0000   1.0000   1.0000   1.0000   1.0000   1.0000   1.0000
     1.0000   1.0000   1.0000   1.0000   1.0000   1.0000   1.0000   1.0000
     1.0000   1.0000   1.0000   1.0000   1.0000   1.0000   1.0000   1.0000
     1.0000   1.0000   1.0000   1.0000   1.0000   1.0000   1.0000   1.0000
     1.0000   1.0000   1.0000   1.0000   1.0000   1.0000   1.0000   1.0000
     1.0000   1.0000   1.0000   1.0000   1.0000   1.0000   1.0000   1.0000
     1.0000   1.0000   1.0000   1.0000   1.0000   1.0000   1.0000   1.0000
     1.0000   1.0000   1.0000   1.0000   1.0000   1.0000   1.0000   1.0000
     1.0000   1.0000   1.0000   1.0000   1.0000   1.0000   1.0000   1.0000
     1.0000   1.0000   1.0000   1.0000   1.0000   1.0000   1.0000   1.0000
     1.0000   1.0000   1.0000   1.0000   1.0000   1.0000   1.0000   1.0000
     1.0000   1.0000   1.0000   1.0000   1.0000   1.0000   1.0000   1.0000
     1.0000   1.0000   1.0000   1.0000   1.0000   1.0000   1.0000   1.0000
     1.0000   1.0000   1.0000   1.0000   1.0000   1.0000   1.0000   1.0000
     1.0000   1.0000   1.0000   1.0000   1.0000   1.0000   1.0000   1.0000
     1.0000   1.0000   1.0000   1.0000   1.0000   1.0000   1.0000   1.0000
     1.0000   1.0000   1.0000   1.0000   1.0000   1.0000   1.0000   1.0000
     1.0000   1.0000   1.0000   1.0000   1.0000   1.0000   1.0000   1.0000
     1.0000   1.0000   1.0000   1.0000   1.0000   1.0000   1.0000   1.0000
     1.0000   1.0000   1.0000   1.0000   1.0000   1.0000   1.0000   1.0000
     1.0000   1.0000   1.0000   1.0000   1.0000   1.0000   1.0000   1.0000
     1.0000   1.0000   1.0000   1.0000   1.0000   1.0000   1.0000   1.0000
     1.0000   1.0000   1.0000   1.0000   1.0000   1.0000   1.0000   1.0000
     1.0000   1.0000   1.0000   1.0000   1.0000   1.0000   1.0000   1.0000
     1.0000   1.0000   1.0000   1.0000   1.0000   1.0000   1.0000   1.0000
     1.0000   1.0000   1.0000   1.0000   1.0000   1.0000   1.0000   1.0000
     1.0000   1.0000   1.0000   1.0000   1.0000   1.0000   1.0000   1.0000
     1.0000   1.0000   1.0000   1.0000   0.0000   0.0000   0.0000   0.0000
     0.0000   0.0000   0.0000   0.0000   0.0000   0.0000   0.0000   0.0000
     0.0000   0.0000   0.0000   0.0000   0.0000   0.0000   0.0000   0.0000
     0.0000   0.0000   0.0000   0.0000   0.0000   0.0000   0.0000   0.0000
     0.0000   0.0000   0.0000   0.0000   0.0000   0.0000   0.0000   0.0000
     0.0000   0.0000   0.0000   0.0000   0.0000   0.0000   0.0000   0.0000
     0.0000   0.0000   0.0000   0.0000   0.0000   0.0000   0.0000   0.0000
     0.0000   0.0000   0.0000   0.0000   0.0000   0.0000   0.0000   0.0000
     0.0000   0.0000   0.0000   0.0000   0.0000   0.0000   0.0000   0.0000
     0.0000   0.0000   0.0000   0.0000   0.0000   0.0000   0.0000   0.0000
     0.0000   0.0000   0.0000   0.0000   0.0000   0.0000   0.0000   0.0000
     0.0000   0.0000

          k =-0.0001 0.2886-0.4676 ( 45192 PWs)   bands (ev):

  -115.2278-115.2115-115.2085-115.2070-115.2026-115.1826-115.1780-115.1762
  -115.1693-115.1693-115.1669-115.1660-115.1658-115.1620-115.1612-115.1556
  -115.1524-115.1476-115.1451-115.1390-115.1375-115.1340-115.1233-115.1226
  -115.1184-115.1147-115.1087-115.1006 -69.6732 -69.6656 -69.6631 -69.6532
   -69.6509 -69.6291 -69.6267 -69.6253 -69.6191 -69.6177 -69.6174 -69.6154
   -69.6132 -69.6115 -69.6092 -69.6082 -69.6010 -69.5969 -69.5925 -69.5915
   -69.5890 -69.5844 -69.5731 -69.5721 -69.5656 -69.5638 -69.5570 -69.5503
   -69.5414 -69.5385 -69.5215 -69.5199 -69.5197 -69.5171 -69.5170 -69.5163
   -69.5116 -69.5095 -69.4969 -69.4913 -69.4906 -69.4871 -69.4854 -69.4854
   -69.4827 -69.4822 -69.4821 -69.4787 -69.4786 -69.4780 -69.4776 -69.4770
   -69.4759 -69.4735 -69.4734 -69.4717 -69.4704 -69.4662 -69.4661 -69.4659
   -69.4621 -69.4600 -69.4583 -69.4580 -69.4574 -69.4544 -69.4526 -69.4500
   -69.4469 -69.4437 -69.4433 -69.4390 -69.4354 -69.4333 -69.4316 -69.4313
   -69.4309 -69.4283 -69.4269 -69.4223 -69.4198 -69.4182 -69.4129 -69.4083
   -64.5553 -64.5234 -64.5226 -64.5053 -64.5013 -64.4902 -64.4450 -64.4416
   -31.5931 -31.5574 -31.5557 -31.5441 -31.5339 -31.5298 -31.5265 -31.5227
   -31.5003 -31.4958 -31.4949 -31.4937 -31.4805 -31.4798 -31.4783 -31.4765
   -31.4758 -31.4743 -31.4670 -31.4617 -31.4194 -31.4155 -31.4141 -31.4122
    -9.8184  -9.7999  -9.5926  -9.5645  -9.4921  -9.4543  -9.4115  -9.3846
    -9.3456  -9.3310  -9.3062  -9.2929  -9.2376  -9.2297  -9.2041  -9.1856
    -9.1580  -9.1483  -9.1151  -9.0745  -9.0493  -9.0179  -9.0040  -8.9926
    -8.9759  -8.9629  -8.9587  -8.9357  -8.9210  -8.9023  -8.8985  -8.8729
    -8.8402  -8.8337  -8.6299  -8.6013   1.6924   1.7020   1.7063   1.7251
     1.7338   1.7562   1.7695   1.7886   1.7971   1.8240   1.8339   1.8416
     1.8509   1.8621   1.8733   1.8988   1.9300   1.9425   1.9754   1.9803
     1.9963   2.0197   2.0850   2.1010   2.1135   2.1436   2.1537   2.1648
     2.1765   2.1872   2.2017   2.2386   2.3743   2.3783   2.3905   2.4018
     2.4112   2.4256   2.4302   2.4489   2.4656   2.4761   2.4895   2.5083
     2.5683   2.5746   2.5859   2.5986   2.6079   2.6202   2.6283   2.6402
     2.6477   2.6714   2.6844   2.6877   2.6967   2.7000   2.7080   2.7243
     2.7297   2.7416   2.7468   2.7498   2.7577   2.7713   2.7861   2.8031
     2.8173   2.8253   2.8399   2.8506   2.8616   2.8691   2.8799   2.8926
     2.9002   2.9077   2.9289   2.9483   2.9849   3.0093   3.0218   3.0423
     3.0438   3.0806   3.1051   3.1171   3.1524   3.1575   3.1829   3.2040
     3.2354   3.2403   3.2569   3.2748   3.2823   3.2950   3.3128   3.3199
[...]
     atom   34 type  1   force =     0.00000000    0.00000000    0.00000000
     atom   35 type  1   force =     0.00000000    0.00000000    0.00000000
     atom   36 type  1   force =     0.00000000    0.00000000    0.00000000
     atom   37 type  2   force =    -0.00000257    0.00002094    0.00006540
     atom   38 type  2   force =    -0.00203836    0.00118604    0.00000853
     atom   39 type  2   force =     0.00205395    0.00121559   -0.00002878
     atom   40 type  2   force =     0.00200591   -0.00118601   -0.00001971
     atom   41 type  2   force =     0.00005535   -0.00002030    0.00006565
     atom   42 type  2   force =     0.00000383   -0.00000661    0.00009703
     atom   43 type  2   force =     0.00212130    0.00120966    0.00011089
     atom   44 type  2   force =    -0.00006476   -0.00000786    0.00003855
     atom   45 type  2   force =    -0.00204448    0.00116400    0.00039010
     atom   46 type  2   force =    -0.00213392    0.00118496   -0.00039788
     atom   47 type  2   force =    -0.00001022   -0.00246369   -0.00041290
     atom   48 type  2   force =    -0.00004237   -0.00231398    0.00040157
     atom   49 type  2   force =    -0.00208896    0.00119168   -0.00002946
     atom   50 type  2   force =     0.00209925    0.00121900   -0.00007619
     atom   51 type  2   force =     0.00002516   -0.00256810   -0.00041194
     atom   52 type  2   force =     0.00003530    0.00003264    0.00040768
     atom   53 type  2   force =    -0.00002618    0.00003575    0.00039815
     atom   54 type  2   force =     0.00004894    0.00001231   -0.00036175
     atom   55 type  2   force =    -0.00000324    0.00001813   -0.00035181
     atom   56 type  2   force =    -0.00000445   -0.00005439    0.00035648
     atom   57 type  2   force =    -0.00205260   -0.00118618    0.00004607
     atom   58 type  2   force =    -0.00006929    0.00004839   -0.00002036
     atom   59 type  2   force =     0.00006522    0.00000795   -0.00005340
     atom   60 type  2   force =    -0.00209707   -0.00124278    0.00009778
     atom   61 type  2   force =    -0.00000081   -0.00006039   -0.00013538
     atom   62 type  2   force =     0.00002809    0.00239599    0.00005653
     atom   63 type  2   force =    -0.00006972    0.00249796    0.00010081
     atom   64 type  2   force =     0.00216189   -0.00125084    0.00004563
     atom   65 type  2   force =     0.00211073   -0.00122207   -0.00006009
     atom   66 type  2   force =    -0.00006042    0.00003722   -0.00009453
     atom   67 type  2   force =    -0.00001226    0.00229389    0.00054517
     atom   68 type  2   force =    -0.00006478    0.00002764   -0.00038734
     atom   69 type  2   force =     0.00208683   -0.00120628   -0.00014451
     atom   70 type  2   force =    -0.00203893    0.00120600   -0.00005487
     atom   71 type  2   force =    -0.00216062   -0.00119397    0.00012004
     atom   72 type  2   force =     0.00215357   -0.00118676    0.00000467
     The Hubbard contrib.    to forces
     atom    1 type  1   force =     0.00000000    0.00000000    0.00000000
     atom    2 type  1   force =     0.00000000    0.00000000    0.00000000
     atom    3 type  1   force =     0.00000000    0.00000000    0.00000000
     atom    4 type  1   force =     0.00000000    0.00000000    0.00000000
     atom    5 type  1   force =     0.00000000    0.00000000    0.00000000
     atom    6 type  1   force =     0.00000000    0.00000000    0.00000000
     atom    7 type  1   force =     0.00000000    0.00000000    0.00000000
     atom    8 type  1   force =     0.00000000    0.00000000    0.00000000
     atom    9 type  1   force =     0.00000000    0.00000000    0.00000000
     atom   10 type  3   force =     0.00000000    0.00000000    0.00000000
     atom   11 type  3   force =     0.00000000    0.00000000    0.00000000
     atom   12 type  1   force =     0.00000000    0.00000000    0.00000000
     atom   13 type  1   force =     0.00000000    0.00000000    0.00000000
     atom   14 type  1   force =     0.00000000    0.00000000    0.00000000
     atom   15 type  3   force =     0.00000000    0.00000000    0.00000000
     atom   16 type  1   force =     0.00000000    0.00000000    0.00000000
     atom   17 type  1   force =     0.00000000    0.00000000    0.00000000
     atom   18 type  3   force =     0.00000000    0.00000000    0.00000000
     atom   19 type  3   force =     0.00000000    0.00000000    0.00000000
     atom   20 type  1   force =     0.00000000    0.00000000    0.00000000
     atom   21 type  1   force =     0.00000000    0.00000000    0.00000000
     atom   22 type  1   force =     0.00000000    0.00000000    0.00000000
     atom   23 type  1   force =     0.00000000    0.00000000    0.00000000
     atom   24 type  1   force =     0.00000000    0.00000000    0.00000000
     atom   25 type  1   force =     0.00000000    0.00000000    0.00000000
     atom   26 type  1   force =     0.00000000    0.00000000    0.00000000
     atom   27 type  3   force =     0.00000000    0.00000000    0.00000000
     atom   28 type  3   force =     0.00000000    0.00000000    0.00000000
     atom   29 type  1   force =     0.00000000    0.00000000    0.00000000
     atom   30 type  1   force =     0.00000000    0.00000000    0.00000000
     atom   31 type  1   force =     0.00000000    0.00000000    0.00000000
     atom   32 type  3   force =     0.00000000    0.00000000    0.00000000
     atom   33 type  1   force =     0.00000000    0.00000000    0.00000000
     atom   34 type  1   force =     0.00000000    0.00000000    0.00000000
     atom   35 type  1   force =     0.00000000    0.00000000    0.00000000
     atom   36 type  1   force =     0.00000000    0.00000000    0.00000000
     atom   37 type  2   force =     0.00000000    0.00000000    0.00000000
     atom   38 type  2   force =     0.00000000    0.00000000    0.00000000
     atom   39 type  2   force =     0.00000000    0.00000000    0.00000000
     atom   40 type  2   force =     0.00000000    0.00000000    0.00000000
     atom   41 type  2   force =     0.00000000    0.00000000    0.00000000
     atom   42 type  2   force =     0.00000000    0.00000000    0.00000000
     atom   43 type  2   force =     0.00000000    0.00000000    0.00000000
     atom   44 type  2   force =     0.00000000    0.00000000    0.00000000
     atom   45 type  2   force =     0.00000000    0.00000000    0.00000000
     atom   46 type  2   force =     0.00000000    0.00000000    0.00000000
     atom   47 type  2   force =     0.00000000    0.00000000    0.00000000
     atom   48 type  2   force =     0.00000000    0.00000000    0.00000000
     atom   49 type  2   force =     0.00000000    0.00000000    0.00000000
     atom   50 type  2   force =     0.00000000    0.00000000    0.00000000
     atom   51 type  2   force =     0.00000000    0.00000000    0.00000000
     atom   52 type  2   force =     0.00000000    0.00000000    0.00000000
     atom   53 type  2   force =     0.00000000    0.00000000    0.00000000
     atom   54 type  2   force =     0.00000000    0.00000000    0.00000000
     atom   55 type  2   force =     0.00000000    0.00000000    0.00000000
     atom   56 type  2   force =     0.00000000    0.00000000    0.00000000
     atom   57 type  2   force =     0.00000000    0.00000000    0.00000000
     atom   58 type  2   force =     0.00000000    0.00000000    0.00000000
     atom   59 type  2   force =     0.00000000    0.00000000    0.00000000
     atom   60 type  2   force =     0.00000000    0.00000000    0.00000000
     atom   61 type  2   force =     0.00000000    0.00000000    0.00000000
     atom   62 type  2   force =     0.00000000    0.00000000    0.00000000
     atom   63 type  2   force =     0.00000000    0.00000000    0.00000000
     atom   64 type  2   force =     0.00000000    0.00000000    0.00000000
     atom   65 type  2   force =     0.00000000    0.00000000    0.00000000
     atom   66 type  2   force =     0.00000000    0.00000000    0.00000000
     atom   67 type  2   force =     0.00000000    0.00000000    0.00000000
     atom   68 type  2   force =     0.00000000    0.00000000    0.00000000
     atom   69 type  2   force =     0.00000000    0.00000000    0.00000000
     atom   70 type  2   force =     0.00000000    0.00000000    0.00000000
     atom   71 type  2   force =     0.00000000    0.00000000    0.00000000
     atom   72 type  2   force =     0.00000000    0.00000000    0.00000000
     The SCF correction term to forces
     atom    1 type  1   force =    -0.00004921    0.00003932    0.00001192
     atom    2 type  1   force =    -0.00007561    0.00005949   -0.00001037
     atom    3 type  1   force =     0.00002665   -0.00001043    0.00002785
     atom    4 type  1   force =     0.00004883   -0.00002325   -0.00002787
     atom    5 type  1   force =     0.00001297   -0.00002748   -0.00000429
     atom    6 type  1   force =     0.00004728   -0.00004169    0.00000365
     atom    7 type  1   force =     0.00005319    0.00003514   -0.00002327
     atom    8 type  1   force =     0.00007785    0.00000075    0.00001879
     atom    9 type  1   force =    -0.00001391    0.00004715   -0.00000362
     atom   10 type  3   force =    -0.00003340    0.00003758    0.00000014
     atom   11 type  3   force =     0.00000909   -0.00002551   -0.00000236
     atom   12 type  1   force =     0.00002265   -0.00005578    0.00000418
     atom   13 type  1   force =    -0.00000942    0.00003835   -0.00000180
     atom   14 type  1   force =     0.00000962    0.00003015    0.00000028
     atom   15 type  3   force =    -0.00000833   -0.00001552   -0.00000824
     atom   16 type  1   force =     0.00001906   -0.00004356    0.00001745
     atom   17 type  1   force =    -0.00002825   -0.00002868   -0.00000761
     atom   18 type  3   force =    -0.00003350   -0.00000756    0.00000463
     atom   19 type  3   force =     0.00001926    0.00000640   -0.00000182
     atom   20 type  1   force =     0.00006280    0.00001147    0.00000336
     atom   21 type  1   force =    -0.00000645   -0.00001245   -0.00001055
     atom   22 type  1   force =     0.00003079    0.00000174    0.00001474
     atom   23 type  1   force =    -0.00006603   -0.00001629    0.00002902
     atom   24 type  1   force =    -0.00003919    0.00001611   -0.00002763
     atom   25 type  1   force =    -0.00004116    0.00006579    0.00002756
     atom   26 type  1   force =    -0.00006295    0.00005848   -0.00002837
     atom   27 type  3   force =     0.00002388   -0.00001039    0.00000071
     atom   28 type  3   force =     0.00002055    0.00000512   -0.00000217
     atom   29 type  1   force =     0.00002289   -0.00003186   -0.00001475
     atom   30 type  1   force =     0.00003892   -0.00005772    0.00001269
     atom   31 type  1   force =    -0.00000413    0.00003760   -0.00001169
     atom   32 type  3   force =     0.00000034    0.00000681    0.00000612
     atom   33 type  1   force =    -0.00004629    0.00003604    0.00002543
     atom   34 type  1   force =    -0.00007701    0.00002277   -0.00002428
     atom   35 type  1   force =     0.00003775   -0.00006723   -0.00000779
     atom   36 type  1   force =    -0.00000195   -0.00007863    0.00000613
     atom   37 type  2   force =    -0.00000431    0.00000645    0.00000080
     atom   38 type  2   force =    -0.00000677    0.00001032    0.00000016
     atom   39 type  2   force =     0.00001397    0.00000196   -0.00000165
     atom   40 type  2   force =     0.00001086    0.00000259    0.00000098
     atom   41 type  2   force =     0.00000552    0.00000101   -0.00000324
     atom   42 type  2   force =     0.00000620   -0.00000351    0.00000349
     atom   43 type  2   force =     0.00000357   -0.00000045   -0.00000295
     atom   44 type  2   force =     0.00000640    0.00000133    0.00000320
     atom   45 type  2   force =    -0.00001070    0.00000819   -0.00000428
     atom   46 type  2   force =    -0.00001004    0.00000840    0.00000421
     atom   47 type  2   force =     0.00000416   -0.00000977    0.00000431
     atom   48 type  2   force =     0.00000342   -0.00000876   -0.00000459
     atom   49 type  2   force =     0.00000176   -0.00000432    0.00000034
     atom   50 type  2   force =    -0.00000240   -0.00000114   -0.00000081
     atom   51 type  2   force =    -0.00000330   -0.00000297    0.00000282
     atom   52 type  2   force =    -0.00000234   -0.00000430   -0.00000024
     atom   53 type  2   force =    -0.00000944    0.00000033   -0.00000305
     atom   54 type  2   force =    -0.00000826   -0.00000322    0.00000272
     atom   55 type  2   force =     0.00000085    0.00000133    0.00000350
     atom   56 type  2   force =    -0.00000128    0.00000377   -0.00000355
     atom   57 type  2   force =     0.00000237   -0.00000331    0.00000118
     atom   58 type  2   force =     0.00000342   -0.00000169   -0.00000133
     atom   59 type  2   force =    -0.00000717   -0.00000202   -0.00000379
     atom   60 type  2   force =    -0.00000420   -0.00000153    0.00000291
     atom   61 type  2   force =    -0.00000052    0.00000920   -0.00000206
     atom   62 type  2   force =     0.00000038    0.00000951    0.00000171
     atom   63 type  2   force =     0.00000512    0.00000451    0.00000019
     atom   64 type  2   force =     0.00000604    0.00000321    0.00000005
     atom   65 type  2   force =     0.00001268   -0.00000678    0.00000021
     atom   66 type  2   force =     0.00000942   -0.00000334    0.00000006
     atom   67 type  2   force =     0.00000027    0.00000090   -0.00000376
     atom   68 type  2   force =    -0.00000036   -0.00000198    0.00000180
     atom   69 type  2   force =    -0.00000898    0.00000098   -0.00000101
     atom   70 type  2   force =    -0.00000829   -0.00000116    0.00000129
     atom   71 type  2   force =    -0.00000423   -0.00000787   -0.00000096
     atom   72 type  2   force =    -0.00000564   -0.00000621    0.00000202

     Total force =     0.073573     Total SCF correction =     0.000342


     Computing stress (Cartesian axis) and pressure

          total   stress  (Ry/bohr**3)                   (kbar)     P=   66.96
   0.00088182   0.00000116   0.00000052        129.72      0.17      0.08
   0.00000116   0.00087939  -0.00000006          0.17    129.36     -0.01
   0.00000052  -0.00000006  -0.00039563          0.08     -0.01    -58.20

     kinetic stress (kbar)  30385.67      0.45      0.14
                                0.45  30385.21      0.05
                                0.14      0.05  30900.43

     local   stress (kbar) -22317.11  -1105.74   -596.79
                            -1105.74 -23336.69     52.34
                             -596.79     52.34  16265.38

     nonloc. stress (kbar)     10.92     -0.01      0.08
                               -0.01     11.79     -0.00
                                0.08     -0.00   -340.35

     hartree stress (kbar)  60925.78    537.14    294.07
                              537.14  61415.57    -28.20
                              294.07    -28.20  46634.17

     exc-cor stress (kbar) -12478.68      0.02     -0.00
                                0.02 -12478.66      0.00
                               -0.00      0.00 -12497.46

     corecor stress (kbar)   -248.58     -0.00     -0.00
                               -0.00   -248.58      0.00
                               -0.00      0.00   -249.27

     ewald   stress (kbar) -56148.28    568.30    302.58
                              568.30 -55619.28    -24.20
                              302.58    -24.20 -80771.10

     hubbard stress (kbar)      0.00      0.00      0.00
                                0.00      0.00      0.00
                                0.00      0.00      0.00

     london  stress (kbar)      0.00      0.00      0.00
                                0.00      0.00      0.00
                                0.00      0.00      0.00

     DFT-D3  stress (kbar)      0.00      0.00      0.00
                                0.00      0.00      0.00
                                0.00      0.00      0.00

     XDM     stress (kbar)      0.00      0.00      0.00
                                0.00      0.00      0.00
                                0.00      0.00      0.00

     dft-nl  stress (kbar)      0.00      0.00      0.00
                                0.00      0.00      0.00
                                0.00      0.00      0.00

     TS-vdW  stress (kbar)      0.00      0.00      0.00
                                0.00      0.00      0.00
                                0.00      0.00      0.00



     Writing output data file ZnO.save/
 
     init_run     :     14.65s CPU     15.58s WALL (       1 calls)
     electrons    :    700.77s CPU    715.28s WALL (       1 calls)
     forces       :      9.69s CPU      9.91s WALL (       1 calls)
     stress       :    146.91s CPU    147.59s WALL (       1 calls)

     Called by init_run:
     wfcinit      :     12.25s CPU     12.99s WALL (       1 calls)
     wfcinit:atom :      0.09s CPU      0.11s WALL (       5 calls)
     wfcinit:wfcr :     11.76s CPU     12.41s WALL (       5 calls)
     potinit      :      1.09s CPU      1.13s WALL (       1 calls)
     hinit0       :      0.75s CPU      0.85s WALL (       1 calls)

     Called by electrons:
     c_bands      :    648.81s CPU    661.92s WALL (      12 calls)
     sum_band     :     45.17s CPU     45.95s WALL (      12 calls)
     v_of_rho     :      5.37s CPU      5.65s WALL (      13 calls)
     v_h          :      0.14s CPU      0.19s WALL (      13 calls)
     v_xc         :      6.02s CPU      6.28s WALL (      15 calls)
     newd         :      1.37s CPU      1.44s WALL (      13 calls)
     mix_rho      :      0.32s CPU      0.48s WALL (      12 calls)

     Called by c_bands:
     init_us_2    :      4.32s CPU      4.36s WALL (     135 calls)
     cegterg      :    601.42s CPU    614.13s WALL (      60 calls)

     Called by sum_band:
     sum_band:bec :      0.24s CPU      0.24s WALL (      60 calls)
     addusdens    :      1.05s CPU      1.11s WALL (      12 calls)

     Called by *egterg:
     h_psi        :    199.54s CPU    202.69s WALL (     243 calls)
     s_psi        :     49.84s CPU     49.86s WALL (     243 calls)
     g_psi        :      0.81s CPU      0.82s WALL (     178 calls)
     cdiaghg      :    221.63s CPU    227.87s WALL (     238 calls)
     cegterg:over :     59.76s CPU     61.19s WALL (     178 calls)
     cegterg:upda :     39.18s CPU     39.66s WALL (     178 calls)
     cegterg:last :     21.44s CPU     21.51s WALL (      60 calls)
     cdiaghg:chol :     10.16s CPU     10.39s WALL (     238 calls)
     cdiaghg:inve :      3.16s CPU      3.17s WALL (     238 calls)
     cdiaghg:para :     52.12s CPU     56.84s WALL (     476 calls)

     Called by h_psi:
     h_psi:pot    :    197.85s CPU    199.90s WALL (     243 calls)
     h_psi:calbec :     51.61s CPU     52.96s WALL (     243 calls)
     vloc_psi     :     96.53s CPU     97.03s WALL (     243 calls)
     add_vuspsi   :     49.71s CPU     49.90s WALL (     243 calls)

     General routines
     calbec       :     80.31s CPU     82.40s WALL (     328 calls)
     fft          :      1.38s CPU      1.93s WALL (     192 calls)
     ffts         :      0.05s CPU      0.06s WALL (      25 calls)
     fftw         :    110.74s CPU    111.31s WALL (  184022 calls)
     interpolate  :      0.14s CPU      0.18s WALL (      13 calls)
 
     Parallel routines
     fft_scatt_xy :     18.41s CPU     18.50s WALL (  184239 calls)
     fft_scatt_yz :     30.21s CPU     30.89s WALL (  184239 calls)
 
     PWSCF        :  14m35.23s CPU  14m56.99s WALL

 
   This run was terminated on:  13:54:43   8Nov2021            

=------------------------------------------------------------------------------=
   JOB DONE.
=------------------------------------------------------------------------------=
