
     Program PWSCF v.6.4.1 starts on 16Jun2022 at 15:13:22 

     This program is part of the open-source Quantum ESPRESSO suite
     for quantum simulation of materials; please cite
         "P. Giannozzi et al., J. Phys.:Condens. Matter 21 395502 (2009);
         "P. Giannozzi et al., J. Phys.:Condens. Matter 29 465901 (2017);
          URL http://www.quantum-espresso.org", 
     in publications or presentations arising from this work. More details at
     http://www.quantum-espresso.org/quote

     Parallel version (MPI), running on    64 processors

     MPI processes distributed on     1 nodes
     K-points division:     npool     =       4
     R & G space division:  proc/nbgrp/npool/nimage =      16
     Waiting for input...
     Reading input from standard input
Warning: card &IONS ignored
Warning: card   UPSCALE           = 100.D0, ignored
Warning: card / ignored
Warning: card &CELL ignored
Warning: card   CELL_DYNAMICS     = 'BFGS' ignored
Warning: card   PRESS_CONV_THR    = 0.5D0 ignored
Warning: card   CELL_DOFREE = 'ALL' ignored
Warning: card / ignored

     Current dimensions of program PWSCF are:
     Max number of different atomic species (ntypx) = 10
     Max number of k-points (npk) =  40000
     Max angular momentum in pseudopotentials (lmaxx) =  3

     Subspace diagonalization in iterative solution of the eigenvalue problem:
     one sub-group per band group will be used
     scalapack distributed-memory algorithm (size of sub-group:  2*  2 procs)

--------------------------------------------------------------------------------
NOTICE: Bravais lattice has wrong number (10) of symmetries - symmetries are disabled
--------------------------------------------------------------------------------
 
     Parallelization info
     --------------------
     sticks:   dense  smooth     PW     G-vecs:    dense   smooth      PW
     Min         104      57     17                 4758     1863     323
     Max         105      58     18                 4765     1868     328
     Sum        1675     913    283                76189    29821    5205
 


     bravais-lattice index     =            0
     lattice parameter (alat)  =       6.4040  a.u.
     unit-cell volume          =     308.0573 (a.u.)^3
     number of atoms/cell      =            4
     number of atomic types    =            2
     number of electrons       =        52.00
     number of Kohn-Sham states=           26
     kinetic-energy cutoff     =      80.0000  Ry
     charge density cutoff     =     600.0000  Ry
     convergence threshold     =      1.0E-06
     mixing beta               =       0.5000
     number of iterations used =            8  plain     mixing
     Exchange-correlation      = SLA  PW   PSX  PSC ( 1  4 10  8 0 0)
     Using LIBXC version       =    4   3   4

     celldm(1)=   6.403984  celldm(2)=   0.000000  celldm(3)=   0.000000
     celldm(4)=   0.000000  celldm(5)=   0.000000  celldm(6)=   0.000000

     crystal axes: (cart. coord. in units of alat)
               a(1) = (   1.000000   0.000000   0.000000 )  
               a(2) = (  -0.500000   0.866025   0.000000 )  
               a(3) = (   0.000000   0.000000   1.354410 )  

     reciprocal axes: (cart. coord. in units 2 pi/alat)
               b(1) = (  1.000000  0.577350 -0.000000 )  
               b(2) = ( -0.000000  1.154700 -0.000000 )  
               b(3) = ( -0.000000 -0.000000  0.738329 )  


     PseudoPot. # 1 for Zn read from file:
     ./GBRV_PBEsol/zn_pbesol_v1.uspp.F.UPF
     MD5 check sum: 7d8615e52efe7c1e2b1899de8658bae2
     Pseudo is Ultrasoft, Zval = 20.0
     Generated by new atomic code, or converted to UPF format
     Using radial grid of  943 points,  6 beta functions with: 
                l(1) =   0
                l(2) =   0
                l(3) =   1
                l(4) =   1
                l(5) =   2
                l(6) =   2
     Q(r) pseudized with  8 coefficients,  rinner =    1.100   1.100   1.100
                                                       1.100   1.100

     PseudoPot. # 2 for O  read from file:
     ./GBRV_PBEsol/o_pbesol_v1.2.uspp.F.UPF
     MD5 check sum: 501638753501ef6325af9037351f7734
     Pseudo is Ultrasoft + core correction, Zval =  6.0
     Generated by new atomic code, or converted to UPF format
     Using radial grid of  737 points,  5 beta functions with: 
                l(1) =   0
                l(2) =   0
                l(3) =   1
                l(4) =   1
                l(5) =   2
     Q(r) pseudized with  8 coefficients,  rinner =    0.900   0.900   0.900
                                                       0.900   0.900

     atomic species   valence    mass     pseudopotential
        Zn            20.00    65.38000     Zn( 1.00)
        O              6.00    15.99900     O ( 1.00)

     No symmetry found


                                    s                        frac. trans.

      isym =  1     identity                                     

 cryst.   s( 1) = (     1          0          0      )
                  (     0          1          0      )
                  (     0          0          1      )

 cart.    s( 1) = (  1.0000000  0.0000000  0.0000000 )
                  ( -0.0000000  1.0000000 -0.0000000 )
                  (  0.0000000  0.0000000  1.0000000 )


   Cartesian axes

     site n.     atom                  positions (alat units)
         1           O   tau(   1) = (   0.5000002   0.2886757   0.0099495  )
         2           O   tau(   2) = (   0.0000003   0.5773498   0.6871542  )
         3           Zn  tau(   3) = (   0.5000001   0.2886753   0.7264435  )
         4           Zn  tau(   4) = (   0.0000001   0.5773518   1.4036483  )

   Crystallographic axes

     site n.     atom                  positions (cryst. coord.)
         1           O   tau(   1) = (  0.6666670  0.3333337  0.0073459  )
         2           O   tau(   2) = (  0.3333329  0.6666657  0.5073458  )
         3           Zn  tau(   3) = (  0.6666664  0.3333329  0.5363542  )
         4           Zn  tau(   4) = (  0.3333336  0.6666677  1.0363542  )

     number of k points=   260
                       cart. coord. in units 2pi/alat
        k(    1) = (   0.0000000   0.0000000   0.0000000), wk =   0.0039062
        k(    2) = (  -0.0000000  -0.0000000   0.0922911), wk =   0.0078125
        k(    3) = (  -0.0000000  -0.0000001   0.1845823), wk =   0.0078125
        k(    4) = (  -0.0000000  -0.0000001   0.2768734), wk =   0.0078125
        k(    5) = (   0.0000000   0.0000001  -0.3691645), wk =   0.0039062
        k(    6) = (  -0.0000000   0.1443375  -0.0000001), wk =   0.0078125
        k(    7) = (  -0.0000001   0.1443375   0.0922911), wk =   0.0078125
        k(    8) = (  -0.0000001   0.1443375   0.1845822), wk =   0.0078125
        k(    9) = (  -0.0000001   0.1443374   0.2768733), wk =   0.0078125
        k(   10) = (  -0.0000000   0.1443377  -0.3691646), wk =   0.0078125
        k(   11) = (  -0.0000000   0.1443376  -0.2768734), wk =   0.0078125
        k(   12) = (  -0.0000000   0.1443376  -0.1845823), wk =   0.0078125
        k(   13) = (  -0.0000000   0.1443376  -0.0922912), wk =   0.0078125
        k(   14) = (  -0.0000001   0.2886751  -0.0000001), wk =   0.0078125
        k(   15) = (  -0.0000001   0.2886750   0.0922910), wk =   0.0078125
        k(   16) = (  -0.0000001   0.2886750   0.1845822), wk =   0.0078125
        k(   17) = (  -0.0000001   0.2886750   0.2768733), wk =   0.0078125
        k(   18) = (  -0.0000000   0.2886752  -0.3691646), wk =   0.0078125
        k(   19) = (  -0.0000001   0.2886752  -0.2768735), wk =   0.0078125
        k(   20) = (  -0.0000001   0.2886751  -0.1845824), wk =   0.0078125
        k(   21) = (  -0.0000001   0.2886751  -0.0922912), wk =   0.0078125
        k(   22) = (  -0.0000001   0.4330126  -0.0000002), wk =   0.0078125
        k(   23) = (  -0.0000001   0.4330126   0.0922910), wk =   0.0078125
        k(   24) = (  -0.0000001   0.4330125   0.1845821), wk =   0.0078125
        k(   25) = (  -0.0000002   0.4330125   0.2768732), wk =   0.0078125
        k(   26) = (  -0.0000001   0.4330127  -0.3691647), wk =   0.0078125
        k(   27) = (  -0.0000001   0.4330127  -0.2768735), wk =   0.0078125
        k(   28) = (  -0.0000001   0.4330127  -0.1845824), wk =   0.0078125
        k(   29) = (  -0.0000001   0.4330126  -0.0922913), wk =   0.0078125
        k(   30) = (   0.0000002  -0.5773501   0.0000002), wk =   0.0039062
        k(   31) = (   0.0000002  -0.5773502   0.0922913), wk =   0.0078125
        k(   32) = (   0.0000001  -0.5773502   0.1845825), wk =   0.0078125
        k(   33) = (   0.0000001  -0.5773502   0.2768736), wk =   0.0078125
        k(   34) = (   0.0000002  -0.5773500  -0.3691643), wk =   0.0039062
        k(   35) = (   0.1250000   0.0721687  -0.0000000), wk =   0.0078125
        k(   36) = (   0.1250000   0.0721687   0.0922911), wk =   0.0078125
        k(   37) = (   0.1250000   0.0721687   0.1845822), wk =   0.0078125
        k(   38) = (   0.1250000   0.0721686   0.2768734), wk =   0.0078125
        k(   39) = (   0.1250000   0.0721689  -0.3691646), wk =   0.0078125
        k(   40) = (   0.1250000   0.0721688  -0.2768734), wk =   0.0078125
        k(   41) = (   0.1250000   0.0721688  -0.1845823), wk =   0.0078125
        k(   42) = (   0.1250000   0.0721688  -0.0922912), wk =   0.0078125
        k(   43) = (   0.1249999   0.2165063  -0.0000001), wk =   0.0078125
        k(   44) = (   0.1249999   0.2165062   0.0922910), wk =   0.0078125
        k(   45) = (   0.1249999   0.2165062   0.1845822), wk =   0.0078125
        k(   46) = (   0.1249999   0.2165062   0.2768733), wk =   0.0078125
        k(   47) = (   0.1250000   0.2165064  -0.3691646), wk =   0.0078125
        k(   48) = (   0.1250000   0.2165064  -0.2768735), wk =   0.0078125
        k(   49) = (   0.1250000   0.2165063  -0.1845823), wk =   0.0078125
        k(   50) = (   0.1249999   0.2165063  -0.0922912), wk =   0.0078125
        k(   51) = (   0.1249999   0.3608438  -0.0000001), wk =   0.0078125
        k(   52) = (   0.1249999   0.3608438   0.0922910), wk =   0.0078125
        k(   53) = (   0.1249999   0.3608437   0.1845821), wk =   0.0078125
        k(   54) = (   0.1249999   0.3608437   0.2768732), wk =   0.0078125
        k(   55) = (   0.1249999   0.3608439  -0.3691647), wk =   0.0078125
        k(   56) = (   0.1249999   0.3608439  -0.2768735), wk =   0.0078125
        k(   57) = (   0.1249999   0.3608439  -0.1845824), wk =   0.0078125
        k(   58) = (   0.1249999   0.3608438  -0.0922913), wk =   0.0078125
        k(   59) = (   0.1249999   0.5051813  -0.0000002), wk =   0.0078125
        k(   60) = (   0.1249998   0.5051813   0.0922909), wk =   0.0078125
        k(   61) = (   0.1249998   0.5051813   0.1845821), wk =   0.0078125
        k(   62) = (   0.1249998   0.5051812   0.2768732), wk =   0.0078125
        k(   63) = (   0.1249999   0.5051815  -0.3691647), wk =   0.0078125
        k(   64) = (   0.1249999   0.5051814  -0.2768736), wk =   0.0078125
        k(   65) = (   0.1249999   0.5051814  -0.1845825), wk =   0.0078125
        k(   66) = (   0.1249999   0.5051814  -0.0922913), wk =   0.0078125
        k(   67) = (   0.1250001  -0.5051814   0.0000002), wk =   0.0078125
        k(   68) = (   0.1250001  -0.5051814   0.0922913), wk =   0.0078125
        k(   69) = (   0.1250001  -0.5051815   0.1845824), wk =   0.0078125
        k(   70) = (   0.1250001  -0.5051815   0.2768736), wk =   0.0078125
        k(   71) = (   0.1250002  -0.5051813  -0.3691643), wk =   0.0078125
        k(   72) = (   0.1250002  -0.5051813  -0.2768732), wk =   0.0078125
        k(   73) = (   0.1250002  -0.5051813  -0.1845821), wk =   0.0078125
        k(   74) = (   0.1250002  -0.5051814  -0.0922910), wk =   0.0078125
        k(   75) = (   0.1250001  -0.3608439   0.0000001), wk =   0.0078125
        k(   76) = (   0.1250001  -0.3608439   0.0922912), wk =   0.0078125
        k(   77) = (   0.1250001  -0.3608439   0.1845824), wk =   0.0078125
        k(   78) = (   0.1250001  -0.3608440   0.2768735), wk =   0.0078125
        k(   79) = (   0.1250001  -0.3608437  -0.3691644), wk =   0.0078125
        k(   80) = (   0.1250001  -0.3608438  -0.2768733), wk =   0.0078125
        k(   81) = (   0.1250001  -0.3608438  -0.1845821), wk =   0.0078125
        k(   82) = (   0.1250001  -0.3608438  -0.0922910), wk =   0.0078125
        k(   83) = (   0.1250001  -0.2165063   0.0000001), wk =   0.0078125
        k(   84) = (   0.1250001  -0.2165064   0.0922912), wk =   0.0078125
        k(   85) = (   0.1250000  -0.2165064   0.1845823), wk =   0.0078125
        k(   86) = (   0.1250000  -0.2165064   0.2768735), wk =   0.0078125
        k(   87) = (   0.1250001  -0.2165062  -0.3691644), wk =   0.0078125
        k(   88) = (   0.1250001  -0.2165062  -0.2768733), wk =   0.0078125
        k(   89) = (   0.1250001  -0.2165063  -0.1845822), wk =   0.0078125
        k(   90) = (   0.1250001  -0.2165063  -0.0922911), wk =   0.0078125
        k(   91) = (   0.1250000  -0.0721688   0.0000000), wk =   0.0078125
        k(   92) = (   0.1250000  -0.0721688   0.0922911), wk =   0.0078125
        k(   93) = (   0.1250000  -0.0721689   0.1845823), wk =   0.0078125
        k(   94) = (   0.1250000  -0.0721689   0.2768734), wk =   0.0078125
        k(   95) = (   0.1250001  -0.0721687  -0.3691645), wk =   0.0078125
        k(   96) = (   0.1250000  -0.0721687  -0.2768734), wk =   0.0078125
        k(   97) = (   0.1250000  -0.0721687  -0.1845822), wk =   0.0078125
        k(   98) = (   0.1250000  -0.0721688  -0.0922911), wk =   0.0078125
        k(   99) = (   0.2500000   0.1443375  -0.0000001), wk =   0.0078125
        k(  100) = (   0.2499999   0.1443374   0.0922911), wk =   0.0078125
        k(  101) = (   0.2499999   0.1443374   0.1845822), wk =   0.0078125
        k(  102) = (   0.2499999   0.1443374   0.2768733), wk =   0.0078125
        k(  103) = (   0.2500000   0.1443376  -0.3691646), wk =   0.0078125
        k(  104) = (   0.2500000   0.1443376  -0.2768735), wk =   0.0078125
        k(  105) = (   0.2500000   0.1443375  -0.1845823), wk =   0.0078125
        k(  106) = (   0.2500000   0.1443375  -0.0922912), wk =   0.0078125
        k(  107) = (   0.2499999   0.2886750  -0.0000001), wk =   0.0078125
        k(  108) = (   0.2499999   0.2886750   0.0922910), wk =   0.0078125
        k(  109) = (   0.2499999   0.2886749   0.1845821), wk =   0.0078125
        k(  110) = (   0.2499999   0.2886749   0.2768733), wk =   0.0078125
        k(  111) = (   0.2500000   0.2886751  -0.3691646), wk =   0.0078125
        k(  112) = (   0.2499999   0.2886751  -0.2768735), wk =   0.0078125
        k(  113) = (   0.2499999   0.2886751  -0.1845824), wk =   0.0078125
        k(  114) = (   0.2499999   0.2886750  -0.0922913), wk =   0.0078125
        k(  115) = (   0.2499999   0.4330125  -0.0000002), wk =   0.0078125
        k(  116) = (   0.2499999   0.4330125   0.0922910), wk =   0.0078125
        k(  117) = (   0.2499999   0.4330125   0.1845821), wk =   0.0078125
        k(  118) = (   0.2499998   0.4330124   0.2768732), wk =   0.0078125
        k(  119) = (   0.2499999   0.4330127  -0.3691647), wk =   0.0078125
        k(  120) = (   0.2499999   0.4330126  -0.2768736), wk =   0.0078125
        k(  121) = (   0.2499999   0.4330126  -0.1845824), wk =   0.0078125
        k(  122) = (   0.2499999   0.4330126  -0.0922913), wk =   0.0078125
        k(  123) = (   0.2499998   0.5773501  -0.0000002), wk =   0.0078125
        k(  124) = (   0.2499998   0.5773500   0.0922909), wk =   0.0078125
        k(  125) = (   0.2499998   0.5773500   0.1845820), wk =   0.0078125
        k(  126) = (   0.2499998   0.5773500   0.2768732), wk =   0.0078125
        k(  127) = (   0.2499999   0.5773502  -0.3691647), wk =   0.0078125
        k(  128) = (   0.2499999   0.5773502  -0.2768736), wk =   0.0078125
        k(  129) = (   0.2499999   0.5773501  -0.1845825), wk =   0.0078125
        k(  130) = (   0.2499998   0.5773501  -0.0922914), wk =   0.0078125
        k(  131) = (   0.2500001  -0.4330127   0.0000001), wk =   0.0078125
        k(  132) = (   0.2500001  -0.4330127   0.0922913), wk =   0.0078125
        k(  133) = (   0.2500001  -0.4330127   0.1845824), wk =   0.0078125
        k(  134) = (   0.2500001  -0.4330128   0.2768735), wk =   0.0078125
        k(  135) = (   0.2500002  -0.4330125  -0.3691644), wk =   0.0078125
        k(  136) = (   0.2500002  -0.4330126  -0.2768733), wk =   0.0078125
        k(  137) = (   0.2500001  -0.4330126  -0.1845821), wk =   0.0078125
        k(  138) = (   0.2500001  -0.4330126  -0.0922910), wk =   0.0078125
        k(  139) = (   0.2500001  -0.2886751   0.0000001), wk =   0.0078125
        k(  140) = (   0.2500001  -0.2886752   0.0922912), wk =   0.0078125
        k(  141) = (   0.2500001  -0.2886752   0.1845823), wk =   0.0078125
        k(  142) = (   0.2500001  -0.2886752   0.2768735), wk =   0.0078125
        k(  143) = (   0.2500001  -0.2886750  -0.3691644), wk =   0.0078125
        k(  144) = (   0.2500001  -0.2886750  -0.2768733), wk =   0.0078125
        k(  145) = (   0.2500001  -0.2886751  -0.1845822), wk =   0.0078125
        k(  146) = (   0.2500001  -0.2886751  -0.0922910), wk =   0.0078125
        k(  147) = (   0.2500000  -0.1443376   0.0000000), wk =   0.0078125
        k(  148) = (   0.2500000  -0.1443376   0.0922912), wk =   0.0078125
        k(  149) = (   0.2500000  -0.1443377   0.1845823), wk =   0.0078125
        k(  150) = (   0.2500000  -0.1443377   0.2768734), wk =   0.0078125
        k(  151) = (   0.2500001  -0.1443375  -0.3691645), wk =   0.0078125
        k(  152) = (   0.2500001  -0.1443375  -0.2768734), wk =   0.0078125
        k(  153) = (   0.2500001  -0.1443375  -0.1845822), wk =   0.0078125
        k(  154) = (   0.2500001  -0.1443376  -0.0922911), wk =   0.0078125
        k(  155) = (   0.2500000  -0.0000001  -0.0000000), wk =   0.0078125
        k(  156) = (   0.2500000  -0.0000001   0.0922911), wk =   0.0078125
        k(  157) = (   0.2500000  -0.0000001   0.1845822), wk =   0.0078125
        k(  158) = (   0.2500000  -0.0000002   0.2768734), wk =   0.0078125
        k(  159) = (   0.2500000   0.0000001  -0.3691645), wk =   0.0078125
        k(  160) = (   0.2500000   0.0000000  -0.2768734), wk =   0.0078125
        k(  161) = (   0.2500000  -0.0000000  -0.1845823), wk =   0.0078125
        k(  162) = (   0.2500000  -0.0000000  -0.0922912), wk =   0.0078125
        k(  163) = (   0.3749999   0.2165062  -0.0000001), wk =   0.0078125
        k(  164) = (   0.3749999   0.2165062   0.0922910), wk =   0.0078125
        k(  165) = (   0.3749999   0.2165061   0.1845821), wk =   0.0078125
        k(  166) = (   0.3749999   0.2165061   0.2768733), wk =   0.0078125
        k(  167) = (   0.3750000   0.2165063  -0.3691646), wk =   0.0078125
        k(  168) = (   0.3750000   0.2165063  -0.2768735), wk =   0.0078125
        k(  169) = (   0.3750000   0.2165063  -0.1845824), wk =   0.0078125
        k(  170) = (   0.3749999   0.2165062  -0.0922912), wk =   0.0078125
        k(  171) = (   0.3749999   0.3608437  -0.0000002), wk =   0.0078125
        k(  172) = (   0.3749999   0.3608437   0.0922910), wk =   0.0078125
        k(  173) = (   0.3749999   0.3608437   0.1845821), wk =   0.0078125
        k(  174) = (   0.3749999   0.3608436   0.2768732), wk =   0.0078125
        k(  175) = (   0.3749999   0.3608439  -0.3691647), wk =   0.0078125
        k(  176) = (   0.3749999   0.3608438  -0.2768736), wk =   0.0078125
        k(  177) = (   0.3749999   0.3608438  -0.1845824), wk =   0.0078125
        k(  178) = (   0.3749999   0.3608438  -0.0922913), wk =   0.0078125
        k(  179) = (   0.3749999   0.5051813  -0.0000002), wk =   0.0078125
        k(  180) = (   0.3749998   0.5051812   0.0922909), wk =   0.0078125
        k(  181) = (   0.3749998   0.5051812   0.1845820), wk =   0.0078125
        k(  182) = (   0.3749998   0.5051812   0.2768732), wk =   0.0078125
        k(  183) = (   0.3749999   0.5051814  -0.3691647), wk =   0.0078125
        k(  184) = (   0.3749999   0.5051814  -0.2768736), wk =   0.0078125
        k(  185) = (   0.3749999   0.5051813  -0.1845825), wk =   0.0078125
        k(  186) = (   0.3749999   0.5051813  -0.0922913), wk =   0.0078125
        k(  187) = (   0.3749998   0.6495188  -0.0000003), wk =   0.0078125
        k(  188) = (   0.3749998   0.6495188   0.0922909), wk =   0.0078125
        k(  189) = (   0.3749998   0.6495187   0.1845820), wk =   0.0078125
        k(  190) = (   0.3749998   0.6495187   0.2768731), wk =   0.0078125
        k(  191) = (   0.3749999   0.6495189  -0.3691648), wk =   0.0078125
        k(  192) = (   0.3749998   0.6495189  -0.2768737), wk =   0.0078125
        k(  193) = (   0.3749998   0.6495189  -0.1845825), wk =   0.0078125
        k(  194) = (   0.3749998   0.6495188  -0.0922914), wk =   0.0078125
        k(  195) = (   0.3750001  -0.3608439   0.0000001), wk =   0.0078125
        k(  196) = (   0.3750001  -0.3608440   0.0922912), wk =   0.0078125
        k(  197) = (   0.3750001  -0.3608440   0.1845824), wk =   0.0078125
        k(  198) = (   0.3750001  -0.3608440   0.2768735), wk =   0.0078125
        k(  199) = (   0.3750001  -0.3608438  -0.3691644), wk =   0.0078125
        k(  200) = (   0.3750001  -0.3608438  -0.2768733), wk =   0.0078125
        k(  201) = (   0.3750001  -0.3608439  -0.1845822), wk =   0.0078125
        k(  202) = (   0.3750001  -0.3608439  -0.0922910), wk =   0.0078125
        k(  203) = (   0.3750001  -0.2165064   0.0000000), wk =   0.0078125
        k(  204) = (   0.3750001  -0.2165064   0.0922912), wk =   0.0078125
        k(  205) = (   0.3750000  -0.2165065   0.1845823), wk =   0.0078125
        k(  206) = (   0.3750000  -0.2165065   0.2768734), wk =   0.0078125
        k(  207) = (   0.3750001  -0.2165063  -0.3691645), wk =   0.0078125
        k(  208) = (   0.3750001  -0.2165063  -0.2768733), wk =   0.0078125
        k(  209) = (   0.3750001  -0.2165063  -0.1845822), wk =   0.0078125
        k(  210) = (   0.3750001  -0.2165064  -0.0922911), wk =   0.0078125
        k(  211) = (   0.3750000  -0.0721689  -0.0000000), wk =   0.0078125
        k(  212) = (   0.3750000  -0.0721689   0.0922911), wk =   0.0078125
        k(  213) = (   0.3750000  -0.0721689   0.1845823), wk =   0.0078125
        k(  214) = (   0.3750000  -0.0721690   0.2768734), wk =   0.0078125
        k(  215) = (   0.3750001  -0.0721687  -0.3691645), wk =   0.0078125
        k(  216) = (   0.3750000  -0.0721688  -0.2768734), wk =   0.0078125
        k(  217) = (   0.3750000  -0.0721688  -0.1845823), wk =   0.0078125
        k(  218) = (   0.3750000  -0.0721688  -0.0922911), wk =   0.0078125
        k(  219) = (   0.3750000   0.0721687  -0.0000001), wk =   0.0078125
        k(  220) = (   0.3750000   0.0721686   0.0922911), wk =   0.0078125
        k(  221) = (   0.3750000   0.0721686   0.1845822), wk =   0.0078125
        k(  222) = (   0.3750000   0.0721686   0.2768733), wk =   0.0078125
        k(  223) = (   0.3750000   0.0721688  -0.3691646), wk =   0.0078125
        k(  224) = (   0.3750000   0.0721688  -0.2768734), wk =   0.0078125
        k(  225) = (   0.3750000   0.0721687  -0.1845823), wk =   0.0078125
        k(  226) = (   0.3750000   0.0721687  -0.0922912), wk =   0.0078125
        k(  227) = (  -0.4999999  -0.2886749   0.0000001), wk =   0.0039062
        k(  228) = (  -0.4999999  -0.2886750   0.0922913), wk =   0.0078125
        k(  229) = (  -0.4999999  -0.2886750   0.1845824), wk =   0.0078125
        k(  230) = (  -0.4999999  -0.2886750   0.2768735), wk =   0.0078125
        k(  231) = (  -0.4999999  -0.2886748  -0.3691644), wk =   0.0039062
        k(  232) = (  -0.5000000  -0.1443374   0.0000001), wk =   0.0078125
        k(  233) = (  -0.5000000  -0.1443374   0.0922912), wk =   0.0078125
        k(  234) = (  -0.5000000  -0.1443375   0.1845824), wk =   0.0078125
        k(  235) = (  -0.5000000  -0.1443375   0.2768735), wk =   0.0078125
        k(  236) = (  -0.4999999  -0.1443373  -0.3691644), wk =   0.0078125
        k(  237) = (  -0.4999999  -0.1443373  -0.2768733), wk =   0.0078125
        k(  238) = (  -0.4999999  -0.1443373  -0.1845822), wk =   0.0078125
        k(  239) = (  -0.4999999  -0.1443374  -0.0922910), wk =   0.0078125
        k(  240) = (  -0.5000000   0.0000001   0.0000000), wk =   0.0078125
        k(  241) = (  -0.5000000   0.0000001   0.0922912), wk =   0.0078125
        k(  242) = (  -0.5000000   0.0000001   0.1845823), wk =   0.0078125
        k(  243) = (  -0.5000000   0.0000000   0.2768734), wk =   0.0078125
        k(  244) = (  -0.5000000   0.0000003  -0.3691645), wk =   0.0078125
        k(  245) = (  -0.5000000   0.0000002  -0.2768733), wk =   0.0078125
        k(  246) = (  -0.5000000   0.0000002  -0.1845822), wk =   0.0078125
        k(  247) = (  -0.5000000   0.0000002  -0.0922911), wk =   0.0078125
        k(  248) = (  -0.5000000   0.1443377  -0.0000000), wk =   0.0078125
        k(  249) = (  -0.5000001   0.1443376   0.0922911), wk =   0.0078125
        k(  250) = (  -0.5000001   0.1443376   0.1845823), wk =   0.0078125
        k(  251) = (  -0.5000001   0.1443376   0.2768734), wk =   0.0078125
        k(  252) = (  -0.5000000   0.1443378  -0.3691645), wk =   0.0078125
        k(  253) = (  -0.5000000   0.1443378  -0.2768734), wk =   0.0078125
        k(  254) = (  -0.5000000   0.1443377  -0.1845823), wk =   0.0078125
        k(  255) = (  -0.5000000   0.1443377  -0.0922911), wk =   0.0078125
        k(  256) = (  -0.4999998  -0.8660251   0.0000004), wk =   0.0039062
        k(  257) = (  -0.4999998  -0.8660251   0.0922915), wk =   0.0078125
        k(  258) = (  -0.4999998  -0.8660251   0.1845826), wk =   0.0078125
        k(  259) = (  -0.4999998  -0.8660251   0.2768737), wk =   0.0078125
        k(  260) = (  -0.4999997  -0.8660249  -0.3691642), wk =   0.0039062

                       cryst. coord.
        k(    1) = (   0.0000000   0.0000000   0.0000000), wk =   0.0039062
        k(    2) = (  -0.0000000   0.0000000   0.1250000), wk =   0.0078125
        k(    3) = (  -0.0000000   0.0000000   0.2500000), wk =   0.0078125
        k(    4) = (  -0.0000000   0.0000000   0.3750000), wk =   0.0078125
        k(    5) = (   0.0000000  -0.0000000  -0.5000000), wk =   0.0039062
        k(    6) = (  -0.0000000   0.1250000  -0.0000000), wk =   0.0078125
        k(    7) = (  -0.0000000   0.1250000   0.1250000), wk =   0.0078125
        k(    8) = (  -0.0000000   0.1250000   0.2500000), wk =   0.0078125
        k(    9) = (   0.0000000   0.1250000   0.3750000), wk =   0.0078125
        k(   10) = (  -0.0000000   0.1250000  -0.5000000), wk =   0.0078125
        k(   11) = (  -0.0000000   0.1250000  -0.3750000), wk =   0.0078125
        k(   12) = (   0.0000000   0.1250000  -0.2500000), wk =   0.0078125
        k(   13) = (  -0.0000000   0.1250000  -0.1250000), wk =   0.0078125
        k(   14) = (  -0.0000000   0.2500000  -0.0000000), wk =   0.0078125
        k(   15) = (  -0.0000000   0.2500000   0.1250000), wk =   0.0078125
        k(   16) = (  -0.0000000   0.2500000   0.2500000), wk =   0.0078125
        k(   17) = (  -0.0000000   0.2500000   0.3750000), wk =   0.0078125
        k(   18) = (   0.0000000   0.2500000  -0.5000000), wk =   0.0078125
        k(   19) = (   0.0000000   0.2500000  -0.3750000), wk =   0.0078125
        k(   20) = (  -0.0000000   0.2500000  -0.2500000), wk =   0.0078125
        k(   21) = (  -0.0000000   0.2500000  -0.1250000), wk =   0.0078125
        k(   22) = (  -0.0000000   0.3750000  -0.0000000), wk =   0.0078125
        k(   23) = (   0.0000000   0.3750000   0.1250000), wk =   0.0078125
        k(   24) = (   0.0000000   0.3750000   0.2500000), wk =   0.0078125
        k(   25) = (   0.0000000   0.3750000   0.3750000), wk =   0.0078125
        k(   26) = (  -0.0000000   0.3750000  -0.5000000), wk =   0.0078125
        k(   27) = (  -0.0000000   0.3750000  -0.3750000), wk =   0.0078125
        k(   28) = (  -0.0000000   0.3750000  -0.2500000), wk =   0.0078125
        k(   29) = (  -0.0000000   0.3750000  -0.1250000), wk =   0.0078125
        k(   30) = (   0.0000000  -0.5000000   0.0000000), wk =   0.0039062
        k(   31) = (   0.0000000  -0.5000000   0.1250000), wk =   0.0078125
        k(   32) = (   0.0000000  -0.5000000   0.2500000), wk =   0.0078125
        k(   33) = (   0.0000000  -0.5000000   0.3750000), wk =   0.0078125
        k(   34) = (   0.0000000  -0.5000000  -0.5000000), wk =   0.0039062
        k(   35) = (   0.1250000  -0.0000000  -0.0000000), wk =   0.0078125
        k(   36) = (   0.1250000  -0.0000000   0.1250000), wk =   0.0078125
        k(   37) = (   0.1250000   0.0000000   0.2500000), wk =   0.0078125
        k(   38) = (   0.1250000  -0.0000000   0.3750000), wk =   0.0078125
        k(   39) = (   0.1250000  -0.0000000  -0.5000000), wk =   0.0078125
        k(   40) = (   0.1250000   0.0000000  -0.3750000), wk =   0.0078125
        k(   41) = (   0.1250000  -0.0000000  -0.2500000), wk =   0.0078125
        k(   42) = (   0.1250000   0.0000000  -0.1250000), wk =   0.0078125
        k(   43) = (   0.1250000   0.1250000   0.0000000), wk =   0.0078125
        k(   44) = (   0.1250000   0.1250000   0.1250000), wk =   0.0078125
        k(   45) = (   0.1250000   0.1250000   0.2500000), wk =   0.0078125
        k(   46) = (   0.1250000   0.1250000   0.3750000), wk =   0.0078125
        k(   47) = (   0.1250000   0.1250000  -0.5000000), wk =   0.0078125
        k(   48) = (   0.1250000   0.1250000  -0.3750000), wk =   0.0078125
        k(   49) = (   0.1250000   0.1250000  -0.2500000), wk =   0.0078125
        k(   50) = (   0.1250000   0.1250000  -0.1250000), wk =   0.0078125
        k(   51) = (   0.1250000   0.2500000  -0.0000000), wk =   0.0078125
        k(   52) = (   0.1250000   0.2500000   0.1250000), wk =   0.0078125
        k(   53) = (   0.1250000   0.2500000   0.2500000), wk =   0.0078125
        k(   54) = (   0.1250000   0.2500000   0.3750000), wk =   0.0078125
        k(   55) = (   0.1250000   0.2500000  -0.5000000), wk =   0.0078125
        k(   56) = (   0.1250000   0.2500000  -0.3750000), wk =   0.0078125
        k(   57) = (   0.1250000   0.2500000  -0.2500000), wk =   0.0078125
        k(   58) = (   0.1250000   0.2500000  -0.1250000), wk =   0.0078125
        k(   59) = (   0.1250000   0.3750000  -0.0000000), wk =   0.0078125
        k(   60) = (   0.1250000   0.3750000   0.1250000), wk =   0.0078125
        k(   61) = (   0.1250000   0.3750000   0.2500000), wk =   0.0078125
        k(   62) = (   0.1250000   0.3750000   0.3750000), wk =   0.0078125
        k(   63) = (   0.1250000   0.3750000  -0.5000000), wk =   0.0078125
        k(   64) = (   0.1250000   0.3750000  -0.3750000), wk =   0.0078125
        k(   65) = (   0.1250000   0.3750000  -0.2500000), wk =   0.0078125
        k(   66) = (   0.1250000   0.3750000  -0.1250000), wk =   0.0078125
        k(   67) = (   0.1250000  -0.5000000  -0.0000000), wk =   0.0078125
        k(   68) = (   0.1250000  -0.5000000   0.1250000), wk =   0.0078125
        k(   69) = (   0.1250000  -0.5000000   0.2500000), wk =   0.0078125
        k(   70) = (   0.1250000  -0.5000000   0.3750000), wk =   0.0078125
        k(   71) = (   0.1250000  -0.5000000  -0.5000000), wk =   0.0078125
        k(   72) = (   0.1250000  -0.5000000  -0.3750000), wk =   0.0078125
        k(   73) = (   0.1250000  -0.5000000  -0.2500000), wk =   0.0078125
        k(   74) = (   0.1250000  -0.5000000  -0.1250000), wk =   0.0078125
        k(   75) = (   0.1250000  -0.3750000   0.0000000), wk =   0.0078125
        k(   76) = (   0.1250000  -0.3750000   0.1250000), wk =   0.0078125
        k(   77) = (   0.1250000  -0.3750000   0.2500000), wk =   0.0078125
        k(   78) = (   0.1250000  -0.3750000   0.3750000), wk =   0.0078125
        k(   79) = (   0.1250000  -0.3750000  -0.5000000), wk =   0.0078125
        k(   80) = (   0.1250000  -0.3750000  -0.3750000), wk =   0.0078125
        k(   81) = (   0.1250000  -0.3750000  -0.2500000), wk =   0.0078125
        k(   82) = (   0.1250000  -0.3750000  -0.1250000), wk =   0.0078125
        k(   83) = (   0.1250000  -0.2500000   0.0000000), wk =   0.0078125
        k(   84) = (   0.1250000  -0.2500000   0.1250000), wk =   0.0078125
        k(   85) = (   0.1250000  -0.2500000   0.2500000), wk =   0.0078125
        k(   86) = (   0.1250000  -0.2500000   0.3750000), wk =   0.0078125
        k(   87) = (   0.1250000  -0.2500000  -0.5000000), wk =   0.0078125
        k(   88) = (   0.1250000  -0.2500000  -0.3750000), wk =   0.0078125
        k(   89) = (   0.1250000  -0.2500000  -0.2500000), wk =   0.0078125
        k(   90) = (   0.1250000  -0.2500000  -0.1250000), wk =   0.0078125
        k(   91) = (   0.1250000  -0.1250000   0.0000000), wk =   0.0078125
        k(   92) = (   0.1250000  -0.1250000   0.1250000), wk =   0.0078125
        k(   93) = (   0.1250000  -0.1250000   0.2500000), wk =   0.0078125
        k(   94) = (   0.1250000  -0.1250000   0.3750000), wk =   0.0078125
        k(   95) = (   0.1250000  -0.1250000  -0.5000000), wk =   0.0078125
        k(   96) = (   0.1250000  -0.1250000  -0.3750000), wk =   0.0078125
        k(   97) = (   0.1250000  -0.1250000  -0.2500000), wk =   0.0078125
        k(   98) = (   0.1250000  -0.1250000  -0.1250000), wk =   0.0078125
        k(   99) = (   0.2500000  -0.0000000  -0.0000000), wk =   0.0078125
        k(  100) = (   0.2500000  -0.0000000   0.1250000), wk =   0.0078125
        k(  101) = (   0.2500000  -0.0000000   0.2500000), wk =   0.0078125
        k(  102) = (   0.2500000   0.0000000   0.3750000), wk =   0.0078125
        k(  103) = (   0.2500000  -0.0000000  -0.5000000), wk =   0.0078125
        k(  104) = (   0.2500000  -0.0000000  -0.3750000), wk =   0.0078125
        k(  105) = (   0.2500000   0.0000000  -0.2500000), wk =   0.0078125
        k(  106) = (   0.2500000  -0.0000000  -0.1250000), wk =   0.0078125
        k(  107) = (   0.2500000   0.1250000  -0.0000000), wk =   0.0078125
        k(  108) = (   0.2500000   0.1250000   0.1250000), wk =   0.0078125
        k(  109) = (   0.2500000   0.1250000   0.2500000), wk =   0.0078125
        k(  110) = (   0.2500000   0.1250000   0.3750000), wk =   0.0078125
        k(  111) = (   0.2500000   0.1250000  -0.5000000), wk =   0.0078125
        k(  112) = (   0.2500000   0.1250000  -0.3750000), wk =   0.0078125
        k(  113) = (   0.2500000   0.1250000  -0.2500000), wk =   0.0078125
        k(  114) = (   0.2500000   0.1250000  -0.1250000), wk =   0.0078125
        k(  115) = (   0.2500000   0.2500000   0.0000000), wk =   0.0078125
        k(  116) = (   0.2500000   0.2500000   0.1250000), wk =   0.0078125
        k(  117) = (   0.2500000   0.2500000   0.2500000), wk =   0.0078125
        k(  118) = (   0.2500000   0.2500000   0.3750000), wk =   0.0078125
        k(  119) = (   0.2500000   0.2500000  -0.5000000), wk =   0.0078125
        k(  120) = (   0.2500000   0.2500000  -0.3750000), wk =   0.0078125
        k(  121) = (   0.2500000   0.2500000  -0.2500000), wk =   0.0078125
        k(  122) = (   0.2500000   0.2500000  -0.1250000), wk =   0.0078125
        k(  123) = (   0.2500000   0.3750000  -0.0000000), wk =   0.0078125
        k(  124) = (   0.2500000   0.3750000   0.1250000), wk =   0.0078125
        k(  125) = (   0.2500000   0.3750000   0.2500000), wk =   0.0078125
        k(  126) = (   0.2500000   0.3750000   0.3750000), wk =   0.0078125
        k(  127) = (   0.2500000   0.3750000  -0.5000000), wk =   0.0078125
        k(  128) = (   0.2500000   0.3750000  -0.3750000), wk =   0.0078125
        k(  129) = (   0.2500000   0.3750000  -0.2500000), wk =   0.0078125
        k(  130) = (   0.2500000   0.3750000  -0.1250000), wk =   0.0078125
        k(  131) = (   0.2500000  -0.5000000   0.0000000), wk =   0.0078125
        k(  132) = (   0.2500000  -0.5000000   0.1250000), wk =   0.0078125
        k(  133) = (   0.2500000  -0.5000000   0.2500000), wk =   0.0078125
        k(  134) = (   0.2500000  -0.5000000   0.3750000), wk =   0.0078125
        k(  135) = (   0.2500000  -0.5000000  -0.5000000), wk =   0.0078125
        k(  136) = (   0.2500000  -0.5000000  -0.3750000), wk =   0.0078125
        k(  137) = (   0.2500000  -0.5000000  -0.2500000), wk =   0.0078125
        k(  138) = (   0.2500000  -0.5000000  -0.1250000), wk =   0.0078125
        k(  139) = (   0.2500000  -0.3750000   0.0000000), wk =   0.0078125
        k(  140) = (   0.2500000  -0.3750000   0.1250000), wk =   0.0078125
        k(  141) = (   0.2500000  -0.3750000   0.2500000), wk =   0.0078125
        k(  142) = (   0.2500000  -0.3750000   0.3750000), wk =   0.0078125
        k(  143) = (   0.2500000  -0.3750000  -0.5000000), wk =   0.0078125
        k(  144) = (   0.2500000  -0.3750000  -0.3750000), wk =   0.0078125
        k(  145) = (   0.2500000  -0.3750000  -0.2500000), wk =   0.0078125
        k(  146) = (   0.2500000  -0.3750000  -0.1250000), wk =   0.0078125
        k(  147) = (   0.2500000  -0.2500000   0.0000000), wk =   0.0078125
        k(  148) = (   0.2500000  -0.2500000   0.1250000), wk =   0.0078125
        k(  149) = (   0.2500000  -0.2500000   0.2500000), wk =   0.0078125
        k(  150) = (   0.2500000  -0.2500000   0.3750000), wk =   0.0078125
        k(  151) = (   0.2500000  -0.2500000  -0.5000000), wk =   0.0078125
        k(  152) = (   0.2500000  -0.2500000  -0.3750000), wk =   0.0078125
        k(  153) = (   0.2500000  -0.2500000  -0.2500000), wk =   0.0078125
        k(  154) = (   0.2500000  -0.2500000  -0.1250000), wk =   0.0078125
        k(  155) = (   0.2500000  -0.1250000   0.0000000), wk =   0.0078125
        k(  156) = (   0.2500000  -0.1250000   0.1250000), wk =   0.0078125
        k(  157) = (   0.2500000  -0.1250000   0.2500000), wk =   0.0078125
        k(  158) = (   0.2500000  -0.1250000   0.3750000), wk =   0.0078125
        k(  159) = (   0.2500000  -0.1250000  -0.5000000), wk =   0.0078125
        k(  160) = (   0.2500000  -0.1250000  -0.3750000), wk =   0.0078125
        k(  161) = (   0.2500000  -0.1250000  -0.2500000), wk =   0.0078125
        k(  162) = (   0.2500000  -0.1250000  -0.1250000), wk =   0.0078125
        k(  163) = (   0.3750000   0.0000000   0.0000000), wk =   0.0078125
        k(  164) = (   0.3750000   0.0000000   0.1250000), wk =   0.0078125
        k(  165) = (   0.3750000   0.0000000   0.2500000), wk =   0.0078125
        k(  166) = (   0.3750000   0.0000000   0.3750000), wk =   0.0078125
        k(  167) = (   0.3750000  -0.0000000  -0.5000000), wk =   0.0078125
        k(  168) = (   0.3750000  -0.0000000  -0.3750000), wk =   0.0078125
        k(  169) = (   0.3750000   0.0000000  -0.2500000), wk =   0.0078125
        k(  170) = (   0.3750000   0.0000000  -0.1250000), wk =   0.0078125
        k(  171) = (   0.3750000   0.1250000   0.0000000), wk =   0.0078125
        k(  172) = (   0.3750000   0.1250000   0.1250000), wk =   0.0078125
        k(  173) = (   0.3750000   0.1250000   0.2500000), wk =   0.0078125
        k(  174) = (   0.3750000   0.1250000   0.3750000), wk =   0.0078125
        k(  175) = (   0.3750000   0.1250000  -0.5000000), wk =   0.0078125
        k(  176) = (   0.3750000   0.1250000  -0.3750000), wk =   0.0078125
        k(  177) = (   0.3750000   0.1250000  -0.2500000), wk =   0.0078125
        k(  178) = (   0.3750000   0.1250000  -0.1250000), wk =   0.0078125
        k(  179) = (   0.3750000   0.2500000  -0.0000000), wk =   0.0078125
        k(  180) = (   0.3750000   0.2500000   0.1250000), wk =   0.0078125
        k(  181) = (   0.3750000   0.2500000   0.2500000), wk =   0.0078125
        k(  182) = (   0.3750000   0.2500000   0.3750000), wk =   0.0078125
        k(  183) = (   0.3750000   0.2500000  -0.5000000), wk =   0.0078125
        k(  184) = (   0.3750000   0.2500000  -0.3750000), wk =   0.0078125
        k(  185) = (   0.3750000   0.2500000  -0.2500000), wk =   0.0078125
        k(  186) = (   0.3750000   0.2500000  -0.1250000), wk =   0.0078125
        k(  187) = (   0.3750000   0.3750000  -0.0000000), wk =   0.0078125
        k(  188) = (   0.3750000   0.3750000   0.1250000), wk =   0.0078125
        k(  189) = (   0.3750000   0.3750000   0.2500000), wk =   0.0078125
        k(  190) = (   0.3750000   0.3750000   0.3750000), wk =   0.0078125
        k(  191) = (   0.3750000   0.3750000  -0.5000000), wk =   0.0078125
        k(  192) = (   0.3750000   0.3750000  -0.3750000), wk =   0.0078125
        k(  193) = (   0.3750000   0.3750000  -0.2500000), wk =   0.0078125
        k(  194) = (   0.3750000   0.3750000  -0.1250000), wk =   0.0078125
        k(  195) = (   0.3750000  -0.5000000   0.0000000), wk =   0.0078125
        k(  196) = (   0.3750000  -0.5000000   0.1250000), wk =   0.0078125
        k(  197) = (   0.3750000  -0.5000000   0.2500000), wk =   0.0078125
        k(  198) = (   0.3750000  -0.5000000   0.3750000), wk =   0.0078125
        k(  199) = (   0.3750000  -0.5000000  -0.5000000), wk =   0.0078125
        k(  200) = (   0.3750000  -0.5000000  -0.3750000), wk =   0.0078125
        k(  201) = (   0.3750000  -0.5000000  -0.2500000), wk =   0.0078125
        k(  202) = (   0.3750000  -0.5000000  -0.1250000), wk =   0.0078125
        k(  203) = (   0.3750000  -0.3750000   0.0000000), wk =   0.0078125
        k(  204) = (   0.3750000  -0.3750000   0.1250000), wk =   0.0078125
        k(  205) = (   0.3750000  -0.3750000   0.2500000), wk =   0.0078125
        k(  206) = (   0.3750000  -0.3750000   0.3750000), wk =   0.0078125
        k(  207) = (   0.3750000  -0.3750000  -0.5000000), wk =   0.0078125
        k(  208) = (   0.3750000  -0.3750000  -0.3750000), wk =   0.0078125
        k(  209) = (   0.3750000  -0.3750000  -0.2500000), wk =   0.0078125
        k(  210) = (   0.3750000  -0.3750000  -0.1250000), wk =   0.0078125
        k(  211) = (   0.3750000  -0.2500000   0.0000000), wk =   0.0078125
        k(  212) = (   0.3750000  -0.2500000   0.1250000), wk =   0.0078125
        k(  213) = (   0.3750000  -0.2500000   0.2500000), wk =   0.0078125
        k(  214) = (   0.3750000  -0.2500000   0.3750000), wk =   0.0078125
        k(  215) = (   0.3750000  -0.2500000  -0.5000000), wk =   0.0078125
        k(  216) = (   0.3750000  -0.2500000  -0.3750000), wk =   0.0078125
        k(  217) = (   0.3750000  -0.2500000  -0.2500000), wk =   0.0078125
        k(  218) = (   0.3750000  -0.2500000  -0.1250000), wk =   0.0078125
        k(  219) = (   0.3750000  -0.1250000   0.0000000), wk =   0.0078125
        k(  220) = (   0.3750000  -0.1250000   0.1250000), wk =   0.0078125
        k(  221) = (   0.3750000  -0.1250000   0.2500000), wk =   0.0078125
        k(  222) = (   0.3750000  -0.1250000   0.3750000), wk =   0.0078125
        k(  223) = (   0.3750000  -0.1250000  -0.5000000), wk =   0.0078125
        k(  224) = (   0.3750000  -0.1250000  -0.3750000), wk =   0.0078125
        k(  225) = (   0.3750000  -0.1250000  -0.2500000), wk =   0.0078125
        k(  226) = (   0.3750000  -0.1250000  -0.1250000), wk =   0.0078125
        k(  227) = (  -0.5000000   0.0000000   0.0000000), wk =   0.0039062
        k(  228) = (  -0.5000000   0.0000000   0.1250000), wk =   0.0078125
        k(  229) = (  -0.5000000   0.0000000   0.2500000), wk =   0.0078125
        k(  230) = (  -0.5000000  -0.0000000   0.3750000), wk =   0.0078125
        k(  231) = (  -0.5000000   0.0000000  -0.5000000), wk =   0.0039062
        k(  232) = (  -0.5000000   0.1250000  -0.0000000), wk =   0.0078125
        k(  233) = (  -0.5000000   0.1250000   0.1250000), wk =   0.0078125
        k(  234) = (  -0.5000000   0.1250000   0.2500000), wk =   0.0078125
        k(  235) = (  -0.5000000   0.1250000   0.3750000), wk =   0.0078125
        k(  236) = (  -0.5000000   0.1250000  -0.5000000), wk =   0.0078125
        k(  237) = (  -0.5000000   0.1250000  -0.3750000), wk =   0.0078125
        k(  238) = (  -0.5000000   0.1250000  -0.2500000), wk =   0.0078125
        k(  239) = (  -0.5000000   0.1250000  -0.1250000), wk =   0.0078125
        k(  240) = (  -0.5000000   0.2500000  -0.0000000), wk =   0.0078125
        k(  241) = (  -0.5000000   0.2500000   0.1250000), wk =   0.0078125
        k(  242) = (  -0.5000000   0.2500000   0.2500000), wk =   0.0078125
        k(  243) = (  -0.5000000   0.2500000   0.3750000), wk =   0.0078125
        k(  244) = (  -0.5000000   0.2500000  -0.5000000), wk =   0.0078125
        k(  245) = (  -0.5000000   0.2500000  -0.3750000), wk =   0.0078125
        k(  246) = (  -0.5000000   0.2500000  -0.2500000), wk =   0.0078125
        k(  247) = (  -0.5000000   0.2500000  -0.1250000), wk =   0.0078125
        k(  248) = (  -0.5000000   0.3750000  -0.0000000), wk =   0.0078125
        k(  249) = (  -0.5000000   0.3750000   0.1250000), wk =   0.0078125
        k(  250) = (  -0.5000000   0.3750000   0.2500000), wk =   0.0078125
        k(  251) = (  -0.5000000   0.3750000   0.3750000), wk =   0.0078125
        k(  252) = (  -0.5000000   0.3750000  -0.5000000), wk =   0.0078125
        k(  253) = (  -0.5000000   0.3750000  -0.3750000), wk =   0.0078125
        k(  254) = (  -0.5000000   0.3750000  -0.2500000), wk =   0.0078125
        k(  255) = (  -0.5000000   0.3750000  -0.1250000), wk =   0.0078125
        k(  256) = (  -0.5000000  -0.5000000  -0.0000000), wk =   0.0039062
        k(  257) = (  -0.5000000  -0.5000000   0.1250000), wk =   0.0078125
        k(  258) = (  -0.5000000  -0.5000000   0.2500000), wk =   0.0078125
        k(  259) = (  -0.5000000  -0.5000000   0.3750000), wk =   0.0078125
        k(  260) = (  -0.5000000  -0.5000000  -0.5000000), wk =   0.0039062

     Dense  grid:    76189 G-vectors     FFT dimensions: (  50,  50,  72)

     Smooth grid:    29821 G-vectors     FFT dimensions: (  40,  40,  50)

     Dynamical RAM for                 wfc:       0.09 MB

     Dynamical RAM for     wfc (w. buffer):       6.07 MB

     Dynamical RAM for           str. fact:       0.15 MB

     Dynamical RAM for           local pot:       0.00 MB

     Dynamical RAM for          nlocal pot:       0.22 MB

     Dynamical RAM for                qrad:       4.01 MB

     Dynamical RAM for          rho,v,vnew:       0.50 MB

     Dynamical RAM for               rhoin:       0.17 MB

     Dynamical RAM for            rho*nmix:       1.16 MB

     Dynamical RAM for           G-vectors:       0.29 MB

     Dynamical RAM for          h,s,v(r/c):       0.12 MB

     Dynamical RAM for          <psi|beta>:       0.02 MB

     Dynamical RAM for                 psi:       0.37 MB

     Dynamical RAM for                hpsi:       0.37 MB

     Dynamical RAM for                spsi:       0.37 MB

     Dynamical RAM for      wfcinit/wfcrot:       0.27 MB

     Dynamical RAM for           addusdens:       3.47 MB

     Dynamical RAM for          addusforce:       3.61 MB

     Dynamical RAM for         addusstress:       3.68 MB

     Estimated static dynamical RAM per process >      13.26 MB

     Estimated max dynamical RAM per process >      16.94 MB

     Estimated total dynamical RAM >       1.06 GB

     Check: negative core charge=   -0.000003

     Initial potential from superposition of free atoms

     starting charge   51.99974, renormalised to   52.00000
     Starting wfcs are   34 randomized atomic wfcs

     total cpu time spent up to now is        1.8 secs

     Self-consistent Calculation

     iteration #  1     ecut=    80.00 Ry     beta= 0.50
     Davidson diagonalization with overlap
     ethr =  1.00E-02,  avg # of iterations =  1.0

     total cpu time spent up to now is        2.8 secs

     total energy              =    -986.75574898 Ry
     Harris-Foulkes estimate   =    -987.27230659 Ry
     estimated scf accuracy    <       0.81188213 Ry

     iteration #  2     ecut=    80.00 Ry     beta= 0.50
     Davidson diagonalization with overlap
     ethr =  1.56E-03,  avg # of iterations =  3.0

     total cpu time spent up to now is        4.1 secs

     total energy              =    -986.99556082 Ry
     Harris-Foulkes estimate   =    -987.15842236 Ry
     estimated scf accuracy    <       0.37430978 Ry

     iteration #  3     ecut=    80.00 Ry     beta= 0.50
     Davidson diagonalization with overlap
     ethr =  7.20E-04,  avg # of iterations =  2.1

     total cpu time spent up to now is        5.2 secs

     total energy              =    -987.06295410 Ry
     Harris-Foulkes estimate   =    -987.06523686 Ry
     estimated scf accuracy    <       0.00678746 Ry

     iteration #  4     ecut=    80.00 Ry     beta= 0.50
     Davidson diagonalization with overlap
     ethr =  1.31E-05,  avg # of iterations =  2.0

     total cpu time spent up to now is        6.3 secs

     total energy              =    -987.06353731 Ry
     Harris-Foulkes estimate   =    -987.06397785 Ry
     estimated scf accuracy    <       0.00150227 Ry

     iteration #  5     ecut=    80.00 Ry     beta= 0.50
     Davidson diagonalization with overlap
     ethr =  2.89E-06,  avg # of iterations =  2.0

     total cpu time spent up to now is        7.3 secs

     total energy              =    -987.06368906 Ry
     Harris-Foulkes estimate   =    -987.06369692 Ry
     estimated scf accuracy    <       0.00001616 Ry

     iteration #  6     ecut=    80.00 Ry     beta= 0.50
     Davidson diagonalization with overlap
     ethr =  3.11E-08,  avg # of iterations =  2.4

     total cpu time spent up to now is        8.5 secs

     total energy              =    -987.06369208 Ry
     Harris-Foulkes estimate   =    -987.06369174 Ry
     estimated scf accuracy    <       0.00000386 Ry

     iteration #  7     ecut=    80.00 Ry     beta= 0.50
     Davidson diagonalization with overlap
     ethr =  7.41E-09,  avg # of iterations =  2.0

     total cpu time spent up to now is        9.6 secs

     End of self-consistent calculation

          k = 0.0000 0.0000 0.0000 (  3691 PWs)   bands (ev):

  -113.8600-113.8595 -68.2475 -68.2411 -68.2075 -68.2075 -68.2056 -68.2056
    -8.8220  -7.6756   3.3543   3.3543   3.4390   3.4390   4.1396   4.5794
     4.5994   4.5994   4.9698   4.9698   5.3607   8.4222   8.4808   8.4808
     9.1884   9.1884

     occupation numbers 
     1.0000   1.0000   1.0000   1.0000   1.0000   1.0000   1.0000   1.0000
     1.0000   1.0000   1.0000   1.0000   1.0000   1.0000   1.0000   1.0000
     1.0000   1.0000   1.0000   1.0000   1.0000   1.0000   1.0000   1.0000
     1.0000   1.0000

          k =-0.0000-0.0000 0.0923 (  3685 PWs)   bands (ev):

  -113.8600-113.8595 -68.2473 -68.2413 -68.2074 -68.2074 -68.2057 -68.2057
    -8.7791  -7.7189   3.3479   3.3479   3.4237   3.4237   3.9745   4.4881
     4.6254   4.6254   4.9652   4.9652   5.6134   8.1496   8.5139   8.5139
     9.1690   9.1690

     occupation numbers 
     1.0000   1.0000   1.0000   1.0000   1.0000   1.0000   1.0000   1.0000
     1.0000   1.0000   1.0000   1.0000   1.0000   1.0000   1.0000   1.0000
     1.0000   1.0000   1.0000   1.0000   1.0000   1.0000   1.0000   1.0000
     1.0000   1.0000

          k =-0.0000-0.0000 0.1846 (  3703 PWs)   bands (ev):

  -113.8599-113.8596 -68.2466 -68.2420 -68.2073 -68.2073 -68.2059 -68.2059
    -8.6563  -7.8430   3.3337   3.3337   3.3877   3.3877   3.7389   4.2498
     4.6920   4.6920   4.9482   4.9482   6.0971   7.7146   8.6062   8.6062
     9.1098   9.1098

     occupation numbers 
     1.0000   1.0000   1.0000   1.0000   1.0000   1.0000   1.0000   1.0000
     1.0000   1.0000   1.0000   1.0000   1.0000   1.0000   1.0000   1.0000
     1.0000   1.0000   1.0000   1.0000   1.0000   1.0000   1.0000   1.0000
     1.0000   1.0000

          k =-0.0000-0.0000 0.2769 (  3720 PWs)   bands (ev):

  -113.8599-113.8596 -68.2456 -68.2431 -68.2070 -68.2070 -68.2062 -68.2062
    -8.4711  -8.0299   3.3232   3.3232   3.3504   3.3504   3.6438   3.9594
     4.7753   4.7753   4.9120   4.9120   6.5712   7.3340   8.7377   8.7377
     9.0116   9.0116

     occupation numbers 
     1.0000   1.0000   1.0000   1.0000   1.0000   1.0000   1.0000   1.0000
     1.0000   1.0000   1.0000   1.0000   1.0000   1.0000   1.0000   1.0000
     1.0000   1.0000   1.0000   1.0000   1.0000   1.0000   1.0000   1.0000
     1.0000   1.0000

          k = 0.0000 0.0000-0.3692 (  3744 PWs)   bands (ev):

  -113.8598-113.8597 -68.2444 -68.2443 -68.2067 -68.2067 -68.2066 -68.2066
    -8.2510  -8.2508   3.3272   3.3272   3.3273   3.3273   3.7291   3.7292
     4.8530   4.8530   4.8531   4.8531   6.9747   6.9748   8.8815   8.8815
     8.8817   8.8817

     occupation numbers 
     1.0000   1.0000   1.0000   1.0000   1.0000   1.0000   1.0000   1.0000
     1.0000   1.0000   1.0000   1.0000   1.0000   1.0000   1.0000   1.0000
     1.0000   1.0000   1.0000   1.0000   1.0000   1.0000   1.0000   1.0000
     1.0000   1.0000

          k =-0.0000 0.1443-0.0000 (  3708 PWs)   bands (ev):

  -113.8600-113.8595 -68.2473 -68.2413 -68.2077 -68.2076 -68.2059 -68.2056
    -8.7341  -7.6588   3.3255   3.4088   3.4244   3.5439   4.0475   4.5106
     4.5769   4.6393   4.9835   5.2244   5.3549   7.9533   8.2130   8.3549
     8.4154   9.0160

     occupation numbers 
     1.0000   1.0000   1.0000   1.0000   1.0000   1.0000   1.0000   1.0000
     1.0000   1.0000   1.0000   1.0000   1.0000   1.0000   1.0000   1.0000
     1.0000   1.0000   1.0000   1.0000   1.0000   1.0000   1.0000   1.0000
     1.0000   1.0000

          k =-0.0000 0.1443 0.0923 (  3718 PWs)   bands (ev):

  -113.8600-113.8595 -68.2471 -68.2415 -68.2076 -68.2076 -68.2060 -68.2057
    -8.6931  -7.6984   3.3079   3.3857   3.4190   3.5262   3.9255   4.4201
     4.6047   4.6644   4.9771   5.0911   5.6938   7.8637   8.0570   8.2497
     8.7936   8.9927

     occupation numbers 
     1.0000   1.0000   1.0000   1.0000   1.0000   1.0000   1.0000   1.0000
     1.0000   1.0000   1.0000   1.0000   1.0000   1.0000   1.0000   1.0000
     1.0000   1.0000   1.0000   1.0000   1.0000   1.0000   1.0000   1.0000
     1.0000   1.0000

          k =-0.0000 0.1443 0.1846 (  3702 PWs)   bands (ev):

  -113.8599-113.8596 -68.2465 -68.2422 -68.2074 -68.2074 -68.2061 -68.2060
    -8.5759  -7.8124   3.2573   3.3282   3.4076   3.4845   3.7471   4.1920
     4.6756   4.7300   4.9552   5.0194   6.1672   7.4803   8.2124   8.3522
     8.9229   8.9750

     occupation numbers 
     1.0000   1.0000   1.0000   1.0000   1.0000   1.0000   1.0000   1.0000
     1.0000   1.0000   1.0000   1.0000   1.0000   1.0000   1.0000   1.0000
     1.0000   1.0000   1.0000   1.0000   1.0000   1.0000   1.0000   1.0000
     1.0000   1.0000

          k =-0.0000 0.1443 0.2769 (  3711 PWs)   bands (ev):

  -113.8599-113.8596 -68.2455 -68.2432 -68.2071 -68.2071 -68.2064 -68.2063
    -8.4000  -7.9856   3.2080   3.2650   3.4014   3.4406   3.6812   3.9304
     4.7640   4.8145   4.9127   4.9640   6.5782   7.1725   8.4680   8.4989
     8.8090   8.9300

     occupation numbers 
     1.0000   1.0000   1.0000   1.0000   1.0000   1.0000   1.0000   1.0000
     1.0000   1.0000   1.0000   1.0000   1.0000   1.0000   1.0000   1.0000
     1.0000   1.0000   1.0000   1.0000   1.0000   1.0000   1.0000   1.0000
     1.0000   1.0000

          k =-0.0000 0.1443-0.3692 (  3710 PWs)   bands (ev):

  -113.8598-113.8597 -68.2444 -68.2443 -68.2068 -68.2067 -68.2067 -68.2066
    -8.1923  -8.1921   3.2145   3.2146   3.4110   3.4111   3.7436   3.7437
     4.8474   4.8475   4.8964   4.8965   6.8966   6.8966   8.6607   8.6608
     8.7355   8.7357

     occupation numbers 
     1.0000   1.0000   1.0000   1.0000   1.0000   1.0000   1.0000   1.0000
     1.0000   1.0000   1.0000   1.0000   1.0000   1.0000   1.0000   1.0000
     1.0000   1.0000   1.0000   1.0000   1.0000   1.0000   1.0000   1.0000
     1.0000   1.0000

          k =-0.0000 0.1443-0.2769 (  3711 PWs)   bands (ev):

  -113.8599-113.8596 -68.2455 -68.2432 -68.2071 -68.2071 -68.2064 -68.2063
    -8.4000  -7.9856   3.2080   3.2650   3.4014   3.4406   3.6812   3.9304
     4.7640   4.8145   4.9127   4.9640   6.5782   7.1725   8.4680   8.4989
     8.8090   8.9300

     occupation numbers 
     1.0000   1.0000   1.0000   1.0000   1.0000   1.0000   1.0000   1.0000
     1.0000   1.0000   1.0000   1.0000   1.0000   1.0000   1.0000   1.0000
     1.0000   1.0000   1.0000   1.0000   1.0000   1.0000   1.0000   1.0000
     1.0000   1.0000

          k =-0.0000 0.1443-0.1846 (  3702 PWs)   bands (ev):

  -113.8599-113.8596 -68.2465 -68.2422 -68.2074 -68.2074 -68.2061 -68.2060
    -8.5759  -7.8124   3.2573   3.3282   3.4076   3.4845   3.7471   4.1920
     4.6756   4.7300   4.9552   5.0194   6.1672   7.4803   8.2124   8.3522
     8.9229   8.9750

     occupation numbers 
     1.0000   1.0000   1.0000   1.0000   1.0000   1.0000   1.0000   1.0000
     1.0000   1.0000   1.0000   1.0000   1.0000   1.0000   1.0000   1.0000
     1.0000   1.0000   1.0000   1.0000   1.0000   1.0000   1.0000   1.0000
     1.0000   1.0000

          k =-0.0000 0.1443-0.0923 (  3718 PWs)   bands (ev):

  -113.8600-113.8595 -68.2471 -68.2415 -68.2076 -68.2076 -68.2060 -68.2057
    -8.6931  -7.6984   3.3078   3.3857   3.4190   3.5262   3.9255   4.4201
     4.6047   4.6644   4.9771   5.0911   5.6938   7.8637   8.0570   8.2497
     8.7936   8.9927

     occupation numbers 
     1.0000   1.0000   1.0000   1.0000   1.0000   1.0000   1.0000   1.0000
     1.0000   1.0000   1.0000   1.0000   1.0000   1.0000   1.0000   1.0000
     1.0000   1.0000   1.0000   1.0000   1.0000   1.0000   1.0000   1.0000
     1.0000   1.0000

          k =-0.0000 0.2887-0.0000 (  3728 PWs)   bands (ev):

  -113.8599-113.8595 -68.2467 -68.2419 -68.2081 -68.2079 -68.2065 -68.2058
    -8.5022  -7.6333   3.2133   3.4698   3.6363   3.8051   3.9608   4.3713
     4.5335   4.7045   5.0106   5.3062   5.7685   6.8853   7.3441   7.5798
     8.2757   8.5738

     occupation numbers 
     1.0000   1.0000   1.0000   1.0000   1.0000   1.0000   1.0000   1.0000
     1.0000   1.0000   1.0000   1.0000   1.0000   1.0000   1.0000   1.0000
     1.0000   1.0000   1.0000   1.0000   1.0000   1.0000   1.0000   1.0000
     1.0000   1.0000

          k =-0.0000 0.2887 0.0923 (  3726 PWs)   bands (ev):

  -113.8599-113.8595 -68.2465 -68.2421 -68.2080 -68.2078 -68.2066 -68.2058
    -8.4669  -7.6625   3.1882   3.4081   3.6318   3.7819   3.8884   4.2779
     4.5656   4.7355   4.9997   5.2166   5.9584   6.9894   7.2100   7.6250
     8.5077   8.5436

     occupation numbers 
     1.0000   1.0000   1.0000   1.0000   1.0000   1.0000   1.0000   1.0000
     1.0000   1.0000   1.0000   1.0000   1.0000   1.0000   1.0000   1.0000
     1.0000   1.0000   1.0000   1.0000   1.0000   1.0000   1.0000   1.0000
     1.0000   1.0000

          k =-0.0000 0.2887 0.1846 (  3729 PWs)   bands (ev):

  -113.8599-113.8596 -68.2460 -68.2426 -68.2078 -68.2076 -68.2067 -68.2061
    -8.3666  -7.7482   3.1123   3.2619   3.6230   3.7289   3.7804   4.0729
     4.6449   4.8047   4.9665   5.1243   6.1959   6.8329   7.5553   7.7506
     8.4541   8.8127

     occupation numbers 
     1.0000   1.0000   1.0000   1.0000   1.0000   1.0000   1.0000   1.0000
     1.0000   1.0000   1.0000   1.0000   1.0000   1.0000   1.0000   1.0000
     1.0000   1.0000   1.0000   1.0000   1.0000   1.0000   1.0000   1.0000
     1.0000   1.0000

          k =-0.0000 0.2887 0.2769 (  3707 PWs)   bands (ev):

  -113.8598-113.8596 -68.2452 -68.2434 -68.2075 -68.2072 -68.2069 -68.2064
    -8.2183  -7.8821   3.0291   3.1222   3.6211   3.6745   3.7316   3.8746
     4.7414   4.8907   4.9108   5.0528   6.3579   6.6399   7.9297   8.1287
     8.3107   8.8666

     occupation numbers 
     1.0000   1.0000   1.0000   1.0000   1.0000   1.0000   1.0000   1.0000
     1.0000   1.0000   1.0000   1.0000   1.0000   1.0000   1.0000   1.0000
     1.0000   1.0000   1.0000   1.0000   1.0000   1.0000   1.0000   1.0000
     1.0000   1.0000

          k =-0.0000 0.2887-0.3692 (  3696 PWs)   bands (ev):

  -113.8598-113.8597 -68.2444 -68.2443 -68.2072 -68.2071 -68.2068 -68.2068
    -8.0474  -8.0472   3.0297   3.0298   3.6367   3.6368   3.7585   3.7585
     4.8339   4.8340   4.9765   4.9765   6.4931   6.4932   8.1275   8.1277
     8.6135   8.6135

     occupation numbers 
     1.0000   1.0000   1.0000   1.0000   1.0000   1.0000   1.0000   1.0000
     1.0000   1.0000   1.0000   1.0000   1.0000   1.0000   1.0000   1.0000
     1.0000   1.0000   1.0000   1.0000   1.0000   1.0000   1.0000   1.0000
     1.0000   1.0000

          k =-0.0000 0.2887-0.2769 (  3707 PWs)   bands (ev):

  -113.8598-113.8596 -68.2452 -68.2434 -68.2075 -68.2072 -68.2069 -68.2064
    -8.2183  -7.8821   3.0291   3.1222   3.6211   3.6745   3.7316   3.8746
     4.7414   4.8907   4.9108   5.0528   6.3579   6.6399   7.9297   8.1287
     8.3107   8.8666

     occupation numbers 
     1.0000   1.0000   1.0000   1.0000   1.0000   1.0000   1.0000   1.0000
     1.0000   1.0000   1.0000   1.0000   1.0000   1.0000   1.0000   1.0000
     1.0000   1.0000   1.0000   1.0000   1.0000   1.0000   1.0000   1.0000
     1.0000   1.0000

          k =-0.0000 0.2887-0.1846 (  3729 PWs)   bands (ev):

  -113.8599-113.8596 -68.2460 -68.2426 -68.2078 -68.2076 -68.2067 -68.2061
    -8.3666  -7.7482   3.1123   3.2620   3.6230   3.7289   3.7803   4.0729
     4.6449   4.8047   4.9665   5.1243   6.1959   6.8328   7.5554   7.7506
     8.4541   8.8127

     occupation numbers 
     1.0000   1.0000   1.0000   1.0000   1.0000   1.0000   1.0000   1.0000
     1.0000   1.0000   1.0000   1.0000   1.0000   1.0000   1.0000   1.0000
     1.0000   1.0000   1.0000   1.0000   1.0000   1.0000   1.0000   1.0000
     1.0000   1.0000

          k =-0.0000 0.2887-0.0923 (  3726 PWs)   bands (ev):

  -113.8599-113.8595 -68.2465 -68.2421 -68.2080 -68.2078 -68.2066 -68.2058
    -8.4669  -7.6625   3.1882   3.4081   3.6318   3.7819   3.8884   4.2779
     4.5656   4.7355   4.9997   5.2166   5.9584   6.9893   7.2101   7.6250
     8.5077   8.5436

     occupation numbers 
     1.0000   1.0000   1.0000   1.0000   1.0000   1.0000   1.0000   1.0000
     1.0000   1.0000   1.0000   1.0000   1.0000   1.0000   1.0000   1.0000
     1.0000   1.0000   1.0000   1.0000   1.0000   1.0000   1.0000   1.0000
     1.0000   1.0000

          k =-0.0000 0.4330-0.0000 (  3724 PWs)   bands (ev):

  -113.8599-113.8596 -68.2458 -68.2427 -68.2084 -68.2081 -68.2071 -68.2058
    -8.2201  -7.6508   3.1699   3.6156   3.9133   4.0239   4.0958   4.2235
     4.5217   4.7565   5.0322   5.1753   5.9858   6.2949   6.4921   6.9143
     8.0444   8.0936

     occupation numbers 
     1.0000   1.0000   1.0000   1.0000   1.0000   1.0000   1.0000   1.0000
     1.0000   1.0000   1.0000   1.0000   1.0000   1.0000   1.0000   1.0000
     1.0000   1.0000   1.0000   1.0000   1.0000   1.0000   1.0000   1.0000
     1.0000   1.0000

          k =-0.0000 0.4330 0.0923 (  3730 PWs)   bands (ev):

  -113.8598-113.8596 -68.2457 -68.2428 -68.2083 -68.2080 -68.2071 -68.2059
    -8.1935  -7.6662   3.1325   3.5233   3.9085   3.9611   4.0668   4.1470
     4.5570   4.7876   5.0149   5.1541   5.8653   6.2336   6.8374   6.9712
     8.0582   8.2665

     occupation numbers 
     1.0000   1.0000   1.0000   1.0000   1.0000   1.0000   1.0000   1.0000
     1.0000   1.0000   1.0000   1.0000   1.0000   1.0000   1.0000   1.0000
     1.0000   1.0000   1.0000   1.0000   1.0000   1.0000   1.0000   1.0000
     1.0000   1.0000

          k =-0.0000 0.4330 0.1846 (  3732 PWs)   bands (ev):

  -113.8598-113.8596 -68.2454 -68.2432 -68.2082 -68.2078 -68.2072 -68.2061
    -8.1194  -7.7134   3.0281   3.3020   3.8531   3.8988   3.9993   4.0059
     4.6377   4.8520   4.9682   5.1102   5.8139   6.0732   7.1262   7.5173
     7.9537   8.6608

     occupation numbers 
     1.0000   1.0000   1.0000   1.0000   1.0000   1.0000   1.0000   1.0000
     1.0000   1.0000   1.0000   1.0000   1.0000   1.0000   1.0000   1.0000
     1.0000   1.0000   1.0000   1.0000   1.0000   1.0000   1.0000   1.0000
     1.0000   1.0000

          k =-0.0000 0.4330 0.2769 (  3729 PWs)   bands (ev):

  -113.8598-113.8596 -68.2449 -68.2437 -68.2079 -68.2074 -68.2074 -68.2065
    -8.0135  -7.7924   2.9259   3.0733   3.7926   3.8748   3.8956   3.9481
     4.7309   4.9013   4.9253   5.0579   5.8377   5.9614   7.3413   7.7870
     8.1939   8.8569

     occupation numbers 
     1.0000   1.0000   1.0000   1.0000   1.0000   1.0000   1.0000   1.0000
     1.0000   1.0000   1.0000   1.0000   1.0000   1.0000   1.0000   1.0000
     1.0000   1.0000   1.0000   1.0000   1.0000   1.0000   1.0000   1.0000
     1.0000   1.0000

          k =-0.0000 0.4330-0.3692 (  3734 PWs)   bands (ev):

  -113.8598-113.8597 -68.2444 -68.2443 -68.2077 -68.2076 -68.2070 -68.2069
    -7.8975  -7.8973   2.9310   2.9310   3.8027   3.8028   3.9101   3.9102
     4.8208   4.8209   4.9959   4.9960   5.8896   5.8896   7.5739   7.5740
     8.6874   8.6875

     occupation numbers 
     1.0000   1.0000   1.0000   1.0000   1.0000   1.0000   1.0000   1.0000
     1.0000   1.0000   1.0000   1.0000   1.0000   1.0000   1.0000   1.0000
     1.0000   1.0000   1.0000   1.0000   1.0000   1.0000   1.0000   1.0000
     1.0000   1.0000

          k =-0.0000 0.4330-0.2769 (  3729 PWs)   bands (ev):

  -113.8598-113.8596 -68.2449 -68.2437 -68.2079 -68.2074 -68.2074 -68.2065
    -8.0135  -7.7924   2.9259   3.0733   3.7926   3.8749   3.8956   3.9481
     4.7309   4.9013   4.9253   5.0579   5.8377   5.9614   7.3413   7.7870
     8.1939   8.8569

     occupation numbers 
     1.0000   1.0000   1.0000   1.0000   1.0000   1.0000   1.0000   1.0000
     1.0000   1.0000   1.0000   1.0000   1.0000   1.0000   1.0000   1.0000
     1.0000   1.0000   1.0000   1.0000   1.0000   1.0000   1.0000   1.0000
     1.0000   1.0000

          k =-0.0000 0.4330-0.1846 (  3732 PWs)   bands (ev):

  -113.8598-113.8596 -68.2454 -68.2432 -68.2082 -68.2078 -68.2072 -68.2061
    -8.1194  -7.7134   3.0281   3.3020   3.8531   3.8988   3.9993   4.0059
     4.6377   4.8520   4.9682   5.1102   5.8139   6.0732   7.1262   7.5173
     7.9537   8.6608

     occupation numbers 
     1.0000   1.0000   1.0000   1.0000   1.0000   1.0000   1.0000   1.0000
     1.0000   1.0000   1.0000   1.0000   1.0000   1.0000   1.0000   1.0000
     1.0000   1.0000   1.0000   1.0000   1.0000   1.0000   1.0000   1.0000
     1.0000   1.0000

          k =-0.0000 0.4330-0.0923 (  3730 PWs)   bands (ev):

  -113.8598-113.8596 -68.2457 -68.2428 -68.2083 -68.2080 -68.2071 -68.2059
    -8.1935  -7.6662   3.1325   3.5233   3.9085   3.9611   4.0668   4.1470
     4.5570   4.7876   5.0149   5.1541   5.8653   6.2335   6.8374   6.9712
     8.0582   8.2665

     occupation numbers 
     1.0000   1.0000   1.0000   1.0000   1.0000   1.0000   1.0000   1.0000
     1.0000   1.0000   1.0000   1.0000   1.0000   1.0000   1.0000   1.0000
     1.0000   1.0000   1.0000   1.0000   1.0000   1.0000   1.0000   1.0000
     1.0000   1.0000

          k = 0.0000-0.5774 0.0000 (  3738 PWs)   bands (ev):

  -113.8598-113.8596 -68.2453 -68.2432 -68.2085 -68.2082 -68.2074 -68.2058
    -8.0640  -7.6950   3.1909   3.6869   4.0545   4.0848   4.2148   4.2264
     4.5551   4.7602   5.0357   5.0397   5.7643   5.8659   6.6047   6.7308
     7.8661   7.8788

     occupation numbers 
     1.0000   1.0000   1.0000   1.0000   1.0000   1.0000   1.0000   1.0000
     1.0000   1.0000   1.0000   1.0000   1.0000   1.0000   1.0000   1.0000
     1.0000   1.0000   1.0000   1.0000   1.0000   1.0000   1.0000   1.0000
     1.0000   1.0000

          k = 0.0000-0.5774 0.0923 (  3728 PWs)   bands (ev):

  -113.8598-113.8596 -68.2452 -68.2432 -68.2085 -68.2081 -68.2074 -68.2059
    -8.0438  -7.7019   3.1435   3.5946   3.9986   4.0496   4.1699   4.1872
     4.5867   4.7908   5.0174   5.0284   5.7030   5.7750   6.6702   7.0463
     7.8416   8.1012

     occupation numbers 
     1.0000   1.0000   1.0000   1.0000   1.0000   1.0000   1.0000   1.0000
     1.0000   1.0000   1.0000   1.0000   1.0000   1.0000   1.0000   1.0000
     1.0000   1.0000   1.0000   1.0000   1.0000   1.0000   1.0000   1.0000
     1.0000   1.0000

          k = 0.0000-0.5774 0.1846 (  3738 PWs)   bands (ev):

  -113.8598-113.8596 -68.2451 -68.2435 -68.2083 -68.2079 -68.2075 -68.2062
    -7.9885  -7.7250   3.0181   3.3523   3.8722   4.0391   4.0488   4.1305
     4.6569   4.8446   4.9618   5.0087   5.6337   5.6845   6.8444   7.6744
     7.7315   8.5536

     occupation numbers 
     1.0000   1.0000   1.0000   1.0000   1.0000   1.0000   1.0000   1.0000
     1.0000   1.0000   1.0000   1.0000   1.0000   1.0000   1.0000   1.0000
     1.0000   1.0000   1.0000   1.0000   1.0000   1.0000   1.0000   1.0000
     1.0000   1.0000

          k = 0.0000-0.5774 0.2769 (  3736 PWs)   bands (ev):

  -113.8598-113.8597 -68.2448 -68.2439 -68.2081 -68.2076 -68.2074 -68.2066
    -7.9123  -7.7687   2.9048   3.0819   3.8252   3.9332   4.0338   4.0780
     4.7368   4.8914   4.8951   4.9787   5.6198   5.6478   7.0800   7.5557
     8.3053   8.8372

     occupation numbers 
     1.0000   1.0000   1.0000   1.0000   1.0000   1.0000   1.0000   1.0000
     1.0000   1.0000   1.0000   1.0000   1.0000   1.0000   1.0000   1.0000
     1.0000   1.0000   1.0000   1.0000   1.0000   1.0000   1.0000   1.0000
     1.0000   1.0000

          k = 0.0000-0.5774-0.3692 (  3724 PWs)   bands (ev):

  -113.8598-113.8597 -68.2444 -68.2443 -68.2079 -68.2078 -68.2070 -68.2069
    -7.8339  -7.8336   2.9143   2.9143   3.8530   3.8530   4.0448   4.0449
     4.8157   4.8158   4.9401   4.9402   5.6307   5.6307   7.3296   7.3297
     8.7447   8.7447

     occupation numbers 
     1.0000   1.0000   1.0000   1.0000   1.0000   1.0000   1.0000   1.0000
     1.0000   1.0000   1.0000   1.0000   1.0000   1.0000   1.0000   1.0000
     1.0000   1.0000   1.0000   1.0000   1.0000   1.0000   1.0000   1.0000
     1.0000   1.0000

          k = 0.1250 0.0722-0.0000 (  3708 PWs)   bands (ev):

  -113.8600-113.8595 -68.2473 -68.2413 -68.2077 -68.2076 -68.2059 -68.2056
    -8.7341  -7.6588   3.3255   3.4088   3.4244   3.5439   4.0475   4.5106
     4.5769   4.6393   4.9835   5.2244   5.3549   7.9533   8.2130   8.3549
     8.4154   9.0160

     occupation numbers 
     1.0000   1.0000   1.0000   1.0000   1.0000   1.0000   1.0000   1.0000
     1.0000   1.0000   1.0000   1.0000   1.0000   1.0000   1.0000   1.0000
     1.0000   1.0000   1.0000   1.0000   1.0000   1.0000   1.0000   1.0000
     1.0000   1.0000

          k = 0.1250 0.0722 0.0923 (  3718 PWs)   bands (ev):

  -113.8600-113.8595 -68.2471 -68.2415 -68.2076 -68.2076 -68.2060 -68.2057
    -8.6931  -7.6984   3.3078   3.3857   3.4190   3.5262   3.9255   4.4201
     4.6047   4.6644   4.9771   5.0911   5.6938   7.8637   8.0570   8.2497
     8.7936   8.9927

     occupation numbers 
     1.0000   1.0000   1.0000   1.0000   1.0000   1.0000   1.0000   1.0000
     1.0000   1.0000   1.0000   1.0000   1.0000   1.0000   1.0000   1.0000
     1.0000   1.0000   1.0000   1.0000   1.0000   1.0000   1.0000   1.0000
     1.0000   1.0000

          k = 0.1250 0.0722 0.1846 (  3702 PWs)   bands (ev):

  -113.8599-113.8596 -68.2465 -68.2422 -68.2074 -68.2074 -68.2061 -68.2060
    -8.5759  -7.8124   3.2573   3.3282   3.4076   3.4845   3.7471   4.1920
     4.6756   4.7300   4.9552   5.0194   6.1672   7.4803   8.2124   8.3522
     8.9229   8.9750

     occupation numbers 
     1.0000   1.0000   1.0000   1.0000   1.0000   1.0000   1.0000   1.0000
     1.0000   1.0000   1.0000   1.0000   1.0000   1.0000   1.0000   1.0000
     1.0000   1.0000   1.0000   1.0000   1.0000   1.0000   1.0000   1.0000
     1.0000   1.0000

          k = 0.1250 0.0722 0.2769 (  3711 PWs)   bands (ev):

  -113.8599-113.8596 -68.2455 -68.2432 -68.2071 -68.2071 -68.2064 -68.2063
    -8.4000  -7.9856   3.2080   3.2650   3.4014   3.4406   3.6812   3.9304
     4.7640   4.8145   4.9127   4.9640   6.5782   7.1725   8.4680   8.4989
     8.8090   8.9300

     occupation numbers 
     1.0000   1.0000   1.0000   1.0000   1.0000   1.0000   1.0000   1.0000
     1.0000   1.0000   1.0000   1.0000   1.0000   1.0000   1.0000   1.0000
     1.0000   1.0000   1.0000   1.0000   1.0000   1.0000   1.0000   1.0000
     1.0000   1.0000

          k = 0.1250 0.0722-0.3692 (  3710 PWs)   bands (ev):

  -113.8598-113.8597 -68.2444 -68.2443 -68.2068 -68.2067 -68.2067 -68.2066
    -8.1923  -8.1921   3.2145   3.2146   3.4110   3.4111   3.7436   3.7437
     4.8474   4.8475   4.8964   4.8965   6.8966   6.8966   8.6607   8.6608
     8.7355   8.7357

     occupation numbers 
     1.0000   1.0000   1.0000   1.0000   1.0000   1.0000   1.0000   1.0000
     1.0000   1.0000   1.0000   1.0000   1.0000   1.0000   1.0000   1.0000
     1.0000   1.0000   1.0000   1.0000   1.0000   1.0000   1.0000   1.0000
     1.0000   1.0000

          k = 0.1250 0.0722-0.2769 (  3711 PWs)   bands (ev):

  -113.8599-113.8596 -68.2455 -68.2432 -68.2071 -68.2071 -68.2064 -68.2063
    -8.4000  -7.9856   3.2080   3.2650   3.4014   3.4406   3.6812   3.9304
     4.7640   4.8145   4.9127   4.9640   6.5782   7.1725   8.4680   8.4989
     8.8090   8.9300

     occupation numbers 
     1.0000   1.0000   1.0000   1.0000   1.0000   1.0000   1.0000   1.0000
     1.0000   1.0000   1.0000   1.0000   1.0000   1.0000   1.0000   1.0000
     1.0000   1.0000   1.0000   1.0000   1.0000   1.0000   1.0000   1.0000
     1.0000   1.0000

          k = 0.1250 0.0722-0.1846 (  3702 PWs)   bands (ev):

  -113.8599-113.8596 -68.2465 -68.2422 -68.2074 -68.2074 -68.2061 -68.2060
    -8.5759  -7.8124   3.2573   3.3282   3.4076   3.4845   3.7471   4.1920
     4.6756   4.7300   4.9552   5.0194   6.1672   7.4803   8.2124   8.3522
     8.9229   8.9750

     occupation numbers 
     1.0000   1.0000   1.0000   1.0000   1.0000   1.0000   1.0000   1.0000
     1.0000   1.0000   1.0000   1.0000   1.0000   1.0000   1.0000   1.0000
     1.0000   1.0000   1.0000   1.0000   1.0000   1.0000   1.0000   1.0000
     1.0000   1.0000

          k = 0.1250 0.0722-0.0923 (  3718 PWs)   bands (ev):

  -113.8600-113.8595 -68.2471 -68.2415 -68.2076 -68.2076 -68.2060 -68.2057
    -8.6931  -7.6984   3.3079   3.3857   3.4190   3.5262   3.9255   4.4201
     4.6047   4.6644   4.9771   5.0911   5.6938   7.8637   8.0570   8.2497
     8.7936   8.9927

     occupation numbers 
     1.0000   1.0000   1.0000   1.0000   1.0000   1.0000   1.0000   1.0000
     1.0000   1.0000   1.0000   1.0000   1.0000   1.0000   1.0000   1.0000
     1.0000   1.0000   1.0000   1.0000   1.0000   1.0000   1.0000   1.0000
     1.0000   1.0000

          k = 0.1250 0.2165-0.0000 (  3737 PWs)   bands (ev):

  -113.8600-113.8595 -68.2469 -68.2417 -68.2079 -68.2079 -68.2063 -68.2057
    -8.5739  -7.6379   3.2887   3.3791   3.5925   3.7173   3.9797   4.4093
     4.5471   4.6848   5.0029   5.3237   5.6156   7.2964   7.4339   7.8466
     8.3244   8.6322

     occupation numbers 
     1.0000   1.0000   1.0000   1.0000   1.0000   1.0000   1.0000   1.0000
     1.0000   1.0000   1.0000   1.0000   1.0000   1.0000   1.0000   1.0000
     1.0000   1.0000   1.0000   1.0000   1.0000   1.0000   1.0000   1.0000
     1.0000   1.0000

          k = 0.1250 0.2165 0.0923 (  3717 PWs)   bands (ev):

  -113.8599-113.8595 -68.2467 -68.2419 -68.2078 -68.2078 -68.2064 -68.2058
    -8.5366  -7.6704   3.2713   3.3301   3.5837   3.6929   3.8961   4.3188
     4.5750   4.7138   4.9944   5.2008   5.8835   7.3057   7.4141   7.7672
     8.5954   8.6020

     occupation numbers 
     1.0000   1.0000   1.0000   1.0000   1.0000   1.0000   1.0000   1.0000
     1.0000   1.0000   1.0000   1.0000   1.0000   1.0000   1.0000   1.0000
     1.0000   1.0000   1.0000   1.0000   1.0000   1.0000   1.0000   1.0000
     1.0000   1.0000

          k = 0.1250 0.2165 0.1846 (  3719 PWs)   bands (ev):

  -113.8599-113.8596 -68.2461 -68.2425 -68.2076 -68.2076 -68.2065 -68.2060
    -8.4308  -7.7652   3.2023   3.2207   3.5651   3.6418   3.7726   4.1058
     4.6502   4.7825   4.9667   5.1029   6.2327   7.0434   7.7644   7.8372
     8.5128   8.8896

     occupation numbers 
     1.0000   1.0000   1.0000   1.0000   1.0000   1.0000   1.0000   1.0000
     1.0000   1.0000   1.0000   1.0000   1.0000   1.0000   1.0000   1.0000
     1.0000   1.0000   1.0000   1.0000   1.0000   1.0000   1.0000   1.0000
     1.0000   1.0000

          k = 0.1250 0.2165 0.2769 (  3714 PWs)   bands (ev):

  -113.8598-113.8596 -68.2453 -68.2433 -68.2073 -68.2072 -68.2068 -68.2064
    -8.2733  -7.9117   3.0928   3.1451   3.5537   3.5950   3.7192   3.8878
     4.7451   4.8626   4.9211   5.0326   6.4780   6.8293   7.9989   8.2445
     8.3740   8.9238

     occupation numbers 
     1.0000   1.0000   1.0000   1.0000   1.0000   1.0000   1.0000   1.0000
     1.0000   1.0000   1.0000   1.0000   1.0000   1.0000   1.0000   1.0000
     1.0000   1.0000   1.0000   1.0000   1.0000   1.0000   1.0000   1.0000
     1.0000   1.0000

          k = 0.1250 0.2165-0.3692 (  3706 PWs)   bands (ev):

  -113.8598-113.8597 -68.2444 -68.2443 -68.2071 -68.2070 -68.2068 -68.2067
    -8.0904  -8.0902   3.0808   3.0809   3.5629   3.5630   3.7538   3.7538
     4.8347   4.8347   4.9596   4.9597   6.6573   6.6573   8.1885   8.1887
     8.6833   8.6833

     occupation numbers 
     1.0000   1.0000   1.0000   1.0000   1.0000   1.0000   1.0000   1.0000
     1.0000   1.0000   1.0000   1.0000   1.0000   1.0000   1.0000   1.0000
     1.0000   1.0000   1.0000   1.0000   1.0000   1.0000   1.0000   1.0000
     1.0000   1.0000

          k = 0.1250 0.2165-0.2769 (  3714 PWs)   bands (ev):

  -113.8598-113.8596 -68.2453 -68.2433 -68.2073 -68.2072 -68.2068 -68.2064
    -8.2733  -7.9117   3.0928   3.1451   3.5537   3.5950   3.7192   3.8879
     4.7451   4.8626   4.9211   5.0326   6.4780   6.8293   7.9989   8.2445
     8.3740   8.9238

     occupation numbers 
     1.0000   1.0000   1.0000   1.0000   1.0000   1.0000   1.0000   1.0000
     1.0000   1.0000   1.0000   1.0000   1.0000   1.0000   1.0000   1.0000
     1.0000   1.0000   1.0000   1.0000   1.0000   1.0000   1.0000   1.0000
     1.0000   1.0000

          k = 0.1250 0.2165-0.1846 (  3719 PWs)   bands (ev):

  -113.8599-113.8596 -68.2461 -68.2425 -68.2076 -68.2076 -68.2065 -68.2060
    -8.4308  -7.7652   3.2023   3.2207   3.5651   3.6418   3.7726   4.1058
     4.6503   4.7825   4.9667   5.1029   6.2327   7.0434   7.7644   7.8372
     8.5128   8.8896

     occupation numbers 
     1.0000   1.0000   1.0000   1.0000   1.0000   1.0000   1.0000   1.0000
     1.0000   1.0000   1.0000   1.0000   1.0000   1.0000   1.0000   1.0000
     1.0000   1.0000   1.0000   1.0000   1.0000   1.0000   1.0000   1.0000
     1.0000   1.0000

          k = 0.1250 0.2165-0.0923 (  3717 PWs)   bands (ev):

  -113.8599-113.8595 -68.2467 -68.2419 -68.2078 -68.2078 -68.2064 -68.2058
    -8.5366  -7.6704   3.2713   3.3301   3.5837   3.6929   3.8961   4.3188
     4.5750   4.7138   4.9944   5.2008   5.8835   7.3057   7.4141   7.7672
     8.5954   8.6020

     occupation numbers 
     1.0000   1.0000   1.0000   1.0000   1.0000   1.0000   1.0000   1.0000
     1.0000   1.0000   1.0000   1.0000   1.0000   1.0000   1.0000   1.0000
     1.0000   1.0000   1.0000   1.0000   1.0000   1.0000   1.0000   1.0000
     1.0000   1.0000

          k = 0.1250 0.3608-0.0000 (  3719 PWs)   bands (ev):

  -113.8599-113.8596 -68.2461 -68.2424 -68.2083 -68.2080 -68.2069 -68.2058
    -8.3131  -7.6368   3.2530   3.5220   3.8281   3.9042   4.0865   4.2743
     4.5050   4.7397   5.0267   5.2480   6.1088   6.4196   6.6850   7.0014
     8.0560   8.1341

     occupation numbers 
     1.0000   1.0000   1.0000   1.0000   1.0000   1.0000   1.0000   1.0000
     1.0000   1.0000   1.0000   1.0000   1.0000   1.0000   1.0000   1.0000
     1.0000   1.0000   1.0000   1.0000   1.0000   1.0000   1.0000   1.0000
     1.0000   1.0000

          k = 0.1250 0.3608 0.0923 (  3727 PWs)   bands (ev):

  -113.8599-113.8596 -68.2460 -68.2426 -68.2082 -68.2080 -68.2069 -68.2059
    -8.2833  -7.6571   3.2225   3.4411   3.8191   3.8681   4.0308   4.1888
     4.5419   4.7693   5.0141   5.2082   6.0302   6.5359   6.8328   7.0249
     8.0113   8.3779

     occupation numbers 
[...]

  -113.8598-113.8596 -68.2451 -68.2435 -68.2083 -68.2079 -68.2072 -68.2064
    -7.9982  -7.7194   3.3195   3.3222   3.8881   3.9171   4.0666   4.1126
     4.6489   4.7773   5.0177   5.1137   5.7972   5.9365   6.1484   7.0989
     7.8735   8.6267

     occupation numbers 
     1.0000   1.0000   1.0000   1.0000   1.0000   1.0000   1.0000   1.0000
     1.0000   1.0000   1.0000   1.0000   1.0000   1.0000   1.0000   1.0000
     1.0000   1.0000   1.0000   1.0000   1.0000   1.0000   1.0000   1.0000
     1.0000   1.0000

          k =-0.5000 0.0000 0.2769 (  3720 PWs)   bands (ev):

  -113.8598-113.8597 -68.2448 -68.2439 -68.2079 -68.2077 -68.2073 -68.2068
    -7.9188  -7.7669   3.1092   3.1426   3.8456   3.8464   4.0299   4.0530
     4.7065   4.7764   5.0238   5.0796   5.8038   5.8838   6.3534   6.8853
     8.5408   8.9766

     occupation numbers 
     1.0000   1.0000   1.0000   1.0000   1.0000   1.0000   1.0000   1.0000
     1.0000   1.0000   1.0000   1.0000   1.0000   1.0000   1.0000   1.0000
     1.0000   1.0000   1.0000   1.0000   1.0000   1.0000   1.0000   1.0000
     1.0000   1.0000

          k =-0.5000 0.0000-0.3692 (  3724 PWs)   bands (ev):

  -113.8598-113.8597 -68.2444 -68.2443 -68.2076 -68.2076 -68.2072 -68.2072
    -7.8364  -7.8362   3.0455   3.0455   3.8276   3.8277   4.0249   4.0250
     4.7510   4.7510   5.0476   5.0477   5.8368   5.8368   6.6226   6.6228
     8.9561   8.9561

     occupation numbers 
     1.0000   1.0000   1.0000   1.0000   1.0000   1.0000   1.0000   1.0000
     1.0000   1.0000   1.0000   1.0000   1.0000   1.0000   1.0000   1.0000
     1.0000   1.0000   1.0000   1.0000   1.0000   1.0000   1.0000   1.0000
     1.0000   1.0000

          k =-0.5000 0.0000-0.2769 (  3720 PWs)   bands (ev):

  -113.8598-113.8597 -68.2448 -68.2439 -68.2079 -68.2077 -68.2073 -68.2068
    -7.9188  -7.7669   3.1092   3.1426   3.8456   3.8464   4.0299   4.0530
     4.7065   4.7764   5.0238   5.0796   5.8038   5.8838   6.3534   6.8853
     8.5408   8.9766

     occupation numbers 
     1.0000   1.0000   1.0000   1.0000   1.0000   1.0000   1.0000   1.0000
     1.0000   1.0000   1.0000   1.0000   1.0000   1.0000   1.0000   1.0000
     1.0000   1.0000   1.0000   1.0000   1.0000   1.0000   1.0000   1.0000
     1.0000   1.0000

          k =-0.5000 0.0000-0.1846 (  3721 PWs)   bands (ev):

  -113.8598-113.8596 -68.2451 -68.2435 -68.2083 -68.2079 -68.2072 -68.2064
    -7.9982  -7.7194   3.3195   3.3222   3.8881   3.9171   4.0666   4.1126
     4.6489   4.7773   5.0177   5.1137   5.7972   5.9365   6.1484   7.0989
     7.8735   8.6267

     occupation numbers 
     1.0000   1.0000   1.0000   1.0000   1.0000   1.0000   1.0000   1.0000
     1.0000   1.0000   1.0000   1.0000   1.0000   1.0000   1.0000   1.0000
     1.0000   1.0000   1.0000   1.0000   1.0000   1.0000   1.0000   1.0000
     1.0000   1.0000

          k =-0.5000 0.0000-0.0923 (  3730 PWs)   bands (ev):

  -113.8598-113.8596 -68.2453 -68.2433 -68.2085 -68.2080 -68.2072 -68.2061
    -8.0555  -7.6937   3.4512   3.5627   3.9439   4.0044   4.1485   4.1961
     4.5891   4.7552   5.0318   5.1437   5.8616   5.8646   6.2018   7.1069
     7.3037   8.1258

     occupation numbers 
     1.0000   1.0000   1.0000   1.0000   1.0000   1.0000   1.0000   1.0000
     1.0000   1.0000   1.0000   1.0000   1.0000   1.0000   1.0000   1.0000
     1.0000   1.0000   1.0000   1.0000   1.0000   1.0000   1.0000   1.0000
     1.0000   1.0000

          k =-0.5000 0.1443-0.0000 (  3719 PWs)   bands (ev):

  -113.8598-113.8596 -68.2453 -68.2431 -68.2086 -68.2081 -68.2073 -68.2059
    -8.0703  -7.6903   3.3138   3.6933   4.0337   4.0562   4.1597   4.2873
     4.5515   4.7475   5.0413   5.0843   5.7917   5.9761   6.3539   6.7661
     7.6264   7.8624

     occupation numbers 
     1.0000   1.0000   1.0000   1.0000   1.0000   1.0000   1.0000   1.0000
     1.0000   1.0000   1.0000   1.0000   1.0000   1.0000   1.0000   1.0000
     1.0000   1.0000   1.0000   1.0000   1.0000   1.0000   1.0000   1.0000
     1.0000   1.0000

          k =-0.5000 0.1443 0.0923 (  3720 PWs)   bands (ev):

  -113.8598-113.8596 -68.2452 -68.2433 -68.2085 -68.2080 -68.2073 -68.2060
    -8.0497  -7.6977   3.2653   3.6030   3.9783   4.0384   4.1124   4.2282
     4.5858   4.7709   5.0247   5.0764   5.7305   5.9086   6.3563   7.1223
     7.5702   8.1208

     occupation numbers 
     1.0000   1.0000   1.0000   1.0000   1.0000   1.0000   1.0000   1.0000
     1.0000   1.0000   1.0000   1.0000   1.0000   1.0000   1.0000   1.0000
     1.0000   1.0000   1.0000   1.0000   1.0000   1.0000   1.0000   1.0000
     1.0000   1.0000

          k =-0.5000 0.1443 0.1846 (  3730 PWs)   bands (ev):

  -113.8598-113.8596 -68.2451 -68.2435 -68.2083 -68.2078 -68.2074 -68.2063
    -7.9934  -7.7221   3.1281   3.3715   3.8716   3.9875   4.0519   4.1328
     4.6526   4.8062   4.9925   5.0553   5.6796   5.8019   6.4967   7.4294
     7.7980   8.5995

     occupation numbers 
     1.0000   1.0000   1.0000   1.0000   1.0000   1.0000   1.0000   1.0000
     1.0000   1.0000   1.0000   1.0000   1.0000   1.0000   1.0000   1.0000
     1.0000   1.0000   1.0000   1.0000   1.0000   1.0000   1.0000   1.0000
     1.0000   1.0000

          k =-0.5000 0.1443 0.2769 (  3730 PWs)   bands (ev):

  -113.8598-113.8597 -68.2448 -68.2439 -68.2080 -68.2076 -68.2074 -68.2066
    -7.9156  -7.7678   2.9915   3.1222   3.8244   3.9041   4.0309   4.0686
     4.7211   4.8127   4.9788   5.0266   5.6829   5.7401   6.7270   7.2320
     8.4445   8.9200

     occupation numbers 
     1.0000   1.0000   1.0000   1.0000   1.0000   1.0000   1.0000   1.0000
     1.0000   1.0000   1.0000   1.0000   1.0000   1.0000   1.0000   1.0000
     1.0000   1.0000   1.0000   1.0000   1.0000   1.0000   1.0000   1.0000
     1.0000   1.0000

          k =-0.5000 0.1443-0.3692 (  3728 PWs)   bands (ev):

  -113.8598-113.8597 -68.2444 -68.2443 -68.2078 -68.2077 -68.2071 -68.2070
    -7.8351  -7.8349   2.9772   2.9773   3.8419   3.8420   4.0358   4.0359
     4.7787   4.7787   4.9965   4.9965   5.7066   5.7066   6.9863   6.9864
     8.8681   8.8682

     occupation numbers 
     1.0000   1.0000   1.0000   1.0000   1.0000   1.0000   1.0000   1.0000
     1.0000   1.0000   1.0000   1.0000   1.0000   1.0000   1.0000   1.0000
     1.0000   1.0000   1.0000   1.0000   1.0000   1.0000   1.0000   1.0000
     1.0000   1.0000

          k =-0.5000 0.1443-0.2769 (  3730 PWs)   bands (ev):

  -113.8598-113.8597 -68.2448 -68.2439 -68.2080 -68.2076 -68.2074 -68.2066
    -7.9156  -7.7678   2.9915   3.1222   3.8244   3.9041   4.0309   4.0686
     4.7211   4.8127   4.9788   5.0266   5.6829   5.7401   6.7270   7.2320
     8.4445   8.9200

     occupation numbers 
     1.0000   1.0000   1.0000   1.0000   1.0000   1.0000   1.0000   1.0000
     1.0000   1.0000   1.0000   1.0000   1.0000   1.0000   1.0000   1.0000
     1.0000   1.0000   1.0000   1.0000   1.0000   1.0000   1.0000   1.0000
     1.0000   1.0000

          k =-0.5000 0.1443-0.1846 (  3730 PWs)   bands (ev):

  -113.8598-113.8596 -68.2451 -68.2435 -68.2083 -68.2078 -68.2074 -68.2063
    -7.9934  -7.7221   3.1281   3.3715   3.8716   3.9875   4.0519   4.1328
     4.6526   4.8062   4.9925   5.0553   5.6796   5.8019   6.4967   7.4294
     7.7980   8.5995

     occupation numbers 
     1.0000   1.0000   1.0000   1.0000   1.0000   1.0000   1.0000   1.0000
     1.0000   1.0000   1.0000   1.0000   1.0000   1.0000   1.0000   1.0000
     1.0000   1.0000   1.0000   1.0000   1.0000   1.0000   1.0000   1.0000
     1.0000   1.0000

          k =-0.5000 0.1443-0.0923 (  3720 PWs)   bands (ev):

  -113.8598-113.8596 -68.2452 -68.2433 -68.2085 -68.2080 -68.2073 -68.2060
    -8.0497  -7.6977   3.2653   3.6030   3.9783   4.0384   4.1124   4.2282
     4.5858   4.7709   5.0247   5.0764   5.7305   5.9086   6.3563   7.1223
     7.5702   8.1208

     occupation numbers 
     1.0000   1.0000   1.0000   1.0000   1.0000   1.0000   1.0000   1.0000
     1.0000   1.0000   1.0000   1.0000   1.0000   1.0000   1.0000   1.0000
     1.0000   1.0000   1.0000   1.0000   1.0000   1.0000   1.0000   1.0000
     1.0000   1.0000

          k =-0.5000-0.8660 0.0000 (  3738 PWs)   bands (ev):

  -113.8598-113.8596 -68.2453 -68.2432 -68.2085 -68.2082 -68.2074 -68.2058
    -8.0640  -7.6950   3.1909   3.6869   4.0546   4.0849   4.2148   4.2264
     4.5551   4.7602   5.0357   5.0397   5.7643   5.8659   6.6047   6.7308
     7.8661   7.8788

     occupation numbers 
     1.0000   1.0000   1.0000   1.0000   1.0000   1.0000   1.0000   1.0000
     1.0000   1.0000   1.0000   1.0000   1.0000   1.0000   1.0000   1.0000
     1.0000   1.0000   1.0000   1.0000   1.0000   1.0000   1.0000   1.0000
     1.0000   1.0000

          k =-0.5000-0.8660 0.0923 (  3728 PWs)   bands (ev):

  -113.8598-113.8596 -68.2452 -68.2432 -68.2085 -68.2081 -68.2074 -68.2059
    -8.0438  -7.7019   3.1435   3.5946   3.9986   4.0496   4.1699   4.1872
     4.5867   4.7908   5.0174   5.0284   5.7030   5.7750   6.6701   7.0463
     7.8416   8.1012

     occupation numbers 
     1.0000   1.0000   1.0000   1.0000   1.0000   1.0000   1.0000   1.0000
     1.0000   1.0000   1.0000   1.0000   1.0000   1.0000   1.0000   1.0000
     1.0000   1.0000   1.0000   1.0000   1.0000   1.0000   1.0000   1.0000
     1.0000   1.0000

          k =-0.5000-0.8660 0.1846 (  3738 PWs)   bands (ev):

  -113.8598-113.8596 -68.2451 -68.2435 -68.2083 -68.2079 -68.2075 -68.2062
    -7.9885  -7.7250   3.0181   3.3523   3.8722   4.0391   4.0488   4.1305
     4.6569   4.8446   4.9618   5.0087   5.6337   5.6845   6.8444   7.6744
     7.7315   8.5536

     occupation numbers 
     1.0000   1.0000   1.0000   1.0000   1.0000   1.0000   1.0000   1.0000
     1.0000   1.0000   1.0000   1.0000   1.0000   1.0000   1.0000   1.0000
     1.0000   1.0000   1.0000   1.0000   1.0000   1.0000   1.0000   1.0000
     1.0000   1.0000

          k =-0.5000-0.8660 0.2769 (  3736 PWs)   bands (ev):

  -113.8598-113.8597 -68.2448 -68.2439 -68.2081 -68.2076 -68.2074 -68.2066
    -7.9123  -7.7687   2.9048   3.0819   3.8252   3.9332   4.0338   4.0780
     4.7368   4.8914   4.8951   4.9787   5.6198   5.6478   7.0800   7.5557
     8.3053   8.8372

     occupation numbers 
     1.0000   1.0000   1.0000   1.0000   1.0000   1.0000   1.0000   1.0000
     1.0000   1.0000   1.0000   1.0000   1.0000   1.0000   1.0000   1.0000
     1.0000   1.0000   1.0000   1.0000   1.0000   1.0000   1.0000   1.0000
     1.0000   1.0000

          k =-0.5000-0.8660-0.3692 (  3724 PWs)   bands (ev):

  -113.8598-113.8597 -68.2444 -68.2443 -68.2079 -68.2078 -68.2070 -68.2069
    -7.8339  -7.8336   2.9143   2.9143   3.8530   3.8530   4.0448   4.0449
     4.8157   4.8157   4.9401   4.9402   5.6307   5.6307   7.3296   7.3297
     8.7447   8.7447

     occupation numbers 
     1.0000   1.0000   1.0000   1.0000   1.0000   1.0000   1.0000   1.0000
     1.0000   1.0000   1.0000   1.0000   1.0000   1.0000   1.0000   1.0000
     1.0000   1.0000   1.0000   1.0000   1.0000   1.0000   1.0000   1.0000
     1.0000   1.0000

     highest occupied level (ev):     9.1884

!    total energy              =    -987.06369234 Ry
     Harris-Foulkes estimate   =    -987.06369237 Ry
     estimated scf accuracy    <       0.00000007 Ry

     The total energy is the sum of the following terms:

     one-electron contribution =    -792.13521517 Ry
     hartree contribution      =     418.44990507 Ry
     xc contribution           =     -98.09994372 Ry
     ewald contribution        =    -515.27843852 Ry

     convergence has been achieved in   7 iterations

     Forces acting on atoms (cartesian axes, Ry/au):

     atom    1 type  2   force =    -0.00000186   -0.00000062   -0.00484541
     atom    2 type  2   force =    -0.00000050    0.00000012   -0.00484751
     atom    3 type  1   force =     0.00000239   -0.00000136    0.00483940
     atom    4 type  1   force =    -0.00000004    0.00000186    0.00485352
     The non-local contrib.  to forces
     atom    1 type  2   force =    -0.00000006   -0.00000353   -0.05634277
     atom    2 type  2   force =     0.00000089   -0.00000071   -0.05634317
     atom    3 type  1   force =     0.00000288   -0.00000803   -0.13049722
     atom    4 type  1   force =     0.00000096   -0.00000316   -0.13049696
     The ionic contribution  to forces
     atom    1 type  2   force =     0.00000013    0.00004047    0.77911801
     atom    2 type  2   force =    -0.00002046    0.00002123    0.77911899
     atom    3 type  1   force =     0.00002653   -0.00003326   -0.77911376
     atom    4 type  1   force =    -0.00000619   -0.00002844   -0.77912324
     The local contribution  to forces
     atom    1 type  2   force =    -0.00000040   -0.00003461   -0.72803296
     atom    2 type  2   force =     0.00002113   -0.00001734   -0.72803458
     atom    3 type  1   force =    -0.00003111    0.00003918    0.91460234
     atom    4 type  1   force =     0.00000736    0.00002906    0.91459156
     The core correction contribution to forces
     atom    1 type  2   force =     0.00000000    0.00000003    0.00030147
     atom    2 type  2   force =     0.00000000    0.00000001    0.00030148
     atom    3 type  1   force =     0.00000000    0.00000000    0.00000000
     atom    4 type  1   force =     0.00000000    0.00000000    0.00000000
     The Hubbard contrib.    to forces
     atom    1 type  2   force =     0.00000000    0.00000000    0.00000000
     atom    2 type  2   force =     0.00000000    0.00000000    0.00000000
     atom    3 type  1   force =     0.00000000    0.00000000    0.00000000
     atom    4 type  1   force =     0.00000000    0.00000000    0.00000000
     The SCF correction term to forces
     atom    1 type  2   force =     0.00000000    0.00000000    0.00000000
     atom    2 type  2   force =     0.00000000    0.00000000    0.00000000
     atom    3 type  1   force =     0.00000000    0.00000000    0.00000000
     atom    4 type  1   force =     0.00000000    0.00000000    0.00000000

     Total force =     0.000000     Total SCF correction =     0.000000


     Computing stress (Cartesian axis) and pressure

          total   stress  (Ry/bohr**3)                   (kbar)     P=   -0.11
   0.00000265  -0.00000000  -0.00000001          0.39     -0.00     -0.00
  -0.00000000   0.00000263  -0.00000001         -0.00      0.39     -0.00
  -0.00000001  -0.00000001  -0.00000751         -0.00     -0.00     -1.10

     kinetic stress (kbar)  34953.07     -0.00     -0.00
                               -0.00  34953.07     -0.00
                               -0.00     -0.00  35358.08

     local   stress (kbar)   1043.15     -0.02     -0.02
                               -0.02   1042.97      0.01
                               -0.02      0.01 -11073.06

     nonloc. stress (kbar)  -1720.00      0.00      0.00
                                0.00  -1720.00      0.00
                                0.00      0.00  -1872.93

     hartree stress (kbar)  64404.77      0.01      0.01
                                0.01  64404.85     -0.00
                                0.01     -0.00  71010.66

     exc-cor stress (kbar) -14649.40      0.00      0.00
                                0.00 -14649.40      0.00
                                0.00      0.00 -14654.36

     corecor stress (kbar)   -257.57     -0.00      0.00
                               -0.00   -257.57      0.00
                                0.00      0.00   -258.33

     ewald   stress (kbar) -83773.63      0.01      0.01
                                0.01 -83773.53     -0.01
                                0.01     -0.01 -78511.17

     hubbard stress (kbar)      0.00      0.00      0.00
                                0.00      0.00      0.00
                                0.00      0.00      0.00

     london  stress (kbar)      0.00      0.00      0.00
                                0.00      0.00      0.00
                                0.00      0.00      0.00

     DFT-D3  stress (kbar)      0.00      0.00      0.00
                                0.00      0.00      0.00
                                0.00      0.00      0.00

     XDM     stress (kbar)      0.00      0.00      0.00
                                0.00      0.00      0.00
                                0.00      0.00      0.00

     dft-nl  stress (kbar)      0.00      0.00      0.00
                                0.00      0.00      0.00
                                0.00      0.00      0.00

     TS-vdW  stress (kbar)      0.00      0.00      0.00
                                0.00      0.00      0.00
                                0.00      0.00      0.00



     Writing output data file ZnO.save/
 
     init_run     :      0.55s CPU      1.56s WALL (       1 calls)
     electrons    :      7.24s CPU      7.78s WALL (       1 calls)
     forces       :      0.15s CPU      0.16s WALL (       1 calls)
     stress       :      0.26s CPU      0.28s WALL (       1 calls)

     Called by init_run:
     wfcinit      :      0.41s CPU      1.11s WALL (       1 calls)
     wfcinit:atom :      0.00s CPU      0.00s WALL (      65 calls)
     wfcinit:wfcr :      0.39s CPU      1.08s WALL (      65 calls)
     potinit      :      0.06s CPU      0.24s WALL (       1 calls)
     hinit0       :      0.07s CPU      0.16s WALL (       1 calls)

     Called by electrons:
     c_bands      :      6.13s CPU      6.49s WALL (       7 calls)
     sum_band     :      0.86s CPU      0.99s WALL (       7 calls)
     v_of_rho     :      0.22s CPU      0.38s WALL (       8 calls)
     v_h          :      0.00s CPU      0.00s WALL (       8 calls)
     v_xc         :      0.27s CPU      0.40s WALL (      10 calls)
     newd         :      0.04s CPU      0.05s WALL (       8 calls)
     mix_rho      :      0.01s CPU      0.02s WALL (       7 calls)

     Called by c_bands:
     init_us_2    :      0.07s CPU      0.07s WALL (    1105 calls)
     cegterg      :      5.71s CPU      5.95s WALL (     455 calls)

     Called by sum_band:
     sum_band:bec :      0.01s CPU      0.01s WALL (     455 calls)
     addusdens    :      0.03s CPU      0.07s WALL (       7 calls)

     Called by *egterg:
     h_psi        :      3.62s CPU      3.75s WALL (    1486 calls)
     s_psi        :      0.11s CPU      0.11s WALL (    1486 calls)
     g_psi        :      0.01s CPU      0.01s WALL (     966 calls)
     cdiaghg      :      1.49s CPU      2.24s WALL (    1421 calls)
     cegterg:over :      0.36s CPU      0.40s WALL (     966 calls)
     cegterg:upda :      0.19s CPU      0.20s WALL (     966 calls)
     cegterg:last :      0.13s CPU      0.13s WALL (     455 calls)
     cdiaghg:chol :      0.11s CPU      0.44s WALL (    1421 calls)
     cdiaghg:inve :      0.02s CPU      0.05s WALL (    1421 calls)
     cdiaghg:para :      0.16s CPU      0.18s WALL (    2842 calls)

     Called by h_psi:
     h_psi:pot    :      3.61s CPU      3.74s WALL (    1486 calls)
     h_psi:calbec :      0.19s CPU      0.21s WALL (    1486 calls)
     vloc_psi     :      3.31s CPU      3.41s WALL (    1486 calls)
     add_vuspsi   :      0.11s CPU      0.11s WALL (    1486 calls)

     General routines
     calbec       :      0.30s CPU      0.32s WALL (    2266 calls)
     fft          :      0.04s CPU      0.09s WALL (     127 calls)
     ffts         :      0.00s CPU      0.00s WALL (      15 calls)
     fftw         :      3.77s CPU      3.88s WALL (   74410 calls)
     interpolate  :      0.00s CPU      0.00s WALL (       8 calls)
 
     Parallel routines
     fft_scatt_xy :      0.60s CPU      0.62s WALL (   74552 calls)
     fft_scatt_yz :      1.88s CPU      1.95s WALL (   74552 calls)
 
     PWSCF        :      8.50s CPU     11.12s WALL

 
   This run was terminated on:  15:13:33  16Jun2022            

=------------------------------------------------------------------------------=
   JOB DONE.
=------------------------------------------------------------------------------=
