
     Program PWSCF v.6.4.1 starts on 15Jun2022 at 20:43:32 

     This program is part of the open-source Quantum ESPRESSO suite
     for quantum simulation of materials; please cite
         "P. Giannozzi et al., J. Phys.:Condens. Matter 21 395502 (2009);
         "P. Giannozzi et al., J. Phys.:Condens. Matter 29 465901 (2017);
          URL http://www.quantum-espresso.org", 
     in publications or presentations arising from this work. More details at
     http://www.quantum-espresso.org/quote

     Parallel version (MPI), running on    64 processors

     MPI processes distributed on     1 nodes
     K-points division:     npool     =       4
     R & G space division:  proc/nbgrp/npool/nimage =      16
     Waiting for input...
     Reading input from standard input
Warning: card &IONS ignored
Warning: card   UPSCALE           = 100.D0, ignored
Warning: card / ignored
Warning: card &CELL ignored
Warning: card   CELL_DYNAMICS     = 'BFGS' ignored
Warning: card   PRESS_CONV_THR    = 0.5D0 ignored
Warning: card   CELL_DOFREE = 'ALL' ignored
Warning: card / ignored

     Current dimensions of program PWSCF are:
     Max number of different atomic species (ntypx) = 10
     Max number of k-points (npk) =  40000
     Max angular momentum in pseudopotentials (lmaxx) =  3

     Subspace diagonalization in iterative solution of the eigenvalue problem:
     one sub-group per band group will be used
     scalapack distributed-memory algorithm (size of sub-group:  2*  2 procs)

     Message from routine set_sym_bl:
     NOTICE: Symmetry group for Bravais lattice is not a group (12) - symmetries are disabled
 
     Parallelization info
     --------------------
     sticks:   dense  smooth     PW     G-vecs:    dense   smooth      PW
     Min          97      52     15                 4933     1924     333
     Max          98      54     16                 4940     1927     342
     Sum        1555     847    253                78957    30805    5431
 


     bravais-lattice index     =            0
     lattice parameter (alat)  =       6.1506  a.u.
     unit-cell volume          =     318.6031 (a.u.)^3
     number of atoms/cell      =            4
     number of atomic types    =            2
     number of electrons       =        52.00
     number of Kohn-Sham states=           26
     kinetic-energy cutoff     =      80.0000  Ry
     charge density cutoff     =     600.0000  Ry
     convergence threshold     =      1.0E-06
     mixing beta               =       0.5000
     number of iterations used =            8  plain     mixing
     Exchange-correlation      = SLA  PW   PSX  PSC ( 1  4 10  8 0 0)
     Using LIBXC version       =    4   3   4

     celldm(1)=   6.150552  celldm(2)=   0.000000  celldm(3)=   0.000000
     celldm(4)=   0.000000  celldm(5)=   0.000000  celldm(6)=   0.000000

     crystal axes: (cart. coord. in units of alat)
               a(1) = (   1.000000   0.000000   0.000000 )  
               a(2) = (  -0.500000   0.866025   0.000000 )  
               a(3) = (   0.000000   0.000001   1.581165 )  

     reciprocal axes: (cart. coord. in units 2 pi/alat)
               b(1) = (  1.000000  0.577350 -0.000000 )  
               b(2) = ( -0.000000  1.154701 -0.000000 )  
               b(3) = ( -0.000000 -0.000000  0.632445 )  


     PseudoPot. # 1 for Zn read from file:
     ./GBRV_PBEsol/zn_pbesol_v1.uspp.F.UPF
     MD5 check sum: 7d8615e52efe7c1e2b1899de8658bae2
     Pseudo is Ultrasoft, Zval = 20.0
     Generated by new atomic code, or converted to UPF format
     Using radial grid of  943 points,  6 beta functions with: 
                l(1) =   0
                l(2) =   0
                l(3) =   1
                l(4) =   1
                l(5) =   2
                l(6) =   2
     Q(r) pseudized with  8 coefficients,  rinner =    1.100   1.100   1.100
                                                       1.100   1.100

     PseudoPot. # 2 for O  read from file:
     ./GBRV_PBEsol/o_pbesol_v1.2.uspp.F.UPF
     MD5 check sum: 501638753501ef6325af9037351f7734
     Pseudo is Ultrasoft + core correction, Zval =  6.0
     Generated by new atomic code, or converted to UPF format
     Using radial grid of  737 points,  5 beta functions with: 
                l(1) =   0
                l(2) =   0
                l(3) =   1
                l(4) =   1
                l(5) =   2
     Q(r) pseudized with  8 coefficients,  rinner =    0.900   0.900   0.900
                                                       0.900   0.900

     atomic species   valence    mass     pseudopotential
        Zn            20.00    65.38000     Zn( 1.00)
        O              6.00    15.99900     O ( 1.00)

     No symmetry found


                                    s                        frac. trans.

      isym =  1     identity                                     

 cryst.   s( 1) = (     1          0          0      )
                  (     0          1          0      )
                  (     0          0          1      )

 cart.    s( 1) = (  1.0000000 -0.0000000 -0.0000000 )
                  (  0.0000000  1.0000000  0.0000000 )
                  (  0.0000000 -0.0000000  1.0000000 )


   Cartesian axes

     site n.     atom                  positions (alat units)
         1           O   tau(   1) = (   0.5000002   0.2886754   0.0116152  )
         2           O   tau(   2) = (   0.0000003   0.5773495   0.8021978  )
         3           Zn  tau(   3) = (   0.5000001   0.2886749   0.6267018  )
         4           Zn  tau(   4) = (   0.0000001   0.5773514   1.4172844  )

   Crystallographic axes

     site n.     atom                  positions (cryst. coord.)
         1           O   tau(   1) = (  0.6666670  0.3333337  0.0073459  )
         2           O   tau(   2) = (  0.3333329  0.6666657  0.5073458  )
         3           Zn  tau(   3) = (  0.6666664  0.3333329  0.3963542  )
         4           Zn  tau(   4) = (  0.3333337  0.6666677  0.8963542  )

     number of k points=   260
                       cart. coord. in units 2pi/alat
        k(    1) = (   0.0000000   0.0000000   0.0000000), wk =   0.0039062
        k(    2) = (  -0.0000000  -0.0000000   0.0790556), wk =   0.0078125
        k(    3) = (  -0.0000000  -0.0000001   0.1581112), wk =   0.0078125
        k(    4) = (  -0.0000001  -0.0000001   0.2371668), wk =   0.0078125
        k(    5) = (   0.0000001   0.0000001  -0.3162225), wk =   0.0039062
        k(    6) = (  -0.0000000   0.1443376  -0.0000000), wk =   0.0078125
        k(    7) = (  -0.0000000   0.1443376   0.0790556), wk =   0.0078125
        k(    8) = (  -0.0000001   0.1443376   0.1581112), wk =   0.0078125
        k(    9) = (  -0.0000001   0.1443375   0.2371668), wk =   0.0078125
        k(   10) = (   0.0000001   0.1443377  -0.3162225), wk =   0.0078125
        k(   11) = (   0.0000000   0.1443377  -0.2371669), wk =   0.0078125
        k(   12) = (   0.0000000   0.1443377  -0.1581113), wk =   0.0078125
        k(   13) = (  -0.0000000   0.1443376  -0.0790557), wk =   0.0078125
        k(   14) = (  -0.0000000   0.2886752  -0.0000001), wk =   0.0078125
        k(   15) = (  -0.0000001   0.2886752   0.0790555), wk =   0.0078125
        k(   16) = (  -0.0000001   0.2886752   0.1581111), wk =   0.0078125
        k(   17) = (  -0.0000001   0.2886752   0.2371667), wk =   0.0078125
        k(   18) = (   0.0000000   0.2886754  -0.3162225), wk =   0.0078125
        k(   19) = (   0.0000000   0.2886753  -0.2371669), wk =   0.0078125
        k(   20) = (  -0.0000000   0.2886753  -0.1581113), wk =   0.0078125
        k(   21) = (  -0.0000000   0.2886753  -0.0790557), wk =   0.0078125
        k(   22) = (  -0.0000001   0.4330129  -0.0000001), wk =   0.0078125
        k(   23) = (  -0.0000001   0.4330128   0.0790555), wk =   0.0078125
        k(   24) = (  -0.0000001   0.4330128   0.1581111), wk =   0.0078125
        k(   25) = (  -0.0000001   0.4330128   0.2371667), wk =   0.0078125
        k(   26) = (   0.0000000   0.4330130  -0.3162226), wk =   0.0078125
        k(   27) = (  -0.0000000   0.4330129  -0.2371670), wk =   0.0078125
        k(   28) = (  -0.0000000   0.4330129  -0.1581114), wk =   0.0078125
        k(   29) = (  -0.0000000   0.4330129  -0.0790558), wk =   0.0078125
        k(   30) = (   0.0000001  -0.5773505   0.0000002), wk =   0.0039062
        k(   31) = (   0.0000001  -0.5773505   0.0790558), wk =   0.0078125
        k(   32) = (   0.0000000  -0.5773505   0.1581114), wk =   0.0078125
        k(   33) = (   0.0000000  -0.5773506   0.2371670), wk =   0.0078125
        k(   34) = (   0.0000001  -0.5773504  -0.3162223), wk =   0.0039062
        k(   35) = (   0.1250000   0.0721688  -0.0000000), wk =   0.0078125
        k(   36) = (   0.1250000   0.0721688   0.0790556), wk =   0.0078125
        k(   37) = (   0.1250000   0.0721687   0.1581112), wk =   0.0078125
        k(   38) = (   0.1249999   0.0721687   0.2371668), wk =   0.0078125
        k(   39) = (   0.1250001   0.0721689  -0.3162225), wk =   0.0078125
        k(   40) = (   0.1250000   0.0721689  -0.2371669), wk =   0.0078125
        k(   41) = (   0.1250000   0.0721689  -0.1581113), wk =   0.0078125
        k(   42) = (   0.1250000   0.0721688  -0.0790557), wk =   0.0078125
        k(   43) = (   0.1250000   0.2165064  -0.0000001), wk =   0.0078125
        k(   44) = (   0.1250000   0.2165064   0.0790555), wk =   0.0078125
        k(   45) = (   0.1249999   0.2165064   0.1581111), wk =   0.0078125
        k(   46) = (   0.1249999   0.2165063   0.2371667), wk =   0.0078125
        k(   47) = (   0.1250000   0.2165065  -0.3162225), wk =   0.0078125
        k(   48) = (   0.1250000   0.2165065  -0.2371669), wk =   0.0078125
        k(   49) = (   0.1250000   0.2165065  -0.1581113), wk =   0.0078125
        k(   50) = (   0.1250000   0.2165064  -0.0790557), wk =   0.0078125
        k(   51) = (   0.1250000   0.3608440  -0.0000001), wk =   0.0078125
        k(   52) = (   0.1249999   0.3608440   0.0790555), wk =   0.0078125
        k(   53) = (   0.1249999   0.3608440   0.1581111), wk =   0.0078125
        k(   54) = (   0.1249999   0.3608440   0.2371667), wk =   0.0078125
        k(   55) = (   0.1250000   0.3608441  -0.3162226), wk =   0.0078125
        k(   56) = (   0.1250000   0.3608441  -0.2371670), wk =   0.0078125
        k(   57) = (   0.1250000   0.3608441  -0.1581114), wk =   0.0078125
        k(   58) = (   0.1250000   0.3608441  -0.0790558), wk =   0.0078125
        k(   59) = (   0.1249999   0.5051817  -0.0000002), wk =   0.0078125
        k(   60) = (   0.1249999   0.5051816   0.0790554), wk =   0.0078125
        k(   61) = (   0.1249999   0.5051816   0.1581110), wk =   0.0078125
        k(   62) = (   0.1249999   0.5051816   0.2371666), wk =   0.0078125
        k(   63) = (   0.1250000   0.5051818  -0.3162226), wk =   0.0078125
        k(   64) = (   0.1250000   0.5051817  -0.2371670), wk =   0.0078125
        k(   65) = (   0.1250000   0.5051817  -0.1581114), wk =   0.0078125
        k(   66) = (   0.1250000   0.5051817  -0.0790558), wk =   0.0078125
        k(   67) = (   0.1250001  -0.5051817   0.0000001), wk =   0.0078125
        k(   68) = (   0.1250000  -0.5051817   0.0790558), wk =   0.0078125
        k(   69) = (   0.1250000  -0.5051817   0.1581114), wk =   0.0078125
        k(   70) = (   0.1250000  -0.5051818   0.2371670), wk =   0.0078125
        k(   71) = (   0.1250001  -0.5051816  -0.3162223), wk =   0.0078125
        k(   72) = (   0.1250001  -0.5051816  -0.2371667), wk =   0.0078125
        k(   73) = (   0.1250001  -0.5051816  -0.1581111), wk =   0.0078125
        k(   74) = (   0.1250001  -0.5051817  -0.0790555), wk =   0.0078125
        k(   75) = (   0.1250000  -0.3608441   0.0000001), wk =   0.0078125
        k(   76) = (   0.1250000  -0.3608441   0.0790557), wk =   0.0078125
        k(   77) = (   0.1250000  -0.3608441   0.1581113), wk =   0.0078125
        k(   78) = (   0.1250000  -0.3608441   0.2371669), wk =   0.0078125
        k(   79) = (   0.1250001  -0.3608440  -0.3162224), wk =   0.0078125
        k(   80) = (   0.1250001  -0.3608440  -0.2371667), wk =   0.0078125
        k(   81) = (   0.1250001  -0.3608440  -0.1581111), wk =   0.0078125
        k(   82) = (   0.1250001  -0.3608440  -0.0790555), wk =   0.0078125
        k(   83) = (   0.1250000  -0.2165064   0.0000000), wk =   0.0078125
        k(   84) = (   0.1250000  -0.2165065   0.0790557), wk =   0.0078125
        k(   85) = (   0.1250000  -0.2165065   0.1581113), wk =   0.0078125
        k(   86) = (   0.1250000  -0.2165065   0.2371669), wk =   0.0078125
        k(   87) = (   0.1250001  -0.2165063  -0.3162224), wk =   0.0078125
        k(   88) = (   0.1250001  -0.2165064  -0.2371668), wk =   0.0078125
        k(   89) = (   0.1250001  -0.2165064  -0.1581112), wk =   0.0078125
        k(   90) = (   0.1250000  -0.2165064  -0.0790556), wk =   0.0078125
        k(   91) = (   0.1250000  -0.0721688  -0.0000000), wk =   0.0078125
        k(   92) = (   0.1250000  -0.0721689   0.0790556), wk =   0.0078125
        k(   93) = (   0.1250000  -0.0721689   0.1581112), wk =   0.0078125
        k(   94) = (   0.1250000  -0.0721689   0.2371668), wk =   0.0078125
        k(   95) = (   0.1250001  -0.0721687  -0.3162225), wk =   0.0078125
        k(   96) = (   0.1250001  -0.0721687  -0.2371668), wk =   0.0078125
        k(   97) = (   0.1250000  -0.0721688  -0.1581112), wk =   0.0078125
        k(   98) = (   0.1250000  -0.0721688  -0.0790556), wk =   0.0078125
        k(   99) = (   0.2500000   0.1443376  -0.0000001), wk =   0.0078125
        k(  100) = (   0.2500000   0.1443376   0.0790555), wk =   0.0078125
        k(  101) = (   0.2499999   0.1443375   0.1581111), wk =   0.0078125
        k(  102) = (   0.2499999   0.1443375   0.2371667), wk =   0.0078125
        k(  103) = (   0.2500001   0.1443377  -0.3162225), wk =   0.0078125
        k(  104) = (   0.2500000   0.1443377  -0.2371669), wk =   0.0078125
        k(  105) = (   0.2500000   0.1443376  -0.1581113), wk =   0.0078125
        k(  106) = (   0.2500000   0.1443376  -0.0790557), wk =   0.0078125
        k(  107) = (   0.2500000   0.2886752  -0.0000001), wk =   0.0078125
        k(  108) = (   0.2499999   0.2886752   0.0790555), wk =   0.0078125
        k(  109) = (   0.2499999   0.2886752   0.1581111), wk =   0.0078125
        k(  110) = (   0.2499999   0.2886751   0.2371667), wk =   0.0078125
        k(  111) = (   0.2500000   0.2886753  -0.3162226), wk =   0.0078125
        k(  112) = (   0.2500000   0.2886753  -0.2371670), wk =   0.0078125
        k(  113) = (   0.2500000   0.2886753  -0.1581114), wk =   0.0078125
        k(  114) = (   0.2500000   0.2886752  -0.0790558), wk =   0.0078125
        k(  115) = (   0.2499999   0.4330128  -0.0000002), wk =   0.0078125
        k(  116) = (   0.2499999   0.4330128   0.0790554), wk =   0.0078125
        k(  117) = (   0.2499999   0.4330128   0.1581110), wk =   0.0078125
        k(  118) = (   0.2499999   0.4330127   0.2371666), wk =   0.0078125
        k(  119) = (   0.2500000   0.4330129  -0.3162226), wk =   0.0078125
        k(  120) = (   0.2500000   0.4330129  -0.2371670), wk =   0.0078125
        k(  121) = (   0.2500000   0.4330129  -0.1581114), wk =   0.0078125
        k(  122) = (   0.2500000   0.4330129  -0.0790558), wk =   0.0078125
        k(  123) = (   0.2499999   0.5773505  -0.0000002), wk =   0.0078125
        k(  124) = (   0.2499999   0.5773504   0.0790554), wk =   0.0078125
        k(  125) = (   0.2499999   0.5773504   0.1581110), wk =   0.0078125
        k(  126) = (   0.2499999   0.5773504   0.2371666), wk =   0.0078125
        k(  127) = (   0.2500000   0.5773506  -0.3162227), wk =   0.0078125
        k(  128) = (   0.2500000   0.5773505  -0.2371671), wk =   0.0078125
        k(  129) = (   0.2500000   0.5773505  -0.1581115), wk =   0.0078125
        k(  130) = (   0.2499999   0.5773505  -0.0790559), wk =   0.0078125
        k(  131) = (   0.2500001  -0.4330129   0.0000001), wk =   0.0078125
        k(  132) = (   0.2500000  -0.4330129   0.0790557), wk =   0.0078125
        k(  133) = (   0.2500000  -0.4330129   0.1581113), wk =   0.0078125
        k(  134) = (   0.2500000  -0.4330130   0.2371669), wk =   0.0078125
        k(  135) = (   0.2500001  -0.4330128  -0.3162224), wk =   0.0078125
        k(  136) = (   0.2500001  -0.4330128  -0.2371667), wk =   0.0078125
        k(  137) = (   0.2500001  -0.4330128  -0.1581111), wk =   0.0078125
        k(  138) = (   0.2500001  -0.4330129  -0.0790555), wk =   0.0078125
        k(  139) = (   0.2500000  -0.2886753   0.0000000), wk =   0.0078125
        k(  140) = (   0.2500000  -0.2886753   0.0790557), wk =   0.0078125
        k(  141) = (   0.2500000  -0.2886753   0.1581113), wk =   0.0078125
        k(  142) = (   0.2500000  -0.2886754   0.2371669), wk =   0.0078125
        k(  143) = (   0.2500001  -0.2886752  -0.3162224), wk =   0.0078125
        k(  144) = (   0.2500001  -0.2886752  -0.2371668), wk =   0.0078125
        k(  145) = (   0.2500001  -0.2886752  -0.1581112), wk =   0.0078125
        k(  146) = (   0.2500001  -0.2886752  -0.0790556), wk =   0.0078125
        k(  147) = (   0.2500000  -0.1443376  -0.0000000), wk =   0.0078125
        k(  148) = (   0.2500000  -0.1443377   0.0790556), wk =   0.0078125
        k(  149) = (   0.2500000  -0.1443377   0.1581112), wk =   0.0078125
        k(  150) = (   0.2500000  -0.1443377   0.2371668), wk =   0.0078125
        k(  151) = (   0.2500001  -0.1443375  -0.3162225), wk =   0.0078125
        k(  152) = (   0.2500001  -0.1443376  -0.2371668), wk =   0.0078125
        k(  153) = (   0.2500001  -0.1443376  -0.1581112), wk =   0.0078125
        k(  154) = (   0.2500000  -0.1443376  -0.0790556), wk =   0.0078125
        k(  155) = (   0.2500000  -0.0000000  -0.0000000), wk =   0.0078125
        k(  156) = (   0.2500000  -0.0000001   0.0790556), wk =   0.0078125
        k(  157) = (   0.2500000  -0.0000001   0.1581112), wk =   0.0078125
        k(  158) = (   0.2499999  -0.0000001   0.2371668), wk =   0.0078125
        k(  159) = (   0.2500001   0.0000001  -0.3162225), wk =   0.0078125
        k(  160) = (   0.2500001   0.0000001  -0.2371669), wk =   0.0078125
        k(  161) = (   0.2500000   0.0000000  -0.1581113), wk =   0.0078125
        k(  162) = (   0.2500000  -0.0000000  -0.0790557), wk =   0.0078125
        k(  163) = (   0.3750000   0.2165064  -0.0000001), wk =   0.0078125
        k(  164) = (   0.3750000   0.2165064   0.0790555), wk =   0.0078125
        k(  165) = (   0.3749999   0.2165063   0.1581111), wk =   0.0078125
        k(  166) = (   0.3749999   0.2165063   0.2371667), wk =   0.0078125
        k(  167) = (   0.3750000   0.2165065  -0.3162226), wk =   0.0078125
        k(  168) = (   0.3750000   0.2165065  -0.2371670), wk =   0.0078125
        k(  169) = (   0.3750000   0.2165064  -0.1581114), wk =   0.0078125
        k(  170) = (   0.3750000   0.2165064  -0.0790558), wk =   0.0078125
        k(  171) = (   0.3750000   0.3608440  -0.0000002), wk =   0.0078125
        k(  172) = (   0.3749999   0.3608440   0.0790554), wk =   0.0078125
        k(  173) = (   0.3749999   0.3608439   0.1581110), wk =   0.0078125
        k(  174) = (   0.3749999   0.3608439   0.2371666), wk =   0.0078125
        k(  175) = (   0.3750000   0.3608441  -0.3162226), wk =   0.0078125
        k(  176) = (   0.3750000   0.3608441  -0.2371670), wk =   0.0078125
        k(  177) = (   0.3750000   0.3608441  -0.1581114), wk =   0.0078125
        k(  178) = (   0.3750000   0.3608440  -0.0790558), wk =   0.0078125
        k(  179) = (   0.3749999   0.5051816  -0.0000002), wk =   0.0078125
        k(  180) = (   0.3749999   0.5051816   0.0790554), wk =   0.0078125
        k(  181) = (   0.3749999   0.5051816   0.1581110), wk =   0.0078125
        k(  182) = (   0.3749999   0.5051815   0.2371666), wk =   0.0078125
        k(  183) = (   0.3750000   0.5051817  -0.3162227), wk =   0.0078125
        k(  184) = (   0.3750000   0.5051817  -0.2371671), wk =   0.0078125
        k(  185) = (   0.3750000   0.5051817  -0.1581115), wk =   0.0078125
        k(  186) = (   0.3750000   0.5051817  -0.0790559), wk =   0.0078125
        k(  187) = (   0.3749999   0.6495192  -0.0000003), wk =   0.0078125
        k(  188) = (   0.3749999   0.6495192   0.0790553), wk =   0.0078125
        k(  189) = (   0.3749999   0.6495192   0.1581109), wk =   0.0078125
        k(  190) = (   0.3749999   0.6495192   0.2371665), wk =   0.0078125
        k(  191) = (   0.3750000   0.6495194  -0.3162227), wk =   0.0078125
        k(  192) = (   0.3750000   0.6495193  -0.2371671), wk =   0.0078125
        k(  193) = (   0.3750000   0.6495193  -0.1581115), wk =   0.0078125
        k(  194) = (   0.3749999   0.6495193  -0.0790559), wk =   0.0078125
        k(  195) = (   0.3750000  -0.3608441   0.0000000), wk =   0.0078125
        k(  196) = (   0.3750000  -0.3608441   0.0790557), wk =   0.0078125
        k(  197) = (   0.3750000  -0.3608442   0.1581113), wk =   0.0078125
        k(  198) = (   0.3750000  -0.3608442   0.2371669), wk =   0.0078125
        k(  199) = (   0.3750001  -0.3608440  -0.3162224), wk =   0.0078125
        k(  200) = (   0.3750001  -0.3608440  -0.2371668), wk =   0.0078125
        k(  201) = (   0.3750001  -0.3608440  -0.1581112), wk =   0.0078125
        k(  202) = (   0.3750001  -0.3608441  -0.0790556), wk =   0.0078125
        k(  203) = (   0.3750000  -0.2165065  -0.0000000), wk =   0.0078125
        k(  204) = (   0.3750000  -0.2165065   0.0790556), wk =   0.0078125
        k(  205) = (   0.3750000  -0.2165065   0.1581112), wk =   0.0078125
        k(  206) = (   0.3750000  -0.2165066   0.2371668), wk =   0.0078125
        k(  207) = (   0.3750001  -0.2165064  -0.3162225), wk =   0.0078125
        k(  208) = (   0.3750001  -0.2165064  -0.2371668), wk =   0.0078125
        k(  209) = (   0.3750001  -0.2165064  -0.1581112), wk =   0.0078125
        k(  210) = (   0.3750000  -0.2165064  -0.0790556), wk =   0.0078125
        k(  211) = (   0.3750000  -0.0721689  -0.0000000), wk =   0.0078125
        k(  212) = (   0.3750000  -0.0721689   0.0790556), wk =   0.0078125
        k(  213) = (   0.3750000  -0.0721689   0.1581112), wk =   0.0078125
        k(  214) = (   0.3750000  -0.0721689   0.2371668), wk =   0.0078125
        k(  215) = (   0.3750001  -0.0721687  -0.3162225), wk =   0.0078125
        k(  216) = (   0.3750001  -0.0721688  -0.2371669), wk =   0.0078125
        k(  217) = (   0.3750000  -0.0721688  -0.1581113), wk =   0.0078125
        k(  218) = (   0.3750000  -0.0721688  -0.0790557), wk =   0.0078125
        k(  219) = (   0.3750000   0.0721688  -0.0000001), wk =   0.0078125
        k(  220) = (   0.3750000   0.0721687   0.0790555), wk =   0.0078125
        k(  221) = (   0.3750000   0.0721687   0.1581111), wk =   0.0078125
        k(  222) = (   0.3749999   0.0721687   0.2371667), wk =   0.0078125
        k(  223) = (   0.3750001   0.0721689  -0.3162225), wk =   0.0078125
        k(  224) = (   0.3750000   0.0721689  -0.2371669), wk =   0.0078125
        k(  225) = (   0.3750000   0.0721688  -0.1581113), wk =   0.0078125
        k(  226) = (   0.3750000   0.0721688  -0.0790557), wk =   0.0078125
        k(  227) = (  -0.5000000  -0.2886752   0.0000002), wk =   0.0039062
        k(  228) = (  -0.5000000  -0.2886752   0.0790558), wk =   0.0078125
        k(  229) = (  -0.5000000  -0.2886752   0.1581114), wk =   0.0078125
        k(  230) = (  -0.5000000  -0.2886753   0.2371670), wk =   0.0078125
        k(  231) = (  -0.4999999  -0.2886751  -0.3162223), wk =   0.0039062
        k(  232) = (  -0.5000000  -0.1443376   0.0000001), wk =   0.0078125
        k(  233) = (  -0.5000000  -0.1443376   0.0790558), wk =   0.0078125
        k(  234) = (  -0.5000000  -0.1443376   0.1581114), wk =   0.0078125
        k(  235) = (  -0.5000000  -0.1443376   0.2371670), wk =   0.0078125
        k(  236) = (  -0.4999999  -0.1443374  -0.3162223), wk =   0.0078125
        k(  237) = (  -0.4999999  -0.1443375  -0.2371667), wk =   0.0078125
        k(  238) = (  -0.4999999  -0.1443375  -0.1581111), wk =   0.0078125
        k(  239) = (  -0.5000000  -0.1443375  -0.0790555), wk =   0.0078125
        k(  240) = (  -0.5000000   0.0000001   0.0000001), wk =   0.0078125
        k(  241) = (  -0.5000000   0.0000000   0.0790557), wk =   0.0078125
        k(  242) = (  -0.5000000   0.0000000   0.1581113), wk =   0.0078125
        k(  243) = (  -0.5000001  -0.0000000   0.2371669), wk =   0.0078125
        k(  244) = (  -0.4999999   0.0000002  -0.3162224), wk =   0.0078125
        k(  245) = (  -0.4999999   0.0000001  -0.2371667), wk =   0.0078125
        k(  246) = (  -0.5000000   0.0000001  -0.1581111), wk =   0.0078125
        k(  247) = (  -0.5000000   0.0000001  -0.0790555), wk =   0.0078125
        k(  248) = (  -0.5000000   0.1443377   0.0000001), wk =   0.0078125
        k(  249) = (  -0.5000000   0.1443377   0.0790557), wk =   0.0078125
        k(  250) = (  -0.5000001   0.1443376   0.1581113), wk =   0.0078125
        k(  251) = (  -0.5000001   0.1443376   0.2371669), wk =   0.0078125
        k(  252) = (  -0.4999999   0.1443378  -0.3162224), wk =   0.0078125
        k(  253) = (  -0.5000000   0.1443378  -0.2371668), wk =   0.0078125
        k(  254) = (  -0.5000000   0.1443377  -0.1581112), wk =   0.0078125
        k(  255) = (  -0.5000000   0.1443377  -0.0790556), wk =   0.0078125
        k(  256) = (  -0.4999999  -0.8660257   0.0000004), wk =   0.0039062
        k(  257) = (  -0.4999999  -0.8660257   0.0790560), wk =   0.0078125
        k(  258) = (  -0.4999999  -0.8660257   0.1581116), wk =   0.0078125
        k(  259) = (  -0.4999999  -0.8660257   0.2371672), wk =   0.0078125
        k(  260) = (  -0.4999998  -0.8660255  -0.3162221), wk =   0.0039062

                       cryst. coord.
        k(    1) = (   0.0000000   0.0000000   0.0000000), wk =   0.0039062
        k(    2) = (  -0.0000000  -0.0000000   0.1250000), wk =   0.0078125
        k(    3) = (  -0.0000000  -0.0000000   0.2500000), wk =   0.0078125
        k(    4) = (  -0.0000000  -0.0000000   0.3750000), wk =   0.0078125
        k(    5) = (   0.0000000   0.0000000  -0.5000000), wk =   0.0039062
        k(    6) = (  -0.0000000   0.1250000   0.0000000), wk =   0.0078125
        k(    7) = (   0.0000000   0.1250000   0.1250000), wk =   0.0078125
        k(    8) = (   0.0000000   0.1250000   0.2500000), wk =   0.0078125
        k(    9) = (   0.0000000   0.1250000   0.3750000), wk =   0.0078125
        k(   10) = (   0.0000000   0.1250000  -0.5000000), wk =   0.0078125
        k(   11) = (  -0.0000000   0.1250000  -0.3750000), wk =   0.0078125
        k(   12) = (  -0.0000000   0.1250000  -0.2500000), wk =   0.0078125
        k(   13) = (   0.0000000   0.1250000  -0.1250000), wk =   0.0078125
        k(   14) = (  -0.0000000   0.2500000   0.0000000), wk =   0.0078125
        k(   15) = (   0.0000000   0.2500000   0.1250000), wk =   0.0078125
        k(   16) = (   0.0000000   0.2500000   0.2500000), wk =   0.0078125
        k(   17) = (   0.0000000   0.2500000   0.3750000), wk =   0.0078125
        k(   18) = (  -0.0000000   0.2500000  -0.5000000), wk =   0.0078125
        k(   19) = (  -0.0000000   0.2500000  -0.3750000), wk =   0.0078125
        k(   20) = (   0.0000000   0.2500000  -0.2500000), wk =   0.0078125
        k(   21) = (  -0.0000000   0.2500000  -0.1250000), wk =   0.0078125
        k(   22) = (   0.0000000   0.3750000   0.0000000), wk =   0.0078125
        k(   23) = (   0.0000000   0.3750000   0.1250000), wk =   0.0078125
        k(   24) = (   0.0000000   0.3750000   0.2500000), wk =   0.0078125
        k(   25) = (   0.0000000   0.3750000   0.3750000), wk =   0.0078125
        k(   26) = (  -0.0000000   0.3750000  -0.5000000), wk =   0.0078125
        k(   27) = (  -0.0000000   0.3750000  -0.3750000), wk =   0.0078125
        k(   28) = (   0.0000000   0.3750000  -0.2500000), wk =   0.0078125
        k(   29) = (   0.0000000   0.3750000  -0.1250000), wk =   0.0078125
        k(   30) = (   0.0000000  -0.5000000  -0.0000000), wk =   0.0039062
        k(   31) = (   0.0000000  -0.5000000   0.1250000), wk =   0.0078125
        k(   32) = (   0.0000000  -0.5000000   0.2500000), wk =   0.0078125
        k(   33) = (   0.0000000  -0.5000000   0.3750000), wk =   0.0078125
        k(   34) = (  -0.0000000  -0.5000000  -0.5000000), wk =   0.0039062
        k(   35) = (   0.1250000  -0.0000000   0.0000000), wk =   0.0078125
        k(   36) = (   0.1250000   0.0000000   0.1250000), wk =   0.0078125
        k(   37) = (   0.1250000  -0.0000000   0.2500000), wk =   0.0078125
        k(   38) = (   0.1250000  -0.0000000   0.3750000), wk =   0.0078125
        k(   39) = (   0.1250000  -0.0000000  -0.5000000), wk =   0.0078125
        k(   40) = (   0.1250000  -0.0000000  -0.3750000), wk =   0.0078125
        k(   41) = (   0.1250000  -0.0000000  -0.2500000), wk =   0.0078125
        k(   42) = (   0.1250000  -0.0000000  -0.1250000), wk =   0.0078125
        k(   43) = (   0.1250000   0.1250000   0.0000000), wk =   0.0078125
        k(   44) = (   0.1250000   0.1250000   0.1250000), wk =   0.0078125
        k(   45) = (   0.1250000   0.1250000   0.2500000), wk =   0.0078125
        k(   46) = (   0.1250000   0.1250000   0.3750000), wk =   0.0078125
        k(   47) = (   0.1250000   0.1250000  -0.5000000), wk =   0.0078125
        k(   48) = (   0.1250000   0.1250000  -0.3750000), wk =   0.0078125
        k(   49) = (   0.1250000   0.1250000  -0.2500000), wk =   0.0078125
        k(   50) = (   0.1250000   0.1250000  -0.1250000), wk =   0.0078125
        k(   51) = (   0.1250000   0.2500000  -0.0000000), wk =   0.0078125
        k(   52) = (   0.1250000   0.2500000   0.1250000), wk =   0.0078125
        k(   53) = (   0.1250000   0.2500000   0.2500000), wk =   0.0078125
        k(   54) = (   0.1250000   0.2500000   0.3750000), wk =   0.0078125
        k(   55) = (   0.1250000   0.2500000  -0.5000000), wk =   0.0078125
        k(   56) = (   0.1250000   0.2500000  -0.3750000), wk =   0.0078125
        k(   57) = (   0.1250000   0.2500000  -0.2500000), wk =   0.0078125
        k(   58) = (   0.1250000   0.2500000  -0.1250000), wk =   0.0078125
        k(   59) = (   0.1250000   0.3750000   0.0000000), wk =   0.0078125
        k(   60) = (   0.1250000   0.3750000   0.1250000), wk =   0.0078125
        k(   61) = (   0.1250000   0.3750000   0.2500000), wk =   0.0078125
        k(   62) = (   0.1250000   0.3750000   0.3750000), wk =   0.0078125
        k(   63) = (   0.1250000   0.3750000  -0.5000000), wk =   0.0078125
        k(   64) = (   0.1250000   0.3750000  -0.3750000), wk =   0.0078125
        k(   65) = (   0.1250000   0.3750000  -0.2500000), wk =   0.0078125
        k(   66) = (   0.1250000   0.3750000  -0.1250000), wk =   0.0078125
        k(   67) = (   0.1250000  -0.5000000  -0.0000000), wk =   0.0078125
        k(   68) = (   0.1250000  -0.5000000   0.1250000), wk =   0.0078125
        k(   69) = (   0.1250000  -0.5000000   0.2500000), wk =   0.0078125
        k(   70) = (   0.1250000  -0.5000000   0.3750000), wk =   0.0078125
        k(   71) = (   0.1250000  -0.5000000  -0.5000000), wk =   0.0078125
        k(   72) = (   0.1250000  -0.5000000  -0.3750000), wk =   0.0078125
        k(   73) = (   0.1250000  -0.5000000  -0.2500000), wk =   0.0078125
        k(   74) = (   0.1250000  -0.5000000  -0.1250000), wk =   0.0078125
        k(   75) = (   0.1250000  -0.3750000  -0.0000000), wk =   0.0078125
        k(   76) = (   0.1250000  -0.3750000   0.1250000), wk =   0.0078125
        k(   77) = (   0.1250000  -0.3750000   0.2500000), wk =   0.0078125
        k(   78) = (   0.1250000  -0.3750000   0.3750000), wk =   0.0078125
        k(   79) = (   0.1250000  -0.3750000  -0.5000000), wk =   0.0078125
        k(   80) = (   0.1250000  -0.3750000  -0.3750000), wk =   0.0078125
        k(   81) = (   0.1250000  -0.3750000  -0.2500000), wk =   0.0078125
        k(   82) = (   0.1250000  -0.3750000  -0.1250000), wk =   0.0078125
        k(   83) = (   0.1250000  -0.2500000  -0.0000000), wk =   0.0078125
        k(   84) = (   0.1250000  -0.2500000   0.1250000), wk =   0.0078125
        k(   85) = (   0.1250000  -0.2500000   0.2500000), wk =   0.0078125
        k(   86) = (   0.1250000  -0.2500000   0.3750000), wk =   0.0078125
        k(   87) = (   0.1250000  -0.2500000  -0.5000000), wk =   0.0078125
        k(   88) = (   0.1250000  -0.2500000  -0.3750000), wk =   0.0078125
        k(   89) = (   0.1250000  -0.2500000  -0.2500000), wk =   0.0078125
        k(   90) = (   0.1250000  -0.2500000  -0.1250000), wk =   0.0078125
        k(   91) = (   0.1250000  -0.1250000  -0.0000000), wk =   0.0078125
        k(   92) = (   0.1250000  -0.1250000   0.1250000), wk =   0.0078125
        k(   93) = (   0.1250000  -0.1250000   0.2500000), wk =   0.0078125
        k(   94) = (   0.1250000  -0.1250000   0.3750000), wk =   0.0078125
        k(   95) = (   0.1250000  -0.1250000  -0.5000000), wk =   0.0078125
        k(   96) = (   0.1250000  -0.1250000  -0.3750000), wk =   0.0078125
        k(   97) = (   0.1250000  -0.1250000  -0.2500000), wk =   0.0078125
        k(   98) = (   0.1250000  -0.1250000  -0.1250000), wk =   0.0078125
        k(   99) = (   0.2500000  -0.0000000   0.0000000), wk =   0.0078125
        k(  100) = (   0.2500000  -0.0000000   0.1250000), wk =   0.0078125
        k(  101) = (   0.2500000   0.0000000   0.2500000), wk =   0.0078125
        k(  102) = (   0.2500000  -0.0000000   0.3750000), wk =   0.0078125
        k(  103) = (   0.2500000  -0.0000000  -0.5000000), wk =   0.0078125
        k(  104) = (   0.2500000   0.0000000  -0.3750000), wk =   0.0078125
        k(  105) = (   0.2500000  -0.0000000  -0.2500000), wk =   0.0078125
        k(  106) = (   0.2500000  -0.0000000  -0.1250000), wk =   0.0078125
        k(  107) = (   0.2500000   0.1250000   0.0000000), wk =   0.0078125
        k(  108) = (   0.2500000   0.1250000   0.1250000), wk =   0.0078125
        k(  109) = (   0.2500000   0.1250000   0.2500000), wk =   0.0078125
        k(  110) = (   0.2500000   0.1250000   0.3750000), wk =   0.0078125
        k(  111) = (   0.2500000   0.1250000  -0.5000000), wk =   0.0078125
        k(  112) = (   0.2500000   0.1250000  -0.3750000), wk =   0.0078125
        k(  113) = (   0.2500000   0.1250000  -0.2500000), wk =   0.0078125
        k(  114) = (   0.2500000   0.1250000  -0.1250000), wk =   0.0078125
        k(  115) = (   0.2500000   0.2500000   0.0000000), wk =   0.0078125
        k(  116) = (   0.2500000   0.2500000   0.1250000), wk =   0.0078125
        k(  117) = (   0.2500000   0.2500000   0.2500000), wk =   0.0078125
        k(  118) = (   0.2500000   0.2500000   0.3750000), wk =   0.0078125
        k(  119) = (   0.2500000   0.2500000  -0.5000000), wk =   0.0078125
        k(  120) = (   0.2500000   0.2500000  -0.3750000), wk =   0.0078125
        k(  121) = (   0.2500000   0.2500000  -0.2500000), wk =   0.0078125
        k(  122) = (   0.2500000   0.2500000  -0.1250000), wk =   0.0078125
        k(  123) = (   0.2500000   0.3750000  -0.0000000), wk =   0.0078125
        k(  124) = (   0.2500000   0.3750000   0.1250000), wk =   0.0078125
        k(  125) = (   0.2500000   0.3750000   0.2500000), wk =   0.0078125
        k(  126) = (   0.2500000   0.3750000   0.3750000), wk =   0.0078125
        k(  127) = (   0.2500000   0.3750000  -0.5000000), wk =   0.0078125
        k(  128) = (   0.2500000   0.3750000  -0.3750000), wk =   0.0078125
        k(  129) = (   0.2500000   0.3750000  -0.2500000), wk =   0.0078125
        k(  130) = (   0.2500000   0.3750000  -0.1250000), wk =   0.0078125
        k(  131) = (   0.2500000  -0.5000000  -0.0000000), wk =   0.0078125
        k(  132) = (   0.2500000  -0.5000000   0.1250000), wk =   0.0078125
        k(  133) = (   0.2500000  -0.5000000   0.2500000), wk =   0.0078125
        k(  134) = (   0.2500000  -0.5000000   0.3750000), wk =   0.0078125
        k(  135) = (   0.2500000  -0.5000000  -0.5000000), wk =   0.0078125
        k(  136) = (   0.2500000  -0.5000000  -0.3750000), wk =   0.0078125
        k(  137) = (   0.2500000  -0.5000000  -0.2500000), wk =   0.0078125
        k(  138) = (   0.2500000  -0.5000000  -0.1250000), wk =   0.0078125
        k(  139) = (   0.2500000  -0.3750000  -0.0000000), wk =   0.0078125
        k(  140) = (   0.2500000  -0.3750000   0.1250000), wk =   0.0078125
        k(  141) = (   0.2500000  -0.3750000   0.2500000), wk =   0.0078125
        k(  142) = (   0.2500000  -0.3750000   0.3750000), wk =   0.0078125
        k(  143) = (   0.2500000  -0.3750000  -0.5000000), wk =   0.0078125
        k(  144) = (   0.2500000  -0.3750000  -0.3750000), wk =   0.0078125
        k(  145) = (   0.2500000  -0.3750000  -0.2500000), wk =   0.0078125
        k(  146) = (   0.2500000  -0.3750000  -0.1250000), wk =   0.0078125
        k(  147) = (   0.2500000  -0.2500000  -0.0000000), wk =   0.0078125
        k(  148) = (   0.2500000  -0.2500000   0.1250000), wk =   0.0078125
        k(  149) = (   0.2500000  -0.2500000   0.2500000), wk =   0.0078125
        k(  150) = (   0.2500000  -0.2500000   0.3750000), wk =   0.0078125
        k(  151) = (   0.2500000  -0.2500000  -0.5000000), wk =   0.0078125
        k(  152) = (   0.2500000  -0.2500000  -0.3750000), wk =   0.0078125
        k(  153) = (   0.2500000  -0.2500000  -0.2500000), wk =   0.0078125
        k(  154) = (   0.2500000  -0.2500000  -0.1250000), wk =   0.0078125
        k(  155) = (   0.2500000  -0.1250000  -0.0000000), wk =   0.0078125
        k(  156) = (   0.2500000  -0.1250000   0.1250000), wk =   0.0078125
        k(  157) = (   0.2500000  -0.1250000   0.2500000), wk =   0.0078125
        k(  158) = (   0.2500000  -0.1250000   0.3750000), wk =   0.0078125
        k(  159) = (   0.2500000  -0.1250000  -0.5000000), wk =   0.0078125
        k(  160) = (   0.2500000  -0.1250000  -0.3750000), wk =   0.0078125
        k(  161) = (   0.2500000  -0.1250000  -0.2500000), wk =   0.0078125
        k(  162) = (   0.2500000  -0.1250000  -0.1250000), wk =   0.0078125
        k(  163) = (   0.3750000  -0.0000000   0.0000000), wk =   0.0078125
        k(  164) = (   0.3750000  -0.0000000   0.1250000), wk =   0.0078125
        k(  165) = (   0.3750000  -0.0000000   0.2500000), wk =   0.0078125
        k(  166) = (   0.3750000  -0.0000000   0.3750000), wk =   0.0078125
        k(  167) = (   0.3750000  -0.0000000  -0.5000000), wk =   0.0078125
        k(  168) = (   0.3750000   0.0000000  -0.3750000), wk =   0.0078125
        k(  169) = (   0.3750000  -0.0000000  -0.2500000), wk =   0.0078125
        k(  170) = (   0.3750000  -0.0000000  -0.1250000), wk =   0.0078125
        k(  171) = (   0.3750000   0.1250000   0.0000000), wk =   0.0078125
        k(  172) = (   0.3750000   0.1250000   0.1250000), wk =   0.0078125
        k(  173) = (   0.3750000   0.1250000   0.2500000), wk =   0.0078125
        k(  174) = (   0.3750000   0.1250000   0.3750000), wk =   0.0078125
        k(  175) = (   0.3750000   0.1250000  -0.5000000), wk =   0.0078125
        k(  176) = (   0.3750000   0.1250000  -0.3750000), wk =   0.0078125
        k(  177) = (   0.3750000   0.1250000  -0.2500000), wk =   0.0078125
        k(  178) = (   0.3750000   0.1250000  -0.1250000), wk =   0.0078125
        k(  179) = (   0.3750000   0.2500000   0.0000000), wk =   0.0078125
        k(  180) = (   0.3750000   0.2500000   0.1250000), wk =   0.0078125
        k(  181) = (   0.3750000   0.2500000   0.2500000), wk =   0.0078125
        k(  182) = (   0.3750000   0.2500000   0.3750000), wk =   0.0078125
        k(  183) = (   0.3750000   0.2500000  -0.5000000), wk =   0.0078125
        k(  184) = (   0.3750000   0.2500000  -0.3750000), wk =   0.0078125
        k(  185) = (   0.3750000   0.2500000  -0.2500000), wk =   0.0078125
        k(  186) = (   0.3750000   0.2500000  -0.1250000), wk =   0.0078125
        k(  187) = (   0.3750000   0.3750000   0.0000000), wk =   0.0078125
        k(  188) = (   0.3750000   0.3750000   0.1250000), wk =   0.0078125
        k(  189) = (   0.3750000   0.3750000   0.2500000), wk =   0.0078125
        k(  190) = (   0.3750000   0.3750000   0.3750000), wk =   0.0078125
        k(  191) = (   0.3750000   0.3750000  -0.5000000), wk =   0.0078125
        k(  192) = (   0.3750000   0.3750000  -0.3750000), wk =   0.0078125
        k(  193) = (   0.3750000   0.3750000  -0.2500000), wk =   0.0078125
        k(  194) = (   0.3750000   0.3750000  -0.1250000), wk =   0.0078125
        k(  195) = (   0.3750000  -0.5000000   0.0000000), wk =   0.0078125
        k(  196) = (   0.3750000  -0.5000000   0.1250000), wk =   0.0078125
        k(  197) = (   0.3750000  -0.5000000   0.2500000), wk =   0.0078125
        k(  198) = (   0.3750000  -0.5000000   0.3750000), wk =   0.0078125
        k(  199) = (   0.3750000  -0.5000000  -0.5000000), wk =   0.0078125
        k(  200) = (   0.3750000  -0.5000000  -0.3750000), wk =   0.0078125
        k(  201) = (   0.3750000  -0.5000000  -0.2500000), wk =   0.0078125
        k(  202) = (   0.3750000  -0.5000000  -0.1250000), wk =   0.0078125
        k(  203) = (   0.3750000  -0.3750000  -0.0000000), wk =   0.0078125
        k(  204) = (   0.3750000  -0.3750000   0.1250000), wk =   0.0078125
        k(  205) = (   0.3750000  -0.3750000   0.2500000), wk =   0.0078125
        k(  206) = (   0.3750000  -0.3750000   0.3750000), wk =   0.0078125
        k(  207) = (   0.3750000  -0.3750000  -0.5000000), wk =   0.0078125
        k(  208) = (   0.3750000  -0.3750000  -0.3750000), wk =   0.0078125
        k(  209) = (   0.3750000  -0.3750000  -0.2500000), wk =   0.0078125
        k(  210) = (   0.3750000  -0.3750000  -0.1250000), wk =   0.0078125
        k(  211) = (   0.3750000  -0.2500000   0.0000000), wk =   0.0078125
        k(  212) = (   0.3750000  -0.2500000   0.1250000), wk =   0.0078125
        k(  213) = (   0.3750000  -0.2500000   0.2500000), wk =   0.0078125
        k(  214) = (   0.3750000  -0.2500000   0.3750000), wk =   0.0078125
        k(  215) = (   0.3750000  -0.2500000  -0.5000000), wk =   0.0078125
        k(  216) = (   0.3750000  -0.2500000  -0.3750000), wk =   0.0078125
        k(  217) = (   0.3750000  -0.2500000  -0.2500000), wk =   0.0078125
        k(  218) = (   0.3750000  -0.2500000  -0.1250000), wk =   0.0078125
        k(  219) = (   0.3750000  -0.1250000   0.0000000), wk =   0.0078125
        k(  220) = (   0.3750000  -0.1250000   0.1250000), wk =   0.0078125
        k(  221) = (   0.3750000  -0.1250000   0.2500000), wk =   0.0078125
        k(  222) = (   0.3750000  -0.1250000   0.3750000), wk =   0.0078125
        k(  223) = (   0.3750000  -0.1250000  -0.5000000), wk =   0.0078125
        k(  224) = (   0.3750000  -0.1250000  -0.3750000), wk =   0.0078125
        k(  225) = (   0.3750000  -0.1250000  -0.2500000), wk =   0.0078125
        k(  226) = (   0.3750000  -0.1250000  -0.1250000), wk =   0.0078125
        k(  227) = (  -0.5000000   0.0000000  -0.0000000), wk =   0.0039062
        k(  228) = (  -0.5000000   0.0000000   0.1250000), wk =   0.0078125
        k(  229) = (  -0.5000000   0.0000000   0.2500000), wk =   0.0078125
        k(  230) = (  -0.5000000   0.0000000   0.3750000), wk =   0.0078125
        k(  231) = (  -0.5000000  -0.0000000  -0.5000000), wk =   0.0039062
        k(  232) = (  -0.5000000   0.1250000  -0.0000000), wk =   0.0078125
        k(  233) = (  -0.5000000   0.1250000   0.1250000), wk =   0.0078125
        k(  234) = (  -0.5000000   0.1250000   0.2500000), wk =   0.0078125
        k(  235) = (  -0.5000000   0.1250000   0.3750000), wk =   0.0078125
        k(  236) = (  -0.5000000   0.1250000  -0.5000000), wk =   0.0078125
        k(  237) = (  -0.5000000   0.1250000  -0.3750000), wk =   0.0078125
        k(  238) = (  -0.5000000   0.1250000  -0.2500000), wk =   0.0078125
        k(  239) = (  -0.5000000   0.1250000  -0.1250000), wk =   0.0078125
        k(  240) = (  -0.5000000   0.2500000   0.0000000), wk =   0.0078125
        k(  241) = (  -0.5000000   0.2500000   0.1250000), wk =   0.0078125
        k(  242) = (  -0.5000000   0.2500000   0.2500000), wk =   0.0078125
        k(  243) = (  -0.5000000   0.2500000   0.3750000), wk =   0.0078125
        k(  244) = (  -0.5000000   0.2500000  -0.5000000), wk =   0.0078125
        k(  245) = (  -0.5000000   0.2500000  -0.3750000), wk =   0.0078125
        k(  246) = (  -0.5000000   0.2500000  -0.2500000), wk =   0.0078125
        k(  247) = (  -0.5000000   0.2500000  -0.1250000), wk =   0.0078125
        k(  248) = (  -0.5000000   0.3750000   0.0000000), wk =   0.0078125
        k(  249) = (  -0.5000000   0.3750000   0.1250000), wk =   0.0078125
        k(  250) = (  -0.5000000   0.3750000   0.2500000), wk =   0.0078125
        k(  251) = (  -0.5000000   0.3750000   0.3750000), wk =   0.0078125
        k(  252) = (  -0.5000000   0.3750000  -0.5000000), wk =   0.0078125
        k(  253) = (  -0.5000000   0.3750000  -0.3750000), wk =   0.0078125
        k(  254) = (  -0.5000000   0.3750000  -0.2500000), wk =   0.0078125
        k(  255) = (  -0.5000000   0.3750000  -0.1250000), wk =   0.0078125
        k(  256) = (  -0.5000000  -0.5000000  -0.0000000), wk =   0.0039062
        k(  257) = (  -0.5000000  -0.5000000   0.1250000), wk =   0.0078125
        k(  258) = (  -0.5000000  -0.5000000   0.2500000), wk =   0.0078125
        k(  259) = (  -0.5000000  -0.5000000   0.3750000), wk =   0.0078125
        k(  260) = (  -0.5000000  -0.5000000  -0.5000000), wk =   0.0039062

     Dense  grid:    78957 G-vectors     FFT dimensions: (  48,  48,  75)

     Smooth grid:    30805 G-vectors     FFT dimensions: (  36,  36,  60)

     Dynamical RAM for                 wfc:       0.10 MB

     Dynamical RAM for     wfc (w. buffer):       6.28 MB

     Dynamical RAM for           str. fact:       0.15 MB

     Dynamical RAM for           local pot:       0.00 MB

     Dynamical RAM for          nlocal pot:       0.23 MB

     Dynamical RAM for                qrad:       3.85 MB

     Dynamical RAM for          rho,v,vnew:       0.49 MB

     Dynamical RAM for               rhoin:       0.16 MB

     Dynamical RAM for            rho*nmix:       1.20 MB

     Dynamical RAM for           G-vectors:       0.30 MB

     Dynamical RAM for          h,s,v(r/c):       0.12 MB

     Dynamical RAM for          <psi|beta>:       0.02 MB

     Dynamical RAM for                 psi:       0.38 MB

     Dynamical RAM for                hpsi:       0.38 MB

     Dynamical RAM for                spsi:       0.38 MB

     Dynamical RAM for      wfcinit/wfcrot:       0.28 MB

     Dynamical RAM for           addusdens:       3.59 MB

     Dynamical RAM for          addusforce:       3.74 MB

     Dynamical RAM for         addusstress:       3.81 MB

     Estimated static dynamical RAM per process >      13.33 MB

     Estimated max dynamical RAM per process >      17.14 MB

     Estimated total dynamical RAM >       1.07 GB

     Check: negative core charge=   -0.000003

     Initial potential from superposition of free atoms

     starting charge   51.99974, renormalised to   52.00000
     Starting wfcs are   34 randomized atomic wfcs

     total cpu time spent up to now is        1.1 secs

     Self-consistent Calculation

     iteration #  1     ecut=    80.00 Ry     beta= 0.50
     Davidson diagonalization with overlap
     ethr =  1.00E-02,  avg # of iterations =  1.0

     total cpu time spent up to now is        1.9 secs

     total energy              =    -986.76773845 Ry
     Harris-Foulkes estimate   =    -987.28871010 Ry
     estimated scf accuracy    <       0.81994569 Ry

     iteration #  2     ecut=    80.00 Ry     beta= 0.50
     Davidson diagonalization with overlap
     ethr =  1.58E-03,  avg # of iterations =  3.0

     total cpu time spent up to now is        3.3 secs

     total energy              =    -987.00889589 Ry
     Harris-Foulkes estimate   =    -987.17767275 Ry
     estimated scf accuracy    <       0.39022888 Ry

     iteration #  3     ecut=    80.00 Ry     beta= 0.50
     Davidson diagonalization with overlap
     ethr =  7.50E-04,  avg # of iterations =  2.0

     total cpu time spent up to now is        4.5 secs

     total energy              =    -987.07907486 Ry
     Harris-Foulkes estimate   =    -987.08136490 Ry
     estimated scf accuracy    <       0.00683698 Ry

     iteration #  4     ecut=    80.00 Ry     beta= 0.50
     Davidson diagonalization with overlap
     ethr =  1.31E-05,  avg # of iterations =  2.0

     total cpu time spent up to now is        5.6 secs

     total energy              =    -987.07965624 Ry
     Harris-Foulkes estimate   =    -987.08011542 Ry
     estimated scf accuracy    <       0.00154949 Ry

     iteration #  5     ecut=    80.00 Ry     beta= 0.50
     Davidson diagonalization with overlap
     ethr =  2.98E-06,  avg # of iterations =  2.0

     total cpu time spent up to now is        6.8 secs

     total energy              =    -987.07981887 Ry
     Harris-Foulkes estimate   =    -987.07982906 Ry
     estimated scf accuracy    <       0.00001970 Ry

     iteration #  6     ecut=    80.00 Ry     beta= 0.50
     Davidson diagonalization with overlap
     ethr =  3.79E-08,  avg # of iterations =  2.0

     total cpu time spent up to now is        8.0 secs

     total energy              =    -987.07982194 Ry
     Harris-Foulkes estimate   =    -987.07982129 Ry
     estimated scf accuracy    <       0.00000402 Ry

     iteration #  7     ecut=    80.00 Ry     beta= 0.50
     Davidson diagonalization with overlap
     ethr =  7.73E-09,  avg # of iterations =  2.0

     total cpu time spent up to now is        9.0 secs

     End of self-consistent calculation

          k = 0.0000 0.0000 0.0000 (  3861 PWs)   bands (ev):

  -114.3143-114.3139 -68.6846 -68.6810 -68.6675 -68.6675 -68.6667 -68.6667
    -9.2617  -8.4733   2.9872   2.9872   3.1363   3.1483   3.1483   3.1826
     4.2295   4.2295   4.4555   4.4555   4.7734   8.0135   8.0135   8.6610
     8.7907   8.7907

     occupation numbers 
     1.0000   1.0000   1.0000   1.0000   1.0000   1.0000   1.0000   1.0000
     1.0000   1.0000   1.0000   1.0000   1.0000   1.0000   1.0000   1.0000
     1.0000   1.0000   1.0000   1.0000   1.0000   1.0000   1.0000   1.0000
     1.0000   1.0000

          k =-0.0000-0.0000 0.0791 (  3879 PWs)   bands (ev):

  -114.3143-114.3139 -68.6845 -68.6812 -68.6675 -68.6675 -68.6668 -68.6668
    -9.2334  -8.5050   2.9895   2.9895   3.0636   3.1380   3.1380   3.1478
     4.2417   4.2417   4.4509   4.4509   4.9577   8.0437   8.0437   8.2978
     8.7620   8.7620

     occupation numbers 
     1.0000   1.0000   1.0000   1.0000   1.0000   1.0000   1.0000   1.0000
     1.0000   1.0000   1.0000   1.0000   1.0000   1.0000   1.0000   1.0000
     1.0000   1.0000   1.0000   1.0000   1.0000   1.0000   1.0000   1.0000
     1.0000   1.0000

          k =-0.0000-0.0000 0.1581 (  3886 PWs)   bands (ev):

  -114.3143-114.3139 -68.6841 -68.6816 -68.6675 -68.6675 -68.6669 -68.6669
    -9.1519  -8.5945   2.9368   2.9977   2.9977   3.0579   3.1107   3.1107
     4.2749   4.2749   4.4357   4.4357   5.4045   7.7293   8.1296   8.1296
     8.6799   8.6799

     occupation numbers 
     1.0000   1.0000   1.0000   1.0000   1.0000   1.0000   1.0000   1.0000
     1.0000   1.0000   1.0000   1.0000   1.0000   1.0000   1.0000   1.0000
     1.0000   1.0000   1.0000   1.0000   1.0000   1.0000   1.0000   1.0000
     1.0000   1.0000

          k =-0.0000-0.0000 0.2372 (  3826 PWs)   bands (ev):

  -114.3143-114.3139 -68.6835 -68.6821 -68.6673 -68.6673 -68.6669 -68.6669
    -9.0280  -8.7264   2.8632   2.9510   3.0144   3.0144   3.0752   3.0752
     4.3204   4.3204   4.4078   4.4078   5.9661   7.1487   8.2577   8.2577
     8.5557   8.5557

     occupation numbers 
     1.0000   1.0000   1.0000   1.0000   1.0000   1.0000   1.0000   1.0000
     1.0000   1.0000   1.0000   1.0000   1.0000   1.0000   1.0000   1.0000
     1.0000   1.0000   1.0000   1.0000   1.0000   1.0000   1.0000   1.0000
     1.0000   1.0000

          k = 0.0000 0.0000-0.3162 (  3796 PWs)   bands (ev):

  -114.3143-114.3139 -68.6829 -68.6826 -68.6672 -68.6672 -68.6669 -68.6669
    -8.8791  -8.8786   2.8731   2.8733   3.0409   3.0409   3.0409   3.0410
     4.3676   4.3676   4.3678   4.3678   6.5594   6.5596   8.4074   8.4074
     8.4077   8.4077

     occupation numbers 
     1.0000   1.0000   1.0000   1.0000   1.0000   1.0000   1.0000   1.0000
     1.0000   1.0000   1.0000   1.0000   1.0000   1.0000   1.0000   1.0000
     1.0000   1.0000   1.0000   1.0000   1.0000   1.0000   1.0000   1.0000
     1.0000   1.0000

          k =-0.0000 0.1443-0.0000 (  3857 PWs)   bands (ev):

  -114.3143-114.3139 -68.6844 -68.6811 -68.6678 -68.6676 -68.6671 -68.6668
    -9.1731  -8.4357   2.8946   3.0434   3.1284   3.2212   3.2288   3.2576
     4.1934   4.2235   4.4638   4.5420   4.7543   7.4473   7.7945   7.9732
     8.5615   8.6654

     occupation numbers 
     1.0000   1.0000   1.0000   1.0000   1.0000   1.0000   1.0000   1.0000
     1.0000   1.0000   1.0000   1.0000   1.0000   1.0000   1.0000   1.0000
     1.0000   1.0000   1.0000   1.0000   1.0000   1.0000   1.0000   1.0000
     1.0000   1.0000

          k =-0.0000 0.1443 0.0791 (  3850 PWs)   bands (ev):

  -114.3143-114.3139 -68.6843 -68.6813 -68.6678 -68.6676 -68.6671 -68.6668
    -9.1463  -8.4650   2.8842   3.0464   3.0590   3.2038   3.2102   3.2313
     4.2101   4.2357   4.4579   4.5047   4.9776   7.4767   7.8286   7.8287
     8.5447   8.6333

     occupation numbers 
     1.0000   1.0000   1.0000   1.0000   1.0000   1.0000   1.0000   1.0000
     1.0000   1.0000   1.0000   1.0000   1.0000   1.0000   1.0000   1.0000
     1.0000   1.0000   1.0000   1.0000   1.0000   1.0000   1.0000   1.0000
     1.0000   1.0000

          k =-0.0000 0.1443 0.1581 (  3847 PWs)   bands (ev):

  -114.3143-114.3139 -68.6839 -68.6816 -68.6677 -68.6675 -68.6672 -68.6669
    -9.0692  -8.5477   2.8484   2.9147   3.0565   3.1597   3.1811   3.1912
     4.2541   4.2690   4.4395   4.4668   5.4488   7.4174   7.6563   7.9256
     8.4419   8.5416

     occupation numbers 
     1.0000   1.0000   1.0000   1.0000   1.0000   1.0000   1.0000   1.0000
     1.0000   1.0000   1.0000   1.0000   1.0000   1.0000   1.0000   1.0000
     1.0000   1.0000   1.0000   1.0000   1.0000   1.0000   1.0000   1.0000
     1.0000   1.0000

          k =-0.0000 0.1443 0.2372 (  3842 PWs)   bands (ev):

  -114.3143-114.3139 -68.6834 -68.6821 -68.6676 -68.6674 -68.6672 -68.6670
    -8.9525  -8.6703   2.7905   2.8160   3.0759   3.1306   3.1430   3.1557
     4.3124   4.3153   4.4078   4.4251   5.9997   7.0225   7.8015   8.0694
     8.2496   8.4028

     occupation numbers 
     1.0000   1.0000   1.0000   1.0000   1.0000   1.0000   1.0000   1.0000
     1.0000   1.0000   1.0000   1.0000   1.0000   1.0000   1.0000   1.0000
     1.0000   1.0000   1.0000   1.0000   1.0000   1.0000   1.0000   1.0000
     1.0000   1.0000

          k = 0.0000 0.1443-0.3162 (  3850 PWs)   bands (ev):

  -114.3143-114.3139 -68.6829 -68.6826 -68.6676 -68.6674 -68.6673 -68.6670
    -8.8128  -8.8123   2.7728   2.7729   3.1056   3.1056   3.1317   3.1318
     4.3644   4.3646   4.3723   4.3726   6.5390   6.5392   8.0184   8.0186
     8.2370   8.2373

     occupation numbers 
     1.0000   1.0000   1.0000   1.0000   1.0000   1.0000   1.0000   1.0000
     1.0000   1.0000   1.0000   1.0000   1.0000   1.0000   1.0000   1.0000
     1.0000   1.0000   1.0000   1.0000   1.0000   1.0000   1.0000   1.0000
     1.0000   1.0000

          k = 0.0000 0.1443-0.2372 (  3842 PWs)   bands (ev):

  -114.3143-114.3139 -68.6834 -68.6821 -68.6676 -68.6674 -68.6672 -68.6670
    -8.9525  -8.6703   2.7904   2.8161   3.0759   3.1305   3.1430   3.1557
     4.3124   4.3153   4.4078   4.4251   5.9997   7.0225   7.8015   8.0694
     8.2497   8.4029

     occupation numbers 
     1.0000   1.0000   1.0000   1.0000   1.0000   1.0000   1.0000   1.0000
     1.0000   1.0000   1.0000   1.0000   1.0000   1.0000   1.0000   1.0000
     1.0000   1.0000   1.0000   1.0000   1.0000   1.0000   1.0000   1.0000
     1.0000   1.0000

          k = 0.0000 0.1443-0.1581 (  3847 PWs)   bands (ev):

  -114.3143-114.3139 -68.6839 -68.6816 -68.6677 -68.6675 -68.6672 -68.6669
    -9.0692  -8.5477   2.8484   2.9147   3.0565   3.1596   3.1811   3.1913
     4.2541   4.2690   4.4395   4.4668   5.4488   7.4175   7.6562   7.9255
     8.4419   8.5416

     occupation numbers 
     1.0000   1.0000   1.0000   1.0000   1.0000   1.0000   1.0000   1.0000
     1.0000   1.0000   1.0000   1.0000   1.0000   1.0000   1.0000   1.0000
     1.0000   1.0000   1.0000   1.0000   1.0000   1.0000   1.0000   1.0000
     1.0000   1.0000

          k =-0.0000 0.1443-0.0791 (  3850 PWs)   bands (ev):

  -114.3143-114.3139 -68.6843 -68.6813 -68.6678 -68.6676 -68.6671 -68.6668
    -9.1463  -8.4650   2.8842   3.0464   3.0590   3.2037   3.2102   3.2314
     4.2101   4.2357   4.4579   4.5047   4.9776   7.4767   7.8285   7.8287
     8.5447   8.6333

     occupation numbers 
     1.0000   1.0000   1.0000   1.0000   1.0000   1.0000   1.0000   1.0000
     1.0000   1.0000   1.0000   1.0000   1.0000   1.0000   1.0000   1.0000
     1.0000   1.0000   1.0000   1.0000   1.0000   1.0000   1.0000   1.0000
     1.0000   1.0000

          k =-0.0000 0.2887-0.0000 (  3847 PWs)   bands (ev):

  -114.3143-114.3139 -68.6840 -68.6814 -68.6685 -68.6679 -68.6678 -68.6670
    -8.9438  -8.3528   2.7325   3.0795   3.1716   3.3643   3.4190   3.5677
     4.1131   4.2415   4.4795   4.6947   4.7966   6.2836   7.0306   7.2657
     8.2573   8.3447

     occupation numbers 
     1.0000   1.0000   1.0000   1.0000   1.0000   1.0000   1.0000   1.0000
     1.0000   1.0000   1.0000   1.0000   1.0000   1.0000   1.0000   1.0000
     1.0000   1.0000   1.0000   1.0000   1.0000   1.0000   1.0000   1.0000
     1.0000   1.0000

          k =-0.0000 0.2887 0.0791 (  3848 PWs)   bands (ev):

  -114.3143-114.3139 -68.6839 -68.6815 -68.6685 -68.6679 -68.6678 -68.6670
    -8.9215  -8.3752   2.7165   3.0170   3.1775   3.3410   3.4054   3.4932
     4.1466   4.2517   4.4714   4.6009   5.0786   6.3345   6.9688   7.3094
     8.2554   8.3055

     occupation numbers 
     1.0000   1.0000   1.0000   1.0000   1.0000   1.0000   1.0000   1.0000
     1.0000   1.0000   1.0000   1.0000   1.0000   1.0000   1.0000   1.0000
     1.0000   1.0000   1.0000   1.0000   1.0000   1.0000   1.0000   1.0000
     1.0000   1.0000

          k =-0.0000 0.2887 0.1581 (  3837 PWs)   bands (ev):

  -114.3143-114.3139 -68.6836 -68.6818 -68.6684 -68.6679 -68.6677 -68.6671
    -8.8577  -8.4393   2.6755   2.8621   3.1956   3.2990   3.3688   3.3925
     4.2205   4.2801   4.4479   4.5357   5.5231   6.4541   6.8804   7.4323
     8.1761   8.1934

     occupation numbers 
     1.0000   1.0000   1.0000   1.0000   1.0000   1.0000   1.0000   1.0000
     1.0000   1.0000   1.0000   1.0000   1.0000   1.0000   1.0000   1.0000
     1.0000   1.0000   1.0000   1.0000   1.0000   1.0000   1.0000   1.0000
     1.0000   1.0000

          k =-0.0000 0.2887 0.2372 (  3847 PWs)   bands (ev):

  -114.3142-114.3139 -68.6833 -68.6822 -68.6683 -68.6680 -68.6676 -68.6672
    -8.7619  -8.5353   2.6359   2.7155   3.2266   3.2773   3.3196   3.3256
     4.3080   4.3211   4.4117   4.4709   5.9157   6.4113   7.0828   7.6125
     7.9262   8.0237

     occupation numbers 
     1.0000   1.0000   1.0000   1.0000   1.0000   1.0000   1.0000   1.0000
     1.0000   1.0000   1.0000   1.0000   1.0000   1.0000   1.0000   1.0000
     1.0000   1.0000   1.0000   1.0000   1.0000   1.0000   1.0000   1.0000
     1.0000   1.0000

          k = 0.0000 0.2887-0.3162 (  3846 PWs)   bands (ev):

  -114.3142-114.3139 -68.6829 -68.6826 -68.6683 -68.6680 -68.6676 -68.6673
    -8.6489  -8.6484   2.6391   2.6392   3.2694   3.2694   3.2867   3.2868
     4.3673   4.3675   4.3942   4.3944   6.2027   6.2028   7.5199   7.5200
     7.8201   7.8204

     occupation numbers 
     1.0000   1.0000   1.0000   1.0000   1.0000   1.0000   1.0000   1.0000
     1.0000   1.0000   1.0000   1.0000   1.0000   1.0000   1.0000   1.0000
     1.0000   1.0000   1.0000   1.0000   1.0000   1.0000   1.0000   1.0000
     1.0000   1.0000

          k = 0.0000 0.2887-0.2372 (  3847 PWs)   bands (ev):

  -114.3142-114.3139 -68.6833 -68.6822 -68.6683 -68.6680 -68.6676 -68.6672
    -8.7619  -8.5353   2.6359   2.7155   3.2266   3.2771   3.3196   3.3257
     4.3080   4.3211   4.4117   4.4709   5.9157   6.4114   7.0828   7.6125
     7.9263   8.0237

     occupation numbers 
     1.0000   1.0000   1.0000   1.0000   1.0000   1.0000   1.0000   1.0000
     1.0000   1.0000   1.0000   1.0000   1.0000   1.0000   1.0000   1.0000
     1.0000   1.0000   1.0000   1.0000   1.0000   1.0000   1.0000   1.0000
     1.0000   1.0000

          k =-0.0000 0.2887-0.1581 (  3837 PWs)   bands (ev):

  -114.3143-114.3139 -68.6836 -68.6818 -68.6684 -68.6679 -68.6677 -68.6671
    -8.8577  -8.4393   2.6755   2.8621   3.1956   3.2988   3.3688   3.3926
     4.2205   4.2801   4.4479   4.5356   5.5231   6.4543   6.8803   7.4323
     8.1761   8.1934

     occupation numbers 
     1.0000   1.0000   1.0000   1.0000   1.0000   1.0000   1.0000   1.0000
     1.0000   1.0000   1.0000   1.0000   1.0000   1.0000   1.0000   1.0000
     1.0000   1.0000   1.0000   1.0000   1.0000   1.0000   1.0000   1.0000
     1.0000   1.0000

          k =-0.0000 0.2887-0.0791 (  3848 PWs)   bands (ev):

  -114.3143-114.3139 -68.6839 -68.6815 -68.6685 -68.6679 -68.6678 -68.6670
    -8.9215  -8.3752   2.7165   3.0170   3.1775   3.3409   3.4054   3.4933
     4.1467   4.2517   4.4714   4.6009   5.0786   6.3345   6.9688   7.3094
     8.2554   8.3055

     occupation numbers 
     1.0000   1.0000   1.0000   1.0000   1.0000   1.0000   1.0000   1.0000
     1.0000   1.0000   1.0000   1.0000   1.0000   1.0000   1.0000   1.0000
     1.0000   1.0000   1.0000   1.0000   1.0000   1.0000   1.0000   1.0000
     1.0000   1.0000

          k =-0.0000 0.4330-0.0000 (  3853 PWs)   bands (ev):

  -114.3142-114.3139 -68.6835 -68.6818 -68.6692 -68.6687 -68.6681 -68.6672
    -8.6774  -8.2953   2.6964   3.0116   3.2763   3.5388   3.6639   3.8331
     4.1547   4.3240   4.4956   4.6826   4.9090   5.4543   6.1989   6.7045
     7.8084   7.9978

     occupation numbers 
     1.0000   1.0000   1.0000   1.0000   1.0000   1.0000   1.0000   1.0000
     1.0000   1.0000   1.0000   1.0000   1.0000   1.0000   1.0000   1.0000
     1.0000   1.0000   1.0000   1.0000   1.0000   1.0000   1.0000   1.0000
     1.0000   1.0000

          k =-0.0000 0.4330 0.0791 (  3845 PWs)   bands (ev):

  -114.3142-114.3139 -68.6834 -68.6818 -68.6692 -68.6687 -68.6681 -68.6672
    -8.6618  -8.3086   2.6741   2.9522   3.2873   3.5100   3.6444   3.7541
     4.1872   4.3293   4.4861   4.6517   5.0084   5.5462   6.2315   6.7602
     7.8499   7.9522

     occupation numbers 
     1.0000   1.0000   1.0000   1.0000   1.0000   1.0000   1.0000   1.0000
     1.0000   1.0000   1.0000   1.0000   1.0000   1.0000   1.0000   1.0000
     1.0000   1.0000   1.0000   1.0000   1.0000   1.0000   1.0000   1.0000
     1.0000   1.0000

          k =-0.0000 0.4330 0.1581 (  3857 PWs)   bands (ev):

  -114.3142-114.3139 -68.6833 -68.6820 -68.6692 -68.6687 -68.6680 -68.6673
    -8.6178  -8.3471   2.6202   2.8058   3.3199   3.4648   3.5915   3.6262
     4.2656   4.3444   4.4617   4.5952   5.1597   5.6322   6.4858   6.9142
     7.8215   7.8924

     occupation numbers 
     1.0000   1.0000   1.0000   1.0000   1.0000   1.0000   1.0000   1.0000
     1.0000   1.0000   1.0000   1.0000   1.0000   1.0000   1.0000   1.0000
     1.0000   1.0000   1.0000   1.0000   1.0000   1.0000   1.0000   1.0000
     1.0000   1.0000

          k =-0.0000 0.4330 0.2372 (  3848 PWs)   bands (ev):

  -114.3142-114.3139 -68.6831 -68.6823 -68.6691 -68.6687 -68.6679 -68.6674
    -8.5531  -8.4063   2.5721   2.6583   3.3726   3.4493   3.5186   3.5302
     4.3574   4.3679   4.4300   4.5261   5.3017   5.5635   6.9763   7.1346
     7.6231   7.7861

     occupation numbers 
     1.0000   1.0000   1.0000   1.0000   1.0000   1.0000   1.0000   1.0000
     1.0000   1.0000   1.0000   1.0000   1.0000   1.0000   1.0000   1.0000
     1.0000   1.0000   1.0000   1.0000   1.0000   1.0000   1.0000   1.0000
     1.0000   1.0000

          k = 0.0000 0.4330-0.3162 (  3864 PWs)   bands (ev):

  -114.3142-114.3139 -68.6829 -68.6826 -68.6691 -68.6687 -68.6678 -68.6675
    -8.4788  -8.4783   2.5759   2.5760   3.4414   3.4415   3.4714   3.4716
     4.3973   4.3975   4.4461   4.4462   5.4390   5.4391   7.3830   7.3833
     7.4616   7.4618

     occupation numbers 
     1.0000   1.0000   1.0000   1.0000   1.0000   1.0000   1.0000   1.0000
     1.0000   1.0000   1.0000   1.0000   1.0000   1.0000   1.0000   1.0000
     1.0000   1.0000   1.0000   1.0000   1.0000   1.0000   1.0000   1.0000
     1.0000   1.0000

          k =-0.0000 0.4330-0.2372 (  3848 PWs)   bands (ev):

  -114.3142-114.3139 -68.6831 -68.6823 -68.6691 -68.6687 -68.6679 -68.6674
    -8.5531  -8.4063   2.5722   2.6583   3.3726   3.4492   3.5186   3.5303
     4.3575   4.3679   4.4300   4.5260   5.3016   5.5636   6.9762   7.1346
     7.6231   7.7861

     occupation numbers 
     1.0000   1.0000   1.0000   1.0000   1.0000   1.0000   1.0000   1.0000
     1.0000   1.0000   1.0000   1.0000   1.0000   1.0000   1.0000   1.0000
     1.0000   1.0000   1.0000   1.0000   1.0000   1.0000   1.0000   1.0000
     1.0000   1.0000

          k =-0.0000 0.4330-0.1581 (  3857 PWs)   bands (ev):

  -114.3142-114.3139 -68.6833 -68.6820 -68.6692 -68.6687 -68.6680 -68.6673
    -8.6178  -8.3471   2.6202   2.8057   3.3199   3.4647   3.5915   3.6263
     4.2657   4.3444   4.4616   4.5951   5.1596   5.6323   6.4857   6.9142
     7.8216   7.8924

     occupation numbers 
     1.0000   1.0000   1.0000   1.0000   1.0000   1.0000   1.0000   1.0000
     1.0000   1.0000   1.0000   1.0000   1.0000   1.0000   1.0000   1.0000
     1.0000   1.0000   1.0000   1.0000   1.0000   1.0000   1.0000   1.0000
     1.0000   1.0000

          k =-0.0000 0.4330-0.0791 (  3845 PWs)   bands (ev):

  -114.3142-114.3139 -68.6834 -68.6818 -68.6692 -68.6687 -68.6681 -68.6672
    -8.6618  -8.3086   2.6741   2.9521   3.2873   3.5099   3.6444   3.7541
     4.1873   4.3293   4.4861   4.6516   5.0084   5.5463   6.2314   6.7602
     7.8500   7.9522

     occupation numbers 
     1.0000   1.0000   1.0000   1.0000   1.0000   1.0000   1.0000   1.0000
     1.0000   1.0000   1.0000   1.0000   1.0000   1.0000   1.0000   1.0000
     1.0000   1.0000   1.0000   1.0000   1.0000   1.0000   1.0000   1.0000
     1.0000   1.0000

          k = 0.0000-0.5774 0.0000 (  3864 PWs)   bands (ev):

  -114.3142-114.3138 -68.6832 -68.6820 -68.6696 -68.6690 -68.6682 -68.6672
    -8.5390  -8.2958   2.7864   2.9226   3.3097   3.6473   3.7847   3.8259
     4.2888   4.3891   4.5041   4.5620   5.0601   5.0814   5.9622   6.4473
     7.5323   7.8445

     occupation numbers 
     1.0000   1.0000   1.0000   1.0000   1.0000   1.0000   1.0000   1.0000
     1.0000   1.0000   1.0000   1.0000   1.0000   1.0000   1.0000   1.0000
     1.0000   1.0000   1.0000   1.0000   1.0000   1.0000   1.0000   1.0000
     1.0000   1.0000

          k = 0.0000-0.5774 0.0791 (  3862 PWs)   bands (ev):

  -114.3142-114.3138 -68.6832 -68.6821 -68.6695 -68.6690 -68.6682 -68.6673
    -8.5282  -8.3033   2.7554   2.8673   3.3234   3.6167   3.7611   3.7922
     4.3286   4.3913   4.4940   4.5631   5.0451   5.0504   6.1482   6.5102
     7.5945   7.7963

     occupation numbers 
     1.0000   1.0000   1.0000   1.0000   1.0000   1.0000   1.0000   1.0000
     1.0000   1.0000   1.0000   1.0000   1.0000   1.0000   1.0000   1.0000
     1.0000   1.0000   1.0000   1.0000   1.0000   1.0000   1.0000   1.0000
     1.0000   1.0000

          k = 0.0000-0.5774 0.1581 (  3874 PWs)   bands (ev):

  -114.3142-114.3139 -68.6831 -68.6822 -68.6695 -68.6690 -68.6681 -68.6674
    -8.4980  -8.3256   2.6783   2.7387   3.3637   3.5755   3.6966   3.7166
     4.3979   4.4045   4.4706   4.5614   4.9967   5.0280   6.5807   6.6817
     7.6579   7.7049

     occupation numbers 
     1.0000   1.0000   1.0000   1.0000   1.0000   1.0000   1.0000   1.0000
     1.0000   1.0000   1.0000   1.0000   1.0000   1.0000   1.0000   1.0000
     1.0000   1.0000   1.0000   1.0000   1.0000   1.0000   1.0000   1.0000
     1.0000   1.0000

          k = 0.0000-0.5774 0.2372 (  3860 PWs)   bands (ev):

  -114.3142-114.3139 -68.6830 -68.6824 -68.6694 -68.6690 -68.6679 -68.6675
    -8.4546  -8.3611   2.5993   2.6196   3.4285   3.5655   3.6075   3.6413
     4.4089   4.4455   4.4723   4.5492   4.9775   5.0029   6.9229   7.0764
     7.4472   7.7046

     occupation numbers 
     1.0000   1.0000   1.0000   1.0000   1.0000   1.0000   1.0000   1.0000
     1.0000   1.0000   1.0000   1.0000   1.0000   1.0000   1.0000   1.0000
     1.0000   1.0000   1.0000   1.0000   1.0000   1.0000   1.0000   1.0000
     1.0000   1.0000

          k = 0.0000-0.5774-0.3162 (  3852 PWs)   bands (ev):

  -114.3142-114.3139 -68.6828 -68.6825 -68.6694 -68.6690 -68.6679 -68.6675
    -8.4065  -8.4059   2.5696   2.5697   3.5129   3.5130   3.5885   3.5888
     4.4245   4.4248   4.5205   4.5207   4.9831   4.9833   7.1909   7.1912
     7.4877   7.4880

     occupation numbers 
     1.0000   1.0000   1.0000   1.0000   1.0000   1.0000   1.0000   1.0000
     1.0000   1.0000   1.0000   1.0000   1.0000   1.0000   1.0000   1.0000
     1.0000   1.0000   1.0000   1.0000   1.0000   1.0000   1.0000   1.0000
     1.0000   1.0000

          k = 0.1250 0.0722-0.0000 (  3857 PWs)   bands (ev):

  -114.3143-114.3139 -68.6844 -68.6811 -68.6678 -68.6676 -68.6671 -68.6668
    -9.1731  -8.4357   2.8946   3.0434   3.1284   3.2212   3.2288   3.2576
     4.1934   4.2235   4.4638   4.5420   4.7543   7.4473   7.7945   7.9732
     8.5615   8.6654

     occupation numbers 
     1.0000   1.0000   1.0000   1.0000   1.0000   1.0000   1.0000   1.0000
     1.0000   1.0000   1.0000   1.0000   1.0000   1.0000   1.0000   1.0000
     1.0000   1.0000   1.0000   1.0000   1.0000   1.0000   1.0000   1.0000
     1.0000   1.0000

          k = 0.1250 0.0722 0.0791 (  3850 PWs)   bands (ev):

  -114.3143-114.3139 -68.6843 -68.6813 -68.6678 -68.6676 -68.6671 -68.6668
    -9.1463  -8.4650   2.8842   3.0464   3.0590   3.2037   3.2102   3.2314
     4.2101   4.2357   4.4579   4.5047   4.9776   7.4767   7.8285   7.8287
     8.5447   8.6333

     occupation numbers 
     1.0000   1.0000   1.0000   1.0000   1.0000   1.0000   1.0000   1.0000
     1.0000   1.0000   1.0000   1.0000   1.0000   1.0000   1.0000   1.0000
     1.0000   1.0000   1.0000   1.0000   1.0000   1.0000   1.0000   1.0000
     1.0000   1.0000

          k = 0.1250 0.0722 0.1581 (  3847 PWs)   bands (ev):

  -114.3143-114.3139 -68.6839 -68.6816 -68.6677 -68.6675 -68.6672 -68.6669
    -9.0692  -8.5477   2.8484   2.9147   3.0565   3.1596   3.1811   3.1913
     4.2541   4.2690   4.4395   4.4668   5.4488   7.4175   7.6562   7.9255
     8.4419   8.5416

     occupation numbers 
     1.0000   1.0000   1.0000   1.0000   1.0000   1.0000   1.0000   1.0000
     1.0000   1.0000   1.0000   1.0000   1.0000   1.0000   1.0000   1.0000
     1.0000   1.0000   1.0000   1.0000   1.0000   1.0000   1.0000   1.0000
     1.0000   1.0000

          k = 0.1250 0.0722 0.2372 (  3842 PWs)   bands (ev):

  -114.3143-114.3139 -68.6834 -68.6821 -68.6676 -68.6674 -68.6672 -68.6670
    -8.9525  -8.6703   2.7904   2.8161   3.0759   3.1305   3.1430   3.1557
     4.3124   4.3153   4.4078   4.4251   5.9997   7.0225   7.8015   8.0694
     8.2497   8.4029

     occupation numbers 
     1.0000   1.0000   1.0000   1.0000   1.0000   1.0000   1.0000   1.0000
     1.0000   1.0000   1.0000   1.0000   1.0000   1.0000   1.0000   1.0000
     1.0000   1.0000   1.0000   1.0000   1.0000   1.0000   1.0000   1.0000
     1.0000   1.0000

          k = 0.1250 0.0722-0.3162 (  3850 PWs)   bands (ev):

  -114.3143-114.3139 -68.6829 -68.6826 -68.6676 -68.6674 -68.6673 -68.6670
    -8.8128  -8.8123   2.7728   2.7729   3.1056   3.1056   3.1317   3.1318
     4.3644   4.3646   4.3723   4.3726   6.5390   6.5392   8.0184   8.0186
     8.2370   8.2373

     occupation numbers 
     1.0000   1.0000   1.0000   1.0000   1.0000   1.0000   1.0000   1.0000
     1.0000   1.0000   1.0000   1.0000   1.0000   1.0000   1.0000   1.0000
     1.0000   1.0000   1.0000   1.0000   1.0000   1.0000   1.0000   1.0000
     1.0000   1.0000

          k = 0.1250 0.0722-0.2372 (  3842 PWs)   bands (ev):

  -114.3143-114.3139 -68.6834 -68.6821 -68.6676 -68.6674 -68.6672 -68.6670
    -8.9525  -8.6703   2.7905   2.8160   3.0759   3.1306   3.1430   3.1557
     4.3124   4.3153   4.4078   4.4251   5.9997   7.0225   7.8015   8.0694
     8.2496   8.4028

     occupation numbers 
     1.0000   1.0000   1.0000   1.0000   1.0000   1.0000   1.0000   1.0000
     1.0000   1.0000   1.0000   1.0000   1.0000   1.0000   1.0000   1.0000
     1.0000   1.0000   1.0000   1.0000   1.0000   1.0000   1.0000   1.0000
     1.0000   1.0000

          k = 0.1250 0.0722-0.1581 (  3847 PWs)   bands (ev):

  -114.3143-114.3139 -68.6839 -68.6816 -68.6677 -68.6675 -68.6672 -68.6669
    -9.0692  -8.5477   2.8484   2.9147   3.0565   3.1597   3.1811   3.1912
     4.2541   4.2690   4.4395   4.4668   5.4488   7.4174   7.6563   7.9256
     8.4419   8.5416

     occupation numbers 
     1.0000   1.0000   1.0000   1.0000   1.0000   1.0000   1.0000   1.0000
     1.0000   1.0000   1.0000   1.0000   1.0000   1.0000   1.0000   1.0000
     1.0000   1.0000   1.0000   1.0000   1.0000   1.0000   1.0000   1.0000
     1.0000   1.0000

          k = 0.1250 0.0722-0.0791 (  3850 PWs)   bands (ev):

  -114.3143-114.3139 -68.6843 -68.6813 -68.6678 -68.6676 -68.6671 -68.6668
    -9.1463  -8.4650   2.8842   3.0464   3.0590   3.2038   3.2102   3.2313
     4.2101   4.2357   4.4579   4.5047   4.9776   7.4767   7.8286   7.8287
     8.5447   8.6333

     occupation numbers 
     1.0000   1.0000   1.0000   1.0000   1.0000   1.0000   1.0000   1.0000
     1.0000   1.0000   1.0000   1.0000   1.0000   1.0000   1.0000   1.0000
     1.0000   1.0000   1.0000   1.0000   1.0000   1.0000   1.0000   1.0000
     1.0000   1.0000

          k = 0.1250 0.2165-0.0000 (  3855 PWs)   bands (ev):

  -114.3143-114.3139 -68.6841 -68.6813 -68.6683 -68.6679 -68.6675 -68.6670
    -9.0139  -8.3756   2.8078   3.0508   3.1601   3.2591   3.4020   3.4704
     4.1466   4.2201   4.4735   4.6996   4.7366   6.7610   7.0255   7.5173
     8.3688   8.3735

     occupation numbers 
     1.0000   1.0000   1.0000   1.0000   1.0000   1.0000   1.0000   1.0000
     1.0000   1.0000   1.0000   1.0000   1.0000   1.0000   1.0000   1.0000
     1.0000   1.0000   1.0000   1.0000   1.0000   1.0000   1.0000   1.0000
     1.0000   1.0000

          k = 0.1250 0.2165 0.0791 (  3848 PWs)   bands (ev):

  -114.3143-114.3139 -68.6840 -68.6814 -68.6682 -68.6679 -68.6675 -68.6670
    -8.9900  -8.4002   2.7927   3.0032   3.1497   3.2421   3.3864   3.4068
     4.1706   4.2350   4.4660   4.5830   5.0442   6.8134   7.0006   7.4975
     8.3344   8.3609

     occupation numbers 
     1.0000   1.0000   1.0000   1.0000   1.0000   1.0000   1.0000   1.0000
     1.0000   1.0000   1.0000   1.0000   1.0000   1.0000   1.0000   1.0000
     1.0000   1.0000   1.0000   1.0000   1.0000   1.0000   1.0000   1.0000
     1.0000   1.0000

          k = 0.1250 0.2165 0.1581 (  3853 PWs)   bands (ev):

  -114.3143-114.3139 -68.6838 -68.6817 -68.6682 -68.6678 -68.6676 -68.6671
    -8.9219  -8.4701   2.7507   2.8654   3.1482   3.2070   3.3260   3.3488
     4.2318   4.2694   4.4438   4.5199   5.5188   6.8825   6.9771   7.5281
     8.2230   8.2683

     occupation numbers 
     1.0000   1.0000   1.0000   1.0000   1.0000   1.0000   1.0000   1.0000
     1.0000   1.0000   1.0000   1.0000   1.0000   1.0000   1.0000   1.0000
     1.0000   1.0000   1.0000   1.0000   1.0000   1.0000   1.0000   1.0000
     1.0000   1.0000

          k = 0.1250 0.2165 0.2372 (  3853 PWs)   bands (ev):

  -114.3143-114.3139 -68.6833 -68.6822 -68.6681 -68.6678 -68.6676 -68.6672
    -8.8193  -8.5747   2.7014   2.7377   3.1591   3.1810   3.2830   3.3064
     4.3098   4.3144   4.4085   4.4602   5.9921   6.6643   7.2624   7.6575
     8.0250   8.0573

     occupation numbers 
     1.0000   1.0000   1.0000   1.0000   1.0000   1.0000   1.0000   1.0000
     1.0000   1.0000   1.0000   1.0000   1.0000   1.0000   1.0000   1.0000
     1.0000   1.0000   1.0000   1.0000   1.0000   1.0000   1.0000   1.0000
     1.0000   1.0000

          k = 0.1250 0.2165-0.3162 (  3834 PWs)   bands (ev):

  -114.3143-114.3139 -68.6829 -68.6826 -68.6681 -68.6677 -68.6675 -68.6672
    -8.6976  -8.6971   2.6846   2.6847   3.1696   3.1697   3.2778   3.2779
     4.3620   4.3622   4.3904   4.3905   6.3731   6.3733   7.6305   7.6306
     7.8725   7.8728

     occupation numbers 
     1.0000   1.0000   1.0000   1.0000   1.0000   1.0000   1.0000   1.0000
     1.0000   1.0000   1.0000   1.0000   1.0000   1.0000   1.0000   1.0000
     1.0000   1.0000   1.0000   1.0000   1.0000   1.0000   1.0000   1.0000
     1.0000   1.0000

          k = 0.1250 0.2165-0.2372 (  3853 PWs)   bands (ev):

  -114.3143-114.3139 -68.6833 -68.6822 -68.6681 -68.6678 -68.6676 -68.6672
    -8.8193  -8.5747   2.7014   2.7377   3.1591   3.1810   3.2830   3.3064
     4.3098   4.3144   4.4085   4.4602   5.9921   6.6643   7.2624   7.6575
     8.0250   8.0573

     occupation numbers 
     1.0000   1.0000   1.0000   1.0000   1.0000   1.0000   1.0000   1.0000
     1.0000   1.0000   1.0000   1.0000   1.0000   1.0000   1.0000   1.0000
     1.0000   1.0000   1.0000   1.0000   1.0000   1.0000   1.0000   1.0000
     1.0000   1.0000

          k = 0.1250 0.2165-0.1581 (  3853 PWs)   bands (ev):

  -114.3143-114.3139 -68.6838 -68.6817 -68.6682 -68.6678 -68.6676 -68.6671
    -8.9219  -8.4701   2.7507   2.8654   3.1482   3.2070   3.3260   3.3488
     4.2318   4.2694   4.4438   4.5199   5.5188   6.8825   6.9771   7.5281
     8.2230   8.2683

     occupation numbers 
     1.0000   1.0000   1.0000   1.0000   1.0000   1.0000   1.0000   1.0000
     1.0000   1.0000   1.0000   1.0000   1.0000   1.0000   1.0000   1.0000
     1.0000   1.0000   1.0000   1.0000   1.0000   1.0000   1.0000   1.0000
     1.0000   1.0000

          k = 0.1250 0.2165-0.0791 (  3848 PWs)   bands (ev):

  -114.3143-114.3139 -68.6840 -68.6814 -68.6682 -68.6679 -68.6675 -68.6670
    -8.9900  -8.4002   2.7927   3.0032   3.1497   3.2421   3.3864   3.4068
     4.1706   4.2350   4.4660   4.5830   5.0442   6.8134   7.0006   7.4975
     8.3344   8.3609

     occupation numbers 
     1.0000   1.0000   1.0000   1.0000   1.0000   1.0000   1.0000   1.0000
     1.0000   1.0000   1.0000   1.0000   1.0000   1.0000   1.0000   1.0000
     1.0000   1.0000   1.0000   1.0000   1.0000   1.0000   1.0000   1.0000
     1.0000   1.0000

          k = 0.1250 0.3608-0.0000 (  3841 PWs)   bands (ev):

  -114.3142-114.3139 -68.6837 -68.6816 -68.6689 -68.6685 -68.6680 -68.6672
    -8.7634  -8.3067   2.7646   3.0531   3.2406   3.4045   3.6279   3.7471
     4.1032   4.2722   4.4901   4.6899   4.9658   5.8279   6.3776   6.6919
     7.9285   7.9977

     occupation numbers 
     1.0000   1.0000   1.0000   1.0000   1.0000   1.0000   1.0000   1.0000
     1.0000   1.0000   1.0000   1.0000   1.0000   1.0000   1.0000   1.0000
     1.0000   1.0000   1.0000   1.0000   1.0000   1.0000   1.0000   1.0000
     1.0000   1.0000

          k = 0.1250 0.3608 0.0791 (  3851 PWs)   bands (ev):

  -114.3142-114.3139 -68.6836 -68.6817 -68.6689 -68.6685 -68.6680 -68.6673
    -8.7453  -8.3232   2.7440   3.0036   3.2393   3.3867   3.5991   3.6508
     4.1416   4.2923   4.4815   4.6510   5.1418   5.9098   6.3793   6.7168
     7.8818   8.0231

     occupation numbers 
     1.0000   1.0000   1.0000   1.0000   1.0000   1.0000   1.0000   1.0000
     1.0000   1.0000   1.0000   1.0000   1.0000   1.0000   1.0000   1.0000
[...]

  -114.3142-114.3138 -68.6831 -68.6822 -68.6690 -68.6688 -68.6683 -68.6677
    -8.5073  -8.3220   2.8949   2.9428   3.3288   3.3784   3.6248   3.7145
     4.2440   4.3688   4.5044   4.7105   5.0581   5.5600   5.9334   6.6170
     7.1548   7.7396

     occupation numbers 
     1.0000   1.0000   1.0000   1.0000   1.0000   1.0000   1.0000   1.0000
     1.0000   1.0000   1.0000   1.0000   1.0000   1.0000   1.0000   1.0000
     1.0000   1.0000   1.0000   1.0000   1.0000   1.0000   1.0000   1.0000
     1.0000   1.0000

          k =-0.5000-0.0000 0.2372 (  3854 PWs)   bands (ev):

  -114.3142-114.3139 -68.6830 -68.6824 -68.6690 -68.6687 -68.6682 -68.6678
    -8.4611  -8.3607   2.8062   2.8396   3.3064   3.3536   3.5725   3.6283
     4.3205   4.3755   4.5262   4.6461   5.2079   5.4639   6.1826   6.7393
     7.2427   7.7595

     occupation numbers 
     1.0000   1.0000   1.0000   1.0000   1.0000   1.0000   1.0000   1.0000
     1.0000   1.0000   1.0000   1.0000   1.0000   1.0000   1.0000   1.0000
     1.0000   1.0000   1.0000   1.0000   1.0000   1.0000   1.0000   1.0000
     1.0000   1.0000

          k =-0.5000 0.0000-0.3162 (  3852 PWs)   bands (ev):

  -114.3142-114.3139 -68.6829 -68.6825 -68.6690 -68.6687 -68.6682 -68.6679
    -8.4096  -8.4091   2.7804   2.7805   3.3272   3.3272   3.5753   3.5754
     4.3621   4.3622   4.5785   4.5786   5.3424   5.3425   6.4794   6.4796
     7.5808   7.5810

     occupation numbers 
     1.0000   1.0000   1.0000   1.0000   1.0000   1.0000   1.0000   1.0000
     1.0000   1.0000   1.0000   1.0000   1.0000   1.0000   1.0000   1.0000
     1.0000   1.0000   1.0000   1.0000   1.0000   1.0000   1.0000   1.0000
     1.0000   1.0000

          k =-0.5000 0.0000-0.2372 (  3854 PWs)   bands (ev):

  -114.3142-114.3139 -68.6830 -68.6824 -68.6690 -68.6687 -68.6682 -68.6678
    -8.4611  -8.3607   2.8062   2.8396   3.3064   3.3536   3.5725   3.6283
     4.3205   4.3755   4.5262   4.6461   5.2079   5.4639   6.1826   6.7393
     7.2427   7.7595

     occupation numbers 
     1.0000   1.0000   1.0000   1.0000   1.0000   1.0000   1.0000   1.0000
     1.0000   1.0000   1.0000   1.0000   1.0000   1.0000   1.0000   1.0000
     1.0000   1.0000   1.0000   1.0000   1.0000   1.0000   1.0000   1.0000
     1.0000   1.0000

          k =-0.5000 0.0000-0.1581 (  3841 PWs)   bands (ev):

  -114.3142-114.3138 -68.6831 -68.6822 -68.6690 -68.6688 -68.6683 -68.6677
    -8.5073  -8.3220   2.8949   2.9428   3.3288   3.3784   3.6249   3.7145
     4.2440   4.3688   4.5044   4.7105   5.0581   5.5600   5.9334   6.6170
     7.1548   7.7396

     occupation numbers 
     1.0000   1.0000   1.0000   1.0000   1.0000   1.0000   1.0000   1.0000
     1.0000   1.0000   1.0000   1.0000   1.0000   1.0000   1.0000   1.0000
     1.0000   1.0000   1.0000   1.0000   1.0000   1.0000   1.0000   1.0000
     1.0000   1.0000

          k =-0.5000 0.0000-0.0791 (  3842 PWs)   bands (ev):

  -114.3142-114.3138 -68.6832 -68.6821 -68.6691 -68.6688 -68.6683 -68.6677
    -8.5393  -8.2976   2.9882   3.0038   3.3959   3.4070   3.7619   3.7975
     4.1573   4.3326   4.5063   4.7538   4.9071   5.5687   5.8272   6.2588
     7.2958   7.6220

     occupation numbers 
     1.0000   1.0000   1.0000   1.0000   1.0000   1.0000   1.0000   1.0000
     1.0000   1.0000   1.0000   1.0000   1.0000   1.0000   1.0000   1.0000
     1.0000   1.0000   1.0000   1.0000   1.0000   1.0000   1.0000   1.0000
     1.0000   1.0000

          k =-0.5000 0.1443 0.0000 (  3846 PWs)   bands (ev):

  -114.3142-114.3138 -68.6832 -68.6820 -68.6694 -68.6689 -68.6683 -68.6674
    -8.5449  -8.2925   2.8392   3.0814   3.2772   3.5498   3.8115   3.8717
     4.2219   4.3212   4.5106   4.6414   4.8942   5.3928   5.8667   6.3037
     7.4661   7.6710

     occupation numbers 
     1.0000   1.0000   1.0000   1.0000   1.0000   1.0000   1.0000   1.0000
     1.0000   1.0000   1.0000   1.0000   1.0000   1.0000   1.0000   1.0000
     1.0000   1.0000   1.0000   1.0000   1.0000   1.0000   1.0000   1.0000
     1.0000   1.0000

          k =-0.5000 0.1443 0.0791 (  3846 PWs)   bands (ev):

  -114.3142-114.3138 -68.6832 -68.6821 -68.6694 -68.6689 -68.6682 -68.6674
    -8.5338  -8.3004   2.8122   3.0195   3.2848   3.5328   3.7744   3.8107
     4.2431   4.3504   4.5046   4.6510   4.9010   5.3825   5.9798   6.4101
     7.4759   7.6704

     occupation numbers 
     1.0000   1.0000   1.0000   1.0000   1.0000   1.0000   1.0000   1.0000
     1.0000   1.0000   1.0000   1.0000   1.0000   1.0000   1.0000   1.0000
     1.0000   1.0000   1.0000   1.0000   1.0000   1.0000   1.0000   1.0000
     1.0000   1.0000

          k =-0.5000 0.1443 0.1581 (  3848 PWs)   bands (ev):

  -114.3142-114.3138 -68.6831 -68.6822 -68.6693 -68.6689 -68.6682 -68.6675
    -8.5027  -8.3237   2.7440   2.8726   3.3136   3.5064   3.6787   3.7148
     4.3039   4.3796   4.4983   4.6429   4.9505   5.3247   6.2420   6.7261
     7.3692   7.7391

     occupation numbers 
     1.0000   1.0000   1.0000   1.0000   1.0000   1.0000   1.0000   1.0000
     1.0000   1.0000   1.0000   1.0000   1.0000   1.0000   1.0000   1.0000
     1.0000   1.0000   1.0000   1.0000   1.0000   1.0000   1.0000   1.0000
     1.0000   1.0000

          k =-0.5000 0.1443 0.2372 (  3851 PWs)   bands (ev):

  -114.3142-114.3139 -68.6830 -68.6824 -68.6692 -68.6689 -68.6681 -68.6676
    -8.4579  -8.3608   2.6762   2.7317   3.3663   3.4841   3.5961   3.6314
     4.3586   4.3903   4.5128   4.6041   5.0380   5.2356   6.5388   7.0751
     7.2275   7.7451

     occupation numbers 
     1.0000   1.0000   1.0000   1.0000   1.0000   1.0000   1.0000   1.0000
     1.0000   1.0000   1.0000   1.0000   1.0000   1.0000   1.0000   1.0000
     1.0000   1.0000   1.0000   1.0000   1.0000   1.0000   1.0000   1.0000
     1.0000   1.0000

          k =-0.5000 0.1443-0.3162 (  3848 PWs)   bands (ev):

  -114.3142-114.3139 -68.6828 -68.6825 -68.6692 -68.6689 -68.6680 -68.6677
    -8.4080  -8.4075   2.6620   2.6621   3.4337   3.4338   3.5816   3.5817
     4.3848   4.3850   4.5543   4.5544   5.1369   5.1371   6.8391   6.8393
     7.5554   7.5556

     occupation numbers 
     1.0000   1.0000   1.0000   1.0000   1.0000   1.0000   1.0000   1.0000
     1.0000   1.0000   1.0000   1.0000   1.0000   1.0000   1.0000   1.0000
     1.0000   1.0000   1.0000   1.0000   1.0000   1.0000   1.0000   1.0000
     1.0000   1.0000

          k =-0.5000 0.1443-0.2372 (  3851 PWs)   bands (ev):

  -114.3142-114.3139 -68.6830 -68.6824 -68.6692 -68.6689 -68.6681 -68.6676
    -8.4579  -8.3608   2.6762   2.7317   3.3662   3.4841   3.5960   3.6314
     4.3585   4.3904   4.5128   4.6041   5.0380   5.2355   6.5388   7.0752
     7.2274   7.7451

     occupation numbers 
     1.0000   1.0000   1.0000   1.0000   1.0000   1.0000   1.0000   1.0000
     1.0000   1.0000   1.0000   1.0000   1.0000   1.0000   1.0000   1.0000
     1.0000   1.0000   1.0000   1.0000   1.0000   1.0000   1.0000   1.0000
     1.0000   1.0000

          k =-0.5000 0.1443-0.1581 (  3848 PWs)   bands (ev):

  -114.3142-114.3138 -68.6831 -68.6822 -68.6693 -68.6689 -68.6682 -68.6675
    -8.5027  -8.3237   2.7440   2.8726   3.3136   3.5065   3.6787   3.7148
     4.3038   4.3796   4.4982   4.6429   4.9506   5.3246   6.2420   6.7261
     7.3692   7.7391

     occupation numbers 
     1.0000   1.0000   1.0000   1.0000   1.0000   1.0000   1.0000   1.0000
     1.0000   1.0000   1.0000   1.0000   1.0000   1.0000   1.0000   1.0000
     1.0000   1.0000   1.0000   1.0000   1.0000   1.0000   1.0000   1.0000
     1.0000   1.0000

          k =-0.5000 0.1443-0.0791 (  3846 PWs)   bands (ev):

  -114.3142-114.3138 -68.6832 -68.6821 -68.6694 -68.6689 -68.6682 -68.6674
    -8.5338  -8.3004   2.8122   3.0195   3.2848   3.5329   3.7744   3.8107
     4.2430   4.3504   4.5046   4.6510   4.9011   5.3824   5.9798   6.4101
     7.4759   7.6704

     occupation numbers 
     1.0000   1.0000   1.0000   1.0000   1.0000   1.0000   1.0000   1.0000
     1.0000   1.0000   1.0000   1.0000   1.0000   1.0000   1.0000   1.0000
     1.0000   1.0000   1.0000   1.0000   1.0000   1.0000   1.0000   1.0000
     1.0000   1.0000

          k =-0.5000-0.8660 0.0000 (  3864 PWs)   bands (ev):

  -114.3142-114.3138 -68.6832 -68.6820 -68.6696 -68.6690 -68.6682 -68.6672
    -8.5390  -8.2958   2.7864   2.9226   3.3097   3.6473   3.7847   3.8259
     4.2888   4.3891   4.5041   4.5620   5.0600   5.0814   5.9622   6.4473
     7.5323   7.8445

     occupation numbers 
     1.0000   1.0000   1.0000   1.0000   1.0000   1.0000   1.0000   1.0000
     1.0000   1.0000   1.0000   1.0000   1.0000   1.0000   1.0000   1.0000
     1.0000   1.0000   1.0000   1.0000   1.0000   1.0000   1.0000   1.0000
     1.0000   1.0000

          k =-0.5000-0.8660 0.0791 (  3862 PWs)   bands (ev):

  -114.3142-114.3138 -68.6832 -68.6821 -68.6695 -68.6690 -68.6682 -68.6673
    -8.5282  -8.3033   2.7554   2.8673   3.3234   3.6167   3.7611   3.7922
     4.3286   4.3913   4.4940   4.5631   5.0451   5.0504   6.1482   6.5102
     7.5945   7.7963

     occupation numbers 
     1.0000   1.0000   1.0000   1.0000   1.0000   1.0000   1.0000   1.0000
     1.0000   1.0000   1.0000   1.0000   1.0000   1.0000   1.0000   1.0000
     1.0000   1.0000   1.0000   1.0000   1.0000   1.0000   1.0000   1.0000
     1.0000   1.0000

          k =-0.5000-0.8660 0.1581 (  3874 PWs)   bands (ev):

  -114.3142-114.3139 -68.6831 -68.6822 -68.6695 -68.6690 -68.6681 -68.6674
    -8.4980  -8.3256   2.6783   2.7387   3.3637   3.5755   3.6966   3.7166
     4.3979   4.4045   4.4706   4.5614   4.9967   5.0280   6.5807   6.6817
     7.6579   7.7049

     occupation numbers 
     1.0000   1.0000   1.0000   1.0000   1.0000   1.0000   1.0000   1.0000
     1.0000   1.0000   1.0000   1.0000   1.0000   1.0000   1.0000   1.0000
     1.0000   1.0000   1.0000   1.0000   1.0000   1.0000   1.0000   1.0000
     1.0000   1.0000

          k =-0.5000-0.8660 0.2372 (  3860 PWs)   bands (ev):

  -114.3142-114.3139 -68.6830 -68.6824 -68.6694 -68.6690 -68.6679 -68.6675
    -8.4546  -8.3611   2.5993   2.6196   3.4285   3.5655   3.6075   3.6413
     4.4089   4.4455   4.4723   4.5492   4.9775   5.0029   6.9230   7.0764
     7.4472   7.7046

     occupation numbers 
     1.0000   1.0000   1.0000   1.0000   1.0000   1.0000   1.0000   1.0000
     1.0000   1.0000   1.0000   1.0000   1.0000   1.0000   1.0000   1.0000
     1.0000   1.0000   1.0000   1.0000   1.0000   1.0000   1.0000   1.0000
     1.0000   1.0000

          k =-0.5000-0.8660-0.3162 (  3852 PWs)   bands (ev):

  -114.3142-114.3139 -68.6828 -68.6825 -68.6694 -68.6690 -68.6679 -68.6675
    -8.4065  -8.4059   2.5696   2.5697   3.5129   3.5130   3.5885   3.5888
     4.4245   4.4248   4.5205   4.5207   4.9831   4.9833   7.1909   7.1912
     7.4877   7.4880

     occupation numbers 
     1.0000   1.0000   1.0000   1.0000   1.0000   1.0000   1.0000   1.0000
     1.0000   1.0000   1.0000   1.0000   1.0000   1.0000   1.0000   1.0000
     1.0000   1.0000   1.0000   1.0000   1.0000   1.0000   1.0000   1.0000
     1.0000   1.0000

     highest occupied level (ev):     8.7907

!    total energy              =    -987.07982213 Ry
     Harris-Foulkes estimate   =    -987.07982216 Ry
     estimated scf accuracy    <       0.00000007 Ry

     The total energy is the sum of the following terms:

     one-electron contribution =    -803.31665061 Ry
     hartree contribution      =     423.10179498 Ry
     xc contribution           =     -98.07964300 Ry
     ewald contribution        =    -508.78532350 Ry

     convergence has been achieved in   7 iterations

     Forces acting on atoms (cartesian axes, Ry/au):

     atom    1 type  2   force =    -0.00000263   -0.00000080    0.00525978
     atom    2 type  2   force =    -0.00000142   -0.00000185    0.00527919
     atom    3 type  1   force =     0.00000055    0.00000372   -0.00519137
     atom    4 type  1   force =     0.00000350   -0.00000107   -0.00534760
     The non-local contrib.  to forces
     atom    1 type  2   force =     0.00000139   -0.00000294    0.00096958
     atom    2 type  2   force =     0.00000145    0.00000171    0.00097554
     atom    3 type  1   force =     0.00000163   -0.00000141    0.02749539
     atom    4 type  1   force =     0.00000347   -0.00000088    0.02745334
     The ionic contribution  to forces
     atom    1 type  2   force =    -0.00001660    0.00003861   -0.03495501
     atom    2 type  2   force =    -0.00001469   -0.00001681   -0.03495056
     atom    3 type  1   force =     0.00001611    0.00000076    0.03495552
     atom    4 type  1   force =     0.00001518   -0.00002256    0.03495006
     The local contribution  to forces
     atom    1 type  2   force =     0.00001568   -0.00003693    0.03927428
     atom    2 type  2   force =     0.00001109    0.00001428    0.03922949
     atom    3 type  1   force =    -0.00001678   -0.00000010   -0.06777624
     atom    4 type  1   force =    -0.00001954    0.00002463   -0.06760876
     The core correction contribution to forces
     atom    1 type  2   force =    -0.00000001   -0.00000000    0.00001247
     atom    2 type  2   force =    -0.00000002   -0.00000003    0.00001091
     atom    3 type  1   force =     0.00000000    0.00000000    0.00000000
     atom    4 type  1   force =     0.00000000    0.00000000    0.00000000
     The Hubbard contrib.    to forces
     atom    1 type  2   force =     0.00000000    0.00000000    0.00000000
     atom    2 type  2   force =     0.00000000    0.00000000    0.00000000
     atom    3 type  1   force =     0.00000000    0.00000000    0.00000000
     atom    4 type  1   force =     0.00000000    0.00000000    0.00000000
     The SCF correction term to forces
     atom    1 type  2   force =     0.00000000    0.00000000    0.00000000
     atom    2 type  2   force =     0.00000000    0.00000000    0.00000000
     atom    3 type  1   force =     0.00000000    0.00000000    0.00000000
     atom    4 type  1   force =     0.00000000    0.00000000    0.00000000

     Total force =     0.000000     Total SCF correction =     0.000000


     Computing stress (Cartesian axis) and pressure

          total   stress  (Ry/bohr**3)                   (kbar)     P=   -0.99
  -0.00000801  -0.00000001  -0.00000001         -1.18     -0.00     -0.00
  -0.00000001  -0.00000800  -0.00000001         -0.00     -1.18     -0.00
  -0.00000001  -0.00000001  -0.00000410         -0.00     -0.00     -0.60

     kinetic stress (kbar)  33879.71     -0.00      0.00
                               -0.00  33879.71     -0.00
                                0.00     -0.00  33995.39

     local   stress (kbar)  -3854.82     -0.03      0.03
                               -0.03  -3854.98     -0.09
                                0.03     -0.09  -6178.75

     nonloc. stress (kbar)  -1673.88     -0.00      0.00
                               -0.00  -1673.88      0.00
                                0.00      0.00  -1721.58

     hartree stress (kbar)  64643.28      0.01     -0.01
                                0.01  64643.35      0.04
                               -0.01      0.04  66067.41

     exc-cor stress (kbar) -14162.88      0.00      0.00
                                0.00 -14162.88      0.00
                                0.00      0.00 -14164.53

     corecor stress (kbar)   -249.22     -0.00      0.00
                               -0.00   -249.22      0.00
                                0.00      0.00   -249.43

     ewald   stress (kbar) -78583.36      0.02     -0.02
                                0.02 -78583.26      0.05
                               -0.02      0.05 -77749.12

     hubbard stress (kbar)      0.00      0.00      0.00
                                0.00      0.00      0.00
                                0.00      0.00      0.00

     london  stress (kbar)      0.00      0.00      0.00
                                0.00      0.00      0.00
                                0.00      0.00      0.00

     DFT-D3  stress (kbar)      0.00      0.00      0.00
                                0.00      0.00      0.00
                                0.00      0.00      0.00

     XDM     stress (kbar)      0.00      0.00      0.00
                                0.00      0.00      0.00
                                0.00      0.00      0.00

     dft-nl  stress (kbar)      0.00      0.00      0.00
                                0.00      0.00      0.00
                                0.00      0.00      0.00

     TS-vdW  stress (kbar)      0.00      0.00      0.00
                                0.00      0.00      0.00
                                0.00      0.00      0.00



     Writing output data file ZnO.save/
 
     init_run     :      0.52s CPU      0.76s WALL (       1 calls)
     electrons    :      7.39s CPU      7.93s WALL (       1 calls)
     forces       :      0.16s CPU      0.17s WALL (       1 calls)
     stress       :      0.31s CPU      0.33s WALL (       1 calls)

     Called by init_run:
     wfcinit      :      0.37s CPU      0.49s WALL (       1 calls)
     wfcinit:atom :      0.00s CPU      0.00s WALL (      65 calls)
     wfcinit:wfcr :      0.35s CPU      0.46s WALL (      65 calls)
     potinit      :      0.06s CPU      0.08s WALL (       1 calls)
     hinit0       :      0.07s CPU      0.14s WALL (       1 calls)

     Called by electrons:
     c_bands      :      6.23s CPU      6.66s WALL (       7 calls)
     sum_band     :      0.89s CPU      0.94s WALL (       7 calls)
     v_of_rho     :      0.22s CPU      0.24s WALL (       8 calls)
     v_h          :      0.00s CPU      0.00s WALL (       8 calls)
     v_xc         :      0.27s CPU      0.29s WALL (      10 calls)
     newd         :      0.04s CPU      0.06s WALL (       8 calls)
     mix_rho      :      0.01s CPU      0.02s WALL (       7 calls)

     Called by c_bands:
     init_us_2    :      0.08s CPU      0.09s WALL (    1105 calls)
     cegterg      :      5.84s CPU      6.11s WALL (     455 calls)

     Called by sum_band:
     sum_band:bec :      0.01s CPU      0.01s WALL (     455 calls)
     addusdens    :      0.04s CPU      0.04s WALL (       7 calls)

     Called by *egterg:
     h_psi        :      3.62s CPU      3.78s WALL (    1445 calls)
     s_psi        :      0.12s CPU      0.13s WALL (    1445 calls)
     g_psi        :      0.01s CPU      0.01s WALL (     925 calls)
     cdiaghg      :      1.57s CPU      1.71s WALL (    1380 calls)
     cegterg:over :      0.36s CPU      0.41s WALL (     925 calls)
     cegterg:upda :      0.20s CPU      0.20s WALL (     925 calls)
     cegterg:last :      0.13s CPU      0.13s WALL (     455 calls)
     cdiaghg:chol :      0.09s CPU      0.12s WALL (    1380 calls)
     cdiaghg:inve :      0.03s CPU      0.03s WALL (    1380 calls)
     cdiaghg:para :      0.16s CPU      0.17s WALL (    2760 calls)

     Called by h_psi:
     h_psi:pot    :      3.61s CPU      3.77s WALL (    1445 calls)
     h_psi:calbec :      0.20s CPU      0.21s WALL (    1445 calls)
     vloc_psi     :      3.29s CPU      3.42s WALL (    1445 calls)
     add_vuspsi   :      0.12s CPU      0.13s WALL (    1445 calls)

     General routines
     calbec       :      0.31s CPU      0.33s WALL (    2225 calls)
     fft          :      0.03s CPU      0.06s WALL (     127 calls)
     ffts         :      0.00s CPU      0.00s WALL (      15 calls)
     fftw         :      3.77s CPU      3.92s WALL (   73778 calls)
     interpolate  :      0.00s CPU      0.01s WALL (       8 calls)
 
     Parallel routines
     fft_scatt_xy :      0.57s CPU      0.59s WALL (   73920 calls)
     fft_scatt_yz :      1.86s CPU      1.95s WALL (   73920 calls)
 
     PWSCF        :      8.69s CPU     10.41s WALL

 
   This run was terminated on:  20:43:42  15Jun2022            

=------------------------------------------------------------------------------=
   JOB DONE.
=------------------------------------------------------------------------------=
