
     Program PWSCF v.6.4.1 starts on 16Jun2022 at 15:13:39 

     This program is part of the open-source Quantum ESPRESSO suite
     for quantum simulation of materials; please cite
         "P. Giannozzi et al., J. Phys.:Condens. Matter 21 395502 (2009);
         "P. Giannozzi et al., J. Phys.:Condens. Matter 29 465901 (2017);
          URL http://www.quantum-espresso.org", 
     in publications or presentations arising from this work. More details at
     http://www.quantum-espresso.org/quote

     Parallel version (MPI), running on    64 processors

     MPI processes distributed on     1 nodes
     K-points division:     npool     =       4
     R & G space division:  proc/nbgrp/npool/nimage =      16
     Waiting for input...
     Reading input from standard input
Warning: card &IONS ignored
Warning: card   UPSCALE           = 100.D0, ignored
Warning: card / ignored
Warning: card &CELL ignored
Warning: card   CELL_DYNAMICS     = 'BFGS' ignored
Warning: card   PRESS_CONV_THR    = 0.5D0 ignored
Warning: card   CELL_DOFREE = 'ALL' ignored
Warning: card / ignored

     Current dimensions of program PWSCF are:
     Max number of different atomic species (ntypx) = 10
     Max number of k-points (npk) =  40000
     Max angular momentum in pseudopotentials (lmaxx) =  3

     Subspace diagonalization in iterative solution of the eigenvalue problem:
     one sub-group per band group will be used
     scalapack distributed-memory algorithm (size of sub-group:  2*  2 procs)

 
     Parallelization info
     --------------------
     sticks:   dense  smooth     PW     G-vecs:    dense   smooth      PW
     Min         101      53     16                 4895     1901     330
     Max         102      55     17                 4900     1904     335
     Sum        1627     859    265                78355    30443    5321
 


     bravais-lattice index     =            0
     lattice parameter (alat)  =       6.2594  a.u.
     unit-cell volume          =     315.7679 (a.u.)^3
     number of atoms/cell      =            4
     number of atomic types    =            2
     number of electrons       =        52.00
     number of Kohn-Sham states=           26
     kinetic-energy cutoff     =      80.0000  Ry
     charge density cutoff     =     600.0000  Ry
     convergence threshold     =      1.0E-06
     mixing beta               =       0.5000
     number of iterations used =            8  plain     mixing
     Exchange-correlation      = SLA  PW   PSX  PSC ( 1  4 10  8 0 0)
     Using LIBXC version       =    4   3   4

     celldm(1)=   6.259422  celldm(2)=   0.000000  celldm(3)=   0.000000
     celldm(4)=   0.000000  celldm(5)=   0.000000  celldm(6)=   0.000000

     crystal axes: (cart. coord. in units of alat)
               a(1) = (   1.000000   0.000000   0.000000 )  
               a(2) = (  -0.500000   0.866025  -0.000000 )  
               a(3) = (   0.000000  -0.000000   1.486739 )  

     reciprocal axes: (cart. coord. in units 2 pi/alat)
               b(1) = (  1.000000  0.577350 -0.000000 )  
               b(2) = ( -0.000000  1.154701  0.000000 )  
               b(3) = ( -0.000000  0.000000  0.672613 )  


     PseudoPot. # 1 for Zn read from file:
     ./GBRV_PBEsol/zn_pbesol_v1.uspp.F.UPF
     MD5 check sum: 7d8615e52efe7c1e2b1899de8658bae2
     Pseudo is Ultrasoft, Zval = 20.0
     Generated by new atomic code, or converted to UPF format
     Using radial grid of  943 points,  6 beta functions with: 
                l(1) =   0
                l(2) =   0
                l(3) =   1
                l(4) =   1
                l(5) =   2
                l(6) =   2
     Q(r) pseudized with  8 coefficients,  rinner =    1.100   1.100   1.100
                                                       1.100   1.100

     PseudoPot. # 2 for O  read from file:
     ./GBRV_PBEsol/o_pbesol_v1.2.uspp.F.UPF
     MD5 check sum: 501638753501ef6325af9037351f7734
     Pseudo is Ultrasoft + core correction, Zval =  6.0
     Generated by new atomic code, or converted to UPF format
     Using radial grid of  737 points,  5 beta functions with: 
                l(1) =   0
                l(2) =   0
                l(3) =   1
                l(4) =   1
                l(5) =   2
     Q(r) pseudized with  8 coefficients,  rinner =    0.900   0.900   0.900
                                                       0.900   0.900

     atomic species   valence    mass     pseudopotential
        Zn            20.00    65.38000     Zn( 1.00)
        O              6.00    15.99900     O ( 1.00)

     No symmetry found


                                    s                        frac. trans.

      isym =  1     identity                                     

 cryst.   s( 1) = (     1          0          0      )
                  (     0          1          0      )
                  (     0          0          1      )

 cart.    s( 1) = (  1.0000000 -0.0000000  0.0000000 )
                  (  0.0000000  1.0000000  0.0000000 )
                  (  0.0000000  0.0000000  1.0000000 )


   Cartesian axes

     site n.     atom                  positions (alat units)
         1           O   tau(   1) = (   0.5000002   0.2886755   0.0109214  )
         2           O   tau(   2) = (   0.0000002   0.5773493   0.7542906  )
         3           Zn  tau(   3) = (   0.5000001   0.2886747   0.8717556  )
         4           Zn  tau(   4) = (   0.0000000   0.5773510   1.6151249  )

   Crystallographic axes

     site n.     atom                  positions (cryst. coord.)
         1           O   tau(   1) = (  0.6666670  0.3333337  0.0073459  )
         2           O   tau(   2) = (  0.3333329  0.6666657  0.5073458  )
         3           Zn  tau(   3) = (  0.6666664  0.3333329  0.5863542  )
         4           Zn  tau(   4) = (  0.3333337  0.6666677  1.0863542  )

     number of k points=   260
                       cart. coord. in units 2pi/alat
        k(    1) = (   0.0000000   0.0000000   0.0000000), wk =   0.0039062
        k(    2) = (  -0.0000000   0.0000000   0.0840766), wk =   0.0078125
        k(    3) = (  -0.0000000   0.0000000   0.1681533), wk =   0.0078125
        k(    4) = (  -0.0000000   0.0000000   0.2522299), wk =   0.0078125
        k(    5) = (   0.0000000  -0.0000000  -0.3363065), wk =   0.0039062
        k(    6) = (  -0.0000000   0.1443376   0.0000000), wk =   0.0078125
        k(    7) = (  -0.0000000   0.1443376   0.0840766), wk =   0.0078125
        k(    8) = (  -0.0000000   0.1443376   0.1681533), wk =   0.0078125
        k(    9) = (  -0.0000000   0.1443376   0.2522299), wk =   0.0078125
        k(   10) = (   0.0000000   0.1443376  -0.3363065), wk =   0.0078125
        k(   11) = (   0.0000000   0.1443376  -0.2522299), wk =   0.0078125
        k(   12) = (   0.0000000   0.1443376  -0.1681533), wk =   0.0078125
        k(   13) = (  -0.0000000   0.1443376  -0.0840766), wk =   0.0078125
        k(   14) = (  -0.0000000   0.2886752   0.0000000), wk =   0.0078125
        k(   15) = (  -0.0000000   0.2886752   0.0840767), wk =   0.0078125
        k(   16) = (  -0.0000000   0.2886752   0.1681533), wk =   0.0078125
        k(   17) = (  -0.0000000   0.2886752   0.2522299), wk =   0.0078125
        k(   18) = (   0.0000000   0.2886751  -0.3363065), wk =   0.0078125
        k(   19) = (   0.0000000   0.2886751  -0.2522299), wk =   0.0078125
        k(   20) = (  -0.0000000   0.2886751  -0.1681532), wk =   0.0078125
        k(   21) = (  -0.0000000   0.2886752  -0.0840766), wk =   0.0078125
        k(   22) = (  -0.0000000   0.4330127   0.0000000), wk =   0.0078125
        k(   23) = (  -0.0000000   0.4330127   0.0840767), wk =   0.0078125
        k(   24) = (  -0.0000000   0.4330128   0.1681533), wk =   0.0078125
        k(   25) = (  -0.0000001   0.4330128   0.2522299), wk =   0.0078125
        k(   26) = (   0.0000000   0.4330127  -0.3363065), wk =   0.0078125
        k(   27) = (  -0.0000000   0.4330127  -0.2522299), wk =   0.0078125
        k(   28) = (  -0.0000000   0.4330127  -0.1681532), wk =   0.0078125
        k(   29) = (  -0.0000000   0.4330127  -0.0840766), wk =   0.0078125
        k(   30) = (   0.0000000  -0.5773503  -0.0000000), wk =   0.0039062
        k(   31) = (   0.0000000  -0.5773503   0.0840766), wk =   0.0078125
        k(   32) = (   0.0000000  -0.5773503   0.1681532), wk =   0.0078125
        k(   33) = (   0.0000000  -0.5773503   0.2522299), wk =   0.0078125
        k(   34) = (   0.0000001  -0.5773503  -0.3363066), wk =   0.0039062
        k(   35) = (   0.1250000   0.0721688  -0.0000000), wk =   0.0078125
        k(   36) = (   0.1250000   0.0721688   0.0840766), wk =   0.0078125
        k(   37) = (   0.1250000   0.0721688   0.1681533), wk =   0.0078125
        k(   38) = (   0.1250000   0.0721688   0.2522299), wk =   0.0078125
        k(   39) = (   0.1250000   0.0721688  -0.3363066), wk =   0.0078125
        k(   40) = (   0.1250000   0.0721688  -0.2522299), wk =   0.0078125
        k(   41) = (   0.1250000   0.0721688  -0.1681533), wk =   0.0078125
        k(   42) = (   0.1250000   0.0721688  -0.0840766), wk =   0.0078125
        k(   43) = (   0.1250000   0.2165064   0.0000000), wk =   0.0078125
        k(   44) = (   0.1250000   0.2165064   0.0840766), wk =   0.0078125
        k(   45) = (   0.1250000   0.2165064   0.1681533), wk =   0.0078125
        k(   46) = (   0.1250000   0.2165064   0.2522299), wk =   0.0078125
        k(   47) = (   0.1250000   0.2165063  -0.3363065), wk =   0.0078125
        k(   48) = (   0.1250000   0.2165063  -0.2522299), wk =   0.0078125
        k(   49) = (   0.1250000   0.2165063  -0.1681533), wk =   0.0078125
        k(   50) = (   0.1250000   0.2165064  -0.0840766), wk =   0.0078125
        k(   51) = (   0.1250000   0.3608439   0.0000000), wk =   0.0078125
        k(   52) = (   0.1250000   0.3608439   0.0840767), wk =   0.0078125
        k(   53) = (   0.1250000   0.3608440   0.1681533), wk =   0.0078125
        k(   54) = (   0.1250000   0.3608440   0.2522299), wk =   0.0078125
        k(   55) = (   0.1250000   0.3608439  -0.3363065), wk =   0.0078125
        k(   56) = (   0.1250000   0.3608439  -0.2522299), wk =   0.0078125
        k(   57) = (   0.1250000   0.3608439  -0.1681533), wk =   0.0078125
        k(   58) = (   0.1250000   0.3608439  -0.0840766), wk =   0.0078125
        k(   59) = (   0.1250000   0.5051815   0.0000000), wk =   0.0078125
        k(   60) = (   0.1250000   0.5051815   0.0840767), wk =   0.0078125
        k(   61) = (   0.1250000   0.5051815   0.1681533), wk =   0.0078125
        k(   62) = (   0.1249999   0.5051815   0.2522299), wk =   0.0078125
        k(   63) = (   0.1250000   0.5051815  -0.3363065), wk =   0.0078125
        k(   64) = (   0.1250000   0.5051815  -0.2522299), wk =   0.0078125
        k(   65) = (   0.1250000   0.5051815  -0.1681532), wk =   0.0078125
        k(   66) = (   0.1250000   0.5051815  -0.0840766), wk =   0.0078125
        k(   67) = (   0.1250000  -0.5051815  -0.0000001), wk =   0.0078125
        k(   68) = (   0.1250000  -0.5051815   0.0840766), wk =   0.0078125
        k(   69) = (   0.1250000  -0.5051815   0.1681532), wk =   0.0078125
        k(   70) = (   0.1250000  -0.5051815   0.2522299), wk =   0.0078125
        k(   71) = (   0.1250001  -0.5051816  -0.3363066), wk =   0.0078125
        k(   72) = (   0.1250001  -0.5051816  -0.2522300), wk =   0.0078125
        k(   73) = (   0.1250000  -0.5051816  -0.1681533), wk =   0.0078125
        k(   74) = (   0.1250000  -0.5051815  -0.0840767), wk =   0.0078125
        k(   75) = (   0.1250000  -0.3608440  -0.0000000), wk =   0.0078125
        k(   76) = (   0.1250000  -0.3608440   0.0840766), wk =   0.0078125
        k(   77) = (   0.1250000  -0.3608439   0.1681532), wk =   0.0078125
        k(   78) = (   0.1250000  -0.3608439   0.2522299), wk =   0.0078125
        k(   79) = (   0.1250001  -0.3608440  -0.3363066), wk =   0.0078125
        k(   80) = (   0.1250000  -0.3608440  -0.2522299), wk =   0.0078125
        k(   81) = (   0.1250000  -0.3608440  -0.1681533), wk =   0.0078125
        k(   82) = (   0.1250000  -0.3608440  -0.0840767), wk =   0.0078125
        k(   83) = (   0.1250000  -0.2165064  -0.0000000), wk =   0.0078125
        k(   84) = (   0.1250000  -0.2165064   0.0840766), wk =   0.0078125
        k(   85) = (   0.1250000  -0.2165064   0.1681532), wk =   0.0078125
        k(   86) = (   0.1250000  -0.2165064   0.2522299), wk =   0.0078125
        k(   87) = (   0.1250000  -0.2165064  -0.3363066), wk =   0.0078125
        k(   88) = (   0.1250000  -0.2165064  -0.2522299), wk =   0.0078125
        k(   89) = (   0.1250000  -0.2165064  -0.1681533), wk =   0.0078125
        k(   90) = (   0.1250000  -0.2165064  -0.0840767), wk =   0.0078125
        k(   91) = (   0.1250000  -0.0721688  -0.0000000), wk =   0.0078125
        k(   92) = (   0.1250000  -0.0721688   0.0840766), wk =   0.0078125
        k(   93) = (   0.1250000  -0.0721688   0.1681533), wk =   0.0078125
        k(   94) = (   0.1250000  -0.0721688   0.2522299), wk =   0.0078125
        k(   95) = (   0.1250000  -0.0721688  -0.3363066), wk =   0.0078125
        k(   96) = (   0.1250000  -0.0721688  -0.2522299), wk =   0.0078125
        k(   97) = (   0.1250000  -0.0721688  -0.1681533), wk =   0.0078125
        k(   98) = (   0.1250000  -0.0721688  -0.0840767), wk =   0.0078125
        k(   99) = (   0.2500000   0.1443376  -0.0000000), wk =   0.0078125
        k(  100) = (   0.2500000   0.1443376   0.0840766), wk =   0.0078125
        k(  101) = (   0.2500000   0.1443376   0.1681533), wk =   0.0078125
        k(  102) = (   0.2500000   0.1443376   0.2522299), wk =   0.0078125
        k(  103) = (   0.2500000   0.1443375  -0.3363066), wk =   0.0078125
        k(  104) = (   0.2500000   0.1443375  -0.2522299), wk =   0.0078125
        k(  105) = (   0.2500000   0.1443375  -0.1681533), wk =   0.0078125
        k(  106) = (   0.2500000   0.1443376  -0.0840766), wk =   0.0078125
        k(  107) = (   0.2500000   0.2886751  -0.0000000), wk =   0.0078125
        k(  108) = (   0.2500000   0.2886751   0.0840766), wk =   0.0078125
        k(  109) = (   0.2500000   0.2886752   0.1681533), wk =   0.0078125
        k(  110) = (   0.2500000   0.2886752   0.2522299), wk =   0.0078125
        k(  111) = (   0.2500000   0.2886751  -0.3363065), wk =   0.0078125
        k(  112) = (   0.2500000   0.2886751  -0.2522299), wk =   0.0078125
        k(  113) = (   0.2500000   0.2886751  -0.1681533), wk =   0.0078125
        k(  114) = (   0.2500000   0.2886751  -0.0840766), wk =   0.0078125
        k(  115) = (   0.2500000   0.4330127   0.0000000), wk =   0.0078125
        k(  116) = (   0.2500000   0.4330127   0.0840766), wk =   0.0078125
        k(  117) = (   0.2500000   0.4330127   0.1681533), wk =   0.0078125
        k(  118) = (   0.2499999   0.4330127   0.2522299), wk =   0.0078125
        k(  119) = (   0.2500000   0.4330127  -0.3363065), wk =   0.0078125
        k(  120) = (   0.2500000   0.4330127  -0.2522299), wk =   0.0078125
        k(  121) = (   0.2500000   0.4330127  -0.1681533), wk =   0.0078125
        k(  122) = (   0.2500000   0.4330127  -0.0840766), wk =   0.0078125
        k(  123) = (   0.2500000   0.5773503   0.0000000), wk =   0.0078125
        k(  124) = (   0.2500000   0.5773503   0.0840767), wk =   0.0078125
        k(  125) = (   0.2499999   0.5773503   0.1681533), wk =   0.0078125
        k(  126) = (   0.2499999   0.5773503   0.2522299), wk =   0.0078125
        k(  127) = (   0.2500000   0.5773503  -0.3363065), wk =   0.0078125
        k(  128) = (   0.2500000   0.5773503  -0.2522299), wk =   0.0078125
        k(  129) = (   0.2500000   0.5773503  -0.1681532), wk =   0.0078125
        k(  130) = (   0.2500000   0.5773503  -0.0840766), wk =   0.0078125
        k(  131) = (   0.2500000  -0.4330128  -0.0000001), wk =   0.0078125
        k(  132) = (   0.2500000  -0.4330128   0.0840766), wk =   0.0078125
        k(  133) = (   0.2500000  -0.4330127   0.1681532), wk =   0.0078125
        k(  134) = (   0.2500000  -0.4330127   0.2522298), wk =   0.0078125
        k(  135) = (   0.2500001  -0.4330128  -0.3363066), wk =   0.0078125
        k(  136) = (   0.2500001  -0.4330128  -0.2522300), wk =   0.0078125
        k(  137) = (   0.2500000  -0.4330128  -0.1681533), wk =   0.0078125
        k(  138) = (   0.2500000  -0.4330128  -0.0840767), wk =   0.0078125
        k(  139) = (   0.2500000  -0.2886752  -0.0000000), wk =   0.0078125
        k(  140) = (   0.2500000  -0.2886752   0.0840766), wk =   0.0078125
        k(  141) = (   0.2500000  -0.2886752   0.1681532), wk =   0.0078125
        k(  142) = (   0.2500000  -0.2886752   0.2522299), wk =   0.0078125
        k(  143) = (   0.2500001  -0.2886752  -0.3363066), wk =   0.0078125
        k(  144) = (   0.2500000  -0.2886752  -0.2522300), wk =   0.0078125
        k(  145) = (   0.2500000  -0.2886752  -0.1681533), wk =   0.0078125
        k(  146) = (   0.2500000  -0.2886752  -0.0840767), wk =   0.0078125
        k(  147) = (   0.2500000  -0.1443376  -0.0000000), wk =   0.0078125
        k(  148) = (   0.2500000  -0.1443376   0.0840766), wk =   0.0078125
        k(  149) = (   0.2500000  -0.1443376   0.1681532), wk =   0.0078125
        k(  150) = (   0.2500000  -0.1443376   0.2522299), wk =   0.0078125
        k(  151) = (   0.2500000  -0.1443376  -0.3363066), wk =   0.0078125
        k(  152) = (   0.2500000  -0.1443376  -0.2522299), wk =   0.0078125
        k(  153) = (   0.2500000  -0.1443376  -0.1681533), wk =   0.0078125
        k(  154) = (   0.2500000  -0.1443376  -0.0840767), wk =   0.0078125
        k(  155) = (   0.2500000  -0.0000000  -0.0000000), wk =   0.0078125
        k(  156) = (   0.2500000  -0.0000000   0.0840766), wk =   0.0078125
        k(  157) = (   0.2500000  -0.0000000   0.1681532), wk =   0.0078125
        k(  158) = (   0.2500000  -0.0000000   0.2522299), wk =   0.0078125
        k(  159) = (   0.2500000  -0.0000001  -0.3363066), wk =   0.0078125
        k(  160) = (   0.2500000  -0.0000000  -0.2522299), wk =   0.0078125
        k(  161) = (   0.2500000  -0.0000000  -0.1681533), wk =   0.0078125
        k(  162) = (   0.2500000  -0.0000000  -0.0840767), wk =   0.0078125
        k(  163) = (   0.3750000   0.2165063  -0.0000000), wk =   0.0078125
        k(  164) = (   0.3750000   0.2165063   0.0840766), wk =   0.0078125
        k(  165) = (   0.3750000   0.2165063   0.1681533), wk =   0.0078125
        k(  166) = (   0.3750000   0.2165064   0.2522299), wk =   0.0078125
        k(  167) = (   0.3750000   0.2165063  -0.3363066), wk =   0.0078125
        k(  168) = (   0.3750000   0.2165063  -0.2522299), wk =   0.0078125
        k(  169) = (   0.3750000   0.2165063  -0.1681533), wk =   0.0078125
        k(  170) = (   0.3750000   0.2165063  -0.0840767), wk =   0.0078125
        k(  171) = (   0.3750000   0.3608439  -0.0000000), wk =   0.0078125
        k(  172) = (   0.3750000   0.3608439   0.0840766), wk =   0.0078125
        k(  173) = (   0.3750000   0.3608439   0.1681533), wk =   0.0078125
        k(  174) = (   0.3750000   0.3608439   0.2522299), wk =   0.0078125
        k(  175) = (   0.3750000   0.3608439  -0.3363066), wk =   0.0078125
        k(  176) = (   0.3750000   0.3608439  -0.2522299), wk =   0.0078125
        k(  177) = (   0.3750000   0.3608439  -0.1681533), wk =   0.0078125
        k(  178) = (   0.3750000   0.3608439  -0.0840766), wk =   0.0078125
        k(  179) = (   0.3750000   0.5051815   0.0000000), wk =   0.0078125
        k(  180) = (   0.3750000   0.5051815   0.0840766), wk =   0.0078125
        k(  181) = (   0.3750000   0.5051815   0.1681533), wk =   0.0078125
        k(  182) = (   0.3749999   0.5051815   0.2522299), wk =   0.0078125
        k(  183) = (   0.3750000   0.5051815  -0.3363065), wk =   0.0078125
        k(  184) = (   0.3750000   0.5051815  -0.2522299), wk =   0.0078125
        k(  185) = (   0.3750000   0.5051815  -0.1681533), wk =   0.0078125
        k(  186) = (   0.3750000   0.5051815  -0.0840766), wk =   0.0078125
        k(  187) = (   0.3750000   0.6495191   0.0000000), wk =   0.0078125
        k(  188) = (   0.3750000   0.6495191   0.0840767), wk =   0.0078125
        k(  189) = (   0.3749999   0.6495191   0.1681533), wk =   0.0078125
        k(  190) = (   0.3749999   0.6495191   0.2522299), wk =   0.0078125
        k(  191) = (   0.3750000   0.6495190  -0.3363065), wk =   0.0078125
        k(  192) = (   0.3750000   0.6495191  -0.2522299), wk =   0.0078125
        k(  193) = (   0.3750000   0.6495191  -0.1681533), wk =   0.0078125
        k(  194) = (   0.3750000   0.6495191  -0.0840766), wk =   0.0078125
        k(  195) = (   0.3750000  -0.3608440  -0.0000001), wk =   0.0078125
        k(  196) = (   0.3750000  -0.3608440   0.0840766), wk =   0.0078125
        k(  197) = (   0.3750000  -0.3608440   0.1681532), wk =   0.0078125
        k(  198) = (   0.3750000  -0.3608440   0.2522298), wk =   0.0078125
        k(  199) = (   0.3750001  -0.3608440  -0.3363066), wk =   0.0078125
        k(  200) = (   0.3750000  -0.3608440  -0.2522300), wk =   0.0078125
        k(  201) = (   0.3750000  -0.3608440  -0.1681533), wk =   0.0078125
        k(  202) = (   0.3750000  -0.3608440  -0.0840767), wk =   0.0078125
        k(  203) = (   0.3750000  -0.2165064  -0.0000001), wk =   0.0078125
        k(  204) = (   0.3750000  -0.2165064   0.0840766), wk =   0.0078125
        k(  205) = (   0.3750000  -0.2165064   0.1681532), wk =   0.0078125
        k(  206) = (   0.3750000  -0.2165064   0.2522299), wk =   0.0078125
        k(  207) = (   0.3750000  -0.2165064  -0.3363066), wk =   0.0078125
        k(  208) = (   0.3750000  -0.2165064  -0.2522300), wk =   0.0078125
        k(  209) = (   0.3750000  -0.2165064  -0.1681533), wk =   0.0078125
        k(  210) = (   0.3750000  -0.2165064  -0.0840767), wk =   0.0078125
        k(  211) = (   0.3750000  -0.0721688  -0.0000000), wk =   0.0078125
        k(  212) = (   0.3750000  -0.0721688   0.0840766), wk =   0.0078125
        k(  213) = (   0.3750000  -0.0721688   0.1681532), wk =   0.0078125
        k(  214) = (   0.3750000  -0.0721688   0.2522299), wk =   0.0078125
        k(  215) = (   0.3750000  -0.0721689  -0.3363066), wk =   0.0078125
        k(  216) = (   0.3750000  -0.0721688  -0.2522300), wk =   0.0078125
        k(  217) = (   0.3750000  -0.0721688  -0.1681533), wk =   0.0078125
        k(  218) = (   0.3750000  -0.0721688  -0.0840767), wk =   0.0078125
        k(  219) = (   0.3750000   0.0721688  -0.0000000), wk =   0.0078125
        k(  220) = (   0.3750000   0.0721688   0.0840766), wk =   0.0078125
        k(  221) = (   0.3750000   0.0721688   0.1681532), wk =   0.0078125
        k(  222) = (   0.3750000   0.0721688   0.2522299), wk =   0.0078125
        k(  223) = (   0.3750000   0.0721687  -0.3363066), wk =   0.0078125
        k(  224) = (   0.3750000   0.0721687  -0.2522299), wk =   0.0078125
        k(  225) = (   0.3750000   0.0721687  -0.1681533), wk =   0.0078125
        k(  226) = (   0.3750000   0.0721687  -0.0840767), wk =   0.0078125
        k(  227) = (  -0.5000000  -0.2886751   0.0000000), wk =   0.0039062
        k(  228) = (  -0.5000000  -0.2886751   0.0840767), wk =   0.0078125
        k(  229) = (  -0.5000000  -0.2886751   0.1681533), wk =   0.0078125
        k(  230) = (  -0.5000000  -0.2886751   0.2522299), wk =   0.0078125
        k(  231) = (  -0.4999999  -0.2886751  -0.3363065), wk =   0.0039062
        k(  232) = (  -0.5000000  -0.1443375   0.0000000), wk =   0.0078125
        k(  233) = (  -0.5000000  -0.1443375   0.0840767), wk =   0.0078125
        k(  234) = (  -0.5000000  -0.1443375   0.1681533), wk =   0.0078125
        k(  235) = (  -0.5000000  -0.1443375   0.2522299), wk =   0.0078125
        k(  236) = (  -0.5000000  -0.1443376  -0.3363065), wk =   0.0078125
        k(  237) = (  -0.5000000  -0.1443376  -0.2522299), wk =   0.0078125
        k(  238) = (  -0.5000000  -0.1443375  -0.1681532), wk =   0.0078125
        k(  239) = (  -0.5000000  -0.1443375  -0.0840766), wk =   0.0078125
        k(  240) = (  -0.5000000   0.0000000   0.0000000), wk =   0.0078125
        k(  241) = (  -0.5000000   0.0000001   0.0840767), wk =   0.0078125
        k(  242) = (  -0.5000000   0.0000001   0.1681533), wk =   0.0078125
        k(  243) = (  -0.5000000   0.0000001   0.2522300), wk =   0.0078125
        k(  244) = (  -0.5000000   0.0000000  -0.3363065), wk =   0.0078125
        k(  245) = (  -0.5000000   0.0000000  -0.2522299), wk =   0.0078125
        k(  246) = (  -0.5000000   0.0000000  -0.1681532), wk =   0.0078125
        k(  247) = (  -0.5000000   0.0000000  -0.0840766), wk =   0.0078125
        k(  248) = (  -0.5000000   0.1443376   0.0000001), wk =   0.0078125
        k(  249) = (  -0.5000000   0.1443376   0.0840767), wk =   0.0078125
        k(  250) = (  -0.5000000   0.1443376   0.1681533), wk =   0.0078125
        k(  251) = (  -0.5000000   0.1443376   0.2522300), wk =   0.0078125
        k(  252) = (  -0.5000000   0.1443376  -0.3363065), wk =   0.0078125
        k(  253) = (  -0.5000000   0.1443376  -0.2522298), wk =   0.0078125
        k(  254) = (  -0.5000000   0.1443376  -0.1681532), wk =   0.0078125
        k(  255) = (  -0.5000000   0.1443376  -0.0840766), wk =   0.0078125
        k(  256) = (  -0.4999999  -0.8660254  -0.0000000), wk =   0.0039062
        k(  257) = (  -0.5000000  -0.8660254   0.0840766), wk =   0.0078125
        k(  258) = (  -0.5000000  -0.8660254   0.1681533), wk =   0.0078125
        k(  259) = (  -0.5000000  -0.8660254   0.2522299), wk =   0.0078125
        k(  260) = (  -0.4999999  -0.8660255  -0.3363066), wk =   0.0039062

                       cryst. coord.
        k(    1) = (   0.0000000   0.0000000   0.0000000), wk =   0.0039062
        k(    2) = (   0.0000000   0.0000000   0.1250000), wk =   0.0078125
        k(    3) = (   0.0000000   0.0000000   0.2500000), wk =   0.0078125
        k(    4) = (   0.0000000  -0.0000000   0.3750000), wk =   0.0078125
        k(    5) = (  -0.0000000  -0.0000000  -0.5000000), wk =   0.0039062
        k(    6) = (   0.0000000   0.1250000   0.0000000), wk =   0.0078125
        k(    7) = (  -0.0000000   0.1250000   0.1250000), wk =   0.0078125
        k(    8) = (   0.0000000   0.1250000   0.2500000), wk =   0.0078125
        k(    9) = (   0.0000000   0.1250000   0.3750000), wk =   0.0078125
        k(   10) = (  -0.0000000   0.1250000  -0.5000000), wk =   0.0078125
        k(   11) = (  -0.0000000   0.1250000  -0.3750000), wk =   0.0078125
        k(   12) = (  -0.0000000   0.1250000  -0.2500000), wk =   0.0078125
        k(   13) = (   0.0000000   0.1250000  -0.1250000), wk =   0.0078125
        k(   14) = (   0.0000000   0.2500000   0.0000000), wk =   0.0078125
        k(   15) = (  -0.0000000   0.2500000   0.1250000), wk =   0.0078125
        k(   16) = (  -0.0000000   0.2500000   0.2500000), wk =   0.0078125
        k(   17) = (   0.0000000   0.2500000   0.3750000), wk =   0.0078125
        k(   18) = (  -0.0000000   0.2500000  -0.5000000), wk =   0.0078125
        k(   19) = (   0.0000000   0.2500000  -0.3750000), wk =   0.0078125
        k(   20) = (   0.0000000   0.2500000  -0.2500000), wk =   0.0078125
        k(   21) = (  -0.0000000   0.2500000  -0.1250000), wk =   0.0078125
        k(   22) = (   0.0000000   0.3750000   0.0000000), wk =   0.0078125
        k(   23) = (  -0.0000000   0.3750000   0.1250000), wk =   0.0078125
        k(   24) = (   0.0000000   0.3750000   0.2500000), wk =   0.0078125
        k(   25) = (   0.0000000   0.3750000   0.3750000), wk =   0.0078125
        k(   26) = (   0.0000000   0.3750000  -0.5000000), wk =   0.0078125
        k(   27) = (  -0.0000000   0.3750000  -0.3750000), wk =   0.0078125
        k(   28) = (   0.0000000   0.3750000  -0.2500000), wk =   0.0078125
        k(   29) = (  -0.0000000   0.3750000  -0.1250000), wk =   0.0078125
        k(   30) = (  -0.0000000  -0.5000000  -0.0000000), wk =   0.0039062
        k(   31) = (  -0.0000000  -0.5000000   0.1250000), wk =   0.0078125
        k(   32) = (   0.0000000  -0.5000000   0.2500000), wk =   0.0078125
        k(   33) = (   0.0000000  -0.5000000   0.3750000), wk =   0.0078125
        k(   34) = (   0.0000000  -0.5000000  -0.5000000), wk =   0.0039062
        k(   35) = (   0.1250000  -0.0000000   0.0000000), wk =   0.0078125
        k(   36) = (   0.1250000  -0.0000000   0.1250000), wk =   0.0078125
        k(   37) = (   0.1250000  -0.0000000   0.2500000), wk =   0.0078125
        k(   38) = (   0.1250000  -0.0000000   0.3750000), wk =   0.0078125
        k(   39) = (   0.1250000  -0.0000000  -0.5000000), wk =   0.0078125
        k(   40) = (   0.1250000  -0.0000000  -0.3750000), wk =   0.0078125
        k(   41) = (   0.1250000  -0.0000000  -0.2500000), wk =   0.0078125
        k(   42) = (   0.1250000  -0.0000000  -0.1250000), wk =   0.0078125
        k(   43) = (   0.1250000   0.1250000   0.0000000), wk =   0.0078125
        k(   44) = (   0.1250000   0.1250000   0.1250000), wk =   0.0078125
        k(   45) = (   0.1250000   0.1250000   0.2500000), wk =   0.0078125
        k(   46) = (   0.1250000   0.1250000   0.3750000), wk =   0.0078125
        k(   47) = (   0.1250000   0.1250000  -0.5000000), wk =   0.0078125
        k(   48) = (   0.1250000   0.1250000  -0.3750000), wk =   0.0078125
        k(   49) = (   0.1250000   0.1250000  -0.2500000), wk =   0.0078125
        k(   50) = (   0.1250000   0.1250000  -0.1250000), wk =   0.0078125
        k(   51) = (   0.1250000   0.2500000   0.0000000), wk =   0.0078125
        k(   52) = (   0.1250000   0.2500000   0.1250000), wk =   0.0078125
        k(   53) = (   0.1250000   0.2500000   0.2500000), wk =   0.0078125
        k(   54) = (   0.1250000   0.2500000   0.3750000), wk =   0.0078125
        k(   55) = (   0.1250000   0.2500000  -0.5000000), wk =   0.0078125
        k(   56) = (   0.1250000   0.2500000  -0.3750000), wk =   0.0078125
        k(   57) = (   0.1250000   0.2500000  -0.2500000), wk =   0.0078125
        k(   58) = (   0.1250000   0.2500000  -0.1250000), wk =   0.0078125
        k(   59) = (   0.1250000   0.3750000   0.0000000), wk =   0.0078125
        k(   60) = (   0.1250000   0.3750000   0.1250000), wk =   0.0078125
        k(   61) = (   0.1250000   0.3750000   0.2500000), wk =   0.0078125
        k(   62) = (   0.1250000   0.3750000   0.3750000), wk =   0.0078125
        k(   63) = (   0.1250000   0.3750000  -0.5000000), wk =   0.0078125
        k(   64) = (   0.1250000   0.3750000  -0.3750000), wk =   0.0078125
        k(   65) = (   0.1250000   0.3750000  -0.2500000), wk =   0.0078125
        k(   66) = (   0.1250000   0.3750000  -0.1250000), wk =   0.0078125
        k(   67) = (   0.1250000  -0.5000000   0.0000000), wk =   0.0078125
        k(   68) = (   0.1250000  -0.5000000   0.1250000), wk =   0.0078125
        k(   69) = (   0.1250000  -0.5000000   0.2500000), wk =   0.0078125
        k(   70) = (   0.1250000  -0.5000000   0.3750000), wk =   0.0078125
        k(   71) = (   0.1250000  -0.5000000  -0.5000000), wk =   0.0078125
        k(   72) = (   0.1250000  -0.5000000  -0.3750000), wk =   0.0078125
        k(   73) = (   0.1250000  -0.5000000  -0.2500000), wk =   0.0078125
        k(   74) = (   0.1250000  -0.5000000  -0.1250000), wk =   0.0078125
        k(   75) = (   0.1250000  -0.3750000   0.0000000), wk =   0.0078125
        k(   76) = (   0.1250000  -0.3750000   0.1250000), wk =   0.0078125
        k(   77) = (   0.1250000  -0.3750000   0.2500000), wk =   0.0078125
        k(   78) = (   0.1250000  -0.3750000   0.3750000), wk =   0.0078125
        k(   79) = (   0.1250000  -0.3750000  -0.5000000), wk =   0.0078125
        k(   80) = (   0.1250000  -0.3750000  -0.3750000), wk =   0.0078125
        k(   81) = (   0.1250000  -0.3750000  -0.2500000), wk =   0.0078125
        k(   82) = (   0.1250000  -0.3750000  -0.1250000), wk =   0.0078125
        k(   83) = (   0.1250000  -0.2500000   0.0000000), wk =   0.0078125
        k(   84) = (   0.1250000  -0.2500000   0.1250000), wk =   0.0078125
        k(   85) = (   0.1250000  -0.2500000   0.2500000), wk =   0.0078125
        k(   86) = (   0.1250000  -0.2500000   0.3750000), wk =   0.0078125
        k(   87) = (   0.1250000  -0.2500000  -0.5000000), wk =   0.0078125
        k(   88) = (   0.1250000  -0.2500000  -0.3750000), wk =   0.0078125
        k(   89) = (   0.1250000  -0.2500000  -0.2500000), wk =   0.0078125
        k(   90) = (   0.1250000  -0.2500000  -0.1250000), wk =   0.0078125
        k(   91) = (   0.1250000  -0.1250000   0.0000000), wk =   0.0078125
        k(   92) = (   0.1250000  -0.1250000   0.1250000), wk =   0.0078125
        k(   93) = (   0.1250000  -0.1250000   0.2500000), wk =   0.0078125
        k(   94) = (   0.1250000  -0.1250000   0.3750000), wk =   0.0078125
        k(   95) = (   0.1250000  -0.1250000  -0.5000000), wk =   0.0078125
        k(   96) = (   0.1250000  -0.1250000  -0.3750000), wk =   0.0078125
        k(   97) = (   0.1250000  -0.1250000  -0.2500000), wk =   0.0078125
        k(   98) = (   0.1250000  -0.1250000  -0.1250000), wk =   0.0078125
        k(   99) = (   0.2500000  -0.0000000   0.0000000), wk =   0.0078125
        k(  100) = (   0.2500000  -0.0000000   0.1250000), wk =   0.0078125
        k(  101) = (   0.2500000  -0.0000000   0.2500000), wk =   0.0078125
        k(  102) = (   0.2500000  -0.0000000   0.3750000), wk =   0.0078125
        k(  103) = (   0.2500000  -0.0000000  -0.5000000), wk =   0.0078125
        k(  104) = (   0.2500000  -0.0000000  -0.3750000), wk =   0.0078125
        k(  105) = (   0.2500000  -0.0000000  -0.2500000), wk =   0.0078125
        k(  106) = (   0.2500000  -0.0000000  -0.1250000), wk =   0.0078125
        k(  107) = (   0.2500000   0.1250000   0.0000000), wk =   0.0078125
        k(  108) = (   0.2500000   0.1250000   0.1250000), wk =   0.0078125
        k(  109) = (   0.2500000   0.1250000   0.2500000), wk =   0.0078125
        k(  110) = (   0.2500000   0.1250000   0.3750000), wk =   0.0078125
        k(  111) = (   0.2500000   0.1250000  -0.5000000), wk =   0.0078125
        k(  112) = (   0.2500000   0.1250000  -0.3750000), wk =   0.0078125
        k(  113) = (   0.2500000   0.1250000  -0.2500000), wk =   0.0078125
        k(  114) = (   0.2500000   0.1250000  -0.1250000), wk =   0.0078125
        k(  115) = (   0.2500000   0.2500000   0.0000000), wk =   0.0078125
        k(  116) = (   0.2500000   0.2500000   0.1250000), wk =   0.0078125
        k(  117) = (   0.2500000   0.2500000   0.2500000), wk =   0.0078125
        k(  118) = (   0.2500000   0.2500000   0.3750000), wk =   0.0078125
        k(  119) = (   0.2500000   0.2500000  -0.5000000), wk =   0.0078125
        k(  120) = (   0.2500000   0.2500000  -0.3750000), wk =   0.0078125
        k(  121) = (   0.2500000   0.2500000  -0.2500000), wk =   0.0078125
        k(  122) = (   0.2500000   0.2500000  -0.1250000), wk =   0.0078125
        k(  123) = (   0.2500000   0.3750000   0.0000000), wk =   0.0078125
        k(  124) = (   0.2500000   0.3750000   0.1250000), wk =   0.0078125
        k(  125) = (   0.2500000   0.3750000   0.2500000), wk =   0.0078125
        k(  126) = (   0.2500000   0.3750000   0.3750000), wk =   0.0078125
        k(  127) = (   0.2500000   0.3750000  -0.5000000), wk =   0.0078125
        k(  128) = (   0.2500000   0.3750000  -0.3750000), wk =   0.0078125
        k(  129) = (   0.2500000   0.3750000  -0.2500000), wk =   0.0078125
        k(  130) = (   0.2500000   0.3750000  -0.1250000), wk =   0.0078125
        k(  131) = (   0.2500000  -0.5000000   0.0000000), wk =   0.0078125
        k(  132) = (   0.2500000  -0.5000000   0.1250000), wk =   0.0078125
        k(  133) = (   0.2500000  -0.5000000   0.2500000), wk =   0.0078125
        k(  134) = (   0.2500000  -0.5000000   0.3750000), wk =   0.0078125
        k(  135) = (   0.2500000  -0.5000000  -0.5000000), wk =   0.0078125
        k(  136) = (   0.2500000  -0.5000000  -0.3750000), wk =   0.0078125
        k(  137) = (   0.2500000  -0.5000000  -0.2500000), wk =   0.0078125
        k(  138) = (   0.2500000  -0.5000000  -0.1250000), wk =   0.0078125
        k(  139) = (   0.2500000  -0.3750000   0.0000000), wk =   0.0078125
        k(  140) = (   0.2500000  -0.3750000   0.1250000), wk =   0.0078125
        k(  141) = (   0.2500000  -0.3750000   0.2500000), wk =   0.0078125
        k(  142) = (   0.2500000  -0.3750000   0.3750000), wk =   0.0078125
        k(  143) = (   0.2500000  -0.3750000  -0.5000000), wk =   0.0078125
        k(  144) = (   0.2500000  -0.3750000  -0.3750000), wk =   0.0078125
        k(  145) = (   0.2500000  -0.3750000  -0.2500000), wk =   0.0078125
        k(  146) = (   0.2500000  -0.3750000  -0.1250000), wk =   0.0078125
        k(  147) = (   0.2500000  -0.2500000   0.0000000), wk =   0.0078125
        k(  148) = (   0.2500000  -0.2500000   0.1250000), wk =   0.0078125
        k(  149) = (   0.2500000  -0.2500000   0.2500000), wk =   0.0078125
        k(  150) = (   0.2500000  -0.2500000   0.3750000), wk =   0.0078125
        k(  151) = (   0.2500000  -0.2500000  -0.5000000), wk =   0.0078125
        k(  152) = (   0.2500000  -0.2500000  -0.3750000), wk =   0.0078125
        k(  153) = (   0.2500000  -0.2500000  -0.2500000), wk =   0.0078125
        k(  154) = (   0.2500000  -0.2500000  -0.1250000), wk =   0.0078125
        k(  155) = (   0.2500000  -0.1250000   0.0000000), wk =   0.0078125
        k(  156) = (   0.2500000  -0.1250000   0.1250000), wk =   0.0078125
        k(  157) = (   0.2500000  -0.1250000   0.2500000), wk =   0.0078125
        k(  158) = (   0.2500000  -0.1250000   0.3750000), wk =   0.0078125
        k(  159) = (   0.2500000  -0.1250000  -0.5000000), wk =   0.0078125
        k(  160) = (   0.2500000  -0.1250000  -0.3750000), wk =   0.0078125
        k(  161) = (   0.2500000  -0.1250000  -0.2500000), wk =   0.0078125
        k(  162) = (   0.2500000  -0.1250000  -0.1250000), wk =   0.0078125
        k(  163) = (   0.3750000  -0.0000000   0.0000000), wk =   0.0078125
        k(  164) = (   0.3750000  -0.0000000   0.1250000), wk =   0.0078125
        k(  165) = (   0.3750000  -0.0000000   0.2500000), wk =   0.0078125
        k(  166) = (   0.3750000  -0.0000000   0.3750000), wk =   0.0078125
        k(  167) = (   0.3750000  -0.0000000  -0.5000000), wk =   0.0078125
        k(  168) = (   0.3750000  -0.0000000  -0.3750000), wk =   0.0078125
        k(  169) = (   0.3750000  -0.0000000  -0.2500000), wk =   0.0078125
        k(  170) = (   0.3750000  -0.0000000  -0.1250000), wk =   0.0078125
        k(  171) = (   0.3750000   0.1250000   0.0000000), wk =   0.0078125
        k(  172) = (   0.3750000   0.1250000   0.1250000), wk =   0.0078125
        k(  173) = (   0.3750000   0.1250000   0.2500000), wk =   0.0078125
        k(  174) = (   0.3750000   0.1250000   0.3750000), wk =   0.0078125
        k(  175) = (   0.3750000   0.1250000  -0.5000000), wk =   0.0078125
        k(  176) = (   0.3750000   0.1250000  -0.3750000), wk =   0.0078125
        k(  177) = (   0.3750000   0.1250000  -0.2500000), wk =   0.0078125
        k(  178) = (   0.3750000   0.1250000  -0.1250000), wk =   0.0078125
        k(  179) = (   0.3750000   0.2500000   0.0000000), wk =   0.0078125
        k(  180) = (   0.3750000   0.2500000   0.1250000), wk =   0.0078125
        k(  181) = (   0.3750000   0.2500000   0.2500000), wk =   0.0078125
        k(  182) = (   0.3750000   0.2500000   0.3750000), wk =   0.0078125
        k(  183) = (   0.3750000   0.2500000  -0.5000000), wk =   0.0078125
        k(  184) = (   0.3750000   0.2500000  -0.3750000), wk =   0.0078125
        k(  185) = (   0.3750000   0.2500000  -0.2500000), wk =   0.0078125
        k(  186) = (   0.3750000   0.2500000  -0.1250000), wk =   0.0078125
        k(  187) = (   0.3750000   0.3750000   0.0000000), wk =   0.0078125
        k(  188) = (   0.3750000   0.3750000   0.1250000), wk =   0.0078125
        k(  189) = (   0.3750000   0.3750000   0.2500000), wk =   0.0078125
        k(  190) = (   0.3750000   0.3750000   0.3750000), wk =   0.0078125
        k(  191) = (   0.3750000   0.3750000  -0.5000000), wk =   0.0078125
        k(  192) = (   0.3750000   0.3750000  -0.3750000), wk =   0.0078125
        k(  193) = (   0.3750000   0.3750000  -0.2500000), wk =   0.0078125
        k(  194) = (   0.3750000   0.3750000  -0.1250000), wk =   0.0078125
        k(  195) = (   0.3750000  -0.5000000  -0.0000000), wk =   0.0078125
        k(  196) = (   0.3750000  -0.5000000   0.1250000), wk =   0.0078125
        k(  197) = (   0.3750000  -0.5000000   0.2500000), wk =   0.0078125
        k(  198) = (   0.3750000  -0.5000000   0.3750000), wk =   0.0078125
        k(  199) = (   0.3750000  -0.5000000  -0.5000000), wk =   0.0078125
        k(  200) = (   0.3750000  -0.5000000  -0.3750000), wk =   0.0078125
        k(  201) = (   0.3750000  -0.5000000  -0.2500000), wk =   0.0078125
        k(  202) = (   0.3750000  -0.5000000  -0.1250000), wk =   0.0078125
        k(  203) = (   0.3750000  -0.3750000   0.0000000), wk =   0.0078125
        k(  204) = (   0.3750000  -0.3750000   0.1250000), wk =   0.0078125
        k(  205) = (   0.3750000  -0.3750000   0.2500000), wk =   0.0078125
        k(  206) = (   0.3750000  -0.3750000   0.3750000), wk =   0.0078125
        k(  207) = (   0.3750000  -0.3750000  -0.5000000), wk =   0.0078125
        k(  208) = (   0.3750000  -0.3750000  -0.3750000), wk =   0.0078125
        k(  209) = (   0.3750000  -0.3750000  -0.2500000), wk =   0.0078125
        k(  210) = (   0.3750000  -0.3750000  -0.1250000), wk =   0.0078125
        k(  211) = (   0.3750000  -0.2500000  -0.0000000), wk =   0.0078125
        k(  212) = (   0.3750000  -0.2500000   0.1250000), wk =   0.0078125
        k(  213) = (   0.3750000  -0.2500000   0.2500000), wk =   0.0078125
        k(  214) = (   0.3750000  -0.2500000   0.3750000), wk =   0.0078125
        k(  215) = (   0.3750000  -0.2500000  -0.5000000), wk =   0.0078125
        k(  216) = (   0.3750000  -0.2500000  -0.3750000), wk =   0.0078125
        k(  217) = (   0.3750000  -0.2500000  -0.2500000), wk =   0.0078125
        k(  218) = (   0.3750000  -0.2500000  -0.1250000), wk =   0.0078125
        k(  219) = (   0.3750000  -0.1250000   0.0000000), wk =   0.0078125
        k(  220) = (   0.3750000  -0.1250000   0.1250000), wk =   0.0078125
        k(  221) = (   0.3750000  -0.1250000   0.2500000), wk =   0.0078125
        k(  222) = (   0.3750000  -0.1250000   0.3750000), wk =   0.0078125
        k(  223) = (   0.3750000  -0.1250000  -0.5000000), wk =   0.0078125
        k(  224) = (   0.3750000  -0.1250000  -0.3750000), wk =   0.0078125
        k(  225) = (   0.3750000  -0.1250000  -0.2500000), wk =   0.0078125
        k(  226) = (   0.3750000  -0.1250000  -0.1250000), wk =   0.0078125
        k(  227) = (  -0.5000000   0.0000000  -0.0000000), wk =   0.0039062
        k(  228) = (  -0.5000000   0.0000000   0.1250000), wk =   0.0078125
        k(  229) = (  -0.5000000   0.0000000   0.2500000), wk =   0.0078125
        k(  230) = (  -0.5000000   0.0000000   0.3750000), wk =   0.0078125
        k(  231) = (  -0.5000000   0.0000000  -0.5000000), wk =   0.0039062
        k(  232) = (  -0.5000000   0.1250000  -0.0000000), wk =   0.0078125
        k(  233) = (  -0.5000000   0.1250000   0.1250000), wk =   0.0078125
        k(  234) = (  -0.5000000   0.1250000   0.2500000), wk =   0.0078125
        k(  235) = (  -0.5000000   0.1250000   0.3750000), wk =   0.0078125
        k(  236) = (  -0.5000000   0.1250000  -0.5000000), wk =   0.0078125
        k(  237) = (  -0.5000000   0.1250000  -0.3750000), wk =   0.0078125
        k(  238) = (  -0.5000000   0.1250000  -0.2500000), wk =   0.0078125
        k(  239) = (  -0.5000000   0.1250000  -0.1250000), wk =   0.0078125
        k(  240) = (  -0.5000000   0.2500000  -0.0000000), wk =   0.0078125
        k(  241) = (  -0.5000000   0.2500000   0.1250000), wk =   0.0078125
        k(  242) = (  -0.5000000   0.2500000   0.2500000), wk =   0.0078125
        k(  243) = (  -0.5000000   0.2500000   0.3750000), wk =   0.0078125
        k(  244) = (  -0.5000000   0.2500000  -0.5000000), wk =   0.0078125
        k(  245) = (  -0.5000000   0.2500000  -0.3750000), wk =   0.0078125
        k(  246) = (  -0.5000000   0.2500000  -0.2500000), wk =   0.0078125
        k(  247) = (  -0.5000000   0.2500000  -0.1250000), wk =   0.0078125
        k(  248) = (  -0.5000000   0.3750000  -0.0000000), wk =   0.0078125
        k(  249) = (  -0.5000000   0.3750000   0.1250000), wk =   0.0078125
        k(  250) = (  -0.5000000   0.3750000   0.2500000), wk =   0.0078125
        k(  251) = (  -0.5000000   0.3750000   0.3750000), wk =   0.0078125
        k(  252) = (  -0.5000000   0.3750000  -0.5000000), wk =   0.0078125
        k(  253) = (  -0.5000000   0.3750000  -0.3750000), wk =   0.0078125
        k(  254) = (  -0.5000000   0.3750000  -0.2500000), wk =   0.0078125
        k(  255) = (  -0.5000000   0.3750000  -0.1250000), wk =   0.0078125
        k(  256) = (  -0.5000000  -0.5000000  -0.0000000), wk =   0.0039062
        k(  257) = (  -0.5000000  -0.5000000   0.1250000), wk =   0.0078125
        k(  258) = (  -0.5000000  -0.5000000   0.2500000), wk =   0.0078125
        k(  259) = (  -0.5000000  -0.5000000   0.3750000), wk =   0.0078125
        k(  260) = (  -0.5000000  -0.5000000  -0.5000000), wk =   0.0039062

     Dense  grid:    78355 G-vectors     FFT dimensions: (  50,  50,  80)

     Smooth grid:    30443 G-vectors     FFT dimensions: (  36,  36,  54)

     Dynamical RAM for                 wfc:       0.09 MB

     Dynamical RAM for     wfc (w. buffer):       6.23 MB

     Dynamical RAM for           str. fact:       0.15 MB

     Dynamical RAM for           local pot:       0.00 MB

     Dynamical RAM for          nlocal pot:       0.23 MB

     Dynamical RAM for                qrad:       3.92 MB

     Dynamical RAM for          rho,v,vnew:       0.51 MB

     Dynamical RAM for               rhoin:       0.17 MB

     Dynamical RAM for            rho*nmix:       1.20 MB

     Dynamical RAM for           G-vectors:       0.29 MB

     Dynamical RAM for          h,s,v(r/c):       0.12 MB

     Dynamical RAM for          <psi|beta>:       0.02 MB

     Dynamical RAM for                 psi:       0.38 MB

     Dynamical RAM for                hpsi:       0.38 MB

     Dynamical RAM for                spsi:       0.38 MB

     Dynamical RAM for      wfcinit/wfcrot:       0.27 MB

     Dynamical RAM for           addusdens:       3.57 MB

     Dynamical RAM for          addusforce:       3.72 MB

     Dynamical RAM for         addusstress:       3.79 MB

     Estimated static dynamical RAM per process >      13.40 MB

     Estimated max dynamical RAM per process >      17.18 MB

     Estimated total dynamical RAM >       1.07 GB

     Check: negative core charge=   -0.000003

     Initial potential from superposition of free atoms

     starting charge   51.99974, renormalised to   52.00000
     Starting wfcs are   34 randomized atomic wfcs

     total cpu time spent up to now is        1.0 secs

     Self-consistent Calculation

     iteration #  1     ecut=    80.00 Ry     beta= 0.50
     Davidson diagonalization with overlap
     ethr =  1.00E-02,  avg # of iterations =  1.0

     total cpu time spent up to now is        1.8 secs

     total energy              =    -986.76118423 Ry
     Harris-Foulkes estimate   =    -987.28321636 Ry
     estimated scf accuracy    <       0.82098808 Ry

     iteration #  2     ecut=    80.00 Ry     beta= 0.50
     Davidson diagonalization with overlap
     ethr =  1.58E-03,  avg # of iterations =  3.0

     total cpu time spent up to now is        3.1 secs

     total energy              =    -987.00301200 Ry
     Harris-Foulkes estimate   =    -987.17073897 Ry
     estimated scf accuracy    <       0.38707364 Ry

     iteration #  3     ecut=    80.00 Ry     beta= 0.50
     Davidson diagonalization with overlap
     ethr =  7.44E-04,  avg # of iterations =  2.1

     total cpu time spent up to now is        4.2 secs

     total energy              =    -987.07265975 Ry
     Harris-Foulkes estimate   =    -987.07494795 Ry
     estimated scf accuracy    <       0.00685144 Ry

     iteration #  4     ecut=    80.00 Ry     beta= 0.50
     Davidson diagonalization with overlap
     ethr =  1.32E-05,  avg # of iterations =  2.0

     total cpu time spent up to now is        5.3 secs

     total energy              =    -987.07324505 Ry
     Harris-Foulkes estimate   =    -987.07369626 Ry
     estimated scf accuracy    <       0.00153503 Ry

     iteration #  5     ecut=    80.00 Ry     beta= 0.50
     Davidson diagonalization with overlap
     ethr =  2.95E-06,  avg # of iterations =  2.0

     total cpu time spent up to now is        6.3 secs

     total energy              =    -987.07340501 Ry
     Harris-Foulkes estimate   =    -987.07341440 Ry
     estimated scf accuracy    <       0.00001838 Ry

     iteration #  6     ecut=    80.00 Ry     beta= 0.50
     Davidson diagonalization with overlap
     ethr =  3.53E-08,  avg # of iterations =  2.0

     total cpu time spent up to now is        7.4 secs

     total energy              =    -987.07340807 Ry
     Harris-Foulkes estimate   =    -987.07340730 Ry
     estimated scf accuracy    <       0.00000355 Ry

     iteration #  7     ecut=    80.00 Ry     beta= 0.50
     Davidson diagonalization with overlap
     ethr =  6.83E-09,  avg # of iterations =  2.0

     total cpu time spent up to now is        8.3 secs

     End of self-consistent calculation

          k = 0.0000 0.0000 0.0000 (  3765 PWs)   bands (ev):

  -114.2084-114.2081 -68.5970 -68.5926 -68.5530 -68.5530 -68.5520 -68.5520
    -9.1441  -8.2455   3.0369   3.0369   3.0906   3.0906   3.5558   3.6816
     4.3111   4.3111   4.5822   4.5822   4.9639   8.1981   8.1981   8.5387
     8.8960   8.8960

     occupation numbers 
     1.0000   1.0000   1.0000   1.0000   1.0000   1.0000   1.0000   1.0000
     1.0000   1.0000   1.0000   1.0000   1.0000   1.0000   1.0000   1.0000
     1.0000   1.0000   1.0000   1.0000   1.0000   1.0000   1.0000   1.0000
     1.0000   1.0000

          k =-0.0000 0.0000 0.0841 (  3789 PWs)   bands (ev):

  -114.2084-114.2081 -68.5969 -68.5928 -68.5530 -68.5530 -68.5521 -68.5521
    -9.1113  -8.2810   3.0335   3.0335   3.0834   3.0834   3.4519   3.6314
     4.3269   4.3269   4.5773   4.5773   5.1722   8.2265   8.2265   8.2269
     8.8717   8.8717

     occupation numbers 
     1.0000   1.0000   1.0000   1.0000   1.0000   1.0000   1.0000   1.0000
     1.0000   1.0000   1.0000   1.0000   1.0000   1.0000   1.0000   1.0000
     1.0000   1.0000   1.0000   1.0000   1.0000   1.0000   1.0000   1.0000
     1.0000   1.0000

          k =-0.0000 0.0000 0.1682 (  3788 PWs)   bands (ev):

  -114.2084-114.2082 -68.5963 -68.5933 -68.5529 -68.5528 -68.5522 -68.5522
    -9.0175  -8.3817   3.0266   3.0266   3.0652   3.0652   3.2847   3.5016
     4.3693   4.3693   4.5607   4.5607   5.6368   7.7166   8.3067   8.3067
     8.8015   8.8015

     occupation numbers 
     1.0000   1.0000   1.0000   1.0000   1.0000   1.0000   1.0000   1.0000
     1.0000   1.0000   1.0000   1.0000   1.0000   1.0000   1.0000   1.0000
     1.0000   1.0000   1.0000   1.0000   1.0000   1.0000   1.0000   1.0000
     1.0000   1.0000

          k =-0.0000 0.0000 0.2522 (  3836 PWs)   bands (ev):

  -114.2084-114.2082 -68.5957 -68.5940 -68.5528 -68.5528 -68.5524 -68.5524
    -8.8752  -8.5309   3.0230   3.0230   3.0442   3.0442   3.1988   3.3454
     4.4259   4.4259   4.5294   4.5294   6.1733   7.2108   8.4249   8.4249
     8.6933   8.6933

     occupation numbers 
     1.0000   1.0000   1.0000   1.0000   1.0000   1.0000   1.0000   1.0000
     1.0000   1.0000   1.0000   1.0000   1.0000   1.0000   1.0000   1.0000
     1.0000   1.0000   1.0000   1.0000   1.0000   1.0000   1.0000   1.0000
     1.0000   1.0000

          k = 0.0000-0.0000-0.3363 (  3842 PWs)   bands (ev):

  -114.2083-114.2083 -68.5949 -68.5948 -68.5526 -68.5526 -68.5526 -68.5526
    -8.7047  -8.7043   3.0285   3.0285   3.0287   3.0287   3.2268   3.2269
     4.4828   4.4828   4.4828   4.4828   6.7030   6.7031   8.5610   8.5610
     8.5613   8.5613

     occupation numbers 
     1.0000   1.0000   1.0000   1.0000   1.0000   1.0000   1.0000   1.0000
     1.0000   1.0000   1.0000   1.0000   1.0000   1.0000   1.0000   1.0000
     1.0000   1.0000   1.0000   1.0000   1.0000   1.0000   1.0000   1.0000
     1.0000   1.0000

          k =-0.0000 0.1443 0.0000 (  3797 PWs)   bands (ev):

  -114.2084-114.2081 -68.5968 -68.5927 -68.5533 -68.5531 -68.5523 -68.5521
    -9.0565  -8.2147   2.9578   3.0890   3.1100   3.1733   3.5682   3.7133
     4.2791   4.2981   4.5925   4.7416   4.9604   7.6313   7.9506   8.0701
     8.4722   8.7378

     occupation numbers 
     1.0000   1.0000   1.0000   1.0000   1.0000   1.0000   1.0000   1.0000
     1.0000   1.0000   1.0000   1.0000   1.0000   1.0000   1.0000   1.0000
     1.0000   1.0000   1.0000   1.0000   1.0000   1.0000   1.0000   1.0000
     1.0000   1.0000

          k =-0.0000 0.1443 0.0841 (  3799 PWs)   bands (ev):

  -114.2084-114.2081 -68.5967 -68.5929 -68.5533 -68.5531 -68.5524 -68.5521
    -9.0254  -8.2475   2.9503   3.0636   3.1070   3.1656   3.4821   3.6608
     4.3034   4.3145   4.5862   4.6715   5.2235   7.6513   7.8629   7.9826
     8.5775   8.7103

     occupation numbers 
     1.0000   1.0000   1.0000   1.0000   1.0000   1.0000   1.0000   1.0000
     1.0000   1.0000   1.0000   1.0000   1.0000   1.0000   1.0000   1.0000
     1.0000   1.0000   1.0000   1.0000   1.0000   1.0000   1.0000   1.0000
     1.0000   1.0000

          k =-0.0000 0.1443 0.1682 (  3809 PWs)   bands (ev):

  -114.2084-114.2082 -68.5963 -68.5934 -68.5532 -68.5530 -68.5524 -68.5522
    -8.9364  -8.3405   2.9295   2.9931   3.1011   3.1460   3.3559   3.5356
     4.3585   4.3627   4.5658   4.6158   5.7025   7.4322   7.8345   8.0729
     8.6015   8.6306

     occupation numbers 
     1.0000   1.0000   1.0000   1.0000   1.0000   1.0000   1.0000   1.0000
     1.0000   1.0000   1.0000   1.0000   1.0000   1.0000   1.0000   1.0000
     1.0000   1.0000   1.0000   1.0000   1.0000   1.0000   1.0000   1.0000
     1.0000   1.0000

          k =-0.0000 0.1443 0.2522 (  3810 PWs)   bands (ev):

  -114.2083-114.2082 -68.5956 -68.5940 -68.5530 -68.5528 -68.5526 -68.5524
    -8.8019  -8.4791   2.9010   2.9231   3.0988   3.1232   3.3008   3.4030
     4.4176   4.4351   4.5296   4.5659   6.2065   7.0613   8.0211   8.2059
     8.4729   8.5082

     occupation numbers 
     1.0000   1.0000   1.0000   1.0000   1.0000   1.0000   1.0000   1.0000
     1.0000   1.0000   1.0000   1.0000   1.0000   1.0000   1.0000   1.0000
     1.0000   1.0000   1.0000   1.0000   1.0000   1.0000   1.0000   1.0000
     1.0000   1.0000

          k = 0.0000 0.1443-0.3363 (  3806 PWs)   bands (ev):

  -114.2083-114.2082 -68.5948 -68.5948 -68.5528 -68.5528 -68.5527 -68.5526
    -8.6416  -8.6411   2.8920   2.8921   3.1058   3.1060   3.3179   3.3180
     4.4782   4.4783   4.5056   4.5057   6.6612   6.6613   8.2551   8.2554
     8.3591   8.3594

     occupation numbers 
     1.0000   1.0000   1.0000   1.0000   1.0000   1.0000   1.0000   1.0000
     1.0000   1.0000   1.0000   1.0000   1.0000   1.0000   1.0000   1.0000
     1.0000   1.0000   1.0000   1.0000   1.0000   1.0000   1.0000   1.0000
     1.0000   1.0000

          k = 0.0000 0.1443-0.2522 (  3810 PWs)   bands (ev):

  -114.2083-114.2082 -68.5956 -68.5940 -68.5530 -68.5528 -68.5526 -68.5524
    -8.8019  -8.4791   2.9011   2.9230   3.0988   3.1232   3.3008   3.4030
     4.4176   4.4351   4.5296   4.5659   6.2065   7.0613   8.0211   8.2059
     8.4729   8.5082

     occupation numbers 
     1.0000   1.0000   1.0000   1.0000   1.0000   1.0000   1.0000   1.0000
     1.0000   1.0000   1.0000   1.0000   1.0000   1.0000   1.0000   1.0000
     1.0000   1.0000   1.0000   1.0000   1.0000   1.0000   1.0000   1.0000
     1.0000   1.0000

          k = 0.0000 0.1443-0.1682 (  3809 PWs)   bands (ev):

  -114.2084-114.2082 -68.5963 -68.5934 -68.5532 -68.5530 -68.5524 -68.5522
    -8.9364  -8.3405   2.9295   2.9931   3.1010   3.1460   3.3559   3.5356
     4.3585   4.3627   4.5658   4.6158   5.7025   7.4322   7.8345   8.0729
     8.6016   8.6306

     occupation numbers 
     1.0000   1.0000   1.0000   1.0000   1.0000   1.0000   1.0000   1.0000
     1.0000   1.0000   1.0000   1.0000   1.0000   1.0000   1.0000   1.0000
     1.0000   1.0000   1.0000   1.0000   1.0000   1.0000   1.0000   1.0000
     1.0000   1.0000

          k =-0.0000 0.1443-0.0841 (  3799 PWs)   bands (ev):

  -114.2084-114.2081 -68.5967 -68.5929 -68.5533 -68.5531 -68.5524 -68.5521
    -9.0254  -8.2475   2.9503   3.0636   3.1070   3.1656   3.4821   3.6608
     4.3034   4.3145   4.5862   4.6715   5.2235   7.6513   7.8628   7.9826
     8.5775   8.7103

     occupation numbers 
     1.0000   1.0000   1.0000   1.0000   1.0000   1.0000   1.0000   1.0000
     1.0000   1.0000   1.0000   1.0000   1.0000   1.0000   1.0000   1.0000
     1.0000   1.0000   1.0000   1.0000   1.0000   1.0000   1.0000   1.0000
     1.0000   1.0000

          k =-0.0000 0.2887 0.0000 (  3809 PWs)   bands (ev):

  -114.2084-114.2081 -68.5964 -68.5931 -68.5538 -68.5534 -68.5530 -68.5522
    -8.8284  -8.1508   2.8250   3.0932   3.3029   3.3870   3.6502   3.7966
     4.2221   4.2921   4.6121   4.8943   5.1708   6.4841   7.0496   7.3587
     8.2672   8.3353

     occupation numbers 
     1.0000   1.0000   1.0000   1.0000   1.0000   1.0000   1.0000   1.0000
     1.0000   1.0000   1.0000   1.0000   1.0000   1.0000   1.0000   1.0000
     1.0000   1.0000   1.0000   1.0000   1.0000   1.0000   1.0000   1.0000
     1.0000   1.0000

          k =-0.0000 0.2887 0.0841 (  3803 PWs)   bands (ev):

  -114.2084-114.2081 -68.5963 -68.5932 -68.5538 -68.5533 -68.5530 -68.5522
    -8.8022  -8.1757   2.8106   3.0437   3.3008   3.3785   3.5779   3.7307
     4.2705   4.3078   4.6026   4.8003   5.4187   6.5487   6.9782   7.3991
     8.3012   8.3317

     occupation numbers 
     1.0000   1.0000   1.0000   1.0000   1.0000   1.0000   1.0000   1.0000
     1.0000   1.0000   1.0000   1.0000   1.0000   1.0000   1.0000   1.0000
     1.0000   1.0000   1.0000   1.0000   1.0000   1.0000   1.0000   1.0000
     1.0000   1.0000

          k =-0.0000 0.2887 0.1682 (  3807 PWs)   bands (ev):

  -114.2083-114.2082 -68.5959 -68.5936 -68.5537 -68.5532 -68.5531 -68.5524
    -8.7276  -8.2472   2.7715   2.9172   3.2972   3.3566   3.4704   3.6019
     4.3505   4.3670   4.5745   4.7153   5.7858   6.6095   7.0111   7.5126
     8.2026   8.3861

     occupation numbers 
     1.0000   1.0000   1.0000   1.0000   1.0000   1.0000   1.0000   1.0000
     1.0000   1.0000   1.0000   1.0000   1.0000   1.0000   1.0000   1.0000
     1.0000   1.0000   1.0000   1.0000   1.0000   1.0000   1.0000   1.0000
     1.0000   1.0000

          k =-0.0000 0.2887 0.2522 (  3815 PWs)   bands (ev):

  -114.2083-114.2082 -68.5954 -68.5942 -68.5536 -68.5532 -68.5530 -68.5526
    -8.6161  -8.3557   2.7286   2.7915   3.2984   3.3306   3.4183   3.4886
     4.4093   4.4688   4.5297   4.6432   6.0639   6.4605   7.4234   7.6784
     8.0516   8.2528

     occupation numbers 
     1.0000   1.0000   1.0000   1.0000   1.0000   1.0000   1.0000   1.0000
     1.0000   1.0000   1.0000   1.0000   1.0000   1.0000   1.0000   1.0000
     1.0000   1.0000   1.0000   1.0000   1.0000   1.0000   1.0000   1.0000
     1.0000   1.0000

          k = 0.0000 0.2887-0.3363 (  3812 PWs)   bands (ev):

  -114.2083-114.2082 -68.5948 -68.5948 -68.5534 -68.5534 -68.5528 -68.5528
    -8.4855  -8.4850   2.7255   2.7256   3.3094   3.3096   3.4251   3.4251
     4.4723   4.4724   4.5623   4.5624   6.2733   6.2734   7.8678   7.8681
     7.9019   7.9019

     occupation numbers 
     1.0000   1.0000   1.0000   1.0000   1.0000   1.0000   1.0000   1.0000
     1.0000   1.0000   1.0000   1.0000   1.0000   1.0000   1.0000   1.0000
     1.0000   1.0000   1.0000   1.0000   1.0000   1.0000   1.0000   1.0000
     1.0000   1.0000

          k = 0.0000 0.2887-0.2522 (  3815 PWs)   bands (ev):

  -114.2083-114.2082 -68.5954 -68.5942 -68.5536 -68.5532 -68.5530 -68.5526
    -8.6161  -8.3557   2.7286   2.7915   3.2984   3.3306   3.4183   3.4886
     4.4093   4.4688   4.5297   4.6432   6.0639   6.4606   7.4233   7.6784
     8.0516   8.2528

     occupation numbers 
     1.0000   1.0000   1.0000   1.0000   1.0000   1.0000   1.0000   1.0000
     1.0000   1.0000   1.0000   1.0000   1.0000   1.0000   1.0000   1.0000
     1.0000   1.0000   1.0000   1.0000   1.0000   1.0000   1.0000   1.0000
     1.0000   1.0000

          k =-0.0000 0.2887-0.1682 (  3807 PWs)   bands (ev):

  -114.2083-114.2082 -68.5959 -68.5936 -68.5537 -68.5532 -68.5531 -68.5524
    -8.7276  -8.2472   2.7715   2.9172   3.2972   3.3566   3.4704   3.6019
     4.3504   4.3670   4.5745   4.7153   5.7858   6.6096   7.0110   7.5126
     8.2026   8.3861

     occupation numbers 
     1.0000   1.0000   1.0000   1.0000   1.0000   1.0000   1.0000   1.0000
     1.0000   1.0000   1.0000   1.0000   1.0000   1.0000   1.0000   1.0000
     1.0000   1.0000   1.0000   1.0000   1.0000   1.0000   1.0000   1.0000
     1.0000   1.0000

          k =-0.0000 0.2887-0.0841 (  3803 PWs)   bands (ev):

  -114.2084-114.2081 -68.5963 -68.5932 -68.5538 -68.5533 -68.5530 -68.5522
    -8.8022  -8.1757   2.8107   3.0437   3.3008   3.3785   3.5779   3.7307
     4.2705   4.3078   4.6026   4.8003   5.4187   6.5487   6.9781   7.3991
     8.3012   8.3318

     occupation numbers 
     1.0000   1.0000   1.0000   1.0000   1.0000   1.0000   1.0000   1.0000
     1.0000   1.0000   1.0000   1.0000   1.0000   1.0000   1.0000   1.0000
     1.0000   1.0000   1.0000   1.0000   1.0000   1.0000   1.0000   1.0000
     1.0000   1.0000

          k =-0.0000 0.4330 0.0000 (  3822 PWs)   bands (ev):

  -114.2083-114.2081 -68.5958 -68.5936 -68.5544 -68.5537 -68.5536 -68.5523
    -8.5592  -8.1182   2.8151   3.0794   3.4913   3.6541   3.7220   4.0581
     4.2109   4.3480   4.6275   4.8243   5.2349   5.7476   6.2178   6.7339
     7.9010   7.9449

     occupation numbers 
     1.0000   1.0000   1.0000   1.0000   1.0000   1.0000   1.0000   1.0000
     1.0000   1.0000   1.0000   1.0000   1.0000   1.0000   1.0000   1.0000
     1.0000   1.0000   1.0000   1.0000   1.0000   1.0000   1.0000   1.0000
     1.0000   1.0000

          k =-0.0000 0.4330 0.0841 (  3809 PWs)   bands (ev):

  -114.2083-114.2081 -68.5957 -68.5937 -68.5544 -68.5538 -68.5535 -68.5524
    -8.5404  -8.1326   2.7907   3.0251   3.4930   3.6432   3.6589   3.9370
     4.3003   4.3584   4.6147   4.7966   5.2778   5.7756   6.3610   6.7852
     7.8613   8.0316

     occupation numbers 
     1.0000   1.0000   1.0000   1.0000   1.0000   1.0000   1.0000   1.0000
     1.0000   1.0000   1.0000   1.0000   1.0000   1.0000   1.0000   1.0000
     1.0000   1.0000   1.0000   1.0000   1.0000   1.0000   1.0000   1.0000
     1.0000   1.0000

          k =-0.0000 0.4330 0.1682 (  3820 PWs)   bands (ev):

  -114.2083-114.2082 -68.5955 -68.5940 -68.5543 -68.5538 -68.5534 -68.5525
    -8.4877  -8.1747   2.7268   2.8858   3.5000   3.5641   3.6145   3.7644
     4.3878   4.4183   4.5805   4.7463   5.3550   5.7280   6.8259   6.9267
     7.7465   8.1770

     occupation numbers 
     1.0000   1.0000   1.0000   1.0000   1.0000   1.0000   1.0000   1.0000
     1.0000   1.0000   1.0000   1.0000   1.0000   1.0000   1.0000   1.0000
     1.0000   1.0000   1.0000   1.0000   1.0000   1.0000   1.0000   1.0000
     1.0000   1.0000

          k =-0.0000 0.4330 0.2522 (  3813 PWs)   bands (ev):

  -114.2083-114.2082 -68.5952 -68.5943 -68.5542 -68.5539 -68.5532 -68.5527
    -8.4108  -8.2410   2.6629   2.7394   3.5157   3.5256   3.5774   3.6300
     4.4309   4.5230   4.5334   4.6859   5.4419   5.6329   7.1285   7.4075
     7.5703   8.1711

     occupation numbers 
     1.0000   1.0000   1.0000   1.0000   1.0000   1.0000   1.0000   1.0000
     1.0000   1.0000   1.0000   1.0000   1.0000   1.0000   1.0000   1.0000
     1.0000   1.0000   1.0000   1.0000   1.0000   1.0000   1.0000   1.0000
     1.0000   1.0000

          k = 0.0000 0.4330-0.3363 (  3824 PWs)   bands (ev):

  -114.2082-114.2082 -68.5948 -68.5947 -68.5541 -68.5540 -68.5530 -68.5529
    -8.3239  -8.3235   2.6575   2.6577   3.5421   3.5422   3.5496   3.5496
     4.4814   4.4814   4.6121   4.6121   5.5351   5.5352   7.3544   7.3547
     7.9010   7.9012

     occupation numbers 
     1.0000   1.0000   1.0000   1.0000   1.0000   1.0000   1.0000   1.0000
     1.0000   1.0000   1.0000   1.0000   1.0000   1.0000   1.0000   1.0000
     1.0000   1.0000   1.0000   1.0000   1.0000   1.0000   1.0000   1.0000
     1.0000   1.0000

          k =-0.0000 0.4330-0.2522 (  3813 PWs)   bands (ev):

  -114.2083-114.2082 -68.5952 -68.5943 -68.5542 -68.5539 -68.5532 -68.5527
    -8.4108  -8.2410   2.6629   2.7394   3.5157   3.5256   3.5774   3.6300
     4.4309   4.5230   4.5334   4.6860   5.4419   5.6329   7.1285   7.4075
     7.5703   8.1711

     occupation numbers 
     1.0000   1.0000   1.0000   1.0000   1.0000   1.0000   1.0000   1.0000
     1.0000   1.0000   1.0000   1.0000   1.0000   1.0000   1.0000   1.0000
     1.0000   1.0000   1.0000   1.0000   1.0000   1.0000   1.0000   1.0000
     1.0000   1.0000

          k =-0.0000 0.4330-0.1682 (  3820 PWs)   bands (ev):

  -114.2083-114.2082 -68.5955 -68.5940 -68.5543 -68.5538 -68.5534 -68.5525
    -8.4877  -8.1747   2.7268   2.8857   3.5000   3.5641   3.6145   3.7644
     4.3878   4.4182   4.5805   4.7463   5.3550   5.7281   6.8259   6.9267
     7.7465   8.1770

     occupation numbers 
     1.0000   1.0000   1.0000   1.0000   1.0000   1.0000   1.0000   1.0000
     1.0000   1.0000   1.0000   1.0000   1.0000   1.0000   1.0000   1.0000
     1.0000   1.0000   1.0000   1.0000   1.0000   1.0000   1.0000   1.0000
     1.0000   1.0000

          k =-0.0000 0.4330-0.0841 (  3809 PWs)   bands (ev):

  -114.2083-114.2081 -68.5957 -68.5937 -68.5544 -68.5538 -68.5535 -68.5524
    -8.5404  -8.1326   2.7907   3.0251   3.4930   3.6433   3.6589   3.9370
     4.3003   4.3584   4.6147   4.7966   5.2778   5.7757   6.3609   6.7852
     7.8613   8.0316

     occupation numbers 
     1.0000   1.0000   1.0000   1.0000   1.0000   1.0000   1.0000   1.0000
     1.0000   1.0000   1.0000   1.0000   1.0000   1.0000   1.0000   1.0000
     1.0000   1.0000   1.0000   1.0000   1.0000   1.0000   1.0000   1.0000
     1.0000   1.0000

          k = 0.0000-0.5774-0.0000 (  3816 PWs)   bands (ev):

  -114.2083-114.2082 -68.5955 -68.5939 -68.5546 -68.5540 -68.5537 -68.5524
    -8.4161  -8.1333   2.9327   2.9913   3.5583   3.7387   3.7922   4.2012
     4.4081   4.4321   4.6328   4.6507   4.9799   5.3260   6.2662   6.4460
     7.7082   7.7335

     occupation numbers 
     1.0000   1.0000   1.0000   1.0000   1.0000   1.0000   1.0000   1.0000
     1.0000   1.0000   1.0000   1.0000   1.0000   1.0000   1.0000   1.0000
     1.0000   1.0000   1.0000   1.0000   1.0000   1.0000   1.0000   1.0000
     1.0000   1.0000

          k = 0.0000-0.5774 0.0841 (  3818 PWs)   bands (ev):

  -114.2083-114.2082 -68.5954 -68.5940 -68.5546 -68.5540 -68.5536 -68.5524
    -8.4027  -8.1410   2.8896   2.9508   3.5634   3.6865   3.7792   4.1039
     4.4143   4.4657   4.6179   4.6566   5.0122   5.2784   6.4862   6.5042
     7.6662   7.8351

     occupation numbers 
     1.0000   1.0000   1.0000   1.0000   1.0000   1.0000   1.0000   1.0000
     1.0000   1.0000   1.0000   1.0000   1.0000   1.0000   1.0000   1.0000
     1.0000   1.0000   1.0000   1.0000   1.0000   1.0000   1.0000   1.0000
     1.0000   1.0000

          k = 0.0000-0.5774 0.1682 (  3822 PWs)   bands (ev):

  -114.2083-114.2082 -68.5952 -68.5942 -68.5546 -68.5541 -68.5535 -68.5526
    -8.3654  -8.1644   2.7813   2.8446   3.5795   3.6145   3.7441   3.9163
     4.4319   4.5258   4.5811   4.6566   5.0701   5.2149   6.6625   6.9791
     7.5448   8.0358

     occupation numbers 
     1.0000   1.0000   1.0000   1.0000   1.0000   1.0000   1.0000   1.0000
     1.0000   1.0000   1.0000   1.0000   1.0000   1.0000   1.0000   1.0000
     1.0000   1.0000   1.0000   1.0000   1.0000   1.0000   1.0000   1.0000
     1.0000   1.0000

          k = 0.0000-0.5774 0.2522 (  3816 PWs)   bands (ev):

  -114.2082-114.2082 -68.5950 -68.5945 -68.5544 -68.5541 -68.5533 -68.5528
    -8.3125  -8.2034   2.6793   2.7234   3.6002   3.6078   3.6966   3.7538
     4.4595   4.5369   4.5777   4.6430   5.1173   5.1771   6.8839   7.3579
     7.5211   8.1207

     occupation numbers 
     1.0000   1.0000   1.0000   1.0000   1.0000   1.0000   1.0000   1.0000
     1.0000   1.0000   1.0000   1.0000   1.0000   1.0000   1.0000   1.0000
     1.0000   1.0000   1.0000   1.0000   1.0000   1.0000   1.0000   1.0000
     1.0000   1.0000

          k = 0.0000-0.5774-0.3363 (  3796 PWs)   bands (ev):

  -114.2082-114.2082 -68.5947 -68.5947 -68.5543 -68.5542 -68.5530 -68.5530
    -8.2553  -8.2549   2.6548   2.6549   3.6480   3.6481   3.6481   3.6483
     4.4951   4.4951   4.6165   4.6166   5.1500   5.1501   7.1276   7.1279
     7.9435   7.9437

     occupation numbers 
     1.0000   1.0000   1.0000   1.0000   1.0000   1.0000   1.0000   1.0000
     1.0000   1.0000   1.0000   1.0000   1.0000   1.0000   1.0000   1.0000
     1.0000   1.0000   1.0000   1.0000   1.0000   1.0000   1.0000   1.0000
     1.0000   1.0000

          k = 0.1250 0.0722-0.0000 (  3797 PWs)   bands (ev):

  -114.2084-114.2081 -68.5968 -68.5927 -68.5533 -68.5531 -68.5523 -68.5521
    -9.0565  -8.2147   2.9578   3.0890   3.1100   3.1733   3.5682   3.7133
     4.2791   4.2981   4.5925   4.7416   4.9604   7.6313   7.9506   8.0701
     8.4722   8.7378

     occupation numbers 
     1.0000   1.0000   1.0000   1.0000   1.0000   1.0000   1.0000   1.0000
     1.0000   1.0000   1.0000   1.0000   1.0000   1.0000   1.0000   1.0000
     1.0000   1.0000   1.0000   1.0000   1.0000   1.0000   1.0000   1.0000
     1.0000   1.0000

          k = 0.1250 0.0722 0.0841 (  3799 PWs)   bands (ev):

  -114.2084-114.2081 -68.5967 -68.5929 -68.5533 -68.5531 -68.5524 -68.5521
    -9.0254  -8.2475   2.9503   3.0636   3.1070   3.1656   3.4821   3.6608
     4.3034   4.3145   4.5862   4.6715   5.2235   7.6513   7.8628   7.9826
     8.5775   8.7103

     occupation numbers 
     1.0000   1.0000   1.0000   1.0000   1.0000   1.0000   1.0000   1.0000
     1.0000   1.0000   1.0000   1.0000   1.0000   1.0000   1.0000   1.0000
     1.0000   1.0000   1.0000   1.0000   1.0000   1.0000   1.0000   1.0000
     1.0000   1.0000

          k = 0.1250 0.0722 0.1682 (  3809 PWs)   bands (ev):

  -114.2084-114.2082 -68.5963 -68.5934 -68.5532 -68.5530 -68.5524 -68.5522
    -8.9364  -8.3405   2.9295   2.9931   3.1010   3.1460   3.3559   3.5356
     4.3585   4.3627   4.5658   4.6158   5.7025   7.4322   7.8345   8.0729
     8.6016   8.6306

     occupation numbers 
     1.0000   1.0000   1.0000   1.0000   1.0000   1.0000   1.0000   1.0000
     1.0000   1.0000   1.0000   1.0000   1.0000   1.0000   1.0000   1.0000
     1.0000   1.0000   1.0000   1.0000   1.0000   1.0000   1.0000   1.0000
     1.0000   1.0000

          k = 0.1250 0.0722 0.2522 (  3810 PWs)   bands (ev):

  -114.2083-114.2082 -68.5956 -68.5940 -68.5530 -68.5528 -68.5526 -68.5524
    -8.8019  -8.4791   2.9011   2.9230   3.0988   3.1232   3.3008   3.4030
     4.4176   4.4351   4.5296   4.5659   6.2065   7.0613   8.0211   8.2059
     8.4729   8.5082

     occupation numbers 
     1.0000   1.0000   1.0000   1.0000   1.0000   1.0000   1.0000   1.0000
     1.0000   1.0000   1.0000   1.0000   1.0000   1.0000   1.0000   1.0000
     1.0000   1.0000   1.0000   1.0000   1.0000   1.0000   1.0000   1.0000
     1.0000   1.0000

          k = 0.1250 0.0722-0.3363 (  3806 PWs)   bands (ev):

  -114.2083-114.2082 -68.5948 -68.5948 -68.5528 -68.5528 -68.5527 -68.5526
    -8.6416  -8.6411   2.8920   2.8921   3.1059   3.1060   3.3179   3.3180
     4.4782   4.4783   4.5056   4.5057   6.6612   6.6613   8.2551   8.2554
     8.3591   8.3594

     occupation numbers 
     1.0000   1.0000   1.0000   1.0000   1.0000   1.0000   1.0000   1.0000
     1.0000   1.0000   1.0000   1.0000   1.0000   1.0000   1.0000   1.0000
     1.0000   1.0000   1.0000   1.0000   1.0000   1.0000   1.0000   1.0000
     1.0000   1.0000

          k = 0.1250 0.0722-0.2522 (  3810 PWs)   bands (ev):

  -114.2083-114.2082 -68.5956 -68.5940 -68.5530 -68.5528 -68.5526 -68.5524
    -8.8019  -8.4791   2.9010   2.9231   3.0988   3.1232   3.3008   3.4030
     4.4176   4.4351   4.5296   4.5659   6.2065   7.0613   8.0211   8.2059
     8.4729   8.5082

     occupation numbers 
     1.0000   1.0000   1.0000   1.0000   1.0000   1.0000   1.0000   1.0000
     1.0000   1.0000   1.0000   1.0000   1.0000   1.0000   1.0000   1.0000
     1.0000   1.0000   1.0000   1.0000   1.0000   1.0000   1.0000   1.0000
     1.0000   1.0000

          k = 0.1250 0.0722-0.1682 (  3809 PWs)   bands (ev):

  -114.2084-114.2082 -68.5963 -68.5934 -68.5532 -68.5530 -68.5524 -68.5522
    -8.9364  -8.3405   2.9295   2.9931   3.1010   3.1460   3.3559   3.5356
     4.3585   4.3627   4.5658   4.6158   5.7025   7.4322   7.8345   8.0729
     8.6015   8.6306

     occupation numbers 
     1.0000   1.0000   1.0000   1.0000   1.0000   1.0000   1.0000   1.0000
     1.0000   1.0000   1.0000   1.0000   1.0000   1.0000   1.0000   1.0000
     1.0000   1.0000   1.0000   1.0000   1.0000   1.0000   1.0000   1.0000
     1.0000   1.0000

          k = 0.1250 0.0722-0.0841 (  3799 PWs)   bands (ev):

  -114.2084-114.2081 -68.5967 -68.5929 -68.5533 -68.5531 -68.5524 -68.5521
    -9.0254  -8.2475   2.9503   3.0636   3.1070   3.1656   3.4821   3.6608
     4.3035   4.3145   4.5862   4.6715   5.2235   7.6513   7.8629   7.9826
     8.5775   8.7103

     occupation numbers 
     1.0000   1.0000   1.0000   1.0000   1.0000   1.0000   1.0000   1.0000
     1.0000   1.0000   1.0000   1.0000   1.0000   1.0000   1.0000   1.0000
     1.0000   1.0000   1.0000   1.0000   1.0000   1.0000   1.0000   1.0000
     1.0000   1.0000

          k = 0.1250 0.2165 0.0000 (  3793 PWs)   bands (ev):

  -114.2084-114.2081 -68.5965 -68.5930 -68.5536 -68.5534 -68.5527 -68.5522
    -8.8984  -8.1675   2.8781   3.1023   3.2147   3.3069   3.6372   3.7629
     4.2415   4.2835   4.6058   4.8982   5.0682   6.9388   7.1446   7.5714
     8.3482   8.3843

     occupation numbers 
     1.0000   1.0000   1.0000   1.0000   1.0000   1.0000   1.0000   1.0000
     1.0000   1.0000   1.0000   1.0000   1.0000   1.0000   1.0000   1.0000
     1.0000   1.0000   1.0000   1.0000   1.0000   1.0000   1.0000   1.0000
     1.0000   1.0000

          k = 0.1250 0.2165 0.0841 (  3795 PWs)   bands (ev):

  -114.2084-114.2081 -68.5964 -68.5931 -68.5536 -68.5533 -68.5527 -68.5523
    -8.8706  -8.1949   2.8668   3.0503   3.2190   3.2975   3.5625   3.7038
     4.2812   4.3007   4.5973   4.7788   5.3590   7.0076   7.0864   7.5495
     8.3501   8.4187

     occupation numbers 
     1.0000   1.0000   1.0000   1.0000   1.0000   1.0000   1.0000   1.0000
     1.0000   1.0000   1.0000   1.0000   1.0000   1.0000   1.0000   1.0000
     1.0000   1.0000   1.0000   1.0000   1.0000   1.0000   1.0000   1.0000
     1.0000   1.0000

          k = 0.1250 0.2165 0.1682 (  3807 PWs)   bands (ev):

  -114.2083-114.2082 -68.5961 -68.5935 -68.5535 -68.5532 -68.5528 -68.5524
    -8.7912  -8.2733   2.8350   2.9280   3.2215   3.2738   3.4525   3.5800
     4.3461   4.3660   4.5717   4.6932   5.7935   6.9115   7.2254   7.5987
     8.2522   8.4680

     occupation numbers 
     1.0000   1.0000   1.0000   1.0000   1.0000   1.0000   1.0000   1.0000
     1.0000   1.0000   1.0000   1.0000   1.0000   1.0000   1.0000   1.0000
     1.0000   1.0000   1.0000   1.0000   1.0000   1.0000   1.0000   1.0000
     1.0000   1.0000

          k = 0.1250 0.2165 0.2522 (  3802 PWs)   bands (ev):

  -114.2083-114.2082 -68.5955 -68.5941 -68.5533 -68.5531 -68.5529 -68.5526
    -8.6721  -8.3915   2.7938   2.8168   3.2220   3.2469   3.3990   3.4674
     4.4070   4.4585   4.5301   4.6247   6.1683   6.6901   7.5858   7.7362
     8.1052   8.3335

     occupation numbers 
     1.0000   1.0000   1.0000   1.0000   1.0000   1.0000   1.0000   1.0000
     1.0000   1.0000   1.0000   1.0000   1.0000   1.0000   1.0000   1.0000
     1.0000   1.0000   1.0000   1.0000   1.0000   1.0000   1.0000   1.0000
     1.0000   1.0000

          k = 0.1250 0.2165-0.3363 (  3804 PWs)   bands (ev):

  -114.2083-114.2082 -68.5948 -68.5948 -68.5532 -68.5532 -68.5528 -68.5527
    -8.5318  -8.5314   2.7744   2.7745   3.2284   3.2286   3.4047   3.4047
     4.4700   4.4701   4.5495   4.5495   6.4523   6.4523   7.8926   7.8928
     8.0324   8.0325

     occupation numbers 
     1.0000   1.0000   1.0000   1.0000   1.0000   1.0000   1.0000   1.0000
     1.0000   1.0000   1.0000   1.0000   1.0000   1.0000   1.0000   1.0000
     1.0000   1.0000   1.0000   1.0000   1.0000   1.0000   1.0000   1.0000
     1.0000   1.0000

          k = 0.1250 0.2165-0.2522 (  3802 PWs)   bands (ev):

  -114.2083-114.2082 -68.5955 -68.5941 -68.5533 -68.5531 -68.5529 -68.5526
    -8.6721  -8.3915   2.7938   2.8168   3.2220   3.2469   3.3990   3.4674
     4.4070   4.4585   4.5301   4.6247   6.1683   6.6901   7.5858   7.7362
     8.1052   8.3335

     occupation numbers 
     1.0000   1.0000   1.0000   1.0000   1.0000   1.0000   1.0000   1.0000
     1.0000   1.0000   1.0000   1.0000   1.0000   1.0000   1.0000   1.0000
     1.0000   1.0000   1.0000   1.0000   1.0000   1.0000   1.0000   1.0000
     1.0000   1.0000

          k = 0.1250 0.2165-0.1682 (  3807 PWs)   bands (ev):

  -114.2083-114.2082 -68.5961 -68.5935 -68.5535 -68.5532 -68.5528 -68.5524
    -8.7912  -8.2733   2.8350   2.9280   3.2215   3.2738   3.4525   3.5800
     4.3461   4.3660   4.5717   4.6932   5.7935   6.9115   7.2254   7.5987
     8.2522   8.4680

     occupation numbers 
     1.0000   1.0000   1.0000   1.0000   1.0000   1.0000   1.0000   1.0000
     1.0000   1.0000   1.0000   1.0000   1.0000   1.0000   1.0000   1.0000
     1.0000   1.0000   1.0000   1.0000   1.0000   1.0000   1.0000   1.0000
     1.0000   1.0000

          k = 0.1250 0.2165-0.0841 (  3795 PWs)   bands (ev):

  -114.2084-114.2081 -68.5964 -68.5931 -68.5536 -68.5533 -68.5527 -68.5523
    -8.8706  -8.1949   2.8668   3.0503   3.2190   3.2975   3.5625   3.7038
     4.2812   4.3007   4.5973   4.7788   5.3590   7.0076   7.0864   7.5495
     8.3501   8.4187

     occupation numbers 
     1.0000   1.0000   1.0000   1.0000   1.0000   1.0000   1.0000   1.0000
     1.0000   1.0000   1.0000   1.0000   1.0000   1.0000   1.0000   1.0000
     1.0000   1.0000   1.0000   1.0000   1.0000   1.0000   1.0000   1.0000
     1.0000   1.0000

          k = 0.1250 0.3608 0.0000 (  3820 PWs)   bands (ev):

  -114.2083-114.2081 -68.5960 -68.5935 -68.5541 -68.5538 -68.5533 -68.5524
    -8.6468  -8.1212   2.8582   3.1486   3.3726   3.5179   3.7638   3.8841
     4.2267   4.3116   4.6225   4.8688   5.3757   6.0391   6.4250   6.7112
     7.8544   8.0720

     occupation numbers 
     1.0000   1.0000   1.0000   1.0000   1.0000   1.0000   1.0000   1.0000
     1.0000   1.0000   1.0000   1.0000   1.0000   1.0000   1.0000   1.0000
     1.0000   1.0000   1.0000   1.0000   1.0000   1.0000   1.0000   1.0000
     1.0000   1.0000

          k = 0.1250 0.3608 0.0841 (  3820 PWs)   bands (ev):

  -114.2083-114.2081 -68.5959 -68.5936 -68.5541 -68.5537 -68.5533 -68.5525
    -8.6253  -8.1392   2.8393   3.0857   3.3795   3.5025   3.6918   3.8068
     4.2861   4.3298   4.6111   4.8254   5.4814   6.1318   6.4566   6.7459
     7.8099   8.1572

     occupation numbers 
     1.0000   1.0000   1.0000   1.0000   1.0000   1.0000   1.0000   1.0000
     1.0000   1.0000   1.0000   1.0000   1.0000   1.0000   1.0000   1.0000
     1.0000   1.0000   1.0000   1.0000   1.0000   1.0000   1.0000   1.0000
     1.0000   1.0000

[...]

  -114.2083-114.2082 -68.5952 -68.5942 -68.5542 -68.5541 -68.5536 -68.5529
    -8.3748  -8.1602   2.9773   3.0701   3.5042   3.5281   3.6523   3.8113
     4.4128   4.4258   4.6141   4.8005   5.3005   5.6030   5.9150   6.8458
     7.2055   8.0578

     occupation numbers 
     1.0000   1.0000   1.0000   1.0000   1.0000   1.0000   1.0000   1.0000
     1.0000   1.0000   1.0000   1.0000   1.0000   1.0000   1.0000   1.0000
     1.0000   1.0000   1.0000   1.0000   1.0000   1.0000   1.0000   1.0000
     1.0000   1.0000

          k =-0.5000 0.0000 0.2522 (  3834 PWs)   bands (ev):

  -114.2082-114.2082 -68.5950 -68.5944 -68.5541 -68.5540 -68.5535 -68.5531
    -8.3190  -8.2025   2.8827   2.9162   3.4871   3.4995   3.6091   3.7192
     4.4407   4.4481   4.6435   4.7533   5.3807   5.5342   6.1421   6.6781
     7.6793   8.1877

     occupation numbers 
     1.0000   1.0000   1.0000   1.0000   1.0000   1.0000   1.0000   1.0000
     1.0000   1.0000   1.0000   1.0000   1.0000   1.0000   1.0000   1.0000
     1.0000   1.0000   1.0000   1.0000   1.0000   1.0000   1.0000   1.0000
     1.0000   1.0000

          k =-0.5000 0.0000-0.3363 (  3832 PWs)   bands (ev):

  -114.2082-114.2082 -68.5948 -68.5947 -68.5540 -68.5540 -68.5534 -68.5533
    -8.2582  -8.2578   2.8472   2.8473   3.4812   3.4813   3.6471   3.6472
     4.4502   4.4502   4.6982   4.6982   5.4582   5.4582   6.4139   6.4142
     8.0631   8.0632

     occupation numbers 
     1.0000   1.0000   1.0000   1.0000   1.0000   1.0000   1.0000   1.0000
     1.0000   1.0000   1.0000   1.0000   1.0000   1.0000   1.0000   1.0000
     1.0000   1.0000   1.0000   1.0000   1.0000   1.0000   1.0000   1.0000
     1.0000   1.0000

          k =-0.5000 0.0000-0.2522 (  3834 PWs)   bands (ev):

  -114.2082-114.2082 -68.5950 -68.5944 -68.5541 -68.5540 -68.5535 -68.5531
    -8.3190  -8.2025   2.8827   2.9162   3.4871   3.4995   3.6091   3.7192
     4.4407   4.4481   4.6435   4.7533   5.3807   5.5342   6.1421   6.6781
     7.6793   8.1877

     occupation numbers 
     1.0000   1.0000   1.0000   1.0000   1.0000   1.0000   1.0000   1.0000
     1.0000   1.0000   1.0000   1.0000   1.0000   1.0000   1.0000   1.0000
     1.0000   1.0000   1.0000   1.0000   1.0000   1.0000   1.0000   1.0000
     1.0000   1.0000

          k =-0.5000 0.0000-0.1682 (  3823 PWs)   bands (ev):

  -114.2083-114.2082 -68.5952 -68.5942 -68.5542 -68.5541 -68.5536 -68.5529
    -8.3748  -8.1602   2.9773   3.0701   3.5042   3.5281   3.6523   3.8113
     4.4128   4.4258   4.6141   4.8005   5.3005   5.6030   5.9150   6.8458
     7.2055   8.0578

     occupation numbers 
     1.0000   1.0000   1.0000   1.0000   1.0000   1.0000   1.0000   1.0000
     1.0000   1.0000   1.0000   1.0000   1.0000   1.0000   1.0000   1.0000
     1.0000   1.0000   1.0000   1.0000   1.0000   1.0000   1.0000   1.0000
     1.0000   1.0000

          k =-0.5000 0.0000-0.0841 (  3830 PWs)   bands (ev):

  -114.2083-114.2082 -68.5954 -68.5940 -68.5543 -68.5541 -68.5536 -68.5528
    -8.4139  -8.1345   3.0594   3.2152   3.4903   3.5901   3.7919   3.9103
     4.3386   4.4051   4.6221   4.8369   5.2219   5.6076   5.8209   6.5786
     7.1413   7.8265

     occupation numbers 
     1.0000   1.0000   1.0000   1.0000   1.0000   1.0000   1.0000   1.0000
     1.0000   1.0000   1.0000   1.0000   1.0000   1.0000   1.0000   1.0000
     1.0000   1.0000   1.0000   1.0000   1.0000   1.0000   1.0000   1.0000
     1.0000   1.0000

          k =-0.5000 0.1443 0.0000 (  3827 PWs)   bands (ev):

  -114.2083-114.2082 -68.5954 -68.5940 -68.5545 -68.5540 -68.5537 -68.5525
    -8.4222  -8.1295   2.9891   3.1383   3.5076   3.6666   3.8465   4.1810
     4.2665   4.4045   4.6334   4.7393   5.0778   5.5049   5.9903   6.4475
     7.4427   7.7311

     occupation numbers 
     1.0000   1.0000   1.0000   1.0000   1.0000   1.0000   1.0000   1.0000
     1.0000   1.0000   1.0000   1.0000   1.0000   1.0000   1.0000   1.0000
     1.0000   1.0000   1.0000   1.0000   1.0000   1.0000   1.0000   1.0000
     1.0000   1.0000

          k =-0.5000 0.1443 0.0841 (  3827 PWs)   bands (ev):

  -114.2083-114.2082 -68.5954 -68.5940 -68.5545 -68.5540 -68.5537 -68.5526
    -8.4084  -8.1376   2.9553   3.0856   3.5128   3.6340   3.8086   4.0350
     4.3546   4.4196   4.6216   4.7392   5.1022   5.4626   6.0842   6.6276
     7.3966   7.8373

     occupation numbers 
     1.0000   1.0000   1.0000   1.0000   1.0000   1.0000   1.0000   1.0000
     1.0000   1.0000   1.0000   1.0000   1.0000   1.0000   1.0000   1.0000
     1.0000   1.0000   1.0000   1.0000   1.0000   1.0000   1.0000   1.0000
     1.0000   1.0000

          k =-0.5000 0.1443 0.1682 (  3814 PWs)   bands (ev):

  -114.2083-114.2082 -68.5952 -68.5942 -68.5544 -68.5540 -68.5536 -68.5527
    -8.3701  -8.1623   2.8651   2.9505   3.5236   3.5889   3.7364   3.8493
     4.4210   4.4559   4.6052   4.7272   5.1552   5.3922   6.2789   7.0704
     7.2741   8.0527

     occupation numbers 
     1.0000   1.0000   1.0000   1.0000   1.0000   1.0000   1.0000   1.0000
     1.0000   1.0000   1.0000   1.0000   1.0000   1.0000   1.0000   1.0000
     1.0000   1.0000   1.0000   1.0000   1.0000   1.0000   1.0000   1.0000
     1.0000   1.0000

          k =-0.5000 0.1443 0.2522 (  3817 PWs)   bands (ev):

  -114.2082-114.2082 -68.5950 -68.5944 -68.5543 -68.5540 -68.5534 -68.5529
    -8.3158  -8.2029   2.7694   2.8112   3.5363   3.5948   3.6537   3.7217
     4.4487   4.4798   4.6197   4.6993   5.2146   5.3295   6.5212   7.0352
     7.6236   8.1635

     occupation numbers 
     1.0000   1.0000   1.0000   1.0000   1.0000   1.0000   1.0000   1.0000
     1.0000   1.0000   1.0000   1.0000   1.0000   1.0000   1.0000   1.0000
     1.0000   1.0000   1.0000   1.0000   1.0000   1.0000   1.0000   1.0000
     1.0000   1.0000

          k =-0.5000 0.1443-0.3363 (  3814 PWs)   bands (ev):

  -114.2082-114.2082 -68.5947 -68.5947 -68.5542 -68.5541 -68.5532 -68.5531
    -8.2567  -8.2563   2.7414   2.7415   3.5737   3.5738   3.6478   3.6479
     4.4694   4.4695   4.6602   4.6602   5.2725   5.2725   6.7845   6.7848
     8.0187   8.0189

     occupation numbers 
     1.0000   1.0000   1.0000   1.0000   1.0000   1.0000   1.0000   1.0000
     1.0000   1.0000   1.0000   1.0000   1.0000   1.0000   1.0000   1.0000
     1.0000   1.0000   1.0000   1.0000   1.0000   1.0000   1.0000   1.0000
     1.0000   1.0000

          k =-0.5000 0.1443-0.2522 (  3817 PWs)   bands (ev):

  -114.2082-114.2082 -68.5950 -68.5944 -68.5543 -68.5540 -68.5534 -68.5529
    -8.3158  -8.2029   2.7694   2.8112   3.5363   3.5948   3.6537   3.7217
     4.4487   4.4798   4.6197   4.6993   5.2146   5.3295   6.5212   7.0352
     7.6236   8.1635

     occupation numbers 
     1.0000   1.0000   1.0000   1.0000   1.0000   1.0000   1.0000   1.0000
     1.0000   1.0000   1.0000   1.0000   1.0000   1.0000   1.0000   1.0000
     1.0000   1.0000   1.0000   1.0000   1.0000   1.0000   1.0000   1.0000
     1.0000   1.0000

          k =-0.5000 0.1443-0.1682 (  3814 PWs)   bands (ev):

  -114.2083-114.2082 -68.5952 -68.5942 -68.5544 -68.5540 -68.5536 -68.5527
    -8.3701  -8.1623   2.8651   2.9505   3.5236   3.5889   3.7364   3.8493
     4.4210   4.4559   4.6052   4.7272   5.1552   5.3921   6.2789   7.0704
     7.2741   8.0527

     occupation numbers 
     1.0000   1.0000   1.0000   1.0000   1.0000   1.0000   1.0000   1.0000
     1.0000   1.0000   1.0000   1.0000   1.0000   1.0000   1.0000   1.0000
     1.0000   1.0000   1.0000   1.0000   1.0000   1.0000   1.0000   1.0000
     1.0000   1.0000

          k =-0.5000 0.1443-0.0841 (  3827 PWs)   bands (ev):

  -114.2083-114.2082 -68.5954 -68.5940 -68.5545 -68.5540 -68.5537 -68.5526
    -8.4084  -8.1376   2.9553   3.0856   3.5128   3.6340   3.8086   4.0350
     4.3546   4.4196   4.6216   4.7392   5.1022   5.4626   6.0842   6.6276
     7.3965   7.8373

     occupation numbers 
     1.0000   1.0000   1.0000   1.0000   1.0000   1.0000   1.0000   1.0000
     1.0000   1.0000   1.0000   1.0000   1.0000   1.0000   1.0000   1.0000
     1.0000   1.0000   1.0000   1.0000   1.0000   1.0000   1.0000   1.0000
     1.0000   1.0000

          k =-0.5000-0.8660-0.0000 (  3816 PWs)   bands (ev):

  -114.2083-114.2082 -68.5955 -68.5939 -68.5546 -68.5540 -68.5537 -68.5524
    -8.4161  -8.1333   2.9327   2.9913   3.5583   3.7387   3.7922   4.2012
     4.4081   4.4321   4.6328   4.6507   4.9799   5.3260   6.2662   6.4460
     7.7082   7.7335

     occupation numbers 
     1.0000   1.0000   1.0000   1.0000   1.0000   1.0000   1.0000   1.0000
     1.0000   1.0000   1.0000   1.0000   1.0000   1.0000   1.0000   1.0000
     1.0000   1.0000   1.0000   1.0000   1.0000   1.0000   1.0000   1.0000
     1.0000   1.0000

          k =-0.5000-0.8660 0.0841 (  3818 PWs)   bands (ev):

  -114.2083-114.2082 -68.5954 -68.5940 -68.5546 -68.5540 -68.5536 -68.5524
    -8.4027  -8.1410   2.8896   2.9508   3.5634   3.6865   3.7792   4.1039
     4.4143   4.4657   4.6179   4.6566   5.0122   5.2785   6.4862   6.5042
     7.6662   7.8351

     occupation numbers 
     1.0000   1.0000   1.0000   1.0000   1.0000   1.0000   1.0000   1.0000
     1.0000   1.0000   1.0000   1.0000   1.0000   1.0000   1.0000   1.0000
     1.0000   1.0000   1.0000   1.0000   1.0000   1.0000   1.0000   1.0000
     1.0000   1.0000

          k =-0.5000-0.8660 0.1682 (  3822 PWs)   bands (ev):

  -114.2083-114.2082 -68.5952 -68.5942 -68.5546 -68.5541 -68.5535 -68.5526
    -8.3654  -8.1644   2.7813   2.8446   3.5795   3.6145   3.7441   3.9163
     4.4319   4.5258   4.5811   4.6566   5.0701   5.2149   6.6625   6.9792
     7.5449   8.0358

     occupation numbers 
     1.0000   1.0000   1.0000   1.0000   1.0000   1.0000   1.0000   1.0000
     1.0000   1.0000   1.0000   1.0000   1.0000   1.0000   1.0000   1.0000
     1.0000   1.0000   1.0000   1.0000   1.0000   1.0000   1.0000   1.0000
     1.0000   1.0000

          k =-0.5000-0.8660 0.2522 (  3816 PWs)   bands (ev):

  -114.2082-114.2082 -68.5950 -68.5945 -68.5544 -68.5541 -68.5533 -68.5528
    -8.3125  -8.2034   2.6793   2.7234   3.6002   3.6078   3.6966   3.7538
     4.4595   4.5369   4.5777   4.6430   5.1173   5.1771   6.8839   7.3579
     7.5211   8.1207

     occupation numbers 
     1.0000   1.0000   1.0000   1.0000   1.0000   1.0000   1.0000   1.0000
     1.0000   1.0000   1.0000   1.0000   1.0000   1.0000   1.0000   1.0000
     1.0000   1.0000   1.0000   1.0000   1.0000   1.0000   1.0000   1.0000
     1.0000   1.0000

          k =-0.5000-0.8660-0.3363 (  3796 PWs)   bands (ev):

  -114.2082-114.2082 -68.5947 -68.5947 -68.5543 -68.5542 -68.5530 -68.5530
    -8.2553  -8.2549   2.6548   2.6549   3.6480   3.6481   3.6481   3.6483
     4.4951   4.4951   4.6165   4.6166   5.1500   5.1501   7.1276   7.1279
     7.9435   7.9437

     occupation numbers 
     1.0000   1.0000   1.0000   1.0000   1.0000   1.0000   1.0000   1.0000
     1.0000   1.0000   1.0000   1.0000   1.0000   1.0000   1.0000   1.0000
     1.0000   1.0000   1.0000   1.0000   1.0000   1.0000   1.0000   1.0000
     1.0000   1.0000

     highest occupied level (ev):     8.8960

!    total energy              =    -987.07340826 Ry
     Harris-Foulkes estimate   =    -987.07340829 Ry
     estimated scf accuracy    <       0.00000008 Ry

     The total energy is the sum of the following terms:

     one-electron contribution =    -800.30748853 Ry
     hartree contribution      =     421.82909160 Ry
     xc contribution           =     -98.08398272 Ry
     ewald contribution        =    -510.51102861 Ry

     convergence has been achieved in   7 iterations

     Forces acting on atoms (cartesian axes, Ry/au):

     atom    1 type  2   force =    -0.00000176    0.00000089   -0.01313220
     atom    2 type  2   force =    -0.00000093    0.00000146   -0.01312690
     atom    3 type  1   force =    -0.00000117   -0.00000144    0.01316611
     atom    4 type  1   force =     0.00000386   -0.00000091    0.01309299
     The non-local contrib.  to forces
     atom    1 type  2   force =     0.00000015   -0.00000307   -0.03309776
     atom    2 type  2   force =    -0.00000014    0.00000056   -0.03308514
     atom    3 type  1   force =     0.00000073   -0.00000424   -0.09840282
     atom    4 type  1   force =     0.00000152   -0.00000295   -0.09843710
     The ionic contribution  to forces
     atom    1 type  2   force =    -0.00001188    0.00004338    0.53797864
     atom    2 type  2   force =    -0.00000421    0.00000514    0.53798029
     atom    3 type  1   force =     0.00000467   -0.00001742   -0.53797549
     atom    4 type  1   force =     0.00001142   -0.00003109   -0.53798345
     The local contribution  to forces
     atom    1 type  2   force =     0.00001474   -0.00003999   -0.51828779
     atom    2 type  2   force =     0.00000289   -0.00000708   -0.51830370
     atom    3 type  1   force =    -0.00000482    0.00002308    0.64960048
     atom    4 type  1   force =    -0.00001438    0.00003342    0.64972193
     The core correction contribution to forces
     atom    1 type  2   force =     0.00000002    0.00000001    0.00017600
     atom    2 type  2   force =     0.00000000   -0.00000002    0.00017587
     atom    3 type  1   force =     0.00000000    0.00000000    0.00000000
     atom    4 type  1   force =     0.00000000    0.00000000    0.00000000
     The Hubbard contrib.    to forces
     atom    1 type  2   force =     0.00000000    0.00000000    0.00000000
     atom    2 type  2   force =     0.00000000    0.00000000    0.00000000
     atom    3 type  1   force =     0.00000000    0.00000000    0.00000000
     atom    4 type  1   force =     0.00000000    0.00000000    0.00000000
     The SCF correction term to forces
     atom    1 type  2   force =     0.00000000    0.00000000    0.00000000
     atom    2 type  2   force =     0.00000000    0.00000000    0.00000000
     atom    3 type  1   force =     0.00000000    0.00000000    0.00000000
     atom    4 type  1   force =     0.00000000    0.00000000    0.00000000

     Total force =     0.000000     Total SCF correction =     0.000000


     Computing stress (Cartesian axis) and pressure

          total   stress  (Ry/bohr**3)                   (kbar)     P=    0.01
  -0.00000174  -0.00000001  -0.00000001         -0.26     -0.00     -0.00
  -0.00000001  -0.00000174   0.00000001         -0.00     -0.26      0.00
  -0.00000001   0.00000001   0.00000363         -0.00      0.00      0.53

     kinetic stress (kbar)  34115.16     -0.00     -0.00
                               -0.00  34115.16      0.00
                               -0.00      0.00  34446.53

     local   stress (kbar)  -4059.15     -0.04     -0.04
                               -0.04  -4059.31      0.07
                               -0.04      0.07  -4488.79

     nonloc. stress (kbar)  -1664.49      0.00      0.00
                                0.00  -1664.49     -0.00
                                0.00     -0.00  -1798.74

     hartree stress (kbar)  65093.73      0.02      0.02
                                0.02  65093.80     -0.03
                                0.02     -0.03  66327.69

     exc-cor stress (kbar) -14289.38      0.00      0.00
                                0.00 -14289.38     -0.00
                                0.00     -0.00 -14294.72

     corecor stress (kbar)   -251.32     -0.00      0.00
                               -0.00   -251.32     -0.00
                                0.00     -0.00   -251.96

     ewald   stress (kbar) -78944.81      0.02      0.02
                                0.02 -78944.72     -0.04
                                0.02     -0.04 -79939.46

     hubbard stress (kbar)      0.00      0.00      0.00
                                0.00      0.00      0.00
                                0.00      0.00      0.00

     london  stress (kbar)      0.00      0.00      0.00
                                0.00      0.00      0.00
                                0.00      0.00      0.00

     DFT-D3  stress (kbar)      0.00      0.00      0.00
                                0.00      0.00      0.00
                                0.00      0.00      0.00

     XDM     stress (kbar)      0.00      0.00      0.00
                                0.00      0.00      0.00
                                0.00      0.00      0.00

     dft-nl  stress (kbar)      0.00      0.00      0.00
                                0.00      0.00      0.00
                                0.00      0.00      0.00

     TS-vdW  stress (kbar)      0.00      0.00      0.00
                                0.00      0.00      0.00
                                0.00      0.00      0.00



     Writing output data file ZnO.save/
 
     init_run     :      0.49s CPU      0.71s WALL (       1 calls)
     electrons    :      6.85s CPU      7.33s WALL (       1 calls)
     forces       :      0.15s CPU      0.16s WALL (       1 calls)
     stress       :      0.28s CPU      0.29s WALL (       1 calls)

     Called by init_run:
     wfcinit      :      0.35s CPU      0.44s WALL (       1 calls)
     wfcinit:atom :      0.00s CPU      0.00s WALL (      65 calls)
     wfcinit:wfcr :      0.33s CPU      0.42s WALL (      65 calls)
     potinit      :      0.06s CPU      0.08s WALL (       1 calls)
     hinit0       :      0.06s CPU      0.14s WALL (       1 calls)

     Called by electrons:
     c_bands      :      5.79s CPU      6.18s WALL (       7 calls)
     sum_band     :      0.81s CPU      0.86s WALL (       7 calls)
     v_of_rho     :      0.22s CPU      0.24s WALL (       8 calls)
     v_h          :      0.00s CPU      0.00s WALL (       8 calls)
     v_xc         :      0.27s CPU      0.29s WALL (      10 calls)
     newd         :      0.03s CPU      0.05s WALL (       8 calls)
     mix_rho      :      0.01s CPU      0.01s WALL (       7 calls)

     Called by c_bands:
     init_us_2    :      0.07s CPU      0.08s WALL (    1105 calls)
     cegterg      :      5.45s CPU      5.69s WALL (     455 calls)

     Called by sum_band:
     sum_band:bec :      0.01s CPU      0.01s WALL (     455 calls)
     addusdens    :      0.03s CPU      0.04s WALL (       7 calls)

     Called by *egterg:
     h_psi        :      3.40s CPU      3.53s WALL (    1451 calls)
     s_psi        :      0.11s CPU      0.12s WALL (    1451 calls)
     g_psi        :      0.01s CPU      0.01s WALL (     931 calls)
     cdiaghg      :      1.44s CPU      1.55s WALL (    1386 calls)
     cegterg:over :      0.34s CPU      0.39s WALL (     931 calls)
     cegterg:upda :      0.19s CPU      0.20s WALL (     931 calls)
     cegterg:last :      0.12s CPU      0.13s WALL (     455 calls)
     cdiaghg:chol :      0.09s CPU      0.11s WALL (    1386 calls)
     cdiaghg:inve :      0.02s CPU      0.03s WALL (    1386 calls)
     cdiaghg:para :      0.14s CPU      0.16s WALL (    2772 calls)

     Called by h_psi:
     h_psi:pot    :      3.39s CPU      3.52s WALL (    1451 calls)
     h_psi:calbec :      0.20s CPU      0.21s WALL (    1451 calls)
     vloc_psi     :      3.07s CPU      3.18s WALL (    1451 calls)
     add_vuspsi   :      0.12s CPU      0.12s WALL (    1451 calls)

     General routines
     calbec       :      0.31s CPU      0.33s WALL (    2231 calls)
     fft          :      0.04s CPU      0.06s WALL (     127 calls)
     ffts         :      0.00s CPU      0.00s WALL (      15 calls)
     fftw         :      3.51s CPU      3.64s WALL (   73882 calls)
     interpolate  :      0.00s CPU      0.01s WALL (       8 calls)
 
     Parallel routines
     fft_scatt_xy :      0.49s CPU      0.51s WALL (   74024 calls)
     fft_scatt_yz :      1.82s CPU      1.90s WALL (   74024 calls)
 
     PWSCF        :      8.07s CPU      9.81s WALL

 
   This run was terminated on:  15:13:49  16Jun2022            

=------------------------------------------------------------------------------=
   JOB DONE.
=------------------------------------------------------------------------------=
