
     Program PWSCF v.6.4.1 starts on 16Jun2022 at 16:19:41 

     This program is part of the open-source Quantum ESPRESSO suite
     for quantum simulation of materials; please cite
         "P. Giannozzi et al., J. Phys.:Condens. Matter 21 395502 (2009);
         "P. Giannozzi et al., J. Phys.:Condens. Matter 29 465901 (2017);
          URL http://www.quantum-espresso.org", 
     in publications or presentations arising from this work. More details at
     http://www.quantum-espresso.org/quote

     Parallel version (MPI), running on    64 processors

     MPI processes distributed on     1 nodes
     K-points division:     npool     =       4
     R & G space division:  proc/nbgrp/npool/nimage =      16
     Waiting for input...
     Reading input from standard input
Warning: card &IONS ignored
Warning: card   UPSCALE           = 100.D0, ignored
Warning: card / ignored
Warning: card &CELL ignored
Warning: card   CELL_DYNAMICS     = 'BFGS' ignored
Warning: card   PRESS_CONV_THR    = 0.5D0 ignored
Warning: card   CELL_DOFREE = 'ALL' ignored
Warning: card / ignored

     Current dimensions of program PWSCF are:
     Max number of different atomic species (ntypx) = 10
     Max number of k-points (npk) =  40000
     Max angular momentum in pseudopotentials (lmaxx) =  3

     Subspace diagonalization in iterative solution of the eigenvalue problem:
     one sub-group per band group will be used
     scalapack distributed-memory algorithm (size of sub-group:  2*  2 procs)

 
     Parallelization info
     --------------------
     sticks:   dense  smooth     PW     G-vecs:    dense   smooth      PW
     Min         107      57     17                 4793     1873     321
     Max         108      58     18                 4796     1880     326
     Sum        1723     913    283                76717    29977    5181
 


     bravais-lattice index     =            0
     lattice parameter (alat)  =       6.4350  a.u.
     unit-cell volume          =     309.3712 (a.u.)^3
     number of atoms/cell      =            4
     number of atomic types    =            2
     number of electrons       =        32.00
     number of Kohn-Sham states=           16
     kinetic-energy cutoff     =      80.0000  Ry
     charge density cutoff     =     600.0000  Ry
     convergence threshold     =      1.0E-06
     mixing beta               =       0.5000
     number of iterations used =            8  plain     mixing
     Exchange-correlation      = SLA  PW   PSX  PSC ( 1  4 10  8 0 0)
     Using LIBXC version       =    4   3   4

     celldm(1)=   6.435016  celldm(2)=   0.000000  celldm(3)=   0.000000
     celldm(4)=   0.000000  celldm(5)=   0.000000  celldm(6)=   0.000000

     crystal axes: (cart. coord. in units of alat)
               a(1) = (   1.000000   0.000000  -0.000000 )  
               a(2) = (  -0.500000   0.866025   0.000000 )  
               a(3) = (  -0.000000  -0.000000   1.340604 )  

     reciprocal axes: (cart. coord. in units 2 pi/alat)
               b(1) = (  1.000000  0.577350  0.000000 )  
               b(2) = ( -0.000000  1.154700  0.000000 )  
               b(3) = (  0.000000 -0.000000  0.745933 )  


     PseudoPot. # 1 for Mg read from file:
     ./GBRV_PBEsol/mg_pbesol_v1.4.uspp.F.UPF
     MD5 check sum: 4059f37963cf5867752dbf5ab2400678
     Pseudo is Ultrasoft, Zval = 10.0
     Generated by new atomic code, or converted to UPF format
     Using radial grid of  821 points,  7 beta functions with: 
                l(1) =   0
                l(2) =   0
                l(3) =   0
                l(4) =   1
                l(5) =   1
                l(6) =   2
                l(7) =   2
     Q(r) pseudized with  8 coefficients,  rinner =    1.200   1.200   1.200
                                                       1.200   1.200

     PseudoPot. # 2 for O  read from file:
     ./GBRV_PBEsol/o_pbesol_v1.2.uspp.F.UPF
     MD5 check sum: 501638753501ef6325af9037351f7734
     Pseudo is Ultrasoft + core correction, Zval =  6.0
     Generated by new atomic code, or converted to UPF format
     Using radial grid of  737 points,  5 beta functions with: 
                l(1) =   0
                l(2) =   0
                l(3) =   1
                l(4) =   1
                l(5) =   2
     Q(r) pseudized with  8 coefficients,  rinner =    0.900   0.900   0.900
                                                       0.900   0.900

     atomic species   valence    mass     pseudopotential
        Mg            10.00    24.30500     Mg( 1.00)
        O              6.00    15.99900     O ( 1.00)

     No symmetry found


                                    s                        frac. trans.

      isym =  1     identity                                     

 cryst.   s( 1) = (     1          0          0      )
                  (     0          1          0      )
                  (     0          0          1      )

 cart.    s( 1) = (  1.0000000 -0.0000000  0.0000000 )
                  ( -0.0000000  1.0000000  0.0000000 )
                  ( -0.0000000 -0.0000000  1.0000000 )


   Cartesian axes

     site n.     atom                  positions (alat units)
         1           O   tau(   1) = (   0.5000002   0.2886755   0.0098479  )
         2           O   tau(   2) = (  -0.0000000   0.5773494   0.6801497  )
         3           Mg  tau(   3) = (   0.4999999   0.2886748   0.5983839  )
         4           Mg  tau(   4) = (  -0.0000004   0.5773511   1.2686857  )

   Crystallographic axes

     site n.     atom                  positions (cryst. coord.)
         1           O   tau(   1) = (  0.6666670  0.3333337  0.0073459  )
         2           O   tau(   2) = (  0.3333329  0.6666657  0.5073458  )
         3           Mg  tau(   3) = (  0.6666664  0.3333329  0.4463540  )
         4           Mg  tau(   4) = (  0.3333336  0.6666677  0.9463539  )

     number of k points=   260
                       cart. coord. in units 2pi/alat
        k(    1) = (   0.0000000   0.0000000   0.0000000), wk =   0.0039062
        k(    2) = (   0.0000000  -0.0000000   0.0932416), wk =   0.0078125
        k(    3) = (   0.0000000  -0.0000000   0.1864831), wk =   0.0078125
        k(    4) = (   0.0000000  -0.0000000   0.2797247), wk =   0.0078125
        k(    5) = (  -0.0000000   0.0000000  -0.3729663), wk =   0.0039062
        k(    6) = (  -0.0000000   0.1443376   0.0000000), wk =   0.0078125
        k(    7) = (  -0.0000000   0.1443376   0.0932416), wk =   0.0078125
        k(    8) = (   0.0000000   0.1443375   0.1864832), wk =   0.0078125
        k(    9) = (   0.0000000   0.1443375   0.2797247), wk =   0.0078125
        k(   10) = (  -0.0000000   0.1443376  -0.3729663), wk =   0.0078125
        k(   11) = (  -0.0000000   0.1443376  -0.2797247), wk =   0.0078125
        k(   12) = (  -0.0000000   0.1443376  -0.1864831), wk =   0.0078125
        k(   13) = (  -0.0000000   0.1443376  -0.0932416), wk =   0.0078125
        k(   14) = (  -0.0000000   0.2886751   0.0000000), wk =   0.0078125
        k(   15) = (  -0.0000000   0.2886751   0.0932416), wk =   0.0078125
        k(   16) = (  -0.0000000   0.2886751   0.1864832), wk =   0.0078125
        k(   17) = (   0.0000000   0.2886751   0.2797247), wk =   0.0078125
        k(   18) = (  -0.0000000   0.2886752  -0.3729663), wk =   0.0078125
        k(   19) = (  -0.0000000   0.2886751  -0.2797247), wk =   0.0078125
        k(   20) = (  -0.0000000   0.2886751  -0.1864831), wk =   0.0078125
        k(   21) = (  -0.0000000   0.2886751  -0.0932415), wk =   0.0078125
        k(   22) = (  -0.0000000   0.4330127   0.0000000), wk =   0.0078125
        k(   23) = (  -0.0000000   0.4330127   0.0932416), wk =   0.0078125
        k(   24) = (  -0.0000000   0.4330127   0.1864832), wk =   0.0078125
        k(   25) = (  -0.0000000   0.4330127   0.2797247), wk =   0.0078125
        k(   26) = (  -0.0000000   0.4330127  -0.3729662), wk =   0.0078125
        k(   27) = (  -0.0000000   0.4330127  -0.2797247), wk =   0.0078125
        k(   28) = (  -0.0000000   0.4330127  -0.1864831), wk =   0.0078125
        k(   29) = (  -0.0000000   0.4330127  -0.0932415), wk =   0.0078125
        k(   30) = (   0.0000000  -0.5773502  -0.0000000), wk =   0.0039062
        k(   31) = (   0.0000000  -0.5773502   0.0932415), wk =   0.0078125
        k(   32) = (   0.0000000  -0.5773503   0.1864831), wk =   0.0078125
        k(   33) = (   0.0000000  -0.5773503   0.2797247), wk =   0.0078125
        k(   34) = (   0.0000000  -0.5773502  -0.3729663), wk =   0.0039062
        k(   35) = (   0.1250000   0.0721688   0.0000000), wk =   0.0078125
        k(   36) = (   0.1250000   0.0721688   0.0932416), wk =   0.0078125
        k(   37) = (   0.1250000   0.0721688   0.1864832), wk =   0.0078125
        k(   38) = (   0.1250000   0.0721688   0.2797247), wk =   0.0078125
        k(   39) = (   0.1250000   0.0721688  -0.3729663), wk =   0.0078125
        k(   40) = (   0.1250000   0.0721688  -0.2797247), wk =   0.0078125
        k(   41) = (   0.1250000   0.0721688  -0.1864831), wk =   0.0078125
        k(   42) = (   0.1250000   0.0721688  -0.0932415), wk =   0.0078125
        k(   43) = (   0.1250000   0.2165063   0.0000000), wk =   0.0078125
        k(   44) = (   0.1250000   0.2165063   0.0932416), wk =   0.0078125
        k(   45) = (   0.1250000   0.2165063   0.1864832), wk =   0.0078125
        k(   46) = (   0.1250000   0.2165063   0.2797247), wk =   0.0078125
        k(   47) = (   0.1250000   0.2165064  -0.3729662), wk =   0.0078125
        k(   48) = (   0.1250000   0.2165064  -0.2797247), wk =   0.0078125
        k(   49) = (   0.1250000   0.2165064  -0.1864831), wk =   0.0078125
        k(   50) = (   0.1250000   0.2165063  -0.0932415), wk =   0.0078125
        k(   51) = (   0.1250000   0.3608439   0.0000000), wk =   0.0078125
        k(   52) = (   0.1250000   0.3608439   0.0932416), wk =   0.0078125
        k(   53) = (   0.1250000   0.3608439   0.1864832), wk =   0.0078125
        k(   54) = (   0.1250000   0.3608439   0.2797248), wk =   0.0078125
        k(   55) = (   0.1250000   0.3608439  -0.3729662), wk =   0.0078125
        k(   56) = (   0.1250000   0.3608439  -0.2797247), wk =   0.0078125
        k(   57) = (   0.1250000   0.3608439  -0.1864831), wk =   0.0078125
        k(   58) = (   0.1250000   0.3608439  -0.0932415), wk =   0.0078125
        k(   59) = (   0.1250000   0.5051815   0.0000001), wk =   0.0078125
        k(   60) = (   0.1250000   0.5051814   0.0932416), wk =   0.0078125
        k(   61) = (   0.1250000   0.5051814   0.1864832), wk =   0.0078125
        k(   62) = (   0.1250000   0.5051814   0.2797248), wk =   0.0078125
        k(   63) = (   0.1250000   0.5051815  -0.3729662), wk =   0.0078125
        k(   64) = (   0.1250000   0.5051815  -0.2797247), wk =   0.0078125
        k(   65) = (   0.1250000   0.5051815  -0.1864831), wk =   0.0078125
        k(   66) = (   0.1250000   0.5051815  -0.0932415), wk =   0.0078125
        k(   67) = (   0.1250000  -0.5051815  -0.0000000), wk =   0.0078125
        k(   68) = (   0.1250000  -0.5051815   0.0932416), wk =   0.0078125
        k(   69) = (   0.1250000  -0.5051815   0.1864831), wk =   0.0078125
        k(   70) = (   0.1250000  -0.5051815   0.2797247), wk =   0.0078125
        k(   71) = (   0.1250000  -0.5051814  -0.3729663), wk =   0.0078125
        k(   72) = (   0.1250000  -0.5051814  -0.2797247), wk =   0.0078125
        k(   73) = (   0.1250000  -0.5051814  -0.1864832), wk =   0.0078125
        k(   74) = (   0.1250000  -0.5051815  -0.0932416), wk =   0.0078125
        k(   75) = (   0.1250000  -0.3608439  -0.0000000), wk =   0.0078125
        k(   76) = (   0.1250000  -0.3608439   0.0932416), wk =   0.0078125
        k(   77) = (   0.1250000  -0.3608439   0.1864831), wk =   0.0078125
        k(   78) = (   0.1250000  -0.3608439   0.2797247), wk =   0.0078125
        k(   79) = (   0.1250000  -0.3608439  -0.3729663), wk =   0.0078125
        k(   80) = (   0.1250000  -0.3608439  -0.2797247), wk =   0.0078125
        k(   81) = (   0.1250000  -0.3608439  -0.1864831), wk =   0.0078125
        k(   82) = (   0.1250000  -0.3608439  -0.0932416), wk =   0.0078125
        k(   83) = (   0.1250000  -0.2165063   0.0000000), wk =   0.0078125
        k(   84) = (   0.1250000  -0.2165064   0.0932416), wk =   0.0078125
        k(   85) = (   0.1250000  -0.2165064   0.1864831), wk =   0.0078125
        k(   86) = (   0.1250000  -0.2165064   0.2797247), wk =   0.0078125
        k(   87) = (   0.1250000  -0.2165063  -0.3729663), wk =   0.0078125
        k(   88) = (   0.1250000  -0.2165063  -0.2797247), wk =   0.0078125
        k(   89) = (   0.1250000  -0.2165063  -0.1864831), wk =   0.0078125
        k(   90) = (   0.1250000  -0.2165063  -0.0932416), wk =   0.0078125
        k(   91) = (   0.1250000  -0.0721688   0.0000000), wk =   0.0078125
        k(   92) = (   0.1250000  -0.0721688   0.0932416), wk =   0.0078125
        k(   93) = (   0.1250000  -0.0721688   0.1864832), wk =   0.0078125
        k(   94) = (   0.1250000  -0.0721688   0.2797247), wk =   0.0078125
        k(   95) = (   0.1250000  -0.0721688  -0.3729663), wk =   0.0078125
        k(   96) = (   0.1250000  -0.0721688  -0.2797247), wk =   0.0078125
        k(   97) = (   0.1250000  -0.0721688  -0.1864831), wk =   0.0078125
        k(   98) = (   0.1250000  -0.0721688  -0.0932416), wk =   0.0078125
        k(   99) = (   0.2500000   0.1443376   0.0000001), wk =   0.0078125
        k(  100) = (   0.2500000   0.1443375   0.0932416), wk =   0.0078125
        k(  101) = (   0.2500000   0.1443375   0.1864832), wk =   0.0078125
        k(  102) = (   0.2500000   0.1443375   0.2797248), wk =   0.0078125
        k(  103) = (   0.2500000   0.1443376  -0.3729662), wk =   0.0078125
        k(  104) = (   0.2500000   0.1443376  -0.2797247), wk =   0.0078125
        k(  105) = (   0.2500000   0.1443376  -0.1864831), wk =   0.0078125
        k(  106) = (   0.2500000   0.1443376  -0.0932415), wk =   0.0078125
        k(  107) = (   0.2500000   0.2886751   0.0000001), wk =   0.0078125
        k(  108) = (   0.2500000   0.2886751   0.0932416), wk =   0.0078125
        k(  109) = (   0.2500000   0.2886751   0.1864832), wk =   0.0078125
        k(  110) = (   0.2500000   0.2886751   0.2797248), wk =   0.0078125
        k(  111) = (   0.2500000   0.2886751  -0.3729662), wk =   0.0078125
        k(  112) = (   0.2500000   0.2886751  -0.2797246), wk =   0.0078125
        k(  113) = (   0.2500000   0.2886751  -0.1864831), wk =   0.0078125
        k(  114) = (   0.2500000   0.2886751  -0.0932415), wk =   0.0078125
        k(  115) = (   0.2500000   0.4330127   0.0000001), wk =   0.0078125
        k(  116) = (   0.2500000   0.4330127   0.0932416), wk =   0.0078125
        k(  117) = (   0.2500000   0.4330127   0.1864832), wk =   0.0078125
        k(  118) = (   0.2500000   0.4330127   0.2797248), wk =   0.0078125
        k(  119) = (   0.2500000   0.4330127  -0.3729662), wk =   0.0078125
        k(  120) = (   0.2500000   0.4330127  -0.2797246), wk =   0.0078125
        k(  121) = (   0.2500000   0.4330127  -0.1864831), wk =   0.0078125
        k(  122) = (   0.2500000   0.4330127  -0.0932415), wk =   0.0078125
        k(  123) = (   0.2500000   0.5773502   0.0000001), wk =   0.0078125
        k(  124) = (   0.2500000   0.5773502   0.0932417), wk =   0.0078125
        k(  125) = (   0.2500000   0.5773502   0.1864832), wk =   0.0078125
        k(  126) = (   0.2500000   0.5773502   0.2797248), wk =   0.0078125
        k(  127) = (   0.2500000   0.5773503  -0.3729662), wk =   0.0078125
        k(  128) = (   0.2500000   0.5773503  -0.2797246), wk =   0.0078125
        k(  129) = (   0.2500000   0.5773502  -0.1864831), wk =   0.0078125
        k(  130) = (   0.2500000   0.5773502  -0.0932415), wk =   0.0078125
        k(  131) = (   0.2500000  -0.4330127   0.0000000), wk =   0.0078125
        k(  132) = (   0.2500000  -0.4330127   0.0932416), wk =   0.0078125
        k(  133) = (   0.2500000  -0.4330127   0.1864831), wk =   0.0078125
        k(  134) = (   0.2500000  -0.4330127   0.2797247), wk =   0.0078125
        k(  135) = (   0.2500000  -0.4330127  -0.3729663), wk =   0.0078125
        k(  136) = (   0.2500000  -0.4330127  -0.2797247), wk =   0.0078125
        k(  137) = (   0.2500000  -0.4330127  -0.1864831), wk =   0.0078125
        k(  138) = (   0.2500000  -0.4330127  -0.0932416), wk =   0.0078125
        k(  139) = (   0.2500000  -0.2886751   0.0000000), wk =   0.0078125
        k(  140) = (   0.2500000  -0.2886751   0.0932416), wk =   0.0078125
        k(  141) = (   0.2500000  -0.2886751   0.1864832), wk =   0.0078125
        k(  142) = (   0.2500000  -0.2886751   0.2797247), wk =   0.0078125
        k(  143) = (   0.2500000  -0.2886751  -0.3729663), wk =   0.0078125
        k(  144) = (   0.2500000  -0.2886751  -0.2797247), wk =   0.0078125
        k(  145) = (   0.2500000  -0.2886751  -0.1864831), wk =   0.0078125
        k(  146) = (   0.2500000  -0.2886751  -0.0932416), wk =   0.0078125
        k(  147) = (   0.2500000  -0.1443376   0.0000000), wk =   0.0078125
        k(  148) = (   0.2500000  -0.1443376   0.0932416), wk =   0.0078125
        k(  149) = (   0.2500000  -0.1443376   0.1864832), wk =   0.0078125
        k(  150) = (   0.2500000  -0.1443376   0.2797247), wk =   0.0078125
        k(  151) = (   0.2500000  -0.1443375  -0.3729663), wk =   0.0078125
        k(  152) = (   0.2500000  -0.1443375  -0.2797247), wk =   0.0078125
        k(  153) = (   0.2500000  -0.1443376  -0.1864831), wk =   0.0078125
        k(  154) = (   0.2500000  -0.1443376  -0.0932415), wk =   0.0078125
        k(  155) = (   0.2500000  -0.0000000   0.0000000), wk =   0.0078125
        k(  156) = (   0.2500000  -0.0000000   0.0932416), wk =   0.0078125
        k(  157) = (   0.2500000  -0.0000000   0.1864832), wk =   0.0078125
        k(  158) = (   0.2500000  -0.0000000   0.2797248), wk =   0.0078125
        k(  159) = (   0.2500000   0.0000000  -0.3729662), wk =   0.0078125
        k(  160) = (   0.2500000   0.0000000  -0.2797247), wk =   0.0078125
        k(  161) = (   0.2500000   0.0000000  -0.1864831), wk =   0.0078125
        k(  162) = (   0.2500000   0.0000000  -0.0932415), wk =   0.0078125
        k(  163) = (   0.3750000   0.2165063   0.0000001), wk =   0.0078125
        k(  164) = (   0.3750000   0.2165063   0.0932416), wk =   0.0078125
        k(  165) = (   0.3750000   0.2165063   0.1864832), wk =   0.0078125
        k(  166) = (   0.3750000   0.2165063   0.2797248), wk =   0.0078125
        k(  167) = (   0.3750000   0.2165064  -0.3729662), wk =   0.0078125
        k(  168) = (   0.3750000   0.2165064  -0.2797246), wk =   0.0078125
        k(  169) = (   0.3750000   0.2165063  -0.1864831), wk =   0.0078125
        k(  170) = (   0.3750000   0.2165063  -0.0932415), wk =   0.0078125
        k(  171) = (   0.3750000   0.3608439   0.0000001), wk =   0.0078125
        k(  172) = (   0.3750000   0.3608439   0.0932417), wk =   0.0078125
        k(  173) = (   0.3750000   0.3608439   0.1864832), wk =   0.0078125
        k(  174) = (   0.3750000   0.3608439   0.2797248), wk =   0.0078125
        k(  175) = (   0.3750000   0.3608439  -0.3729662), wk =   0.0078125
        k(  176) = (   0.3750000   0.3608439  -0.2797246), wk =   0.0078125
        k(  177) = (   0.3750000   0.3608439  -0.1864831), wk =   0.0078125
        k(  178) = (   0.3750000   0.3608439  -0.0932415), wk =   0.0078125
        k(  179) = (   0.3750000   0.5051815   0.0000001), wk =   0.0078125
        k(  180) = (   0.3750000   0.5051814   0.0932417), wk =   0.0078125
        k(  181) = (   0.3750000   0.5051814   0.1864832), wk =   0.0078125
        k(  182) = (   0.3750000   0.5051814   0.2797248), wk =   0.0078125
        k(  183) = (   0.3750000   0.5051815  -0.3729662), wk =   0.0078125
        k(  184) = (   0.3750000   0.5051815  -0.2797246), wk =   0.0078125
        k(  185) = (   0.3750000   0.5051815  -0.1864830), wk =   0.0078125
        k(  186) = (   0.3750000   0.5051815  -0.0932415), wk =   0.0078125
        k(  187) = (   0.3750000   0.6495190   0.0000001), wk =   0.0078125
        k(  188) = (   0.3750000   0.6495190   0.0932417), wk =   0.0078125
        k(  189) = (   0.3750000   0.6495190   0.1864833), wk =   0.0078125
        k(  190) = (   0.3750000   0.6495190   0.2797248), wk =   0.0078125
        k(  191) = (   0.3750000   0.6495190  -0.3729662), wk =   0.0078125
        k(  192) = (   0.3750000   0.6495190  -0.2797246), wk =   0.0078125
        k(  193) = (   0.3750000   0.6495190  -0.1864830), wk =   0.0078125
        k(  194) = (   0.3750000   0.6495190  -0.0932415), wk =   0.0078125
        k(  195) = (   0.3750000  -0.3608439   0.0000000), wk =   0.0078125
        k(  196) = (   0.3750000  -0.3608439   0.0932416), wk =   0.0078125
        k(  197) = (   0.3750000  -0.3608439   0.1864832), wk =   0.0078125
        k(  198) = (   0.3750000  -0.3608439   0.2797247), wk =   0.0078125
        k(  199) = (   0.3750000  -0.3608439  -0.3729662), wk =   0.0078125
        k(  200) = (   0.3750000  -0.3608439  -0.2797247), wk =   0.0078125
        k(  201) = (   0.3750000  -0.3608439  -0.1864831), wk =   0.0078125
        k(  202) = (   0.3750000  -0.3608439  -0.0932415), wk =   0.0078125
        k(  203) = (   0.3750000  -0.2165063   0.0000000), wk =   0.0078125
        k(  204) = (   0.3750000  -0.2165064   0.0932416), wk =   0.0078125
        k(  205) = (   0.3750000  -0.2165064   0.1864832), wk =   0.0078125
        k(  206) = (   0.3750000  -0.2165064   0.2797248), wk =   0.0078125
        k(  207) = (   0.3750000  -0.2165063  -0.3729662), wk =   0.0078125
        k(  208) = (   0.3750000  -0.2165063  -0.2797247), wk =   0.0078125
        k(  209) = (   0.3750000  -0.2165063  -0.1864831), wk =   0.0078125
        k(  210) = (   0.3750000  -0.2165063  -0.0932415), wk =   0.0078125
        k(  211) = (   0.3750000  -0.0721688   0.0000001), wk =   0.0078125
        k(  212) = (   0.3750000  -0.0721688   0.0932416), wk =   0.0078125
        k(  213) = (   0.3750000  -0.0721688   0.1864832), wk =   0.0078125
        k(  214) = (   0.3750000  -0.0721688   0.2797248), wk =   0.0078125
        k(  215) = (   0.3750000  -0.0721688  -0.3729662), wk =   0.0078125
        k(  216) = (   0.3750000  -0.0721688  -0.2797247), wk =   0.0078125
        k(  217) = (   0.3750000  -0.0721688  -0.1864831), wk =   0.0078125
        k(  218) = (   0.3750000  -0.0721688  -0.0932415), wk =   0.0078125
        k(  219) = (   0.3750000   0.0721688   0.0000001), wk =   0.0078125
        k(  220) = (   0.3750000   0.0721688   0.0932416), wk =   0.0078125
        k(  221) = (   0.3750000   0.0721688   0.1864832), wk =   0.0078125
        k(  222) = (   0.3750000   0.0721687   0.2797248), wk =   0.0078125
        k(  223) = (   0.3750000   0.0721688  -0.3729662), wk =   0.0078125
        k(  224) = (   0.3750000   0.0721688  -0.2797246), wk =   0.0078125
        k(  225) = (   0.3750000   0.0721688  -0.1864831), wk =   0.0078125
        k(  226) = (   0.3750000   0.0721688  -0.0932415), wk =   0.0078125
        k(  227) = (  -0.5000000  -0.2886751  -0.0000001), wk =   0.0039062
        k(  228) = (  -0.5000000  -0.2886751   0.0932415), wk =   0.0078125
        k(  229) = (  -0.5000000  -0.2886751   0.1864830), wk =   0.0078125
        k(  230) = (  -0.5000000  -0.2886751   0.2797246), wk =   0.0078125
        k(  231) = (  -0.5000000  -0.2886751  -0.3729664), wk =   0.0039062
        k(  232) = (  -0.5000000  -0.1443375  -0.0000001), wk =   0.0078125
        k(  233) = (  -0.5000000  -0.1443376   0.0932415), wk =   0.0078125
        k(  234) = (  -0.5000000  -0.1443376   0.1864830), wk =   0.0078125
        k(  235) = (  -0.5000000  -0.1443376   0.2797246), wk =   0.0078125
        k(  236) = (  -0.5000000  -0.1443375  -0.3729664), wk =   0.0078125
        k(  237) = (  -0.5000000  -0.1443375  -0.2797248), wk =   0.0078125
        k(  238) = (  -0.5000000  -0.1443375  -0.1864832), wk =   0.0078125
        k(  239) = (  -0.5000000  -0.1443375  -0.0932417), wk =   0.0078125
        k(  240) = (  -0.5000000   0.0000000  -0.0000001), wk =   0.0078125
        k(  241) = (  -0.5000000   0.0000000   0.0932415), wk =   0.0078125
        k(  242) = (  -0.5000000  -0.0000000   0.1864831), wk =   0.0078125
        k(  243) = (  -0.5000000  -0.0000000   0.2797246), wk =   0.0078125
        k(  244) = (  -0.5000000   0.0000000  -0.3729664), wk =   0.0078125
        k(  245) = (  -0.5000000   0.0000000  -0.2797248), wk =   0.0078125
        k(  246) = (  -0.5000000   0.0000000  -0.1864832), wk =   0.0078125
        k(  247) = (  -0.5000000   0.0000000  -0.0932417), wk =   0.0078125
        k(  248) = (  -0.5000000   0.1443376  -0.0000001), wk =   0.0078125
        k(  249) = (  -0.5000000   0.1443376   0.0932415), wk =   0.0078125
        k(  250) = (  -0.5000000   0.1443376   0.1864831), wk =   0.0078125
        k(  251) = (  -0.5000000   0.1443375   0.2797246), wk =   0.0078125
        k(  252) = (  -0.5000000   0.1443376  -0.3729663), wk =   0.0078125
        k(  253) = (  -0.5000000   0.1443376  -0.2797248), wk =   0.0078125
        k(  254) = (  -0.5000000   0.1443376  -0.1864832), wk =   0.0078125
        k(  255) = (  -0.5000000   0.1443376  -0.0932416), wk =   0.0078125
        k(  256) = (  -0.5000000  -0.8660253  -0.0000001), wk =   0.0039062
        k(  257) = (  -0.5000000  -0.8660254   0.0932414), wk =   0.0078125
        k(  258) = (  -0.5000000  -0.8660254   0.1864830), wk =   0.0078125
        k(  259) = (  -0.5000000  -0.8660254   0.2797246), wk =   0.0078125
        k(  260) = (  -0.5000000  -0.8660253  -0.3729664), wk =   0.0039062

                       cryst. coord.
        k(    1) = (   0.0000000   0.0000000   0.0000000), wk =   0.0039062
        k(    2) = (   0.0000000  -0.0000000   0.1250000), wk =   0.0078125
        k(    3) = (   0.0000000  -0.0000000   0.2500000), wk =   0.0078125
        k(    4) = (  -0.0000000  -0.0000000   0.3750000), wk =   0.0078125
        k(    5) = (  -0.0000000   0.0000000  -0.5000000), wk =   0.0039062
        k(    6) = (  -0.0000000   0.1250000   0.0000000), wk =   0.0078125
        k(    7) = (  -0.0000000   0.1250000   0.1250000), wk =   0.0078125
        k(    8) = (   0.0000000   0.1250000   0.2500000), wk =   0.0078125
        k(    9) = (   0.0000000   0.1250000   0.3750000), wk =   0.0078125
        k(   10) = (  -0.0000000   0.1250000  -0.5000000), wk =   0.0078125
        k(   11) = (  -0.0000000   0.1250000  -0.3750000), wk =   0.0078125
        k(   12) = (   0.0000000   0.1250000  -0.2500000), wk =   0.0078125
        k(   13) = (  -0.0000000   0.1250000  -0.1250000), wk =   0.0078125
        k(   14) = (  -0.0000000   0.2500000   0.0000000), wk =   0.0078125
        k(   15) = (  -0.0000000   0.2500000   0.1250000), wk =   0.0078125
        k(   16) = (  -0.0000000   0.2500000   0.2500000), wk =   0.0078125
        k(   17) = (  -0.0000000   0.2500000   0.3750000), wk =   0.0078125
        k(   18) = (   0.0000000   0.2500000  -0.5000000), wk =   0.0078125
        k(   19) = (  -0.0000000   0.2500000  -0.3750000), wk =   0.0078125
        k(   20) = (  -0.0000000   0.2500000  -0.2500000), wk =   0.0078125
        k(   21) = (  -0.0000000   0.2500000  -0.1250000), wk =   0.0078125
        k(   22) = (  -0.0000000   0.3750000   0.0000000), wk =   0.0078125
        k(   23) = (   0.0000000   0.3750000   0.1250000), wk =   0.0078125
        k(   24) = (   0.0000000   0.3750000   0.2500000), wk =   0.0078125
        k(   25) = (   0.0000000   0.3750000   0.3750000), wk =   0.0078125
        k(   26) = (   0.0000000   0.3750000  -0.5000000), wk =   0.0078125
        k(   27) = (  -0.0000000   0.3750000  -0.3750000), wk =   0.0078125
        k(   28) = (  -0.0000000   0.3750000  -0.2500000), wk =   0.0078125
        k(   29) = (  -0.0000000   0.3750000  -0.1250000), wk =   0.0078125
        k(   30) = (   0.0000000  -0.5000000  -0.0000000), wk =   0.0039062
        k(   31) = (  -0.0000000  -0.5000000   0.1250000), wk =   0.0078125
        k(   32) = (   0.0000000  -0.5000000   0.2500000), wk =   0.0078125
        k(   33) = (   0.0000000  -0.5000000   0.3750000), wk =   0.0078125
        k(   34) = (   0.0000000  -0.5000000  -0.5000000), wk =   0.0039062
        k(   35) = (   0.1250000  -0.0000000   0.0000000), wk =   0.0078125
        k(   36) = (   0.1250000   0.0000000   0.1250000), wk =   0.0078125
        k(   37) = (   0.1250000  -0.0000000   0.2500000), wk =   0.0078125
        k(   38) = (   0.1250000  -0.0000000   0.3750000), wk =   0.0078125
        k(   39) = (   0.1250000  -0.0000000  -0.5000000), wk =   0.0078125
        k(   40) = (   0.1250000  -0.0000000  -0.3750000), wk =   0.0078125
        k(   41) = (   0.1250000  -0.0000000  -0.2500000), wk =   0.0078125
        k(   42) = (   0.1250000  -0.0000000  -0.1250000), wk =   0.0078125
        k(   43) = (   0.1250000   0.1250000  -0.0000000), wk =   0.0078125
        k(   44) = (   0.1250000   0.1250000   0.1250000), wk =   0.0078125
        k(   45) = (   0.1250000   0.1250000   0.2500000), wk =   0.0078125
        k(   46) = (   0.1250000   0.1250000   0.3750000), wk =   0.0078125
        k(   47) = (   0.1250000   0.1250000  -0.5000000), wk =   0.0078125
        k(   48) = (   0.1250000   0.1250000  -0.3750000), wk =   0.0078125
        k(   49) = (   0.1250000   0.1250000  -0.2500000), wk =   0.0078125
        k(   50) = (   0.1250000   0.1250000  -0.1250000), wk =   0.0078125
        k(   51) = (   0.1250000   0.2500000  -0.0000000), wk =   0.0078125
        k(   52) = (   0.1250000   0.2500000   0.1250000), wk =   0.0078125
        k(   53) = (   0.1250000   0.2500000   0.2500000), wk =   0.0078125
        k(   54) = (   0.1250000   0.2500000   0.3750000), wk =   0.0078125
        k(   55) = (   0.1250000   0.2500000  -0.5000000), wk =   0.0078125
        k(   56) = (   0.1250000   0.2500000  -0.3750000), wk =   0.0078125
        k(   57) = (   0.1250000   0.2500000  -0.2500000), wk =   0.0078125
        k(   58) = (   0.1250000   0.2500000  -0.1250000), wk =   0.0078125
        k(   59) = (   0.1250000   0.3750000   0.0000000), wk =   0.0078125
        k(   60) = (   0.1250000   0.3750000   0.1250000), wk =   0.0078125
        k(   61) = (   0.1250000   0.3750000   0.2500000), wk =   0.0078125
        k(   62) = (   0.1250000   0.3750000   0.3750000), wk =   0.0078125
        k(   63) = (   0.1250000   0.3750000  -0.5000000), wk =   0.0078125
        k(   64) = (   0.1250000   0.3750000  -0.3750000), wk =   0.0078125
        k(   65) = (   0.1250000   0.3750000  -0.2500000), wk =   0.0078125
        k(   66) = (   0.1250000   0.3750000  -0.1250000), wk =   0.0078125
        k(   67) = (   0.1250000  -0.5000000  -0.0000000), wk =   0.0078125
        k(   68) = (   0.1250000  -0.5000000   0.1250000), wk =   0.0078125
        k(   69) = (   0.1250000  -0.5000000   0.2500000), wk =   0.0078125
        k(   70) = (   0.1250000  -0.5000000   0.3750000), wk =   0.0078125
        k(   71) = (   0.1250000  -0.5000000  -0.5000000), wk =   0.0078125
        k(   72) = (   0.1250000  -0.5000000  -0.3750000), wk =   0.0078125
        k(   73) = (   0.1250000  -0.5000000  -0.2500000), wk =   0.0078125
        k(   74) = (   0.1250000  -0.5000000  -0.1250000), wk =   0.0078125
        k(   75) = (   0.1250000  -0.3750000  -0.0000000), wk =   0.0078125
        k(   76) = (   0.1250000  -0.3750000   0.1250000), wk =   0.0078125
        k(   77) = (   0.1250000  -0.3750000   0.2500000), wk =   0.0078125
        k(   78) = (   0.1250000  -0.3750000   0.3750000), wk =   0.0078125
        k(   79) = (   0.1250000  -0.3750000  -0.5000000), wk =   0.0078125
        k(   80) = (   0.1250000  -0.3750000  -0.3750000), wk =   0.0078125
        k(   81) = (   0.1250000  -0.3750000  -0.2500000), wk =   0.0078125
        k(   82) = (   0.1250000  -0.3750000  -0.1250000), wk =   0.0078125
        k(   83) = (   0.1250000  -0.2500000   0.0000000), wk =   0.0078125
        k(   84) = (   0.1250000  -0.2500000   0.1250000), wk =   0.0078125
        k(   85) = (   0.1250000  -0.2500000   0.2500000), wk =   0.0078125
        k(   86) = (   0.1250000  -0.2500000   0.3750000), wk =   0.0078125
        k(   87) = (   0.1250000  -0.2500000  -0.5000000), wk =   0.0078125
        k(   88) = (   0.1250000  -0.2500000  -0.3750000), wk =   0.0078125
        k(   89) = (   0.1250000  -0.2500000  -0.2500000), wk =   0.0078125
        k(   90) = (   0.1250000  -0.2500000  -0.1250000), wk =   0.0078125
        k(   91) = (   0.1250000  -0.1250000   0.0000000), wk =   0.0078125
        k(   92) = (   0.1250000  -0.1250000   0.1250000), wk =   0.0078125
        k(   93) = (   0.1250000  -0.1250000   0.2500000), wk =   0.0078125
        k(   94) = (   0.1250000  -0.1250000   0.3750000), wk =   0.0078125
        k(   95) = (   0.1250000  -0.1250000  -0.5000000), wk =   0.0078125
        k(   96) = (   0.1250000  -0.1250000  -0.3750000), wk =   0.0078125
        k(   97) = (   0.1250000  -0.1250000  -0.2500000), wk =   0.0078125
        k(   98) = (   0.1250000  -0.1250000  -0.1250000), wk =   0.0078125
        k(   99) = (   0.2500000  -0.0000000   0.0000000), wk =   0.0078125
        k(  100) = (   0.2500000  -0.0000000   0.1250000), wk =   0.0078125
        k(  101) = (   0.2500000   0.0000000   0.2500000), wk =   0.0078125
        k(  102) = (   0.2500000  -0.0000000   0.3750000), wk =   0.0078125
        k(  103) = (   0.2500000  -0.0000000  -0.5000000), wk =   0.0078125
        k(  104) = (   0.2500000  -0.0000000  -0.3750000), wk =   0.0078125
        k(  105) = (   0.2500000  -0.0000000  -0.2500000), wk =   0.0078125
        k(  106) = (   0.2500000  -0.0000000  -0.1250000), wk =   0.0078125
        k(  107) = (   0.2500000   0.1250000   0.0000000), wk =   0.0078125
        k(  108) = (   0.2500000   0.1250000   0.1250000), wk =   0.0078125
        k(  109) = (   0.2500000   0.1250000   0.2500000), wk =   0.0078125
        k(  110) = (   0.2500000   0.1250000   0.3750000), wk =   0.0078125
        k(  111) = (   0.2500000   0.1250000  -0.5000000), wk =   0.0078125
        k(  112) = (   0.2500000   0.1250000  -0.3750000), wk =   0.0078125
        k(  113) = (   0.2500000   0.1250000  -0.2500000), wk =   0.0078125
        k(  114) = (   0.2500000   0.1250000  -0.1250000), wk =   0.0078125
        k(  115) = (   0.2500000   0.2500000  -0.0000000), wk =   0.0078125
        k(  116) = (   0.2500000   0.2500000   0.1250000), wk =   0.0078125
        k(  117) = (   0.2500000   0.2500000   0.2500000), wk =   0.0078125
        k(  118) = (   0.2500000   0.2500000   0.3750000), wk =   0.0078125
        k(  119) = (   0.2500000   0.2500000  -0.5000000), wk =   0.0078125
        k(  120) = (   0.2500000   0.2500000  -0.3750000), wk =   0.0078125
        k(  121) = (   0.2500000   0.2500000  -0.2500000), wk =   0.0078125
        k(  122) = (   0.2500000   0.2500000  -0.1250000), wk =   0.0078125
        k(  123) = (   0.2500000   0.3750000   0.0000000), wk =   0.0078125
        k(  124) = (   0.2500000   0.3750000   0.1250000), wk =   0.0078125
        k(  125) = (   0.2500000   0.3750000   0.2500000), wk =   0.0078125
        k(  126) = (   0.2500000   0.3750000   0.3750000), wk =   0.0078125
        k(  127) = (   0.2500000   0.3750000  -0.5000000), wk =   0.0078125
        k(  128) = (   0.2500000   0.3750000  -0.3750000), wk =   0.0078125
        k(  129) = (   0.2500000   0.3750000  -0.2500000), wk =   0.0078125
        k(  130) = (   0.2500000   0.3750000  -0.1250000), wk =   0.0078125
        k(  131) = (   0.2500000  -0.5000000   0.0000000), wk =   0.0078125
        k(  132) = (   0.2500000  -0.5000000   0.1250000), wk =   0.0078125
        k(  133) = (   0.2500000  -0.5000000   0.2500000), wk =   0.0078125
        k(  134) = (   0.2500000  -0.5000000   0.3750000), wk =   0.0078125
        k(  135) = (   0.2500000  -0.5000000  -0.5000000), wk =   0.0078125
        k(  136) = (   0.2500000  -0.5000000  -0.3750000), wk =   0.0078125
        k(  137) = (   0.2500000  -0.5000000  -0.2500000), wk =   0.0078125
        k(  138) = (   0.2500000  -0.5000000  -0.1250000), wk =   0.0078125
        k(  139) = (   0.2500000  -0.3750000  -0.0000000), wk =   0.0078125
        k(  140) = (   0.2500000  -0.3750000   0.1250000), wk =   0.0078125
        k(  141) = (   0.2500000  -0.3750000   0.2500000), wk =   0.0078125
        k(  142) = (   0.2500000  -0.3750000   0.3750000), wk =   0.0078125
        k(  143) = (   0.2500000  -0.3750000  -0.5000000), wk =   0.0078125
        k(  144) = (   0.2500000  -0.3750000  -0.3750000), wk =   0.0078125
        k(  145) = (   0.2500000  -0.3750000  -0.2500000), wk =   0.0078125
        k(  146) = (   0.2500000  -0.3750000  -0.1250000), wk =   0.0078125
        k(  147) = (   0.2500000  -0.2500000   0.0000000), wk =   0.0078125
        k(  148) = (   0.2500000  -0.2500000   0.1250000), wk =   0.0078125
        k(  149) = (   0.2500000  -0.2500000   0.2500000), wk =   0.0078125
        k(  150) = (   0.2500000  -0.2500000   0.3750000), wk =   0.0078125
        k(  151) = (   0.2500000  -0.2500000  -0.5000000), wk =   0.0078125
        k(  152) = (   0.2500000  -0.2500000  -0.3750000), wk =   0.0078125
        k(  153) = (   0.2500000  -0.2500000  -0.2500000), wk =   0.0078125
        k(  154) = (   0.2500000  -0.2500000  -0.1250000), wk =   0.0078125
        k(  155) = (   0.2500000  -0.1250000   0.0000000), wk =   0.0078125
        k(  156) = (   0.2500000  -0.1250000   0.1250000), wk =   0.0078125
        k(  157) = (   0.2500000  -0.1250000   0.2500000), wk =   0.0078125
        k(  158) = (   0.2500000  -0.1250000   0.3750000), wk =   0.0078125
        k(  159) = (   0.2500000  -0.1250000  -0.5000000), wk =   0.0078125
        k(  160) = (   0.2500000  -0.1250000  -0.3750000), wk =   0.0078125
        k(  161) = (   0.2500000  -0.1250000  -0.2500000), wk =   0.0078125
        k(  162) = (   0.2500000  -0.1250000  -0.1250000), wk =   0.0078125
        k(  163) = (   0.3750000  -0.0000000   0.0000000), wk =   0.0078125
        k(  164) = (   0.3750000  -0.0000000   0.1250000), wk =   0.0078125
        k(  165) = (   0.3750000  -0.0000000   0.2500000), wk =   0.0078125
        k(  166) = (   0.3750000  -0.0000000   0.3750000), wk =   0.0078125
        k(  167) = (   0.3750000  -0.0000000  -0.5000000), wk =   0.0078125
        k(  168) = (   0.3750000  -0.0000000  -0.3750000), wk =   0.0078125
        k(  169) = (   0.3750000  -0.0000000  -0.2500000), wk =   0.0078125
        k(  170) = (   0.3750000  -0.0000000  -0.1250000), wk =   0.0078125
        k(  171) = (   0.3750000   0.1250000  -0.0000000), wk =   0.0078125
        k(  172) = (   0.3750000   0.1250000   0.1250000), wk =   0.0078125
        k(  173) = (   0.3750000   0.1250000   0.2500000), wk =   0.0078125
        k(  174) = (   0.3750000   0.1250000   0.3750000), wk =   0.0078125
        k(  175) = (   0.3750000   0.1250000  -0.5000000), wk =   0.0078125
        k(  176) = (   0.3750000   0.1250000  -0.3750000), wk =   0.0078125
        k(  177) = (   0.3750000   0.1250000  -0.2500000), wk =   0.0078125
        k(  178) = (   0.3750000   0.1250000  -0.1250000), wk =   0.0078125
        k(  179) = (   0.3750000   0.2500000   0.0000000), wk =   0.0078125
        k(  180) = (   0.3750000   0.2500000   0.1250000), wk =   0.0078125
        k(  181) = (   0.3750000   0.2500000   0.2500000), wk =   0.0078125
        k(  182) = (   0.3750000   0.2500000   0.3750000), wk =   0.0078125
        k(  183) = (   0.3750000   0.2500000  -0.5000000), wk =   0.0078125
        k(  184) = (   0.3750000   0.2500000  -0.3750000), wk =   0.0078125
        k(  185) = (   0.3750000   0.2500000  -0.2500000), wk =   0.0078125
        k(  186) = (   0.3750000   0.2500000  -0.1250000), wk =   0.0078125
        k(  187) = (   0.3750000   0.3750000   0.0000000), wk =   0.0078125
        k(  188) = (   0.3750000   0.3750000   0.1250000), wk =   0.0078125
        k(  189) = (   0.3750000   0.3750000   0.2500000), wk =   0.0078125
        k(  190) = (   0.3750000   0.3750000   0.3750000), wk =   0.0078125
        k(  191) = (   0.3750000   0.3750000  -0.5000000), wk =   0.0078125
        k(  192) = (   0.3750000   0.3750000  -0.3750000), wk =   0.0078125
        k(  193) = (   0.3750000   0.3750000  -0.2500000), wk =   0.0078125
        k(  194) = (   0.3750000   0.3750000  -0.1250000), wk =   0.0078125
        k(  195) = (   0.3750000  -0.5000000   0.0000000), wk =   0.0078125
        k(  196) = (   0.3750000  -0.5000000   0.1250000), wk =   0.0078125
        k(  197) = (   0.3750000  -0.5000000   0.2500000), wk =   0.0078125
        k(  198) = (   0.3750000  -0.5000000   0.3750000), wk =   0.0078125
        k(  199) = (   0.3750000  -0.5000000  -0.5000000), wk =   0.0078125
        k(  200) = (   0.3750000  -0.5000000  -0.3750000), wk =   0.0078125
        k(  201) = (   0.3750000  -0.5000000  -0.2500000), wk =   0.0078125
        k(  202) = (   0.3750000  -0.5000000  -0.1250000), wk =   0.0078125
        k(  203) = (   0.3750000  -0.3750000  -0.0000000), wk =   0.0078125
        k(  204) = (   0.3750000  -0.3750000   0.1250000), wk =   0.0078125
        k(  205) = (   0.3750000  -0.3750000   0.2500000), wk =   0.0078125
        k(  206) = (   0.3750000  -0.3750000   0.3750000), wk =   0.0078125
        k(  207) = (   0.3750000  -0.3750000  -0.5000000), wk =   0.0078125
        k(  208) = (   0.3750000  -0.3750000  -0.3750000), wk =   0.0078125
        k(  209) = (   0.3750000  -0.3750000  -0.2500000), wk =   0.0078125
        k(  210) = (   0.3750000  -0.3750000  -0.1250000), wk =   0.0078125
        k(  211) = (   0.3750000  -0.2500000   0.0000000), wk =   0.0078125
        k(  212) = (   0.3750000  -0.2500000   0.1250000), wk =   0.0078125
        k(  213) = (   0.3750000  -0.2500000   0.2500000), wk =   0.0078125
        k(  214) = (   0.3750000  -0.2500000   0.3750000), wk =   0.0078125
        k(  215) = (   0.3750000  -0.2500000  -0.5000000), wk =   0.0078125
        k(  216) = (   0.3750000  -0.2500000  -0.3750000), wk =   0.0078125
        k(  217) = (   0.3750000  -0.2500000  -0.2500000), wk =   0.0078125
        k(  218) = (   0.3750000  -0.2500000  -0.1250000), wk =   0.0078125
        k(  219) = (   0.3750000  -0.1250000   0.0000000), wk =   0.0078125
        k(  220) = (   0.3750000  -0.1250000   0.1250000), wk =   0.0078125
        k(  221) = (   0.3750000  -0.1250000   0.2500000), wk =   0.0078125
        k(  222) = (   0.3750000  -0.1250000   0.3750000), wk =   0.0078125
        k(  223) = (   0.3750000  -0.1250000  -0.5000000), wk =   0.0078125
        k(  224) = (   0.3750000  -0.1250000  -0.3750000), wk =   0.0078125
        k(  225) = (   0.3750000  -0.1250000  -0.2500000), wk =   0.0078125
        k(  226) = (   0.3750000  -0.1250000  -0.1250000), wk =   0.0078125
        k(  227) = (  -0.5000000   0.0000000  -0.0000000), wk =   0.0039062
        k(  228) = (  -0.5000000   0.0000000   0.1250000), wk =   0.0078125
        k(  229) = (  -0.5000000   0.0000000   0.2500000), wk =   0.0078125
        k(  230) = (  -0.5000000   0.0000000   0.3750000), wk =   0.0078125
        k(  231) = (  -0.5000000  -0.0000000  -0.5000000), wk =   0.0039062
        k(  232) = (  -0.5000000   0.1250000  -0.0000000), wk =   0.0078125
        k(  233) = (  -0.5000000   0.1250000   0.1250000), wk =   0.0078125
        k(  234) = (  -0.5000000   0.1250000   0.2500000), wk =   0.0078125
        k(  235) = (  -0.5000000   0.1250000   0.3750000), wk =   0.0078125
        k(  236) = (  -0.5000000   0.1250000  -0.5000000), wk =   0.0078125
        k(  237) = (  -0.5000000   0.1250000  -0.3750000), wk =   0.0078125
        k(  238) = (  -0.5000000   0.1250000  -0.2500000), wk =   0.0078125
        k(  239) = (  -0.5000000   0.1250000  -0.1250000), wk =   0.0078125
        k(  240) = (  -0.5000000   0.2500000  -0.0000000), wk =   0.0078125
        k(  241) = (  -0.5000000   0.2500000   0.1250000), wk =   0.0078125
        k(  242) = (  -0.5000000   0.2500000   0.2500000), wk =   0.0078125
        k(  243) = (  -0.5000000   0.2500000   0.3750000), wk =   0.0078125
        k(  244) = (  -0.5000000   0.2500000  -0.5000000), wk =   0.0078125
        k(  245) = (  -0.5000000   0.2500000  -0.3750000), wk =   0.0078125
        k(  246) = (  -0.5000000   0.2500000  -0.2500000), wk =   0.0078125
        k(  247) = (  -0.5000000   0.2500000  -0.1250000), wk =   0.0078125
        k(  248) = (  -0.5000000   0.3750000  -0.0000000), wk =   0.0078125
        k(  249) = (  -0.5000000   0.3750000   0.1250000), wk =   0.0078125
        k(  250) = (  -0.5000000   0.3750000   0.2500000), wk =   0.0078125
        k(  251) = (  -0.5000000   0.3750000   0.3750000), wk =   0.0078125
        k(  252) = (  -0.5000000   0.3750000  -0.5000000), wk =   0.0078125
        k(  253) = (  -0.5000000   0.3750000  -0.3750000), wk =   0.0078125
        k(  254) = (  -0.5000000   0.3750000  -0.2500000), wk =   0.0078125
        k(  255) = (  -0.5000000   0.3750000  -0.1250000), wk =   0.0078125
        k(  256) = (  -0.5000000  -0.5000000   0.0000000), wk =   0.0039062
        k(  257) = (  -0.5000000  -0.5000000   0.1250000), wk =   0.0078125
        k(  258) = (  -0.5000000  -0.5000000   0.2500000), wk =   0.0078125
        k(  259) = (  -0.5000000  -0.5000000   0.3750000), wk =   0.0078125
        k(  260) = (  -0.5000000  -0.5000000  -0.5000000), wk =   0.0039062

     Dense  grid:    76717 G-vectors     FFT dimensions: (  54,  54,  72)

     Smooth grid:    29977 G-vectors     FFT dimensions: (  40,  40,  50)

     Dynamical RAM for                 wfc:       0.06 MB

     Dynamical RAM for     wfc (w. buffer):       3.75 MB

     Dynamical RAM for           str. fact:       0.15 MB

     Dynamical RAM for           local pot:       0.00 MB

     Dynamical RAM for          nlocal pot:       0.23 MB

     Dynamical RAM for                qrad:       5.37 MB

     Dynamical RAM for          rho,v,vnew:       0.55 MB

     Dynamical RAM for               rhoin:       0.18 MB

     Dynamical RAM for            rho*nmix:       1.17 MB

     Dynamical RAM for           G-vectors:       0.29 MB

     Dynamical RAM for          h,s,v(r/c):       0.05 MB

     Dynamical RAM for          <psi|beta>:       0.02 MB

     Dynamical RAM for                 psi:       0.23 MB

     Dynamical RAM for                hpsi:       0.23 MB

     Dynamical RAM for                spsi:       0.23 MB

     Dynamical RAM for      wfcinit/wfcrot:       0.14 MB

     Dynamical RAM for           addusdens:       3.84 MB

     Dynamical RAM for          addusforce:       3.99 MB

     Dynamical RAM for         addusstress:       4.05 MB

     Estimated static dynamical RAM per process >      12.47 MB

     Estimated max dynamical RAM per process >      16.52 MB

     Estimated total dynamical RAM >       1.03 GB

     Check: negative core charge=   -0.000003

     Initial potential from superposition of free atoms

     starting charge   31.39954, renormalised to   32.00000
     Starting wfcs are   18 randomized atomic wfcs

     total cpu time spent up to now is        1.5 secs

     Self-consistent Calculation

     iteration #  1     ecut=    80.00 Ry     beta= 0.50
     Davidson diagonalization with overlap
     ethr =  1.00E-02,  avg # of iterations =  2.0

     total cpu time spent up to now is        2.2 secs

     total energy              =    -314.90707230 Ry
     Harris-Foulkes estimate   =    -315.45799448 Ry
     estimated scf accuracy    <       0.86939420 Ry

     iteration #  2     ecut=    80.00 Ry     beta= 0.50
     Davidson diagonalization with overlap
     ethr =  2.72E-03,  avg # of iterations =  2.8

     total cpu time spent up to now is        3.1 secs

     total energy              =    -315.13943222 Ry
     Harris-Foulkes estimate   =    -315.24429797 Ry
     estimated scf accuracy    <       0.24164033 Ry

     iteration #  3     ecut=    80.00 Ry     beta= 0.50
     Davidson diagonalization with overlap
     ethr =  7.55E-04,  avg # of iterations =  2.0

     total cpu time spent up to now is        3.9 secs

     total energy              =    -315.18035007 Ry
     Harris-Foulkes estimate   =    -315.18329401 Ry
     estimated scf accuracy    <       0.00932129 Ry

     iteration #  4     ecut=    80.00 Ry     beta= 0.50
     Davidson diagonalization with overlap
     ethr =  2.91E-05,  avg # of iterations =  1.9

     total cpu time spent up to now is        4.6 secs

     total energy              =    -315.18091099 Ry
     Harris-Foulkes estimate   =    -315.18095466 Ry
     estimated scf accuracy    <       0.00050633 Ry

     iteration #  5     ecut=    80.00 Ry     beta= 0.50
     Davidson diagonalization with overlap
     ethr =  1.58E-06,  avg # of iterations =  2.0

     total cpu time spent up to now is        5.3 secs

     total energy              =    -315.18096704 Ry
     Harris-Foulkes estimate   =    -315.18097112 Ry
     estimated scf accuracy    <       0.00002644 Ry

     iteration #  6     ecut=    80.00 Ry     beta= 0.50
     Davidson diagonalization with overlap
     ethr =  8.26E-08,  avg # of iterations =  2.6

     total cpu time spent up to now is        6.2 secs

     total energy              =    -315.18097366 Ry
     Harris-Foulkes estimate   =    -315.18097305 Ry
     estimated scf accuracy    <       0.00000119 Ry

     iteration #  7     ecut=    80.00 Ry     beta= 0.50
     Davidson diagonalization with overlap
     ethr =  3.71E-09,  avg # of iterations =  2.0

     total cpu time spent up to now is        7.0 secs

     End of self-consistent calculation

          k = 0.0000 0.0000 0.0000 (  3703 PWs)   bands (ev):

   -66.5074 -66.4995 -33.5340 -33.4799 -33.4799 -33.4716 -33.4637 -33.4637
   -11.2501 -10.1347   1.7375   3.9188   3.9188   4.5234   4.5234   5.3371

     occupation numbers 
     1.0000   1.0000   1.0000   1.0000   1.0000   1.0000   1.0000   1.0000
     1.0000   1.0000   1.0000   1.0000   1.0000   1.0000   1.0000   1.0000

          k = 0.0000-0.0000 0.0932 (  3721 PWs)   bands (ev):

   -66.5071 -66.4998 -33.5317 -33.4793 -33.4793 -33.4741 -33.4643 -33.4643
   -11.2095 -10.1790   1.8215   3.9404   3.9404   4.4989   4.4989   5.0513

     occupation numbers 
     1.0000   1.0000   1.0000   1.0000   1.0000   1.0000   1.0000   1.0000
     1.0000   1.0000   1.0000   1.0000   1.0000   1.0000   1.0000   1.0000

          k = 0.0000-0.0000 0.1865 (  3721 PWs)   bands (ev):

   -66.5063 -66.5007 -33.5252 -33.4811 -33.4775 -33.4775 -33.4661 -33.4661
   -11.0929 -10.3043   2.0720   4.0025   4.0025   4.4161   4.4298   4.4298

     occupation numbers 
     1.0000   1.0000   1.0000   1.0000   1.0000   1.0000   1.0000   1.0000
     1.0000   1.0000   1.0000   1.0000   1.0000   1.0000   1.0000   1.0000

          k = 0.0000-0.0000 0.2797 (  3708 PWs)   bands (ev):

   -66.5050 -66.5020 -33.5153 -33.4915 -33.4749 -33.4749 -33.4687 -33.4687
   -10.9164 -10.4897   2.4825   3.7017   4.0970   4.0970   4.3283   4.3283

     occupation numbers 
     1.0000   1.0000   1.0000   1.0000   1.0000   1.0000   1.0000   1.0000
     1.0000   1.0000   1.0000   1.0000   1.0000   1.0000   1.0000   1.0000

          k =-0.0000 0.0000-0.3730 (  3744 PWs)   bands (ev):

   -66.5035 -66.5035 -33.5035 -33.5035 -33.4718 -33.4718 -33.4718 -33.4718
   -10.7050 -10.7048   3.0365   3.0366   4.2111   4.2111   4.2113   4.2113

     occupation numbers 
     1.0000   1.0000   1.0000   1.0000   1.0000   1.0000   1.0000   1.0000
     1.0000   1.0000   1.0000   1.0000   1.0000   1.0000   1.0000   1.0000

          k =-0.0000 0.1443 0.0000 (  3724 PWs)   bands (ev):

   -66.5070 -66.4997 -33.5316 -33.4827 -33.4812 -33.4736 -33.4671 -33.4639
   -11.1697 -10.1256   1.8726   3.6082   3.8111   4.1190   4.5629   5.2405

     occupation numbers 
     1.0000   1.0000   1.0000   1.0000   1.0000   1.0000   1.0000   1.0000
     1.0000   1.0000   1.0000   1.0000   1.0000   1.0000   1.0000   1.0000

          k =-0.0000 0.1443 0.0932 (  3727 PWs)   bands (ev):

   -66.5067 -66.4999 -33.5298 -33.4819 -33.4805 -33.4772 -33.4664 -33.4645
   -11.1310 -10.1662   1.9298   3.6431   3.8373   4.0321   4.5316   5.1114

     occupation numbers 
     1.0000   1.0000   1.0000   1.0000   1.0000   1.0000   1.0000   1.0000
     1.0000   1.0000   1.0000   1.0000   1.0000   1.0000   1.0000   1.0000

          k = 0.0000 0.1443 0.1865 (  3726 PWs)   bands (ev):

   -66.5059 -66.5007 -33.5244 -33.4852 -33.4794 -33.4786 -33.4667 -33.4664
   -11.0203 -10.2815   2.1042   3.6196   3.8959   3.9128   4.4437   4.8316

     occupation numbers 
     1.0000   1.0000   1.0000   1.0000   1.0000   1.0000   1.0000   1.0000
     1.0000   1.0000   1.0000   1.0000   1.0000   1.0000   1.0000   1.0000

          k = 0.0000 0.1443 0.2797 (  3732 PWs)   bands (ev):

   -66.5047 -66.5019 -33.5162 -33.4953 -33.4760 -33.4758 -33.4692 -33.4688
   -10.8533 -10.4533   2.3972   3.2447   4.0285   4.0388   4.3156   4.5395

     occupation numbers 
     1.0000   1.0000   1.0000   1.0000   1.0000   1.0000   1.0000   1.0000
     1.0000   1.0000   1.0000   1.0000   1.0000   1.0000   1.0000   1.0000

          k =-0.0000 0.1443-0.3730 (  3736 PWs)   bands (ev):

   -66.5033 -66.5033 -33.5061 -33.5060 -33.4725 -33.4725 -33.4722 -33.4721
   -10.6544 -10.6542   2.7939   2.7940   4.1694   4.1696   4.2719   4.2720

     occupation numbers 
     1.0000   1.0000   1.0000   1.0000   1.0000   1.0000   1.0000   1.0000
     1.0000   1.0000   1.0000   1.0000   1.0000   1.0000   1.0000   1.0000

          k =-0.0000 0.1443-0.2797 (  3732 PWs)   bands (ev):

   -66.5047 -66.5019 -33.5162 -33.4953 -33.4760 -33.4758 -33.4692 -33.4688
   -10.8533 -10.4533   2.3972   3.2447   4.0285   4.0388   4.3156   4.5395

     occupation numbers 
     1.0000   1.0000   1.0000   1.0000   1.0000   1.0000   1.0000   1.0000
     1.0000   1.0000   1.0000   1.0000   1.0000   1.0000   1.0000   1.0000

          k =-0.0000 0.1443-0.1865 (  3726 PWs)   bands (ev):

   -66.5059 -66.5007 -33.5244 -33.4852 -33.4794 -33.4786 -33.4667 -33.4664
   -11.0203 -10.2815   2.1042   3.6196   3.8959   3.9128   4.4437   4.8316

     occupation numbers 
     1.0000   1.0000   1.0000   1.0000   1.0000   1.0000   1.0000   1.0000
     1.0000   1.0000   1.0000   1.0000   1.0000   1.0000   1.0000   1.0000

          k =-0.0000 0.1443-0.0932 (  3727 PWs)   bands (ev):

   -66.5067 -66.4999 -33.5298 -33.4819 -33.4805 -33.4772 -33.4664 -33.4645
   -11.1310 -10.1662   1.9298   3.6431   3.8373   4.0321   4.5316   5.1114

     occupation numbers 
     1.0000   1.0000   1.0000   1.0000   1.0000   1.0000   1.0000   1.0000
     1.0000   1.0000   1.0000   1.0000   1.0000   1.0000   1.0000   1.0000

          k =-0.0000 0.2887 0.0000 (  3738 PWs)   bands (ev):

   -66.5059 -66.5000 -33.5253 -33.4894 -33.4841 -33.4798 -33.4745 -33.4644
   -10.9574 -10.1180   2.2485   2.8026   3.5896   3.6012   4.6115   4.9494

     occupation numbers 
     1.0000   1.0000   1.0000   1.0000   1.0000   1.0000   1.0000   1.0000
     1.0000   1.0000   1.0000   1.0000   1.0000   1.0000   1.0000   1.0000

          k =-0.0000 0.2887 0.0932 (  3746 PWs)   bands (ev):

   -66.5057 -66.5003 -33.5248 -33.4881 -33.4851 -33.4833 -33.4712 -33.4652
   -10.9245 -10.1484   2.1699   2.8939   3.5441   3.6350   4.5674   4.9453

     occupation numbers 
     1.0000   1.0000   1.0000   1.0000   1.0000   1.0000   1.0000   1.0000
     1.0000   1.0000   1.0000   1.0000   1.0000   1.0000   1.0000   1.0000

          k =-0.0000 0.2887 0.1865 (  3735 PWs)   bands (ev):

   -66.5050 -66.5009 -33.5229 -33.4948 -33.4830 -33.4812 -33.4689 -33.4673
   -10.8311 -10.2361   2.0886   2.8368   3.6583   3.7329   4.4447   4.8775

     occupation numbers 
     1.0000   1.0000   1.0000   1.0000   1.0000   1.0000   1.0000   1.0000
     1.0000   1.0000   1.0000   1.0000   1.0000   1.0000   1.0000   1.0000

          k = 0.0000 0.2887 0.2797 (  3727 PWs)   bands (ev):

   -66.5041 -66.5018 -33.5189 -33.5041 -33.4780 -33.4776 -33.4705 -33.4694
   -10.6921 -10.3694   2.1217   2.5585   3.8844   4.0016   4.2687   4.6845

     occupation numbers 
     1.0000   1.0000   1.0000   1.0000   1.0000   1.0000   1.0000   1.0000
     1.0000   1.0000   1.0000   1.0000   1.0000   1.0000   1.0000   1.0000

          k =-0.0000 0.2887-0.3730 (  3710 PWs)   bands (ev):

   -66.5030 -66.5030 -33.5125 -33.5125 -33.4742 -33.4742 -33.4727 -33.4726
   -10.5297 -10.5295   2.2885   2.2885   4.0714   4.0716   4.3746   4.3746

     occupation numbers 
     1.0000   1.0000   1.0000   1.0000   1.0000   1.0000   1.0000   1.0000
     1.0000   1.0000   1.0000   1.0000   1.0000   1.0000   1.0000   1.0000

          k =-0.0000 0.2887-0.2797 (  3727 PWs)   bands (ev):

   -66.5041 -66.5018 -33.5189 -33.5041 -33.4780 -33.4776 -33.4705 -33.4694
   -10.6921 -10.3694   2.1217   2.5585   3.8844   4.0016   4.2687   4.6845

     occupation numbers 
     1.0000   1.0000   1.0000   1.0000   1.0000   1.0000   1.0000   1.0000
     1.0000   1.0000   1.0000   1.0000   1.0000   1.0000   1.0000   1.0000

          k =-0.0000 0.2887-0.1865 (  3735 PWs)   bands (ev):

   -66.5050 -66.5009 -33.5229 -33.4948 -33.4830 -33.4812 -33.4689 -33.4673
   -10.8311 -10.2361   2.0886   2.8368   3.6583   3.7329   4.4447   4.8775

     occupation numbers 
     1.0000   1.0000   1.0000   1.0000   1.0000   1.0000   1.0000   1.0000
     1.0000   1.0000   1.0000   1.0000   1.0000   1.0000   1.0000   1.0000

          k =-0.0000 0.2887-0.0932 (  3746 PWs)   bands (ev):

   -66.5057 -66.5003 -33.5248 -33.4881 -33.4851 -33.4833 -33.4712 -33.4652
   -10.9245 -10.1484   2.1699   2.8939   3.5441   3.6350   4.5674   4.9453

     occupation numbers 
     1.0000   1.0000   1.0000   1.0000   1.0000   1.0000   1.0000   1.0000
     1.0000   1.0000   1.0000   1.0000   1.0000   1.0000   1.0000   1.0000

          k =-0.0000 0.4330 0.0000 (  3740 PWs)   bands (ev):

   -66.5045 -66.5007 -33.5172 -33.4960 -33.4882 -33.4869 -33.4816 -33.4651
   -10.6977 -10.1519   2.0847   2.7890   3.2204   3.4275   4.5110   4.6283

     occupation numbers 
     1.0000   1.0000   1.0000   1.0000   1.0000   1.0000   1.0000   1.0000
     1.0000   1.0000   1.0000   1.0000   1.0000   1.0000   1.0000   1.0000

          k =-0.0000 0.4330 0.0932 (  3746 PWs)   bands (ev):

   -66.5044 -66.5008 -33.5191 -33.4958 -33.4916 -33.4860 -33.4767 -33.4659
   -10.6738 -10.1689   1.9636   2.7593   3.2742   3.4665   4.5741   4.6118

     occupation numbers 
     1.0000   1.0000   1.0000   1.0000   1.0000   1.0000   1.0000   1.0000
     1.0000   1.0000   1.0000   1.0000   1.0000   1.0000   1.0000   1.0000

          k =-0.0000 0.4330 0.1865 (  3739 PWs)   bands (ev):

   -66.5040 -66.5012 -33.5218 -33.5046 -33.4850 -33.4837 -33.4721 -33.4683
   -10.6068 -10.2191   1.7978   2.4500   3.5800   3.6261   4.4245   4.7369

     occupation numbers 
     1.0000   1.0000   1.0000   1.0000   1.0000   1.0000   1.0000   1.0000
     1.0000   1.0000   1.0000   1.0000   1.0000   1.0000   1.0000   1.0000

          k =-0.0000 0.4330 0.2797 (  3743 PWs)   bands (ev):

   -66.5033 -66.5019 -33.5221 -33.5131 -33.4801 -33.4779 -33.4718 -33.4707
   -10.5098 -10.2993   1.7450   2.0988   3.7568   4.0637   4.2121   4.6941

     occupation numbers 
     1.0000   1.0000   1.0000   1.0000   1.0000   1.0000   1.0000   1.0000
     1.0000   1.0000   1.0000   1.0000   1.0000   1.0000   1.0000   1.0000

          k =-0.0000 0.4330-0.3730 (  3748 PWs)   bands (ev):

   -66.5026 -66.5026 -33.5192 -33.5192 -33.4760 -33.4760 -33.4728 -33.4728
   -10.4012 -10.4009   1.8472   1.8472   3.9770   3.9772   4.4498   4.4499

     occupation numbers 
     1.0000   1.0000   1.0000   1.0000   1.0000   1.0000   1.0000   1.0000
     1.0000   1.0000   1.0000   1.0000   1.0000   1.0000   1.0000   1.0000

          k =-0.0000 0.4330-0.2797 (  3743 PWs)   bands (ev):

   -66.5033 -66.5019 -33.5221 -33.5131 -33.4801 -33.4779 -33.4718 -33.4707
   -10.5098 -10.2993   1.7450   2.0988   3.7568   4.0637   4.2121   4.6941

     occupation numbers 
     1.0000   1.0000   1.0000   1.0000   1.0000   1.0000   1.0000   1.0000
     1.0000   1.0000   1.0000   1.0000   1.0000   1.0000   1.0000   1.0000

          k =-0.0000 0.4330-0.1865 (  3739 PWs)   bands (ev):

   -66.5040 -66.5012 -33.5218 -33.5046 -33.4850 -33.4837 -33.4721 -33.4683
   -10.6068 -10.2191   1.7978   2.4500   3.5800   3.6261   4.4245   4.7369

     occupation numbers 
     1.0000   1.0000   1.0000   1.0000   1.0000   1.0000   1.0000   1.0000
     1.0000   1.0000   1.0000   1.0000   1.0000   1.0000   1.0000   1.0000

          k =-0.0000 0.4330-0.0932 (  3746 PWs)   bands (ev):

   -66.5044 -66.5008 -33.5191 -33.4958 -33.4916 -33.4860 -33.4767 -33.4659
   -10.6738 -10.1689   1.9636   2.7593   3.2742   3.4665   4.5741   4.6118

     occupation numbers 
     1.0000   1.0000   1.0000   1.0000   1.0000   1.0000   1.0000   1.0000
     1.0000   1.0000   1.0000   1.0000   1.0000   1.0000   1.0000   1.0000

          k = 0.0000-0.5774-0.0000 (  3738 PWs)   bands (ev):

   -66.5038 -66.5011 -33.5125 -33.4983 -33.4930 -33.4880 -33.4849 -33.4654
   -10.5522 -10.2020   1.8237   3.0665   3.1522   3.3621   4.2012   4.6299

     occupation numbers 
     1.0000   1.0000   1.0000   1.0000   1.0000   1.0000   1.0000   1.0000
     1.0000   1.0000   1.0000   1.0000   1.0000   1.0000   1.0000   1.0000

          k = 0.0000-0.5774 0.0932 (  3746 PWs)   bands (ev):

   -66.5037 -66.5012 -33.5163 -33.4997 -33.4933 -33.4871 -33.4796 -33.4662
   -10.5347 -10.2107   1.7415   2.8119   3.3163   3.4030   4.3893   4.5721

     occupation numbers 
     1.0000   1.0000   1.0000   1.0000   1.0000   1.0000   1.0000   1.0000
     1.0000   1.0000   1.0000   1.0000   1.0000   1.0000   1.0000   1.0000

          k = 0.0000-0.5774 0.1865 (  3750 PWs)   bands (ev):

   -66.5034 -66.5015 -33.5213 -33.5090 -33.4849 -33.4847 -33.4740 -33.4687
   -10.4864 -10.2374   1.6097   2.3558   3.5217   3.6897   4.4127   4.6329

     occupation numbers 
     1.0000   1.0000   1.0000   1.0000   1.0000   1.0000   1.0000   1.0000
     1.0000   1.0000   1.0000   1.0000   1.0000   1.0000   1.0000   1.0000

          k = 0.0000-0.5774 0.2797 (  3758 PWs)   bands (ev):

   -66.5029 -66.5019 -33.5235 -33.5169 -33.4810 -33.4776 -33.4724 -33.4716
   -10.4187 -10.2834   1.5677   1.9489   3.7072   4.1141   4.1872   4.6735

     occupation numbers 
     1.0000   1.0000   1.0000   1.0000   1.0000   1.0000   1.0000   1.0000
     1.0000   1.0000   1.0000   1.0000   1.0000   1.0000   1.0000   1.0000

          k = 0.0000-0.5774-0.3730 (  3772 PWs)   bands (ev):

   -66.5024 -66.5024 -33.5220 -33.5220 -33.4767 -33.4767 -33.4728 -33.4728
   -10.3467 -10.3465   1.6768   1.6768   3.9389   3.9391   4.4764   4.4765

     occupation numbers 
     1.0000   1.0000   1.0000   1.0000   1.0000   1.0000   1.0000   1.0000
     1.0000   1.0000   1.0000   1.0000   1.0000   1.0000   1.0000   1.0000

          k = 0.1250 0.0722 0.0000 (  3724 PWs)   bands (ev):

   -66.5070 -66.4997 -33.5316 -33.4827 -33.4812 -33.4736 -33.4671 -33.4639
   -11.1697 -10.1256   1.8726   3.6082   3.8111   4.1190   4.5629   5.2405

     occupation numbers 
     1.0000   1.0000   1.0000   1.0000   1.0000   1.0000   1.0000   1.0000
     1.0000   1.0000   1.0000   1.0000   1.0000   1.0000   1.0000   1.0000

          k = 0.1250 0.0722 0.0932 (  3727 PWs)   bands (ev):

   -66.5067 -66.4999 -33.5298 -33.4819 -33.4805 -33.4772 -33.4664 -33.4645
   -11.1310 -10.1662   1.9298   3.6431   3.8373   4.0321   4.5316   5.1114

     occupation numbers 
     1.0000   1.0000   1.0000   1.0000   1.0000   1.0000   1.0000   1.0000
     1.0000   1.0000   1.0000   1.0000   1.0000   1.0000   1.0000   1.0000

          k = 0.1250 0.0722 0.1865 (  3726 PWs)   bands (ev):

   -66.5059 -66.5007 -33.5244 -33.4852 -33.4794 -33.4786 -33.4667 -33.4664
   -11.0203 -10.2815   2.1042   3.6196   3.8959   3.9128   4.4437   4.8316

     occupation numbers 
     1.0000   1.0000   1.0000   1.0000   1.0000   1.0000   1.0000   1.0000
     1.0000   1.0000   1.0000   1.0000   1.0000   1.0000   1.0000   1.0000

          k = 0.1250 0.0722 0.2797 (  3732 PWs)   bands (ev):

   -66.5047 -66.5019 -33.5162 -33.4953 -33.4760 -33.4758 -33.4692 -33.4688
   -10.8533 -10.4533   2.3972   3.2447   4.0285   4.0388   4.3156   4.5395

     occupation numbers 
     1.0000   1.0000   1.0000   1.0000   1.0000   1.0000   1.0000   1.0000
     1.0000   1.0000   1.0000   1.0000   1.0000   1.0000   1.0000   1.0000

          k = 0.1250 0.0722-0.3730 (  3736 PWs)   bands (ev):

   -66.5033 -66.5033 -33.5061 -33.5060 -33.4725 -33.4725 -33.4722 -33.4721
   -10.6544 -10.6542   2.7939   2.7940   4.1694   4.1696   4.2719   4.2720

     occupation numbers 
     1.0000   1.0000   1.0000   1.0000   1.0000   1.0000   1.0000   1.0000
     1.0000   1.0000   1.0000   1.0000   1.0000   1.0000   1.0000   1.0000

          k = 0.1250 0.0722-0.2797 (  3732 PWs)   bands (ev):

   -66.5047 -66.5019 -33.5162 -33.4952 -33.4760 -33.4758 -33.4692 -33.4688
   -10.8533 -10.4533   2.3972   3.2447   4.0285   4.0388   4.3156   4.5395

     occupation numbers 
     1.0000   1.0000   1.0000   1.0000   1.0000   1.0000   1.0000   1.0000
     1.0000   1.0000   1.0000   1.0000   1.0000   1.0000   1.0000   1.0000

          k = 0.1250 0.0722-0.1865 (  3726 PWs)   bands (ev):

   -66.5059 -66.5007 -33.5244 -33.4852 -33.4794 -33.4786 -33.4667 -33.4664
   -11.0203 -10.2815   2.1042   3.6196   3.8959   3.9128   4.4437   4.8316

     occupation numbers 
     1.0000   1.0000   1.0000   1.0000   1.0000   1.0000   1.0000   1.0000
     1.0000   1.0000   1.0000   1.0000   1.0000   1.0000   1.0000   1.0000

          k = 0.1250 0.0722-0.0932 (  3727 PWs)   bands (ev):

   -66.5067 -66.4999 -33.5298 -33.4819 -33.4805 -33.4772 -33.4664 -33.4645
   -11.1310 -10.1662   1.9298   3.6431   3.8373   4.0321   4.5316   5.1114

     occupation numbers 
     1.0000   1.0000   1.0000   1.0000   1.0000   1.0000   1.0000   1.0000
     1.0000   1.0000   1.0000   1.0000   1.0000   1.0000   1.0000   1.0000

          k = 0.1250 0.2165 0.0000 (  3733 PWs)   bands (ev):

   -66.5062 -66.4999 -33.5273 -33.4866 -33.4843 -33.4776 -33.4719 -33.4647
   -11.0231 -10.1173   2.1296   3.1612   3.3382   3.9641   4.5292   5.0467

     occupation numbers 
     1.0000   1.0000   1.0000   1.0000   1.0000   1.0000   1.0000   1.0000
     1.0000   1.0000   1.0000   1.0000   1.0000   1.0000   1.0000   1.0000

          k = 0.1250 0.2165 0.0932 (  3735 PWs)   bands (ev):

   -66.5060 -66.5001 -33.5263 -33.4853 -33.4845 -33.4818 -33.4693 -33.4654
   -10.9883 -10.1510   2.1187   3.1343   3.4461   3.8977   4.4865   5.0216

     occupation numbers 
     1.0000   1.0000   1.0000   1.0000   1.0000   1.0000   1.0000   1.0000
     1.0000   1.0000   1.0000   1.0000   1.0000   1.0000   1.0000   1.0000

          k = 0.1250 0.2165 0.1865 (  3740 PWs)   bands (ev):

   -66.5053 -66.5008 -33.5233 -33.4920 -33.4816 -33.4810 -33.4677 -33.4675
   -10.8892 -10.2475   2.1323   2.9998   3.7157   3.8199   4.3683   4.9166

     occupation numbers 
     1.0000   1.0000   1.0000   1.0000   1.0000   1.0000   1.0000   1.0000
     1.0000   1.0000   1.0000   1.0000   1.0000   1.0000   1.0000   1.0000

          k = 0.1250 0.2165 0.2797 (  3726 PWs)   bands (ev):

   -66.5043 -66.5019 -33.5179 -33.5015 -33.4780 -33.4768 -33.4705 -33.4688
   -10.7410 -10.3932   2.2355   2.7333   3.8706   4.0536   4.2047   4.7060

     occupation numbers 
     1.0000   1.0000   1.0000   1.0000   1.0000   1.0000   1.0000   1.0000
     1.0000   1.0000   1.0000   1.0000   1.0000   1.0000   1.0000   1.0000

          k = 0.1250 0.2165-0.3730 (  3726 PWs)   bands (ev):

   -66.5031 -66.5031 -33.5105 -33.5105 -33.4744 -33.4744 -33.4720 -33.4720
   -10.5667 -10.5665   2.4472   2.4472   4.0162   4.0163   4.4081   4.4081

     occupation numbers 
     1.0000   1.0000   1.0000   1.0000   1.0000   1.0000   1.0000   1.0000
     1.0000   1.0000   1.0000   1.0000   1.0000   1.0000   1.0000   1.0000

          k = 0.1250 0.2165-0.2797 (  3726 PWs)   bands (ev):

   -66.5043 -66.5019 -33.5179 -33.5015 -33.4780 -33.4768 -33.4705 -33.4688
   -10.7410 -10.3932   2.2355   2.7333   3.8706   4.0536   4.2047   4.7060

     occupation numbers 
     1.0000   1.0000   1.0000   1.0000   1.0000   1.0000   1.0000   1.0000
     1.0000   1.0000   1.0000   1.0000   1.0000   1.0000   1.0000   1.0000

          k = 0.1250 0.2165-0.1865 (  3740 PWs)   bands (ev):

   -66.5053 -66.5008 -33.5233 -33.4920 -33.4816 -33.4810 -33.4677 -33.4675
   -10.8892 -10.2475   2.1323   2.9998   3.7157   3.8199   4.3683   4.9166

     occupation numbers 
     1.0000   1.0000   1.0000   1.0000   1.0000   1.0000   1.0000   1.0000
     1.0000   1.0000   1.0000   1.0000   1.0000   1.0000   1.0000   1.0000

          k = 0.1250 0.2165-0.0932 (  3735 PWs)   bands (ev):

   -66.5060 -66.5001 -33.5263 -33.4853 -33.4845 -33.4818 -33.4693 -33.4654
   -10.9883 -10.1510   2.1187   3.1343   3.4461   3.8977   4.4865   5.0216

     occupation numbers 
     1.0000   1.0000   1.0000   1.0000   1.0000   1.0000   1.0000   1.0000
     1.0000   1.0000   1.0000   1.0000   1.0000   1.0000   1.0000   1.0000

          k = 0.1250 0.3608 0.0000 (  3749 PWs)   bands (ev):

   -66.5050 -66.5004 -33.5198 -33.4925 -33.4885 -33.4846 -33.4784 -33.4659
   -10.7837 -10.1330   2.3967   2.5963   3.1082   3.6655   4.4855   4.6807

     occupation numbers 
     1.0000   1.0000   1.0000   1.0000   1.0000   1.0000   1.0000   1.0000
     1.0000   1.0000   1.0000   1.0000   1.0000   1.0000   1.0000   1.0000

          k = 0.1250 0.3608 0.0932 (  3745 PWs)   bands (ev):

   -66.5048 -66.5006 -33.5207 -33.4930 -33.4891 -33.4863 -33.4742 -33.4667
   -10.7565 -10.1547   2.2401   2.5817   3.3258   3.5802   4.4214   4.7615

     occupation numbers 
     1.0000   1.0000   1.0000   1.0000   1.0000   1.0000   1.0000   1.0000
     1.0000   1.0000   1.0000   1.0000   1.0000   1.0000   1.0000   1.0000

          k = 0.1250 0.3608 0.1865 (  3734 PWs)   bands (ev):

   -66.5043 -66.5011 -33.5217 -33.5015 -33.4851 -33.4827 -33.4705 -33.4688
   -10.6799 -10.2180   2.0472   2.4563   3.4841   3.7599   4.2557   4.8505

     occupation numbers 
     1.0000   1.0000   1.0000   1.0000   1.0000   1.0000   1.0000   1.0000
     1.0000   1.0000   1.0000   1.0000   1.0000   1.0000   1.0000   1.0000

          k = 0.1250 0.3608 0.2797 (  3737 PWs)   bands (ev):

   -66.5036 -66.5018 -33.5207 -33.5101 -33.4813 -33.4768 -33.4726 -33.4692
   -10.5676 -10.3170   1.9748   2.2374   3.5684   4.0018   4.2138   4.7953

     occupation numbers 
     1.0000   1.0000   1.0000   1.0000   1.0000   1.0000   1.0000   1.0000
     1.0000   1.0000   1.0000   1.0000   1.0000   1.0000   1.0000   1.0000

          k = 0.1250 0.3608-0.3730 (  3736 PWs)   bands (ev):

   -66.5027 -66.5027 -33.5168 -33.5168 -33.4772 -33.4772 -33.4715 -33.4715
   -10.4397 -10.4394   2.0478   2.0478   3.7671   3.7672   4.5672   4.5672

     occupation numbers 
     1.0000   1.0000   1.0000   1.0000   1.0000   1.0000   1.0000   1.0000
     1.0000   1.0000   1.0000   1.0000   1.0000   1.0000   1.0000   1.0000

          k = 0.1250 0.3608-0.2797 (  3737 PWs)   bands (ev):

   -66.5036 -66.5018 -33.5207 -33.5101 -33.4813 -33.4768 -33.4726 -33.4692
   -10.5676 -10.3170   1.9748   2.2374   3.5684   4.0018   4.2138   4.7953

     occupation numbers 
     1.0000   1.0000   1.0000   1.0000   1.0000   1.0000   1.0000   1.0000
     1.0000   1.0000   1.0000   1.0000   1.0000   1.0000   1.0000   1.0000

          k = 0.1250 0.3608-0.1865 (  3733 PWs)   bands (ev):

   -66.5043 -66.5011 -33.5217 -33.5015 -33.4851 -33.4827 -33.4705 -33.4688
   -10.6799 -10.2180   2.0472   2.4563   3.4841   3.7599   4.2557   4.8505

     occupation numbers 
     1.0000   1.0000   1.0000   1.0000   1.0000   1.0000   1.0000   1.0000
     1.0000   1.0000   1.0000   1.0000   1.0000   1.0000   1.0000   1.0000

          k = 0.1250 0.3608-0.0932 (  3745 PWs)   bands (ev):

   -66.5048 -66.5006 -33.5207 -33.4930 -33.4891 -33.4863 -33.4742 -33.4667
   -10.7565 -10.1547   2.2401   2.5817   3.3258   3.5802   4.4214   4.7615

     occupation numbers 
     1.0000   1.0000   1.0000   1.0000   1.0000   1.0000   1.0000   1.0000
     1.0000   1.0000   1.0000   1.0000   1.0000   1.0000   1.0000   1.0000

          k = 0.1250 0.5052 0.0000 (  3750 PWs)   bands (ev):

   -66.5038 -66.5011 -33.5123 -33.4971 -33.4926 -33.4891 -33.4842 -33.4668
   -10.5587 -10.1964   1.9390   3.0206   3.1699   3.3272   4.2428   4.4630

     occupation numbers 
     1.0000   1.0000   1.0000   1.0000   1.0000   1.0000   1.0000   1.0000
     1.0000   1.0000   1.0000   1.0000   1.0000   1.0000   1.0000   1.0000

          k = 0.1250 0.5052 0.0932 (  3733 PWs)   bands (ev):

   -66.5037 -66.5012 -33.5157 -33.4996 -33.4929 -33.4874 -33.4791 -33.4676
   -10.5408 -10.2055   1.8798   2.7721   3.1685   3.5224   4.3368   4.4763

     occupation numbers 
     1.0000   1.0000   1.0000   1.0000   1.0000   1.0000   1.0000   1.0000
     1.0000   1.0000   1.0000   1.0000   1.0000   1.0000   1.0000   1.0000

          k = 0.1250 0.5052 0.1865 (  3737 PWs)   bands (ev):

   -66.5034 -66.5015 -33.5204 -33.5086 -33.4881 -33.4819 -33.4738 -33.4698
   -10.4913 -10.2337   1.7668   2.3953   3.1644   3.9398   4.1678   4.7033

     occupation numbers 
     1.0000   1.0000   1.0000   1.0000   1.0000   1.0000   1.0000   1.0000
     1.0000   1.0000   1.0000   1.0000   1.0000   1.0000   1.0000   1.0000

          k = 0.1250 0.5052 0.2797 (  3744 PWs)   bands (ev):

   -66.5029 -66.5019 -33.5226 -33.5164 -33.4838 -33.4758 -33.4744 -33.4700
   -10.4219 -10.2819   1.7168   2.0388   3.3288   3.8852   4.3540   4.7895

     occupation numbers 
     1.0000   1.0000   1.0000   1.0000   1.0000   1.0000   1.0000   1.0000
     1.0000   1.0000   1.0000   1.0000   1.0000   1.0000   1.0000   1.0000

          k = 0.1250 0.5052-0.3730 (  3742 PWs)   bands (ev):

   -66.5024 -66.5024 -33.5213 -33.5213 -33.4791 -33.4791 -33.4712 -33.4712
   -10.3476 -10.3474   1.8018   1.8019   3.5888   3.5890   4.6598   4.6599

     occupation numbers 
     1.0000   1.0000   1.0000   1.0000   1.0000   1.0000   1.0000   1.0000
     1.0000   1.0000   1.0000   1.0000   1.0000   1.0000   1.0000   1.0000

          k = 0.1250 0.5052-0.2797 (  3744 PWs)   bands (ev):

   -66.5029 -66.5019 -33.5226 -33.5164 -33.4838 -33.4758 -33.4744 -33.4700
   -10.4219 -10.2819   1.7167   2.0388   3.3288   3.8852   4.3540   4.7895

     occupation numbers 
     1.0000   1.0000   1.0000   1.0000   1.0000   1.0000   1.0000   1.0000
     1.0000   1.0000   1.0000   1.0000   1.0000   1.0000   1.0000   1.0000

          k = 0.1250 0.5052-0.1865 (  3737 PWs)   bands (ev):

   -66.5034 -66.5015 -33.5204 -33.5086 -33.4881 -33.4819 -33.4738 -33.4698
   -10.4913 -10.2337   1.7668   2.3953   3.1644   3.9398   4.1678   4.7033

     occupation numbers 
     1.0000   1.0000   1.0000   1.0000   1.0000   1.0000   1.0000   1.0000
     1.0000   1.0000   1.0000   1.0000   1.0000   1.0000   1.0000   1.0000

          k = 0.1250 0.5052-0.0932 (  3733 PWs)   bands (ev):

   -66.5037 -66.5012 -33.5157 -33.4996 -33.4929 -33.4874 -33.4791 -33.4676
   -10.5408 -10.2055   1.8798   2.7721   3.1685   3.5224   4.3368   4.4763

     occupation numbers 
     1.0000   1.0000   1.0000   1.0000   1.0000   1.0000   1.0000   1.0000
     1.0000   1.0000   1.0000   1.0000   1.0000   1.0000   1.0000   1.0000

          k = 0.1250-0.5052-0.0000 (  3750 PWs)   bands (ev):

   -66.5038 -66.5011 -33.5123 -33.4971 -33.4926 -33.4891 -33.4842 -33.4668
   -10.5587 -10.1964   1.9390   3.0206   3.1699   3.3272   4.2428   4.4630

     occupation numbers 
     1.0000   1.0000   1.0000   1.0000   1.0000   1.0000   1.0000   1.0000
     1.0000   1.0000   1.0000   1.0000   1.0000   1.0000   1.0000   1.0000

          k = 0.1250-0.5052 0.0932 (  3733 PWs)   bands (ev):

   -66.5037 -66.5012 -33.5157 -33.4996 -33.4929 -33.4874 -33.4791 -33.4676
   -10.5408 -10.2055   1.8798   2.7721   3.1685   3.5224   4.3368   4.4763

     occupation numbers 
     1.0000   1.0000   1.0000   1.0000   1.0000   1.0000   1.0000   1.0000
     1.0000   1.0000   1.0000   1.0000   1.0000   1.0000   1.0000   1.0000

          k = 0.1250-0.5052 0.1865 (  3737 PWs)   bands (ev):

   -66.5034 -66.5015 -33.5204 -33.5086 -33.4881 -33.4819 -33.4738 -33.4698
   -10.4913 -10.2337   1.7668   2.3953   3.1644   3.9398   4.1678   4.7033

     occupation numbers 
     1.0000   1.0000   1.0000   1.0000   1.0000   1.0000   1.0000   1.0000
     1.0000   1.0000   1.0000   1.0000   1.0000   1.0000   1.0000   1.0000

          k = 0.1250-0.5052 0.2797 (  3744 PWs)   bands (ev):

   -66.5029 -66.5019 -33.5226 -33.5164 -33.4838 -33.4758 -33.4744 -33.4700
   -10.4219 -10.2819   1.7167   2.0388   3.3288   3.8852   4.3540   4.7895

     occupation numbers 
     1.0000   1.0000   1.0000   1.0000   1.0000   1.0000   1.0000   1.0000
     1.0000   1.0000   1.0000   1.0000   1.0000   1.0000   1.0000   1.0000

          k = 0.1250-0.5052-0.3730 (  3742 PWs)   bands (ev):

   -66.5024 -66.5024 -33.5213 -33.5213 -33.4791 -33.4791 -33.4712 -33.4712
   -10.3476 -10.3474   1.8018   1.8019   3.5888   3.5890   4.6598   4.6599

     occupation numbers 
     1.0000   1.0000   1.0000   1.0000   1.0000   1.0000   1.0000   1.0000
     1.0000   1.0000   1.0000   1.0000   1.0000   1.0000   1.0000   1.0000

          k = 0.1250-0.5052-0.2797 (  3744 PWs)   bands (ev):

   -66.5029 -66.5019 -33.5226 -33.5164 -33.4838 -33.4758 -33.4744 -33.4701
   -10.4219 -10.2819   1.7168   2.0388   3.3288   3.8852   4.3540   4.7895

     occupation numbers 
     1.0000   1.0000   1.0000   1.0000   1.0000   1.0000   1.0000   1.0000
     1.0000   1.0000   1.0000   1.0000   1.0000   1.0000   1.0000   1.0000

          k = 0.1250-0.5052-0.1865 (  3737 PWs)   bands (ev):

   -66.5034 -66.5015 -33.5204 -33.5086 -33.4881 -33.4819 -33.4738 -33.4698
   -10.4913 -10.2337   1.7668   2.3953   3.1644   3.9398   4.1678   4.7033

     occupation numbers 
     1.0000   1.0000   1.0000   1.0000   1.0000   1.0000   1.0000   1.0000
     1.0000   1.0000   1.0000   1.0000   1.0000   1.0000   1.0000   1.0000

          k = 0.1250-0.5052-0.0932 (  3733 PWs)   bands (ev):

   -66.5037 -66.5012 -33.5157 -33.4996 -33.4929 -33.4874 -33.4791 -33.4676
   -10.5408 -10.2055   1.8798   2.7721   3.1685   3.5224   4.3368   4.4763

     occupation numbers 
     1.0000   1.0000   1.0000   1.0000   1.0000   1.0000   1.0000   1.0000
     1.0000   1.0000   1.0000   1.0000   1.0000   1.0000   1.0000   1.0000

          k = 0.1250-0.3608-0.0000 (  3749 PWs)   bands (ev):

   -66.5050 -66.5004 -33.5198 -33.4925 -33.4885 -33.4846 -33.4784 -33.4659
   -10.7837 -10.1330   2.3967   2.5963   3.1082   3.6655   4.4855   4.6807

     occupation numbers 
     1.0000   1.0000   1.0000   1.0000   1.0000   1.0000   1.0000   1.0000
     1.0000   1.0000   1.0000   1.0000   1.0000   1.0000   1.0000   1.0000

          k = 0.1250-0.3608 0.0932 (  3745 PWs)   bands (ev):

   -66.5048 -66.5006 -33.5207 -33.4930 -33.4891 -33.4863 -33.4742 -33.4667
   -10.7565 -10.1547   2.2401   2.5817   3.3258   3.5802   4.4214   4.7615

     occupation numbers 
     1.0000   1.0000   1.0000   1.0000   1.0000   1.0000   1.0000   1.0000
     1.0000   1.0000   1.0000   1.0000   1.0000   1.0000   1.0000   1.0000

          k = 0.1250-0.3608 0.1865 (  3734 PWs)   bands (ev):

   -66.5043 -66.5011 -33.5217 -33.5015 -33.4851 -33.4827 -33.4705 -33.4688
   -10.6799 -10.2180   2.0472   2.4563   3.4841   3.7599   4.2557   4.8505

     occupation numbers 
     1.0000   1.0000   1.0000   1.0000   1.0000   1.0000   1.0000   1.0000
     1.0000   1.0000   1.0000   1.0000   1.0000   1.0000   1.0000   1.0000

          k = 0.1250-0.3608 0.2797 (  3737 PWs)   bands (ev):

   -66.5036 -66.5018 -33.5207 -33.5101 -33.4813 -33.4768 -33.4726 -33.4692
   -10.5676 -10.3170   1.9748   2.2374   3.5684   4.0018   4.2138   4.7953

     occupation numbers 
[...]
     1.0000   1.0000   1.0000   1.0000   1.0000   1.0000   1.0000   1.0000

          k =-0.5000-0.1443 0.0932 (  3733 PWs)   bands (ev):

   -66.5037 -66.5012 -33.5157 -33.4996 -33.4929 -33.4874 -33.4791 -33.4676
   -10.5408 -10.2055   1.8798   2.7721   3.1685   3.5224   4.3368   4.4763

     occupation numbers 
     1.0000   1.0000   1.0000   1.0000   1.0000   1.0000   1.0000   1.0000
     1.0000   1.0000   1.0000   1.0000   1.0000   1.0000   1.0000   1.0000

          k =-0.5000-0.1443 0.1865 (  3737 PWs)   bands (ev):

   -66.5034 -66.5015 -33.5204 -33.5086 -33.4881 -33.4819 -33.4738 -33.4698
   -10.4913 -10.2337   1.7668   2.3953   3.1644   3.9398   4.1678   4.7033

     occupation numbers 
     1.0000   1.0000   1.0000   1.0000   1.0000   1.0000   1.0000   1.0000
     1.0000   1.0000   1.0000   1.0000   1.0000   1.0000   1.0000   1.0000

          k =-0.5000-0.1443 0.2797 (  3744 PWs)   bands (ev):

   -66.5029 -66.5019 -33.5226 -33.5164 -33.4838 -33.4758 -33.4744 -33.4700
   -10.4219 -10.2819   1.7167   2.0388   3.3288   3.8852   4.3541   4.7895

     occupation numbers 
     1.0000   1.0000   1.0000   1.0000   1.0000   1.0000   1.0000   1.0000
     1.0000   1.0000   1.0000   1.0000   1.0000   1.0000   1.0000   1.0000

          k =-0.5000-0.1443-0.3730 (  3742 PWs)   bands (ev):

   -66.5024 -66.5024 -33.5213 -33.5213 -33.4791 -33.4791 -33.4712 -33.4712
   -10.3476 -10.3474   1.8018   1.8019   3.5889   3.5890   4.6598   4.6599

     occupation numbers 
     1.0000   1.0000   1.0000   1.0000   1.0000   1.0000   1.0000   1.0000
     1.0000   1.0000   1.0000   1.0000   1.0000   1.0000   1.0000   1.0000

          k =-0.5000-0.1443-0.2797 (  3744 PWs)   bands (ev):

   -66.5029 -66.5019 -33.5226 -33.5164 -33.4838 -33.4758 -33.4744 -33.4700
   -10.4219 -10.2819   1.7167   2.0388   3.3288   3.8852   4.3541   4.7895

     occupation numbers 
     1.0000   1.0000   1.0000   1.0000   1.0000   1.0000   1.0000   1.0000
     1.0000   1.0000   1.0000   1.0000   1.0000   1.0000   1.0000   1.0000

          k =-0.5000-0.1443-0.1865 (  3737 PWs)   bands (ev):

   -66.5034 -66.5015 -33.5204 -33.5086 -33.4881 -33.4819 -33.4738 -33.4698
   -10.4913 -10.2337   1.7668   2.3953   3.1644   3.9398   4.1678   4.7033

     occupation numbers 
     1.0000   1.0000   1.0000   1.0000   1.0000   1.0000   1.0000   1.0000
     1.0000   1.0000   1.0000   1.0000   1.0000   1.0000   1.0000   1.0000

          k =-0.5000-0.1443-0.0932 (  3733 PWs)   bands (ev):

   -66.5037 -66.5012 -33.5157 -33.4996 -33.4929 -33.4874 -33.4791 -33.4676
   -10.5408 -10.2055   1.8798   2.7721   3.1685   3.5224   4.3368   4.4763

     occupation numbers 
     1.0000   1.0000   1.0000   1.0000   1.0000   1.0000   1.0000   1.0000
     1.0000   1.0000   1.0000   1.0000   1.0000   1.0000   1.0000   1.0000

          k =-0.5000 0.0000-0.0000 (  3751 PWs)   bands (ev):

   -66.5038 -66.5011 -33.5121 -33.4952 -33.4920 -33.4914 -33.4830 -33.4684
   -10.5650 -10.1909   2.0960   2.8621   3.1507   3.4480   4.2472   4.2872

     occupation numbers 
     1.0000   1.0000   1.0000   1.0000   1.0000   1.0000   1.0000   1.0000
     1.0000   1.0000   1.0000   1.0000   1.0000   1.0000   1.0000   1.0000

          k =-0.5000 0.0000 0.0932 (  3743 PWs)   bands (ev):

   -66.5037 -66.5012 -33.5150 -33.4997 -33.4920 -33.4881 -33.4781 -33.4693
   -10.5467 -10.2005   2.1139   2.5275   3.2647   3.5398   4.1636   4.4705

     occupation numbers 
     1.0000   1.0000   1.0000   1.0000   1.0000   1.0000   1.0000   1.0000
     1.0000   1.0000   1.0000   1.0000   1.0000   1.0000   1.0000   1.0000

          k =-0.5000-0.0000 0.1865 (  3733 PWs)   bands (ev):

   -66.5034 -66.5015 -33.5195 -33.5083 -33.4895 -33.4810 -33.4724 -33.4719
   -10.4961 -10.2302   2.1224   2.1911   3.0389   3.8897   4.0789   4.7330

     occupation numbers 
     1.0000   1.0000   1.0000   1.0000   1.0000   1.0000   1.0000   1.0000
     1.0000   1.0000   1.0000   1.0000   1.0000   1.0000   1.0000   1.0000

          k =-0.5000-0.0000 0.2797 (  3733 PWs)   bands (ev):

   -66.5029 -66.5019 -33.5217 -33.5158 -33.4856 -33.4767 -33.4736 -33.4696
   -10.4250 -10.2805   1.9981   2.0443   3.0543   3.6000   4.4812   4.8516

     occupation numbers 
     1.0000   1.0000   1.0000   1.0000   1.0000   1.0000   1.0000   1.0000
     1.0000   1.0000   1.0000   1.0000   1.0000   1.0000   1.0000   1.0000

          k =-0.5000 0.0000-0.3730 (  3746 PWs)   bands (ev):

   -66.5024 -66.5024 -33.5205 -33.5205 -33.4809 -33.4809 -33.4702 -33.4702
   -10.3485 -10.3483   1.9625   1.9625   3.2834   3.2836   4.7637   4.7638

     occupation numbers 
     1.0000   1.0000   1.0000   1.0000   1.0000   1.0000   1.0000   1.0000
     1.0000   1.0000   1.0000   1.0000   1.0000   1.0000   1.0000   1.0000

          k =-0.5000 0.0000-0.2797 (  3733 PWs)   bands (ev):

   -66.5029 -66.5019 -33.5217 -33.5158 -33.4856 -33.4767 -33.4736 -33.4696
   -10.4250 -10.2805   1.9981   2.0443   3.0543   3.6000   4.4812   4.8516

     occupation numbers 
     1.0000   1.0000   1.0000   1.0000   1.0000   1.0000   1.0000   1.0000
     1.0000   1.0000   1.0000   1.0000   1.0000   1.0000   1.0000   1.0000

          k =-0.5000 0.0000-0.1865 (  3733 PWs)   bands (ev):

   -66.5034 -66.5015 -33.5194 -33.5083 -33.4895 -33.4810 -33.4724 -33.4719
   -10.4961 -10.2302   2.1224   2.1911   3.0389   3.8897   4.0789   4.7330

     occupation numbers 
     1.0000   1.0000   1.0000   1.0000   1.0000   1.0000   1.0000   1.0000
     1.0000   1.0000   1.0000   1.0000   1.0000   1.0000   1.0000   1.0000

          k =-0.5000 0.0000-0.0932 (  3743 PWs)   bands (ev):

   -66.5037 -66.5012 -33.5150 -33.4997 -33.4920 -33.4882 -33.4781 -33.4693
   -10.5467 -10.2005   2.1139   2.5275   3.2647   3.5398   4.1636   4.4705

     occupation numbers 
     1.0000   1.0000   1.0000   1.0000   1.0000   1.0000   1.0000   1.0000
     1.0000   1.0000   1.0000   1.0000   1.0000   1.0000   1.0000   1.0000

          k =-0.5000 0.1443-0.0000 (  3750 PWs)   bands (ev):

   -66.5038 -66.5011 -33.5123 -33.4971 -33.4926 -33.4891 -33.4842 -33.4668
   -10.5587 -10.1964   1.9390   3.0206   3.1699   3.3272   4.2428   4.4630

     occupation numbers 
     1.0000   1.0000   1.0000   1.0000   1.0000   1.0000   1.0000   1.0000
     1.0000   1.0000   1.0000   1.0000   1.0000   1.0000   1.0000   1.0000

          k =-0.5000 0.1443 0.0932 (  3733 PWs)   bands (ev):

   -66.5037 -66.5012 -33.5157 -33.4996 -33.4929 -33.4874 -33.4791 -33.4676
   -10.5408 -10.2055   1.8798   2.7721   3.1685   3.5224   4.3368   4.4763

     occupation numbers 
     1.0000   1.0000   1.0000   1.0000   1.0000   1.0000   1.0000   1.0000
     1.0000   1.0000   1.0000   1.0000   1.0000   1.0000   1.0000   1.0000

          k =-0.5000 0.1443 0.1865 (  3737 PWs)   bands (ev):

   -66.5034 -66.5015 -33.5204 -33.5086 -33.4881 -33.4819 -33.4738 -33.4698
   -10.4913 -10.2337   1.7668   2.3953   3.1644   3.9398   4.1678   4.7033

     occupation numbers 
     1.0000   1.0000   1.0000   1.0000   1.0000   1.0000   1.0000   1.0000
     1.0000   1.0000   1.0000   1.0000   1.0000   1.0000   1.0000   1.0000

          k =-0.5000 0.1443 0.2797 (  3744 PWs)   bands (ev):

   -66.5029 -66.5019 -33.5226 -33.5164 -33.4838 -33.4758 -33.4744 -33.4700
   -10.4219 -10.2819   1.7167   2.0388   3.3288   3.8852   4.3541   4.7895

     occupation numbers 
     1.0000   1.0000   1.0000   1.0000   1.0000   1.0000   1.0000   1.0000
     1.0000   1.0000   1.0000   1.0000   1.0000   1.0000   1.0000   1.0000

          k =-0.5000 0.1443-0.3730 (  3742 PWs)   bands (ev):

   -66.5024 -66.5024 -33.5213 -33.5213 -33.4791 -33.4791 -33.4712 -33.4712
   -10.3476 -10.3474   1.8018   1.8019   3.5889   3.5890   4.6598   4.6599

     occupation numbers 
     1.0000   1.0000   1.0000   1.0000   1.0000   1.0000   1.0000   1.0000
     1.0000   1.0000   1.0000   1.0000   1.0000   1.0000   1.0000   1.0000

          k =-0.5000 0.1443-0.2797 (  3744 PWs)   bands (ev):

   -66.5029 -66.5019 -33.5226 -33.5164 -33.4838 -33.4758 -33.4744 -33.4700
   -10.4219 -10.2819   1.7167   2.0388   3.3288   3.8852   4.3541   4.7895

     occupation numbers 
     1.0000   1.0000   1.0000   1.0000   1.0000   1.0000   1.0000   1.0000
     1.0000   1.0000   1.0000   1.0000   1.0000   1.0000   1.0000   1.0000

          k =-0.5000 0.1443-0.1865 (  3737 PWs)   bands (ev):

   -66.5034 -66.5015 -33.5204 -33.5086 -33.4881 -33.4819 -33.4738 -33.4698
   -10.4913 -10.2337   1.7668   2.3953   3.1644   3.9398   4.1678   4.7033

     occupation numbers 
     1.0000   1.0000   1.0000   1.0000   1.0000   1.0000   1.0000   1.0000
     1.0000   1.0000   1.0000   1.0000   1.0000   1.0000   1.0000   1.0000

          k =-0.5000 0.1443-0.0932 (  3733 PWs)   bands (ev):

   -66.5037 -66.5012 -33.5157 -33.4996 -33.4929 -33.4874 -33.4791 -33.4676
   -10.5408 -10.2055   1.8798   2.7721   3.1685   3.5224   4.3368   4.4763

     occupation numbers 
     1.0000   1.0000   1.0000   1.0000   1.0000   1.0000   1.0000   1.0000
     1.0000   1.0000   1.0000   1.0000   1.0000   1.0000   1.0000   1.0000

          k =-0.5000-0.8660-0.0000 (  3738 PWs)   bands (ev):

   -66.5038 -66.5011 -33.5125 -33.4983 -33.4930 -33.4880 -33.4849 -33.4654
   -10.5522 -10.2021   1.8237   3.0665   3.1522   3.3621   4.2012   4.6299

     occupation numbers 
     1.0000   1.0000   1.0000   1.0000   1.0000   1.0000   1.0000   1.0000
     1.0000   1.0000   1.0000   1.0000   1.0000   1.0000   1.0000   1.0000

          k =-0.5000-0.8660 0.0932 (  3746 PWs)   bands (ev):

   -66.5037 -66.5012 -33.5163 -33.4997 -33.4933 -33.4871 -33.4796 -33.4662
   -10.5347 -10.2107   1.7415   2.8119   3.3163   3.4030   4.3893   4.5721

     occupation numbers 
     1.0000   1.0000   1.0000   1.0000   1.0000   1.0000   1.0000   1.0000
     1.0000   1.0000   1.0000   1.0000   1.0000   1.0000   1.0000   1.0000

          k =-0.5000-0.8660 0.1865 (  3750 PWs)   bands (ev):

   -66.5034 -66.5015 -33.5213 -33.5090 -33.4849 -33.4847 -33.4740 -33.4687
   -10.4864 -10.2374   1.6097   2.3558   3.5217   3.6897   4.4127   4.6329

     occupation numbers 
     1.0000   1.0000   1.0000   1.0000   1.0000   1.0000   1.0000   1.0000
     1.0000   1.0000   1.0000   1.0000   1.0000   1.0000   1.0000   1.0000

          k =-0.5000-0.8660 0.2797 (  3758 PWs)   bands (ev):

   -66.5029 -66.5019 -33.5235 -33.5169 -33.4810 -33.4776 -33.4724 -33.4716
   -10.4187 -10.2834   1.5677   1.9489   3.7072   4.1141   4.1872   4.6735

     occupation numbers 
     1.0000   1.0000   1.0000   1.0000   1.0000   1.0000   1.0000   1.0000
     1.0000   1.0000   1.0000   1.0000   1.0000   1.0000   1.0000   1.0000

          k =-0.5000-0.8660-0.3730 (  3772 PWs)   bands (ev):

   -66.5024 -66.5024 -33.5220 -33.5220 -33.4767 -33.4767 -33.4728 -33.4728
   -10.3467 -10.3465   1.6768   1.6768   3.9389   3.9391   4.4764   4.4765

     occupation numbers 
     1.0000   1.0000   1.0000   1.0000   1.0000   1.0000   1.0000   1.0000
     1.0000   1.0000   1.0000   1.0000   1.0000   1.0000   1.0000   1.0000

     highest occupied level (ev):     5.3371

!    total energy              =    -315.18097393 Ry
     Harris-Foulkes estimate   =    -315.18097384 Ry
     estimated scf accuracy    <       0.00000015 Ry

     The total energy is the sum of the following terms:

     one-electron contribution =    -209.50088286 Ry
     hartree contribution      =     111.36633368 Ry
     xc contribution           =     -48.07593627 Ry
     ewald contribution        =    -168.97048849 Ry

     convergence has been achieved in   7 iterations

     Forces acting on atoms (cartesian axes, Ry/au):

     atom    1 type  2   force =    -0.00000054    0.00000027   -0.01034849
     atom    2 type  2   force =    -0.00000045    0.00000114   -0.01034761
     atom    3 type  1   force =     0.00000110   -0.00000031    0.01034541
     atom    4 type  1   force =    -0.00000011   -0.00000110    0.01035070
     The non-local contrib.  to forces
     atom    1 type  2   force =    -0.00000035   -0.00000158    0.06695100
     atom    2 type  2   force =    -0.00000024    0.00000265    0.06695844
     atom    3 type  1   force =     0.00000016   -0.00000284    0.16281271
     atom    4 type  1   force =     0.00000101   -0.00000092    0.16281004
     The ionic contribution  to forces
     atom    1 type  2   force =    -0.00000771    0.00002085   -1.07235509
     atom    2 type  2   force =     0.00000006    0.00000321   -1.07235656
     atom    3 type  1   force =     0.00000015   -0.00001643    1.07235650
     atom    4 type  1   force =     0.00000750   -0.00000763    1.07235515
     The local contribution  to forces
     atom    1 type  2   force =     0.00000761   -0.00001880    0.99519565
     atom    2 type  2   force =     0.00000025   -0.00000495    0.99518583
     atom    3 type  1   force =    -0.00000074    0.00001916   -1.22496889
     atom    4 type  1   force =    -0.00000795    0.00000731   -1.22497844
     The core correction contribution to forces
     atom    1 type  2   force =     0.00000001    0.00000000   -0.00000100
     atom    2 type  2   force =     0.00000000   -0.00000003   -0.00000108
     atom    3 type  1   force =     0.00000000    0.00000000    0.00000000
     atom    4 type  1   force =     0.00000000    0.00000000    0.00000000
     The Hubbard contrib.    to forces
     atom    1 type  2   force =     0.00000000    0.00000000    0.00000000
     atom    2 type  2   force =     0.00000000    0.00000000    0.00000000
     atom    3 type  1   force =     0.00000000    0.00000000    0.00000000
     atom    4 type  1   force =     0.00000000    0.00000000    0.00000000
     The SCF correction term to forces
     atom    1 type  2   force =     0.00000000    0.00000000    0.00000000
     atom    2 type  2   force =     0.00000000    0.00000000    0.00000000
     atom    3 type  1   force =     0.00000000    0.00000000    0.00000000
     atom    4 type  1   force =     0.00000000    0.00000000    0.00000000

     Total force =     0.000000     Total SCF correction =     0.000000


     Computing stress (Cartesian axis) and pressure

          total   stress  (Ry/bohr**3)                   (kbar)     P=   -1.58
  -0.00000986   0.00000000   0.00000001         -1.45      0.00      0.00
   0.00000000  -0.00000986   0.00000000          0.00     -1.45      0.00
   0.00000001   0.00000000  -0.00001245          0.00      0.00     -1.83

     kinetic stress (kbar)  19643.53      0.00      0.00
                                0.00  19643.52     -0.00
                                0.00     -0.00  19694.44

     local   stress (kbar)  -6277.98     -0.02      0.02
                               -0.02  -6278.02     -0.03
                                0.02     -0.03 -13447.23

     nonloc. stress (kbar)   5387.92      0.00     -0.00
                                0.00   5387.92      0.00
                               -0.00      0.00   5353.18

     hartree stress (kbar)  16541.80      0.01     -0.01
                                0.01  16541.82      0.01
                               -0.01      0.01  19870.72

     exc-cor stress (kbar)  -6982.77      0.00     -0.00
                                0.00  -6982.77      0.00
                               -0.00      0.00  -6983.97

     corecor stress (kbar)   -257.27     -0.00     -0.00
                               -0.00   -257.27     -0.00
                               -0.00     -0.00   -257.35

     ewald   stress (kbar) -28056.67      0.01     -0.01
                                0.01 -28056.65      0.02
                               -0.01      0.02 -24231.62

     hubbard stress (kbar)      0.00      0.00      0.00
                                0.00      0.00      0.00
                                0.00      0.00      0.00

     london  stress (kbar)      0.00      0.00      0.00
                                0.00      0.00      0.00
                                0.00      0.00      0.00

     DFT-D3  stress (kbar)      0.00      0.00      0.00
                                0.00      0.00      0.00
                                0.00      0.00      0.00

     XDM     stress (kbar)      0.00      0.00      0.00
                                0.00      0.00      0.00
                                0.00      0.00      0.00

     dft-nl  stress (kbar)      0.00      0.00      0.00
                                0.00      0.00      0.00
                                0.00      0.00      0.00

     TS-vdW  stress (kbar)      0.00      0.00      0.00
                                0.00      0.00      0.00
                                0.00      0.00      0.00



     Writing output data file ZnO.save/
 
     init_run     :      0.43s CPU      1.19s WALL (       1 calls)
     electrons    :      5.12s CPU      5.53s WALL (       1 calls)
     forces       :      0.14s CPU      0.15s WALL (       1 calls)
     stress       :      0.28s CPU      0.30s WALL (       1 calls)

     Called by init_run:
     wfcinit      :      0.28s CPU      0.90s WALL (       1 calls)
     wfcinit:atom :      0.00s CPU      0.00s WALL (      65 calls)
     wfcinit:wfcr :      0.27s CPU      0.88s WALL (      65 calls)
     potinit      :      0.06s CPU      0.08s WALL (       1 calls)
     hinit0       :      0.07s CPU      0.17s WALL (       1 calls)

     Called by electrons:
     c_bands      :      4.19s CPU      4.51s WALL (       7 calls)
     sum_band     :      0.64s CPU      0.66s WALL (       7 calls)
     v_of_rho     :      0.27s CPU      0.29s WALL (       8 calls)
     v_h          :      0.00s CPU      0.00s WALL (       8 calls)
     v_xc         :      0.33s CPU      0.35s WALL (      10 calls)
     newd         :      0.03s CPU      0.05s WALL (       8 calls)
     mix_rho      :      0.01s CPU      0.02s WALL (       7 calls)

     Called by c_bands:
     init_us_2    :      0.08s CPU      0.08s WALL (    1105 calls)
     cegterg      :      3.81s CPU      4.02s WALL (     455 calls)

     Called by sum_band:
     sum_band:bec :      0.00s CPU      0.01s WALL (     455 calls)
     addusdens    :      0.03s CPU      0.04s WALL (       7 calls)

     Called by *egterg:
     h_psi        :      2.45s CPU      2.56s WALL (    1503 calls)
     s_psi        :      0.08s CPU      0.08s WALL (    1503 calls)
     g_psi        :      0.00s CPU      0.01s WALL (     983 calls)
     cdiaghg      :      0.95s CPU      1.60s WALL (    1438 calls)
     cegterg:over :      0.28s CPU      0.33s WALL (     983 calls)
     cegterg:upda :      0.13s CPU      0.13s WALL (     983 calls)
     cegterg:last :      0.07s CPU      0.07s WALL (     455 calls)
     cdiaghg:chol :      0.05s CPU      0.52s WALL (    1438 calls)
     cdiaghg:inve :      0.02s CPU      0.06s WALL (    1438 calls)
     cdiaghg:para :      0.09s CPU      0.10s WALL (    2876 calls)

     Called by h_psi:
     h_psi:pot    :      2.45s CPU      2.55s WALL (    1503 calls)
     h_psi:calbec :      0.14s CPU      0.15s WALL (    1503 calls)
     vloc_psi     :      2.23s CPU      2.32s WALL (    1503 calls)
     add_vuspsi   :      0.08s CPU      0.08s WALL (    1503 calls)

     General routines
     calbec       :      0.22s CPU      0.23s WALL (    2283 calls)
     fft          :      0.05s CPU      0.09s WALL (     127 calls)
     ffts         :      0.00s CPU      0.00s WALL (      15 calls)
     fftw         :      2.56s CPU      2.65s WALL (   45208 calls)
     interpolate  :      0.00s CPU      0.01s WALL (       8 calls)
 
     Parallel routines
     fft_scatt_xy :      0.41s CPU      0.42s WALL (   45350 calls)
     fft_scatt_yz :      1.29s CPU      1.34s WALL (   45350 calls)
 
     PWSCF        :      6.19s CPU      8.40s WALL

 
   This run was terminated on:  16:19:49  16Jun2022            

=------------------------------------------------------------------------------=
   JOB DONE.
=------------------------------------------------------------------------------=
