
     Program PWSCF v.6.4.1 starts on 15Jul2022 at  1:26:27 

     This program is part of the open-source Quantum ESPRESSO suite
     for quantum simulation of materials; please cite
         "P. Giannozzi et al., J. Phys.:Condens. Matter 21 395502 (2009);
         "P. Giannozzi et al., J. Phys.:Condens. Matter 29 465901 (2017);
          URL http://www.quantum-espresso.org", 
     in publications or presentations arising from this work. More details at
     http://www.quantum-espresso.org/quote

     Parallel version (MPI), running on   128 processors

     MPI processes distributed on     2 nodes
     K-points division:     npool     =       8
     R & G space division:  proc/nbgrp/npool/nimage =      16
     Waiting for input...
     Reading input from standard input
Warning: card &IONS ignored
Warning: card   UPSCALE           = 100.D0, ignored
Warning: card / ignored
Warning: card &CELL ignored
Warning: card   CELL_DYNAMICS     = 'BFGS' ignored
Warning: card   PRESS_CONV_THR    = 0.5D0 ignored
Warning: card   CELL_DOFREE = 'ALL' ignored
Warning: card / ignored

     Current dimensions of program PWSCF are:
     Max number of different atomic species (ntypx) = 10
     Max number of k-points (npk) =  40000
     Max angular momentum in pseudopotentials (lmaxx) =  3

     Subspace diagonalization in iterative solution of the eigenvalue problem:
     one sub-group per band group will be used
     scalapack distributed-memory algorithm (size of sub-group:  2*  2 procs)

 
     Parallelization info
     --------------------
     sticks:   dense  smooth     PW     G-vecs:    dense   smooth      PW
     Min         732     352     96                68647    22836    3282
     Max         733     353     97                68653    22839    3287
     Sum       11725    5643   1539              1098407   365399   52559
 


     bravais-lattice index     =            0
     lattice parameter (alat)  =      18.4447  a.u.
     unit-cell volume          =    5817.8684 (a.u.)^3
     number of atoms/cell      =           72
     number of atomic types    =            3
     number of electrons       =       776.00
     number of Kohn-Sham states=          466
     kinetic-energy cutoff     =      60.0000  Ry
     charge density cutoff     =     500.0000  Ry
     convergence threshold     =      1.0E-08
     mixing beta               =       0.5000
     number of iterations used =            8  plain     mixing
     Exchange-correlation      = SLA  PW   PSX  PSC ( 1  4 10  8 0 0)
     Using LIBXC version       =    4   3   4

     celldm(1)=  18.444651  celldm(2)=   0.000000  celldm(3)=   0.000000
     celldm(4)=   0.000000  celldm(5)=   0.000000  celldm(6)=   0.000000

     crystal axes: (cart. coord. in units of alat)
               a(1) = (   1.000000  -0.000668   0.000654 )  
               a(2) = (  -0.500577   0.867025  -0.000259 )  
               a(3) = (   0.000697   0.000083   1.069767 )  

     reciprocal axes: (cart. coord. in units 2 pi/alat)
               b(1) = (  1.000387  0.577573 -0.000696 )  
               b(2) = (  0.000771  1.153815 -0.000090 )  
               b(3) = ( -0.000611 -0.000074  0.934784 )  


     PseudoPot. # 1 for Zn read from file:
     ./GBRV_PBEsol/zn_pbesol_v1.uspp.F.UPF
     MD5 check sum: 7d8615e52efe7c1e2b1899de8658bae2
     Pseudo is Ultrasoft, Zval = 20.0
     Generated by new atomic code, or converted to UPF format
     Using radial grid of  943 points,  6 beta functions with: 
                l(1) =   0
                l(2) =   0
                l(3) =   1
                l(4) =   1
                l(5) =   2
                l(6) =   2
     Q(r) pseudized with  8 coefficients,  rinner =    1.100   1.100   1.100
                                                       1.100   1.100

     PseudoPot. # 2 for O  read from file:
     ./GBRV_PBEsol/o_pbesol_v1.2.uspp.F.UPF
     MD5 check sum: 501638753501ef6325af9037351f7734
     Pseudo is Ultrasoft + core correction, Zval =  6.0
     Generated by new atomic code, or converted to UPF format
     Using radial grid of  737 points,  5 beta functions with: 
                l(1) =   0
                l(2) =   0
                l(3) =   1
                l(4) =   1
                l(5) =   2
     Q(r) pseudized with  8 coefficients,  rinner =    0.900   0.900   0.900
                                                       0.900   0.900

     PseudoPot. # 3 for Mg read from file:
     ./GBRV_PBEsol/mg_pbesol_v1.4.uspp.F.UPF
     MD5 check sum: 4059f37963cf5867752dbf5ab2400678
     Pseudo is Ultrasoft, Zval = 10.0
     Generated by new atomic code, or converted to UPF format
     Using radial grid of  821 points,  7 beta functions with: 
                l(1) =   0
                l(2) =   0
                l(3) =   0
                l(4) =   1
                l(5) =   1
                l(6) =   2
                l(7) =   2
     Q(r) pseudized with  8 coefficients,  rinner =    1.200   1.200   1.200
                                                       1.200   1.200

     atomic species   valence    mass     pseudopotential
        Zn            20.00    65.38000     Zn( 1.00)
        O              6.00    15.99900     O ( 1.00)
        Mg            10.00    24.30500     Mg( 1.00)

     No symmetry found


                                    s                        frac. trans.

      isym =  1     identity                                     

 cryst.   s( 1) = (     1          0          0      )
                  (     0          1          0      )
                  (     0          0          1      )

 cart.    s( 1) = (  1.0000000  0.0000000 -0.0000000 )
                  ( -0.0000000  1.0000000 -0.0000000 )
                  (  0.0000000  0.0000000  1.0000000 )


   Cartesian axes

     site n.     atom                  positions (alat units)
         1           Zn  tau(   1) = (   0.1647888   0.0955268   0.2092896  )
         2           Zn  tau(   2) = (   0.3321513   0.3844225   0.2069870  )
         3           Zn  tau(   3) = (   0.6689456   0.3847686   0.2066071  )
         4           Zn  tau(   4) = (   0.1677402   0.0960533   0.7438679  )
         5           Zn  tau(   5) = (   0.5011515   0.0961030   0.7414655  )
         6           Zn  tau(   6) = (   0.8320720   0.0962587   0.7395410  )
         7           Zn  tau(   7) = (  -0.0002395   0.3866453   0.7409515  )
         8           Zn  tau(   8) = (   0.6663149   0.3851699   0.7418078  )
         9           Zn  tau(   9) = (   0.1654558   0.6740534   0.7416669  )
        10           Zn  tau(  10) = (   0.5001837   0.6719780   0.7395985  )
        11           Zn  tau(  11) = (   0.3321684   0.1937146   0.4757461  )
        12           Zn  tau(  12) = (   0.6670334   0.1930678   0.4736248  )
        13           Zn  tau(  13) = (   0.1669223   0.4805074   0.4742644  )
        14           Zn  tau(  14) = (   0.4994581   0.4799352   0.4730438  )
        15           Zn  tau(  15) = (  -0.0022077   0.7690466   0.4729390  )
        16           Zn  tau(  16) = (  -0.0005112   0.1924286   1.0093172  )
        17           Zn  tau(  17) = (   0.3338270   0.1903724   1.0106882  )
        18           Zn  tau(  18) = (   0.1656434   0.4817379   1.0102149  )
        19           Zn  tau(  19) = (  -0.3344305   0.7697320   1.0089888  )
        20           Zn  tau(  20) = (   0.0005740   0.7715383   1.0107187  )
        21           Mg  tau(  21) = (   0.4982581   0.0972617   0.2104621  )
        22           Mg  tau(  22) = (   0.8354458   0.0955223   0.2091269  )
        23           Mg  tau(  23) = (   0.0020014   0.3827235   0.2079864  )
        24           Mg  tau(  24) = (  -0.1676206   0.6756592   0.2062928  )
        25           Mg  tau(  25) = (   0.1669218   0.6742603   0.2088768  )
        26           Mg  tau(  26) = (   0.4998648   0.6752739   0.2090068  )
        27           Mg  tau(  27) = (   0.3336948   0.3851432   0.7434991  )
        28           Mg  tau(  28) = (  -0.1652665   0.6750926   0.7421368  )
        29           Mg  tau(  29) = (   0.0022440   0.1933656   0.4777489  )
        30           Mg  tau(  30) = (  -0.1666702   0.4822264   0.4739759  )
        31           Mg  tau(  31) = (  -0.3316307   0.7717907   0.4761154  )
        32           Mg  tau(  32) = (   0.3312807   0.7692254   0.4759798  )
        33           Mg  tau(  33) = (   0.6674722   0.1920699   1.0107758  )
        34           Mg  tau(  34) = (  -0.1649009   0.4806882   1.0085081  )
        35           Mg  tau(  35) = (   0.5020849   0.4819525   1.0119009  )
        36           Mg  tau(  36) = (   0.3348937   0.7708487   1.0074331  )
        37           O   tau(  37) = (   0.1655300   0.0953350   0.0042809  )
        38           O   tau(  38) = (   0.5004122   0.0964850   0.0067361  )
        39           O   tau(  39) = (   0.8325327   0.0948413   0.0051510  )
        40           O   tau(  40) = (  -0.0004902   0.3844998   0.0048317  )
        41           O   tau(  41) = (   0.3332851   0.3847775   0.0020329  )
        42           O   tau(  42) = (   0.6676827   0.3846045   0.0021982  )
        43           O   tau(  43) = (  -0.1672776   0.6732739   0.0023008  )
        44           O   tau(  44) = (   0.1675135   0.6747660   0.0046995  )
        45           O   tau(  45) = (   0.4984326   0.6736889   0.0055075  )
        46           O   tau(  46) = (   0.1670972   0.0960553   0.5400437  )
        47           O   tau(  47) = (   0.5000621   0.0958795   0.5368790  )
        48           O   tau(  48) = (   0.8340793   0.0956450   0.5360754  )
        49           O   tau(  49) = (  -0.0007024   0.3856378   0.5368372  )
        50           O   tau(  50) = (   0.3334090   0.3855649   0.5403818  )
        51           O   tau(  51) = (   0.6666346   0.3850779   0.5379114  )
        52           O   tau(  52) = (  -0.1676711   0.6733992   0.5389741  )
        53           O   tau(  53) = (   0.1649189   0.6734226   0.5374375  )
        54           O   tau(  54) = (   0.5000317   0.6739646   0.5353616  )
        55           O   tau(  55) = (  -0.0001852   0.1925417   0.2744086  )
        56           O   tau(  56) = (   0.3316693   0.1928434   0.2719920  )
        57           O   tau(  57) = (   0.6673169   0.1917742   0.2691580  )
        58           O   tau(  58) = (  -0.1642818   0.4826182   0.2699399  )
        59           O   tau(  59) = (   0.1666203   0.4818123   0.2704919  )
        60           O   tau(  60) = (   0.5004647   0.4810020   0.2685795  )
        61           O   tau(  61) = (  -0.3332974   0.7700242   0.2728544  )
        62           O   tau(  62) = (  -0.0005700   0.7707685   0.2691595  )
        63           O   tau(  63) = (   0.3329955   0.7703619   0.2720573  )
        64           O   tau(  64) = (  -0.0003724   0.1930663   0.8045144  )
        65           O   tau(  65) = (   0.3344693   0.1924784   0.8065180  )
        66           O   tau(  66) = (   0.6669998   0.1925827   0.8070321  )
        67           O   tau(  67) = (  -0.1666071   0.4826725   0.8050472  )
        68           O   tau(  68) = (   0.1667783   0.4816313   0.8059476  )
        69           O   tau(  69) = (   0.4998331   0.4810907   0.8080723  )
        70           O   tau(  70) = (  -0.3334543   0.7697576   0.8043186  )
        71           O   tau(  71) = (   0.0004116   0.7713684   0.8064213  )
        72           O   tau(  72) = (   0.3335840   0.7701736   0.8036091  )

   Crystallographic axes

     site n.     atom                  positions (cryst. coord.)
         1           Zn  tau(   1) = (  0.2198806  0.1103286  0.1955328  )
         2           Zn  tau(   2) = (  0.5541679  0.4437899  0.1932568  )
         3           Zn  tau(   3) = (  0.8912926  0.4444490  0.1926958  )
         4           Zn  tau(   4) = (  0.2227649  0.1108904  0.6952461  )
         5           Zn  tau(   5) = (  0.5563356  0.1112052  0.6927966  )
         6           Zn  tau(   6) = (  0.8874755  0.1116402  0.6907954  )
         7           Zn  tau(   7) = (  0.2225605  0.4460505  0.6926011  )
         8           Zn  tau(   8) = (  0.8885201  0.4448621  0.6929944  )
         9           Zn  tau(   9) = (  0.5543187  0.7777939  0.6931474  )
        10           Zn  tau(  10) = (  0.8879788  0.7756576  0.6910096  )
        11           Zn  tau(  11) = (  0.4438500  0.2237243  0.4445025  )
        12           Zn  tau(  12) = (  0.7784724  0.2232364  0.4423150  )
        13           Zn  tau(  13) = (  0.4441849  0.5545027  0.4431972  )
        14           Zn  tau(  14) = (  0.7765197  0.5540990  0.4418531  )
        15           Zn  tau(  15) = (  0.4416429  0.8872931  0.4420404  )
        16           Zn  tau(  16) = (  0.1099273  0.2219362  0.9434795  )
        17           Zn  tau(  17) = (  0.4432064  0.2198214  0.9445570  )
        18           Zn  tau(  18) = (  0.4432430  0.5558735  0.9441958  )
        19           Zn  tau(  19) = (  0.1093142  0.8877798  0.9433340  )
        20           Zn  tau(  20) = (  0.4454904  0.8901221  0.9447463  )
        21           Mg  tau(  21) = (  0.5544801  0.1125874  0.1964249  )
        22           Mg  tau(  22) = (  0.8907946  0.1108406  0.1949709  )
        23           Mg  tau(  23) = (  0.2229083  0.4415749  0.1943929  )
        24           Mg  tau(  24) = (  0.2224137  0.7794377  0.1928918  )
        25           Mg  tau(  25) = (  0.5562757  0.7780814  0.1951030  )
        26           Mg  tau(  26) = (  0.8899329  0.7795077  0.1950209  )
        27           Mg  tau(  27) = (  0.5557546  0.4445746  0.6947786  )
        28           Mg  tau(  28) = (  0.2240683  0.7787378  0.6937887  )
        29           Mg  tau(  29) = (  0.1135951  0.2230671  0.4465763  )
        30           Mg  tau(  30) = (  0.1114564  0.5562289  0.4431313  )
        31           Mg  tau(  31) = (  0.1136752  0.8902050  0.4452108  )
        32           Mg  tau(  32) = (  0.7753615  0.8877563  0.4446791  )
        33           Mg  tau(  33) = (  0.7779611  0.2220373  0.9444348  )
        34           Mg  tau(  34) = (  0.1119658  0.5544077  0.9428024  )
        35           Mg  tau(  35) = (  0.7799374  0.5563804  0.9455662  )
        36           Mg  tau(  36) = (  0.7795434  0.8895846  0.9414707  )
        37           O   tau(  37) = (  0.2206541  0.1101262  0.0038935  )
        38           O   tau(  38) = (  0.5563283  0.1117111  0.0059839  )
        39           O   tau(  39) = (  0.8876290  0.1100709  0.0042993  )
        40           O   tau(  40) = (  0.2215831  0.4436406  0.0044885  )
        41           O   tau(  41) = (  0.5556499  0.4442187  0.0016683  )
        42           O   tau(  42) = (  0.8900768  0.4442769  0.0016185  )
        43           O   tau(  43) = (  0.2215211  0.7767040  0.0022033  )
        44           O   tau(  44) = (  0.5573019  0.7786836  0.0042409  )
        45           O   tau(  45) = (  0.8877264  0.7776960  0.0047940  )
        46           O   tau(  46) = (  0.2222647  0.1109105  0.5047149  )
        47           O   tau(  47) = (  0.5552591  0.1109647  0.5015531  )
        48           O   tau(  48) = (  0.8892707  0.1109518  0.5005979  )
        49           O   tau(  49) = (  0.2216577  0.4449060  0.5017988  )
        50           O   tau(  50) = (  0.5558538  0.4450791  0.5049080  )
        51           O   tau(  51) = (  0.8889287  0.4447744  0.5023951  )
        52           O   tau(  52) = (  0.2208261  0.7768002  0.5038771  )
        53           O   tau(  53) = (  0.5535595  0.7770839  0.5022375  )
        54           O   tau(  54) = (  0.8891164  0.7779679  0.5000921  )
        55           O   tau(  55) = (  0.1108306  0.2221328  0.2564986  )
        56           O   tau(  56) = (  0.4429895  0.2227369  0.2540368  )
        57           O   tau(  57) = (  0.7781513  0.2217624  0.2511826  )
        58           O   tau(  58) = (  0.1142141  0.5567010  0.2524002  )
        59           O   tau(  59) = (  0.4447783  0.5560263  0.2527141  )
        60           O   tau(  60) = (  0.7782852  0.5553490  0.2507225  )
        61           O   tau(  61) = (  0.1111291  0.8881837  0.2552068  )
        62           O   tau(  62) = (  0.4444177  0.8892994  0.2515494  )
        63           O   tau(  63) = (  0.7778754  0.8890872  0.2540545  )
        64           O   tau(  64) = (  0.1105772  0.2226904  0.7520330  )
        65           O   tau(  65) = (  0.4452075  0.2222701  0.7537014  )
        66           O   tau(  66) = (  0.7779265  0.2226469  0.7539788  )
        67           O   tau(  67) = (  0.1115466  0.5567141  0.7526113  )
        68           O   tau(  68) = (  0.4444590  0.5557697  0.7532493  )
        69           O   tau(  69) = (  0.7773289  0.5554026  0.7550320  )
        70           O   tau(  70) = (  0.1104481  0.8878284  0.7520110  )
        71           O   tau(  71) = (  0.4453721  0.8899442  0.7537724  )
        72           O   tau(  72) = (  0.7779853  0.8888228  0.7509402  )

     number of k points=    36  Marzari-Vanderbilt smearing, width (Ry)=  0.0010
                       cart. coord. in units 2pi/alat
        k(    1) = (   0.0000000   0.0000000   0.0000000), wk =   0.0312500
        k(    2) = (  -0.0001528  -0.0000184   0.2336960), wk =   0.0625000
        k(    3) = (   0.0003055   0.0000369  -0.4673919), wk =   0.0312500
        k(    4) = (   0.0001928   0.2884536  -0.0000224), wk =   0.0625000
        k(    5) = (   0.0000400   0.2884352   0.2336736), wk =   0.0625000
        k(    6) = (   0.0004983   0.2884905  -0.4674143), wk =   0.0625000
        k(    7) = (   0.0003456   0.2884721  -0.2337183), wk =   0.0625000
        k(    8) = (  -0.0003856  -0.5769073   0.0000448), wk =   0.0312500
        k(    9) = (  -0.0005383  -0.5769257   0.2337407), wk =   0.0625000
        k(   10) = (  -0.0000800  -0.5768704  -0.4673472), wk =   0.0312500
        k(   11) = (   0.2500967   0.1443934  -0.0001741), wk =   0.0625000
        k(   12) = (   0.2499440   0.1443749   0.2335219), wk =   0.0625000
        k(   13) = (   0.2504023   0.1444302  -0.4675660), wk =   0.0625000
        k(   14) = (   0.2502495   0.1444118  -0.2338700), wk =   0.0625000
        k(   15) = (   0.2502895   0.4328470  -0.0001965), wk =   0.0625000
        k(   16) = (   0.2501367   0.4328286   0.2334995), wk =   0.0625000
        k(   17) = (   0.2505951   0.4328839  -0.4675884), wk =   0.0625000
        k(   18) = (   0.2504423   0.4328654  -0.2338924), wk =   0.0625000
        k(   19) = (   0.2497111  -0.4325139  -0.0001293), wk =   0.0625000
        k(   20) = (   0.2495584  -0.4325324   0.2335666), wk =   0.0625000
        k(   21) = (   0.2500167  -0.4324771  -0.4675212), wk =   0.0625000
        k(   22) = (   0.2498639  -0.4324955  -0.2338253), wk =   0.0625000
        k(   23) = (   0.2499039  -0.1440603  -0.0001517), wk =   0.0625000
        k(   24) = (   0.2497512  -0.1440787   0.2335442), wk =   0.0625000
        k(   25) = (   0.2502095  -0.1440234  -0.4675436), wk =   0.0625000
        k(   26) = (   0.2500567  -0.1440419  -0.2338477), wk =   0.0625000
        k(   27) = (  -0.5001934  -0.2887867   0.0003482), wk =   0.0312500
        k(   28) = (  -0.5003462  -0.2888051   0.2340441), wk =   0.0625000
        k(   29) = (  -0.4998879  -0.2887498  -0.4670437), wk =   0.0312500
        k(   30) = (  -0.5000007  -0.0003331   0.0003258), wk =   0.0625000
        k(   31) = (  -0.5001534  -0.0003515   0.2340218), wk =   0.0625000
        k(   32) = (  -0.4996951  -0.0002962  -0.4670661), wk =   0.0625000
        k(   33) = (  -0.4998479  -0.0003146  -0.2333702), wk =   0.0625000
        k(   34) = (  -0.5005790  -0.8656940   0.0003929), wk =   0.0312500
        k(   35) = (  -0.5007318  -0.8657124   0.2340889), wk =   0.0625000
        k(   36) = (  -0.5002735  -0.8656571  -0.4669990), wk =   0.0312500

                       cryst. coord.
        k(    1) = (   0.0000000   0.0000000   0.0000000), wk =   0.0312500
        k(    2) = (   0.0000000  -0.0000000   0.2500000), wk =   0.0625000
        k(    3) = (  -0.0000000   0.0000000  -0.5000000), wk =   0.0312500
        k(    4) = (   0.0000000   0.2500000  -0.0000000), wk =   0.0625000
        k(    5) = (   0.0000000   0.2500000   0.2500000), wk =   0.0625000
        k(    6) = (   0.0000000   0.2500000  -0.5000000), wk =   0.0625000
        k(    7) = (  -0.0000000   0.2500000  -0.2500000), wk =   0.0625000
        k(    8) = (  -0.0000000  -0.5000000   0.0000000), wk =   0.0312500
        k(    9) = (  -0.0000000  -0.5000000   0.2500000), wk =   0.0625000
        k(   10) = (  -0.0000000  -0.5000000  -0.5000000), wk =   0.0312500
        k(   11) = (   0.2500000   0.0000000  -0.0000000), wk =   0.0625000
        k(   12) = (   0.2500000   0.0000000   0.2500000), wk =   0.0625000
        k(   13) = (   0.2500000   0.0000000  -0.5000000), wk =   0.0625000
        k(   14) = (   0.2500000  -0.0000000  -0.2500000), wk =   0.0625000
        k(   15) = (   0.2500000   0.2500000   0.0000000), wk =   0.0625000
        k(   16) = (   0.2500000   0.2500000   0.2500000), wk =   0.0625000
        k(   17) = (   0.2500000   0.2500000  -0.5000000), wk =   0.0625000
        k(   18) = (   0.2500000   0.2500000  -0.2500000), wk =   0.0625000
        k(   19) = (   0.2500000  -0.5000000   0.0000000), wk =   0.0625000
        k(   20) = (   0.2500000  -0.5000000   0.2500000), wk =   0.0625000
        k(   21) = (   0.2500000  -0.5000000  -0.5000000), wk =   0.0625000
        k(   22) = (   0.2500000  -0.5000000  -0.2500000), wk =   0.0625000
        k(   23) = (   0.2500000  -0.2500000   0.0000000), wk =   0.0625000
        k(   24) = (   0.2500000  -0.2500000   0.2500000), wk =   0.0625000
        k(   25) = (   0.2500000  -0.2500000  -0.5000000), wk =   0.0625000
        k(   26) = (   0.2500000  -0.2500000  -0.2500000), wk =   0.0625000
        k(   27) = (  -0.5000000  -0.0000000   0.0000000), wk =   0.0312500
        k(   28) = (  -0.5000000  -0.0000000   0.2500000), wk =   0.0625000
        k(   29) = (  -0.5000000  -0.0000000  -0.5000000), wk =   0.0312500
        k(   30) = (  -0.5000000   0.2500000  -0.0000000), wk =   0.0625000
        k(   31) = (  -0.5000000   0.2500000   0.2500000), wk =   0.0625000
        k(   32) = (  -0.5000000   0.2500000  -0.5000000), wk =   0.0625000
        k(   33) = (  -0.5000000   0.2500000  -0.2500000), wk =   0.0625000
        k(   34) = (  -0.5000000  -0.5000000  -0.0000000), wk =   0.0312500
        k(   35) = (  -0.5000000  -0.5000000   0.2500000), wk =   0.0625000
        k(   36) = (  -0.5000000  -0.5000000  -0.5000000), wk =   0.0312500

     Dense  grid:  1098407 G-vectors     FFT dimensions: ( 135, 135, 144)

     Smooth grid:   365399 G-vectors     FFT dimensions: (  96,  96, 100)

     Dynamical RAM for                 wfc:      20.29 MB

     Dynamical RAM for     wfc (w. buffer):     121.72 MB

     Dynamical RAM for           str. fact:       3.14 MB

     Dynamical RAM for           local pot:       0.00 MB

     Dynamical RAM for          nlocal pot:      49.28 MB

     Dynamical RAM for                qrad:      21.05 MB

     Dynamical RAM for          rho,v,vnew:       6.90 MB

     Dynamical RAM for               rhoin:       2.30 MB

     Dynamical RAM for            rho*nmix:      16.76 MB

     Dynamical RAM for           G-vectors:       4.10 MB

     Dynamical RAM for          h,s,v(r/c):      39.76 MB

     Dynamical RAM for          <psi|beta>:       8.05 MB

     Dynamical RAM for                 psi:      81.15 MB

     Dynamical RAM for                hpsi:      81.15 MB

     Dynamical RAM for                spsi:      81.15 MB

     Dynamical RAM for      wfcinit/wfcrot:      47.51 MB

     Dynamical RAM for           addusdens:      32.47 MB

     Estimated static dynamical RAM per process >     235.69 MB

     Estimated max dynamical RAM per process >     526.94 MB

     Estimated total dynamical RAM >      65.87 GB

     Check: negative core charge=   -0.000002

     Initial potential from superposition of free atoms

     starting charge  771.19370, renormalised to  776.00000
     Starting wfcs are  484 randomized atomic wfcs

     total cpu time spent up to now is       14.6 secs

     Self-consistent Calculation

     iteration #  1     ecut=    60.00 Ry     beta= 0.50
     Davidson diagonalization with overlap
     ethr =  1.00E-02,  avg # of iterations =  4.7

     total cpu time spent up to now is       73.6 secs

     total energy              =  -12379.34345570 Ry
     Harris-Foulkes estimate   =  -12398.52329796 Ry
     estimated scf accuracy    <      27.94275284 Ry

     iteration #  2     ecut=    60.00 Ry     beta= 0.50
     Davidson diagonalization with overlap
     ethr =  3.60E-03,  avg # of iterations =  3.1

     total cpu time spent up to now is      140.3 secs

     total energy              =  -12385.79637977 Ry
     Harris-Foulkes estimate   =  -12398.37809190 Ry
     estimated scf accuracy    <      31.66153272 Ry

     iteration #  3     ecut=    60.00 Ry     beta= 0.50
     Davidson diagonalization with overlap
     ethr =  3.60E-03,  avg # of iterations =  3.1

     total cpu time spent up to now is      197.4 secs

     total energy              =  -12391.97552274 Ry
     Harris-Foulkes estimate   =  -12392.84627901 Ry
     estimated scf accuracy    <       2.59249519 Ry

     iteration #  4     ecut=    60.00 Ry     beta= 0.50
     Davidson diagonalization with overlap
     ethr =  3.34E-04,  avg # of iterations =  4.4

     total cpu time spent up to now is      252.3 secs

     total energy              =  -12392.18863202 Ry
     Harris-Foulkes estimate   =  -12392.28370277 Ry
     estimated scf accuracy    <       0.24459547 Ry

     iteration #  5     ecut=    60.00 Ry     beta= 0.50
     Davidson diagonalization with overlap
     ethr =  3.15E-05,  avg # of iterations =  5.2

     total cpu time spent up to now is      332.4 secs

     total energy              =  -12392.21391327 Ry
     Harris-Foulkes estimate   =  -12392.24407141 Ry
     estimated scf accuracy    <       0.07394446 Ry

     iteration #  6     ecut=    60.00 Ry     beta= 0.50
     Davidson diagonalization with overlap
     ethr =  9.53E-06,  avg # of iterations =  3.4

     total cpu time spent up to now is      391.8 secs

     total energy              =  -12392.22734079 Ry
     Harris-Foulkes estimate   =  -12392.22989910 Ry
     estimated scf accuracy    <       0.01016953 Ry

     iteration #  7     ecut=    60.00 Ry     beta= 0.50
     Davidson diagonalization with overlap
     ethr =  1.31E-06,  avg # of iterations =  2.7

     total cpu time spent up to now is      440.2 secs

     total energy              =  -12392.22865163 Ry
     Harris-Foulkes estimate   =  -12392.22905155 Ry
     estimated scf accuracy    <       0.00136514 Ry

     iteration #  8     ecut=    60.00 Ry     beta= 0.50
     Davidson diagonalization with overlap
     ethr =  1.76E-07,  avg # of iterations =  2.0

     total cpu time spent up to now is      485.5 secs

     total energy              =  -12392.22888425 Ry
     Harris-Foulkes estimate   =  -12392.22893966 Ry
     estimated scf accuracy    <       0.00015990 Ry

     iteration #  9     ecut=    60.00 Ry     beta= 0.50
     Davidson diagonalization with overlap
     ethr =  2.06E-08,  avg # of iterations =  2.0

     total cpu time spent up to now is      528.7 secs

     total energy              =  -12392.22891774 Ry
     Harris-Foulkes estimate   =  -12392.22892000 Ry
     estimated scf accuracy    <       0.00002511 Ry

     iteration # 10     ecut=    60.00 Ry     beta= 0.50
     Davidson diagonalization with overlap
     ethr =  3.24E-09,  avg # of iterations =  2.0

     total cpu time spent up to now is      569.2 secs

     total energy              =  -12392.22892249 Ry
     Harris-Foulkes estimate   =  -12392.22892252 Ry
     estimated scf accuracy    <       0.00000382 Ry

     iteration # 11     ecut=    60.00 Ry     beta= 0.50
     Davidson diagonalization with overlap
     ethr =  4.93E-10,  avg # of iterations =  2.0

     total cpu time spent up to now is      614.5 secs

     total energy              =  -12392.22892319 Ry
     Harris-Foulkes estimate   =  -12392.22892323 Ry
     estimated scf accuracy    <       0.00000045 Ry

     iteration # 12     ecut=    60.00 Ry     beta= 0.50
     Davidson diagonalization with overlap
     ethr =  5.75E-11,  avg # of iterations =  2.0

     total cpu time spent up to now is      658.3 secs

     total energy              =  -12392.22892328 Ry
     Harris-Foulkes estimate   =  -12392.22892328 Ry
     estimated scf accuracy    <       0.00000007 Ry

     iteration # 13     ecut=    60.00 Ry     beta= 0.50
     Davidson diagonalization with overlap
     ethr =  9.09E-12,  avg # of iterations =  2.0

     total cpu time spent up to now is      699.5 secs

     total energy              =  -12392.22892330 Ry
     Harris-Foulkes estimate   =  -12392.22892330 Ry
     estimated scf accuracy    <       0.00000001 Ry

     iteration # 14     ecut=    60.00 Ry     beta= 0.50
     Davidson diagonalization with overlap
     ethr =  1.75E-12,  avg # of iterations =  2.0

     total cpu time spent up to now is      740.8 secs

     End of self-consistent calculation

          k = 0.0000 0.0000 0.0000 ( 45723 PWs)   bands (ev):

  -115.8724-115.8706-115.8685-115.8671-115.8645-115.8638-115.8637-115.8636
  -115.8634-115.8623-115.8621-115.8616-115.8593-115.8537-115.8529-115.8517
  -115.8516-115.8450-115.8417-115.8313 -70.2330 -70.2294 -70.2286 -70.2283
   -70.2274 -70.2249 -70.2247 -70.2236 -70.2231 -70.2231 -70.2227 -70.2223
   -70.2221 -70.2221 -70.2220 -70.2218 -70.2215 -70.2213 -70.2213 -70.2210
   -70.2208 -70.2207 -70.2203 -70.2196 -70.2194 -70.2187 -70.2187 -70.2176
   -70.2173 -70.2168 -70.2162 -70.2155 -70.2153 -70.2142 -70.2139 -70.2139
   -70.2137 -70.2132 -70.2118 -70.2106 -70.2104 -70.2101 -70.2100 -70.2098
   -70.2097 -70.2075 -70.2075 -70.2056 -70.2052 -70.2050 -70.2048 -70.2032
   -70.2027 -70.2021 -70.1980 -70.1935 -70.1934 -70.1910 -70.1884 -70.1820
   -65.3590 -65.3474 -65.3349 -65.3317 -65.3187 -65.3123 -65.3098 -65.3073
   -65.3043 -65.2981 -65.2957 -65.2882 -65.2856 -65.2854 -65.2768 -65.2682
   -32.3475 -32.3425 -32.3418 -32.3374 -32.3336 -32.3312 -32.3230 -32.3213
   -32.3212 -32.3188 -32.3179 -32.3135 -32.3091 -32.3058 -32.3054 -32.3029
   -32.3014 -32.3007 -32.2996 -32.2987 -32.2951 -32.2938 -32.2930 -32.2903
   -32.2894 -32.2876 -32.2866 -32.2860 -32.2853 -32.2841 -32.2807 -32.2803
   -32.2781 -32.2771 -32.2753 -32.2743 -32.2729 -32.2722 -32.2701 -32.2698
   -32.2656 -32.2655 -32.2646 -32.2612 -32.2562 -32.2550 -32.2502 -32.2476
   -10.4028 -10.1002 -10.0581  -9.9850  -9.9640  -9.9321  -9.8988  -9.8954
    -9.8386  -9.8134  -9.7698  -9.7470  -9.7299  -9.7127  -9.6988  -9.6584
    -9.6557  -9.6245  -9.6093  -9.5972  -9.5845  -9.5554  -9.5384  -9.5222
    -9.5083  -9.4816  -9.4667  -9.4320  -9.4096  -9.3634  -9.3372  -9.3251
    -9.2985  -9.2660  -9.2530  -9.1178   1.3757   1.4097   1.4345   1.4400
     1.4635   1.4812   1.5059   1.5161   1.5395   1.5572   1.5809   1.5931
     1.6537   1.6652   1.6847   1.6935   1.7055   1.7245   1.7323   1.7514
     1.7683   1.7888   1.8033   1.8296   1.8372   1.8543   1.8665   1.8836
     1.8865   1.9015   1.9074   1.9202   1.9284   1.9579   1.9618   1.9719
     1.9776   1.9955   2.0060   2.0148   2.0215   2.0392   2.0570   2.0612
     2.0767   2.0858   2.1068   2.1312   2.1510   2.1757   2.2047   2.2260
     2.2483   2.2621   2.2852   2.2917   2.3089   2.3223   2.3295   2.3589
     2.3720   2.3881   2.4109   2.4211   2.4325   2.4422   2.4512   2.4693
     2.4858   2.5102   2.5149   2.5288   2.5382   2.5616   2.5768   2.5827
     2.6149   2.6369   2.6497   2.6603   2.6680   2.6813   2.7056   2.7151
     2.7305   2.7381   2.7500   2.7612   2.7801   2.7919   2.8041   2.8239
     2.8328   2.8392   2.8534   2.8646   2.8752   2.8819   2.9172   2.9242
     2.9345   3.0515   3.1592   3.1872   3.2428   3.2634   3.2793   3.3502
     3.3619   3.3796   3.4130   3.4367   3.4853   3.5051   3.5473   3.5638
     3.6126   3.6362   3.6785   3.7199   3.7556   3.8001   3.8862   3.9189
     3.9488   3.9596   3.9899   4.0249   4.0462   4.1045   4.1238   4.1685
     4.1958   4.2130   4.2415   4.3446   4.3860   4.3995   4.4172   4.4806
     4.5588   4.6074   4.6795   4.7128   4.7496   4.8787   4.9258   5.0515
     5.0820   5.0987   5.1163   5.1336   5.2018   5.2104   5.2392   5.2701
     5.2868   5.3054   5.3149   5.3412   5.3538   5.4303   5.4776   5.5044
     5.5425   5.5517   5.5740   5.5879   5.6178   5.6329   5.6551   5.6948
     5.7085   5.7337   5.7549   5.7821   5.7942   5.8257   5.8608   5.8784
     5.8888   5.9164   5.9241   5.9543   5.9774   5.9955   6.0052   6.0386
     6.1057   6.1321   6.1665   6.1973   6.2225   6.2360   6.2624   6.2730
     6.2909   6.3025   6.3342   6.3957   6.4495   6.5290   6.5454   6.5641
     6.6160   6.8064   6.8504   6.8695   8.5749  11.0119  11.0502  11.6447
    11.6976  11.7625  11.8466  11.9351  12.1122  12.5125  12.5923  12.6146
    12.6348  12.6893  12.7163  12.7706  12.7913  12.8574  12.9402  13.0303
    13.0886  13.4052  14.4460  14.4544  14.6214  14.6560  14.6810  14.7169
    14.7536  14.7926  14.7986  14.8563  14.8635  14.8892  14.9484  14.9750
    14.9980  15.0242  15.0961  15.1198  15.1637  15.2420  15.2987  15.3609
    15.4154  15.4665  15.5627  15.5894  15.6002  15.7113  15.7737  15.8947
    15.9026  15.9457  15.9742  16.0077  16.0144  16.1459  16.2151  16.4293
    16.4523  16.6784  16.8734  16.9069  16.9650  17.1097  17.1583  17.2175
    17.2737  17.2877  17.4558  17.5352  17.6463  17.8557  17.8981  17.9525
    17.9959  18.1335

     occupation numbers 
     1.0000   1.0000   1.0000   1.0000   1.0000   1.0000   1.0000   1.0000
     1.0000   1.0000   1.0000   1.0000   1.0000   1.0000   1.0000   1.0000
     1.0000   1.0000   1.0000   1.0000   1.0000   1.0000   1.0000   1.0000
     1.0000   1.0000   1.0000   1.0000   1.0000   1.0000   1.0000   1.0000
     1.0000   1.0000   1.0000   1.0000   1.0000   1.0000   1.0000   1.0000
     1.0000   1.0000   1.0000   1.0000   1.0000   1.0000   1.0000   1.0000
     1.0000   1.0000   1.0000   1.0000   1.0000   1.0000   1.0000   1.0000
     1.0000   1.0000   1.0000   1.0000   1.0000   1.0000   1.0000   1.0000
     1.0000   1.0000   1.0000   1.0000   1.0000   1.0000   1.0000   1.0000
     1.0000   1.0000   1.0000   1.0000   1.0000   1.0000   1.0000   1.0000
     1.0000   1.0000   1.0000   1.0000   1.0000   1.0000   1.0000   1.0000
     1.0000   1.0000   1.0000   1.0000   1.0000   1.0000   1.0000   1.0000
     1.0000   1.0000   1.0000   1.0000   1.0000   1.0000   1.0000   1.0000
     1.0000   1.0000   1.0000   1.0000   1.0000   1.0000   1.0000   1.0000
     1.0000   1.0000   1.0000   1.0000   1.0000   1.0000   1.0000   1.0000
     1.0000   1.0000   1.0000   1.0000   1.0000   1.0000   1.0000   1.0000
     1.0000   1.0000   1.0000   1.0000   1.0000   1.0000   1.0000   1.0000
     1.0000   1.0000   1.0000   1.0000   1.0000   1.0000   1.0000   1.0000
     1.0000   1.0000   1.0000   1.0000   1.0000   1.0000   1.0000   1.0000
     1.0000   1.0000   1.0000   1.0000   1.0000   1.0000   1.0000   1.0000
     1.0000   1.0000   1.0000   1.0000   1.0000   1.0000   1.0000   1.0000
     1.0000   1.0000   1.0000   1.0000   1.0000   1.0000   1.0000   1.0000
     1.0000   1.0000   1.0000   1.0000   1.0000   1.0000   1.0000   1.0000
     1.0000   1.0000   1.0000   1.0000   1.0000   1.0000   1.0000   1.0000
     1.0000   1.0000   1.0000   1.0000   1.0000   1.0000   1.0000   1.0000
     1.0000   1.0000   1.0000   1.0000   1.0000   1.0000   1.0000   1.0000
     1.0000   1.0000   1.0000   1.0000   1.0000   1.0000   1.0000   1.0000
     1.0000   1.0000   1.0000   1.0000   1.0000   1.0000   1.0000   1.0000
     1.0000   1.0000   1.0000   1.0000   1.0000   1.0000   1.0000   1.0000
     1.0000   1.0000   1.0000   1.0000   1.0000   1.0000   1.0000   1.0000
     1.0000   1.0000   1.0000   1.0000   1.0000   1.0000   1.0000   1.0000
     1.0000   1.0000   1.0000   1.0000   1.0000   1.0000   1.0000   1.0000
     1.0000   1.0000   1.0000   1.0000   1.0000   1.0000   1.0000   1.0000
     1.0000   1.0000   1.0000   1.0000   1.0000   1.0000   1.0000   1.0000
     1.0000   1.0000   1.0000   1.0000   1.0000   1.0000   1.0000   1.0000
     1.0000   1.0000   1.0000   1.0000   1.0000   1.0000   1.0000   1.0000
     1.0000   1.0000   1.0000   1.0000   1.0000   1.0000   1.0000   1.0000
     1.0000   1.0000   1.0000   1.0000   1.0000   1.0000   1.0000   1.0000
     1.0000   1.0000   1.0000   1.0000   1.0000   1.0000   1.0000   1.0000
     1.0000   1.0000   1.0000   1.0000   1.0000   1.0000   1.0000   1.0000
     1.0000   1.0000   1.0000   1.0000   1.0000   1.0000   1.0000   1.0000
     1.0000   1.0000   1.0000   1.0000   1.0000   1.0000   1.0000   1.0000
     1.0000   1.0000   1.0000   1.0000   1.0000   1.0000   1.0000   1.0000
     1.0000   1.0000   1.0000   1.0000   1.0000   1.0000   1.0000   1.0000
     1.0000   1.0000   1.0000   1.0000   1.0000   1.0000   1.0000   1.0000
     1.0000   1.0000   1.0000   1.0000   1.0000   1.0000   1.0000   1.0000
     1.0000   1.0000   1.0000   1.0000   1.0000   1.0000   1.0000   1.0000
     1.0000   1.0000   1.0000   1.0000   1.0000   1.0000   1.0000   1.0000
     1.0000   1.0000   1.0000   1.0000   0.0000   0.0000   0.0000   0.0000
     0.0000   0.0000   0.0000   0.0000   0.0000   0.0000   0.0000   0.0000
     0.0000   0.0000   0.0000   0.0000   0.0000   0.0000   0.0000   0.0000
     0.0000   0.0000   0.0000   0.0000   0.0000   0.0000   0.0000   0.0000
     0.0000   0.0000   0.0000   0.0000   0.0000   0.0000   0.0000   0.0000
     0.0000   0.0000   0.0000   0.0000   0.0000   0.0000   0.0000   0.0000
     0.0000   0.0000   0.0000   0.0000   0.0000   0.0000   0.0000   0.0000
     0.0000   0.0000   0.0000   0.0000   0.0000   0.0000   0.0000   0.0000
     0.0000   0.0000   0.0000   0.0000   0.0000   0.0000   0.0000   0.0000
     0.0000   0.0000   0.0000   0.0000   0.0000   0.0000   0.0000   0.0000
     0.0000   0.0000

          k =-0.0002-0.0000 0.2337 ( 45640 PWs)   bands (ev):

  -115.8724-115.8706-115.8685-115.8671-115.8645-115.8638-115.8637-115.8636
  -115.8634-115.8623-115.8621-115.8616-115.8593-115.8537-115.8529-115.8517
  -115.8516-115.8450-115.8417-115.8313 -70.2330 -70.2294 -70.2286 -70.2283
   -70.2274 -70.2249 -70.2247 -70.2236 -70.2231 -70.2231 -70.2227 -70.2223
   -70.2221 -70.2221 -70.2220 -70.2218 -70.2215 -70.2213 -70.2213 -70.2210
   -70.2208 -70.2207 -70.2203 -70.2196 -70.2194 -70.2187 -70.2187 -70.2176
   -70.2173 -70.2168 -70.2162 -70.2155 -70.2153 -70.2142 -70.2139 -70.2139
   -70.2137 -70.2132 -70.2118 -70.2106 -70.2104 -70.2101 -70.2100 -70.2098
   -70.2097 -70.2075 -70.2075 -70.2056 -70.2052 -70.2050 -70.2048 -70.2032
   -70.2027 -70.2021 -70.1980 -70.1935 -70.1934 -70.1910 -70.1884 -70.1820
   -65.3590 -65.3474 -65.3349 -65.3317 -65.3187 -65.3123 -65.3098 -65.3073
   -65.3043 -65.2981 -65.2957 -65.2882 -65.2856 -65.2854 -65.2768 -65.2682
   -32.3475 -32.3425 -32.3418 -32.3374 -32.3336 -32.3312 -32.3230 -32.3213
   -32.3212 -32.3188 -32.3179 -32.3135 -32.3091 -32.3058 -32.3054 -32.3029
   -32.3014 -32.3007 -32.2995 -32.2987 -32.2951 -32.2937 -32.2931 -32.2903
   -32.2894 -32.2876 -32.2866 -32.2860 -32.2853 -32.2841 -32.2807 -32.2803
   -32.2781 -32.2771 -32.2753 -32.2743 -32.2729 -32.2722 -32.2701 -32.2698
   -32.2656 -32.2655 -32.2646 -32.2612 -32.2562 -32.2550 -32.2502 -32.2476
   -10.3823 -10.1809 -10.0127  -9.9794  -9.9523  -9.9225  -9.9001  -9.8696
    -9.8398  -9.8210  -9.7918  -9.7749  -9.7501  -9.7068  -9.6891  -9.6544
    -9.6472  -9.6313  -9.6214  -9.5890  -9.5816  -9.5402  -9.5312  -9.5135
    -9.4980  -9.4841  -9.4655  -9.4326  -9.4110  -9.3670  -9.3377  -9.3268
    -9.3014  -9.2691  -9.2563  -9.1190   1.3802   1.4258   1.4391   1.4535
     1.4683   1.4949   1.5162   1.5284   1.5485   1.5663   1.5880   1.6087
     1.6573   1.6706   1.6903   1.6995   1.7138   1.7282   1.7373   1.7521
     1.7711   1.7947   1.8008   1.8258   1.8376   1.8463   1.8625   1.8712
     1.8925   1.9004   1.9121   1.9159   1.9273   1.9466   1.9593   1.9667
     1.9832   1.9941   1.9988   2.0179   2.0317   2.0440   2.0500   2.0602
     2.0740   2.0866   2.0960   2.1247   2.1445   2.1731   2.1924   2.2126
     2.2379   2.2462   2.2705   2.2761   2.2959   2.3019   2.3154   2.3325
     2.3518   2.3673   2.3810   2.4077   2.4167   2.4237   2.4431   2.4539
     2.4747   2.4781   2.4973   2.5187   2.5380   2.5451   2.5661   2.5854
     2.6046   2.6237   2.6396   2.6558   2.6720   2.6904   2.6932   2.7140
     2.7346   2.7401   2.7568   2.7600   2.7840   2.7927   2.8112   2.8223
     2.8372   2.8402   2.8534   2.8647   2.8718   2.8921   2.9120   2.9289
     2.9813   3.0652   3.1551   3.2293   3.2532   3.2841   3.3077   3.3386
     3.3779   3.3979   3.4343   3.4649   3.4968   3.5247   3.5661   3.5845
     3.6233   3.6409   3.6883   3.7356   3.8059   3.8219   3.8919   3.9212
     3.9475   3.9872   4.0110   4.0541   4.0626   4.0915   4.1234   4.1601
     4.1733   4.2159   4.2400   4.2770   4.3061   4.3433   4.5119   4.5748
     4.6429   4.6981   4.7051   4.7520   4.8211   4.8609   4.9605   5.0179
     5.0594   5.0960   5.1288   5.1402   5.1629   5.1880   5.2152   5.2295
     5.2445   5.2548   5.2774   5.3031   5.3270   5.3383   5.3723   5.4069
     5.4239   5.4903   5.5372   5.5534   5.5940   5.6169   5.6291   5.6482
     5.6936   5.7174   5.7380   5.7929   5.8454   5.8744   5.8863   5.8994
     5.9131   5.9511   5.9718   5.9972   6.0123   6.0423   6.0712   6.1047
     6.1236   6.1525   6.1904   6.2199   6.2428   6.2552   6.2814   6.2950
     6.3095   6.3308   6.3499   6.3883   6.4230   6.4711   6.5190   6.5915
     6.6300   6.6534   6.8410   6.8604   8.8759  10.2993  11.5734  11.6667
    11.7185  11.7981  11.8700  11.9737  12.1135  12.1557  12.2646  12.3135
    12.4039  12.4739  12.6547  12.9836  13.1747  13.2599  13.2976  13.3378
    13.4425  13.5253  14.2696  14.3259  14.3983  14.4157  14.4732  14.5142
    14.5392  14.5596  14.7419  14.7511  14.8522  14.8620  14.9425  14.9853
    14.9950  15.1403  15.1829  15.2640  15.3219  15.3658  15.3883  15.4569
    15.4876  15.5370  15.5802  15.5919  15.7267  15.8030  15.8401  15.8729
    15.9313  15.9533  15.9790  16.0786  16.0938  16.2092  16.2956  16.3382
    16.5108  16.6439  16.7236  16.8301  16.9408  16.9988  17.0579  17.1259
    17.1613  17.2415  17.3147  17.5124  17.6236  17.6937  17.7717  17.8720
    18.0083  18.0662

     occupation numbers 
     1.0000   1.0000   1.0000   1.0000   1.0000   1.0000   1.0000   1.0000
     1.0000   1.0000   1.0000   1.0000   1.0000   1.0000   1.0000   1.0000
     1.0000   1.0000   1.0000   1.0000   1.0000   1.0000   1.0000   1.0000
     1.0000   1.0000   1.0000   1.0000   1.0000   1.0000   1.0000   1.0000
     1.0000   1.0000   1.0000   1.0000   1.0000   1.0000   1.0000   1.0000
     1.0000   1.0000   1.0000   1.0000   1.0000   1.0000   1.0000   1.0000
     1.0000   1.0000   1.0000   1.0000   1.0000   1.0000   1.0000   1.0000
     1.0000   1.0000   1.0000   1.0000   1.0000   1.0000   1.0000   1.0000
     1.0000   1.0000   1.0000   1.0000   1.0000   1.0000   1.0000   1.0000
     1.0000   1.0000   1.0000   1.0000   1.0000   1.0000   1.0000   1.0000
     1.0000   1.0000   1.0000   1.0000   1.0000   1.0000   1.0000   1.0000
     1.0000   1.0000   1.0000   1.0000   1.0000   1.0000   1.0000   1.0000
     1.0000   1.0000   1.0000   1.0000   1.0000   1.0000   1.0000   1.0000
     1.0000   1.0000   1.0000   1.0000   1.0000   1.0000   1.0000   1.0000
     1.0000   1.0000   1.0000   1.0000   1.0000   1.0000   1.0000   1.0000
     1.0000   1.0000   1.0000   1.0000   1.0000   1.0000   1.0000   1.0000
     1.0000   1.0000   1.0000   1.0000   1.0000   1.0000   1.0000   1.0000
     1.0000   1.0000   1.0000   1.0000   1.0000   1.0000   1.0000   1.0000
     1.0000   1.0000   1.0000   1.0000   1.0000   1.0000   1.0000   1.0000
     1.0000   1.0000   1.0000   1.0000   1.0000   1.0000   1.0000   1.0000
     1.0000   1.0000   1.0000   1.0000   1.0000   1.0000   1.0000   1.0000
     1.0000   1.0000   1.0000   1.0000   1.0000   1.0000   1.0000   1.0000
     1.0000   1.0000   1.0000   1.0000   1.0000   1.0000   1.0000   1.0000
     1.0000   1.0000   1.0000   1.0000   1.0000   1.0000   1.0000   1.0000
     1.0000   1.0000   1.0000   1.0000   1.0000   1.0000   1.0000   1.0000
     1.0000   1.0000   1.0000   1.0000   1.0000   1.0000   1.0000   1.0000
     1.0000   1.0000   1.0000   1.0000   1.0000   1.0000   1.0000   1.0000
     1.0000   1.0000   1.0000   1.0000   1.0000   1.0000   1.0000   1.0000
     1.0000   1.0000   1.0000   1.0000   1.0000   1.0000   1.0000   1.0000
     1.0000   1.0000   1.0000   1.0000   1.0000   1.0000   1.0000   1.0000
     1.0000   1.0000   1.0000   1.0000   1.0000   1.0000   1.0000   1.0000
     1.0000   1.0000   1.0000   1.0000   1.0000   1.0000   1.0000   1.0000
     1.0000   1.0000   1.0000   1.0000   1.0000   1.0000   1.0000   1.0000
     1.0000   1.0000   1.0000   1.0000   1.0000   1.0000   1.0000   1.0000
     1.0000   1.0000   1.0000   1.0000   1.0000   1.0000   1.0000   1.0000
     1.0000   1.0000   1.0000   1.0000   1.0000   1.0000   1.0000   1.0000
     1.0000   1.0000   1.0000   1.0000   1.0000   1.0000   1.0000   1.0000
     1.0000   1.0000   1.0000   1.0000   1.0000   1.0000   1.0000   1.0000
     1.0000   1.0000   1.0000   1.0000   1.0000   1.0000   1.0000   1.0000
     1.0000   1.0000   1.0000   1.0000   1.0000   1.0000   1.0000   1.0000
     1.0000   1.0000   1.0000   1.0000   1.0000   1.0000   1.0000   1.0000
     1.0000   1.0000   1.0000   1.0000   1.0000   1.0000   1.0000   1.0000
     1.0000   1.0000   1.0000   1.0000   1.0000   1.0000   1.0000   1.0000
     1.0000   1.0000   1.0000   1.0000   1.0000   1.0000   1.0000   1.0000
     1.0000   1.0000   1.0000   1.0000   1.0000   1.0000   1.0000   1.0000
     1.0000   1.0000   1.0000   1.0000   1.0000   1.0000   1.0000   1.0000
     1.0000   1.0000   1.0000   1.0000   1.0000   1.0000   1.0000   1.0000
     1.0000   1.0000   1.0000   1.0000   1.0000   1.0000   1.0000   1.0000
     1.0000   1.0000   1.0000   1.0000   0.0000   0.0000   0.0000   0.0000
     0.0000   0.0000   0.0000   0.0000   0.0000   0.0000   0.0000   0.0000
     0.0000   0.0000   0.0000   0.0000   0.0000   0.0000   0.0000   0.0000
     0.0000   0.0000   0.0000   0.0000   0.0000   0.0000   0.0000   0.0000
     0.0000   0.0000   0.0000   0.0000   0.0000   0.0000   0.0000   0.0000
     0.0000   0.0000   0.0000   0.0000   0.0000   0.0000   0.0000   0.0000
     0.0000   0.0000   0.0000   0.0000   0.0000   0.0000   0.0000   0.0000
     0.0000   0.0000   0.0000   0.0000   0.0000   0.0000   0.0000   0.0000
     0.0000   0.0000   0.0000   0.0000   0.0000   0.0000   0.0000   0.0000
     0.0000   0.0000   0.0000   0.0000   0.0000   0.0000   0.0000   0.0000
     0.0000   0.0000

          k = 0.0003 0.0000-0.4674 ( 45678 PWs)   bands (ev):

  -115.8724-115.8706-115.8685-115.8671-115.8645-115.8638-115.8637-115.8636
  -115.8634-115.8623-115.8621-115.8616-115.8593-115.8537-115.8529-115.8517
  -115.8516-115.8450-115.8417-115.8313 -70.2330 -70.2294 -70.2286 -70.2283
   -70.2274 -70.2249 -70.2247 -70.2236 -70.2231 -70.2231 -70.2227 -70.2223
   -70.2221 -70.2221 -70.2220 -70.2218 -70.2215 -70.2213 -70.2213 -70.2210
   -70.2208 -70.2207 -70.2203 -70.2196 -70.2194 -70.2187 -70.2187 -70.2176
   -70.2173 -70.2168 -70.2162 -70.2155 -70.2153 -70.2142 -70.2139 -70.2139
   -70.2137 -70.2132 -70.2118 -70.2106 -70.2104 -70.2101 -70.2100 -70.2098
   -70.2097 -70.2075 -70.2075 -70.2056 -70.2052 -70.2050 -70.2048 -70.2032
   -70.2027 -70.2021 -70.1980 -70.1935 -70.1934 -70.1910 -70.1884 -70.1820
   -65.3590 -65.3474 -65.3349 -65.3317 -65.3187 -65.3123 -65.3098 -65.3073
   -65.3043 -65.2981 -65.2957 -65.2882 -65.2856 -65.2854 -65.2768 -65.2682
   -32.3475 -32.3425 -32.3418 -32.3373 -32.3336 -32.3312 -32.3230 -32.3213
   -32.3212 -32.3188 -32.3179 -32.3135 -32.3091 -32.3058 -32.3055 -32.3029
   -32.3015 -32.3007 -32.2995 -32.2988 -32.2951 -32.2937 -32.2931 -32.2903
   -32.2894 -32.2876 -32.2866 -32.2859 -32.2853 -32.2841 -32.2807 -32.2803
   -32.2780 -32.2771 -32.2753 -32.2743 -32.2729 -32.2722 -32.2701 -32.2698
   -32.2656 -32.2655 -32.2646 -32.2612 -32.2562 -32.2550 -32.2502 -32.2476
   -10.3492 -10.2444  -9.9940  -9.9668  -9.9413  -9.9132  -9.8977  -9.8796
    -9.8333  -9.8204  -9.8111  -9.7890  -9.7393  -9.7199  -9.7022  -9.6517
    -9.6481  -9.6320  -9.6233  -9.5847  -9.5743  -9.5317  -9.5096  -9.5048
    -9.5037  -9.4846  -9.4625  -9.4310  -9.4146  -9.3702  -9.3381  -9.3287
    -9.3041  -9.2724  -9.2598  -9.1201   1.3846   1.4367   1.4452   1.4644
     1.4779   1.5166   1.5244   1.5429   1.5528   1.5682   1.6097   1.6272
     1.6630   1.6863   1.6967   1.7129   1.7164   1.7204   1.7482   1.7638
     1.7745   1.7809   1.8001   1.8209   1.8346   1.8400   1.8545   1.8629
     1.8793   1.8991   1.9103   1.9156   1.9222   1.9421   1.9601   1.9654
     1.9865   1.9928   2.0075   2.0231   2.0362   2.0435   2.0517   2.0641
     2.0786   2.0915   2.1043   2.1126   2.1298   2.1417   2.1687   2.1913
     2.1996   2.2323   2.2514   2.2615   2.2715   2.2869   2.3043   2.3115
     2.3221   2.3503   2.3745   2.3879   2.4051   2.4151   2.4245   2.4463
     2.4610   2.4743   2.4784   2.5166   2.5304   2.5395   2.5525   2.5747
     2.6031   2.6211   2.6358   2.6527   2.6758   2.6819   2.6960   2.7190
     2.7360   2.7418   2.7513   2.7604   2.7911   2.8021   2.8151   2.8200
     2.8366   2.8476   2.8528   2.8608   2.8788   2.8993   2.9155   2.9248
     3.0358   3.0858   3.1773   3.2426   3.2741   3.2953   3.3071   3.3370
     3.3945   3.4276   3.4673   3.4937   3.5148   3.5437   3.5726   3.5939
     3.6088   3.6620   3.6797   3.7113   3.7749   3.8107   3.8451   3.9057
     3.9679   3.9894   4.0148   4.0270   4.0756   4.1300   4.1688   4.2033
     4.2081   4.2825   4.2945   4.3489   4.3758   4.4407   4.5328   4.6482
     4.6722   4.7119   4.7411   4.7769   4.8105   4.8386   4.8607   4.8822
     4.9070   4.9665   4.9969   5.0524   5.0995   5.1318   5.2011   5.2483
     5.2788   5.3015   5.3066   5.3392   5.3706   5.4000   5.4293   5.4426
     5.4638   5.4702   5.4899   5.5180   5.5306   5.5577   5.5792   5.5924
     5.5972   5.6322   5.7021   5.8229   5.8465   5.8780   5.9220   5.9359
     5.9501   5.9748   5.9903   6.0086   6.0482   6.0888   6.1095   6.1290
     6.1778   6.1794   6.1922   6.2332   6.2713   6.2843   6.2866   6.3229
     6.3291   6.3533   6.3643   6.3822   6.3924   6.4095   6.4500   6.4943
     6.6544   6.6818   6.8297   6.8494   9.4201   9.6559  11.6621  11.7248
    11.7932  11.8297  11.8958  11.9507  12.0228  12.0514  12.1355  12.1641
    12.3136  12.4925  12.5461  12.8157  13.7075  13.7352  13.7702  13.7881
    13.8186  13.8580  13.8923  13.9058  13.9541  14.0070  14.0448  14.1239
    14.5695  14.5729  14.6782  14.6838  14.8521  14.8600  14.9334  14.9897
    15.0008  15.1781  15.2684  15.3247  15.3517  15.3768  15.4593  15.5411
    15.5640  15.6036  15.6904  15.7749  15.8014  15.8286  15.8613  15.8744
    15.9082  15.9523  16.0043  16.1862  16.2379  16.2735  16.3206  16.3396
    16.4373  16.5432  16.6830  16.7209  16.8473  16.8890  16.9765  17.0078
    17.0766  17.1654  17.3078  17.4776  17.6218  17.6915  17.7254  17.7836
    17.9040  18.0014

     occupation numbers 
     1.0000   1.0000   1.0000   1.0000   1.0000   1.0000   1.0000   1.0000
     1.0000   1.0000   1.0000   1.0000   1.0000   1.0000   1.0000   1.0000
     1.0000   1.0000   1.0000   1.0000   1.0000   1.0000   1.0000   1.0000
     1.0000   1.0000   1.0000   1.0000   1.0000   1.0000   1.0000   1.0000
     1.0000   1.0000   1.0000   1.0000   1.0000   1.0000   1.0000   1.0000
     1.0000   1.0000   1.0000   1.0000   1.0000   1.0000   1.0000   1.0000
     1.0000   1.0000   1.0000   1.0000   1.0000   1.0000   1.0000   1.0000
     1.0000   1.0000   1.0000   1.0000   1.0000   1.0000   1.0000   1.0000
     1.0000   1.0000   1.0000   1.0000   1.0000   1.0000   1.0000   1.0000
     1.0000   1.0000   1.0000   1.0000   1.0000   1.0000   1.0000   1.0000
     1.0000   1.0000   1.0000   1.0000   1.0000   1.0000   1.0000   1.0000
     1.0000   1.0000   1.0000   1.0000   1.0000   1.0000   1.0000   1.0000
     1.0000   1.0000   1.0000   1.0000   1.0000   1.0000   1.0000   1.0000
     1.0000   1.0000   1.0000   1.0000   1.0000   1.0000   1.0000   1.0000
     1.0000   1.0000   1.0000   1.0000   1.0000   1.0000   1.0000   1.0000
     1.0000   1.0000   1.0000   1.0000   1.0000   1.0000   1.0000   1.0000
     1.0000   1.0000   1.0000   1.0000   1.0000   1.0000   1.0000   1.0000
     1.0000   1.0000   1.0000   1.0000   1.0000   1.0000   1.0000   1.0000
     1.0000   1.0000   1.0000   1.0000   1.0000   1.0000   1.0000   1.0000
     1.0000   1.0000   1.0000   1.0000   1.0000   1.0000   1.0000   1.0000
     1.0000   1.0000   1.0000   1.0000   1.0000   1.0000   1.0000   1.0000
     1.0000   1.0000   1.0000   1.0000   1.0000   1.0000   1.0000   1.0000
     1.0000   1.0000   1.0000   1.0000   1.0000   1.0000   1.0000   1.0000
     1.0000   1.0000   1.0000   1.0000   1.0000   1.0000   1.0000   1.0000
     1.0000   1.0000   1.0000   1.0000   1.0000   1.0000   1.0000   1.0000
     1.0000   1.0000   1.0000   1.0000   1.0000   1.0000   1.0000   1.0000
     1.0000   1.0000   1.0000   1.0000   1.0000   1.0000   1.0000   1.0000
     1.0000   1.0000   1.0000   1.0000   1.0000   1.0000   1.0000   1.0000
     1.0000   1.0000   1.0000   1.0000   1.0000   1.0000   1.0000   1.0000
     1.0000   1.0000   1.0000   1.0000   1.0000   1.0000   1.0000   1.0000
     1.0000   1.0000   1.0000   1.0000   1.0000   1.0000   1.0000   1.0000
     1.0000   1.0000   1.0000   1.0000   1.0000   1.0000   1.0000   1.0000
     1.0000   1.0000   1.0000   1.0000   1.0000   1.0000   1.0000   1.0000
     1.0000   1.0000   1.0000   1.0000   1.0000   1.0000   1.0000   1.0000
     1.0000   1.0000   1.0000   1.0000   1.0000   1.0000   1.0000   1.0000
     1.0000   1.0000   1.0000   1.0000   1.0000   1.0000   1.0000   1.0000
     1.0000   1.0000   1.0000   1.0000   1.0000   1.0000   1.0000   1.0000
     1.0000   1.0000   1.0000   1.0000   1.0000   1.0000   1.0000   1.0000
     1.0000   1.0000   1.0000   1.0000   1.0000   1.0000   1.0000   1.0000
     1.0000   1.0000   1.0000   1.0000   1.0000   1.0000   1.0000   1.0000
     1.0000   1.0000   1.0000   1.0000   1.0000   1.0000   1.0000   1.0000
     1.0000   1.0000   1.0000   1.0000   1.0000   1.0000   1.0000   1.0000
     1.0000   1.0000   1.0000   1.0000   1.0000   1.0000   1.0000   1.0000
     1.0000   1.0000   1.0000   1.0000   1.0000   1.0000   1.0000   1.0000
     1.0000   1.0000   1.0000   1.0000   1.0000   1.0000   1.0000   1.0000
     1.0000   1.0000   1.0000   1.0000   1.0000   1.0000   1.0000   1.0000
     1.0000   1.0000   1.0000   1.0000   1.0000   1.0000   1.0000   1.0000
     1.0000   1.0000   1.0000   1.0000   1.0000   1.0000   1.0000   1.0000
     1.0000   1.0000   1.0000   1.0000   0.0000   0.0000   0.0000   0.0000
     0.0000   0.0000   0.0000   0.0000   0.0000   0.0000   0.0000   0.0000
     0.0000   0.0000   0.0000   0.0000   0.0000   0.0000   0.0000   0.0000
     0.0000   0.0000   0.0000   0.0000   0.0000   0.0000   0.0000   0.0000
     0.0000   0.0000   0.0000   0.0000   0.0000   0.0000   0.0000   0.0000
     0.0000   0.0000   0.0000   0.0000   0.0000   0.0000   0.0000   0.0000
     0.0000   0.0000   0.0000   0.0000   0.0000   0.0000   0.0000   0.0000
     0.0000   0.0000   0.0000   0.0000   0.0000   0.0000   0.0000   0.0000
     0.0000   0.0000   0.0000   0.0000   0.0000   0.0000   0.0000   0.0000
     0.0000   0.0000   0.0000   0.0000   0.0000   0.0000   0.0000   0.0000
     0.0000   0.0000

          k = 0.0002 0.2885-0.0000 ( 45663 PWs)   bands (ev):

  -115.8724-115.8706-115.8685-115.8671-115.8645-115.8638-115.8637-115.8636
  -115.8634-115.8623-115.8621-115.8616-115.8593-115.8537-115.8529-115.8517
  -115.8516-115.8450-115.8417-115.8313 -70.2330 -70.2294 -70.2286 -70.2283
   -70.2274 -70.2249 -70.2247 -70.2236 -70.2231 -70.2231 -70.2227 -70.2223
   -70.2221 -70.2221 -70.2220 -70.2218 -70.2215 -70.2213 -70.2213 -70.2210
   -70.2208 -70.2207 -70.2203 -70.2196 -70.2194 -70.2187 -70.2187 -70.2176
   -70.2173 -70.2168 -70.2162 -70.2155 -70.2153 -70.2142 -70.2139 -70.2139
   -70.2137 -70.2132 -70.2118 -70.2106 -70.2104 -70.2101 -70.2100 -70.2098
   -70.2097 -70.2075 -70.2075 -70.2056 -70.2052 -70.2050 -70.2048 -70.2032
   -70.2027 -70.2021 -70.1980 -70.1935 -70.1934 -70.1910 -70.1884 -70.1820
   -65.3590 -65.3474 -65.3349 -65.3317 -65.3187 -65.3123 -65.3098 -65.3073
   -65.3043 -65.2981 -65.2957 -65.2882 -65.2856 -65.2854 -65.2768 -65.2682
   -32.3475 -32.3425 -32.3418 -32.3374 -32.3336 -32.3312 -32.3230 -32.3215
   -32.3213 -32.3188 -32.3179 -32.3135 -32.3091 -32.3057 -32.3053 -32.3029
   -32.3016 -32.3004 -32.2996 -32.2989 -32.2951 -32.2937 -32.2929 -32.2899
   -32.2895 -32.2877 -32.2865 -32.2860 -32.2853 -32.2843 -32.2808 -32.2804
   -32.2775 -32.2769 -32.2754 -32.2745 -32.2729 -32.2722 -32.2699 -32.2699
   -32.2658 -32.2655 -32.2647 -32.2607 -32.2562 -32.2550 -32.2502 -32.2480
   -10.3683 -10.1147 -10.0927 -10.0358  -9.9626  -9.9455  -9.8618  -9.8575
    -9.8331  -9.8009  -9.7897  -9.7624  -9.7298  -9.7159  -9.6915  -9.6694
    -9.6451  -9.6333  -9.6069  -9.5986  -9.5803  -9.5491  -9.5266  -9.5220
    -9.5019  -9.4763  -9.4681  -9.4439  -9.3996  -9.3611  -9.3399  -9.3260
    -9.3015  -9.2861  -9.2342  -9.1180   1.3946   1.4207   1.4507   1.4640
     1.4860   1.4939   1.5116   1.5295   1.5533   1.5721   1.5965   1.6157
     1.6507   1.6604   1.6809   1.6877   1.7155   1.7255   1.7338   1.7544
     1.7628   1.7880   1.8120   1.8170   1.8257   1.8394   1.8576   1.8650
     1.8844   1.8933   1.9026   1.9135   1.9223   1.9451   1.9618   1.9681
     1.9818   1.9986   2.0028   2.0191   2.0288   2.0395   2.0589   2.0628
     2.0832   2.0927   2.1026   2.1214   2.1231   2.1631   2.1735   2.1991
     2.2191   2.2432   2.2555   2.2745   2.2896   2.2968   2.3178   2.3415
     2.3639   2.3790   2.3862   2.4095   2.4216   2.4390   2.4513   2.4771
     2.4804   2.4956   2.5180   2.5317   2.5443   2.5496   2.5702   2.5814
     2.6009   2.6112   2.6253   2.6453   2.6743   2.6808   2.7102   2.7189
     2.7332   2.7447   2.7543   2.7668   2.7770   2.7942   2.8083   2.8189
     2.8324   2.8463   2.8526   2.8690   2.8762   2.8893   2.9062   2.9213
     2.9459   3.0294   3.0703   3.1411   3.1921   3.2278   3.2623   3.2820
     3.3033   3.3578   3.3818   3.4210   3.4365   3.4839   3.5496   3.5724
     3.6308   3.6521   3.7241   3.7585   3.7873   3.8406   3.9064   3.9382
     4.0002   4.0551   4.0759   4.1169   4.1329   4.2102   4.2302   4.2925
     4.3154   4.3521   4.3911   4.4402   4.4678   4.5049   4.5451   4.5595
     4.5880   4.6329   4.6809   4.6968   4.7778   4.8014   4.8609   4.9150
     4.9817   5.0161   5.0819   5.1368   5.2064   5.2406   5.2533   5.2926
     5.3296   5.3527   5.3721   5.3882   5.4247   5.4465   5.4768   5.4850
     5.5151   5.5219   5.5573   5.5640   5.5848   5.6318   5.6483   5.6598
     5.6849   5.6992   5.7408   5.7494   5.7706   5.7973   5.8412   5.8641
     5.8909   5.9236   5.9322   5.9414   5.9654   5.9855   5.9955   6.0100
     6.0299   6.0687   6.0882   6.1175   6.1445   6.1856   6.2068   6.2384
     6.2753   6.3303   6.3778   6.4042   6.4094   6.4608   6.4859   6.5047
     6.5731   6.5865   6.7796   6.8226   9.0046  10.8216  11.1710  11.2373
    11.4837  11.6254  12.2211  12.2582  12.3271  12.4811  12.5933  12.6226
    12.6797  12.7512  12.8420  12.9386  12.9794  13.0484  13.1082  13.2193
    13.2548  13.6050  14.1093  14.1983  14.2592  14.3082  14.3469  14.4010
    14.4712  14.4959  14.5608  14.6346  14.6829  14.7128  14.7808  14.8803
    14.9502  15.0579  15.0959  15.1296  15.2210  15.2692  15.3131  15.3900
    15.4377  15.5781  15.6720  15.7633  15.8229  15.9048  15.9901  16.0306
    16.1104  16.1451  16.2062  16.2789  16.3802  16.3956  16.4262  16.5270
    16.6113  16.7622  16.8197  16.9537  17.1325  17.1465  17.1988  17.2922
    17.3380  17.4343  17.4842  17.5514  17.6682  17.8226  17.8476  17.9304
    17.9921  18.0567

     occupation numbers 
     1.0000   1.0000   1.0000   1.0000   1.0000   1.0000   1.0000   1.0000
     1.0000   1.0000   1.0000   1.0000   1.0000   1.0000   1.0000   1.0000
     1.0000   1.0000   1.0000   1.0000   1.0000   1.0000   1.0000   1.0000
     1.0000   1.0000   1.0000   1.0000   1.0000   1.0000   1.0000   1.0000
     1.0000   1.0000   1.0000   1.0000   1.0000   1.0000   1.0000   1.0000
     1.0000   1.0000   1.0000   1.0000   1.0000   1.0000   1.0000   1.0000
     1.0000   1.0000   1.0000   1.0000   1.0000   1.0000   1.0000   1.0000
     1.0000   1.0000   1.0000   1.0000   1.0000   1.0000   1.0000   1.0000
     1.0000   1.0000   1.0000   1.0000   1.0000   1.0000   1.0000   1.0000
     1.0000   1.0000   1.0000   1.0000   1.0000   1.0000   1.0000   1.0000
     1.0000   1.0000   1.0000   1.0000   1.0000   1.0000   1.0000   1.0000
     1.0000   1.0000   1.0000   1.0000   1.0000   1.0000   1.0000   1.0000
     1.0000   1.0000   1.0000   1.0000   1.0000   1.0000   1.0000   1.0000
     1.0000   1.0000   1.0000   1.0000   1.0000   1.0000   1.0000   1.0000
     1.0000   1.0000   1.0000   1.0000   1.0000   1.0000   1.0000   1.0000
     1.0000   1.0000   1.0000   1.0000   1.0000   1.0000   1.0000   1.0000
     1.0000   1.0000   1.0000   1.0000   1.0000   1.0000   1.0000   1.0000
     1.0000   1.0000   1.0000   1.0000   1.0000   1.0000   1.0000   1.0000
     1.0000   1.0000   1.0000   1.0000   1.0000   1.0000   1.0000   1.0000
     1.0000   1.0000   1.0000   1.0000   1.0000   1.0000   1.0000   1.0000
     1.0000   1.0000   1.0000   1.0000   1.0000   1.0000   1.0000   1.0000
     1.0000   1.0000   1.0000   1.0000   1.0000   1.0000   1.0000   1.0000
     1.0000   1.0000   1.0000   1.0000   1.0000   1.0000   1.0000   1.0000
     1.0000   1.0000   1.0000   1.0000   1.0000   1.0000   1.0000   1.0000
     1.0000   1.0000   1.0000   1.0000   1.0000   1.0000   1.0000   1.0000
     1.0000   1.0000   1.0000   1.0000   1.0000   1.0000   1.0000   1.0000
     1.0000   1.0000   1.0000   1.0000   1.0000   1.0000   1.0000   1.0000
     1.0000   1.0000   1.0000   1.0000   1.0000   1.0000   1.0000   1.0000
     1.0000   1.0000   1.0000   1.0000   1.0000   1.0000   1.0000   1.0000
     1.0000   1.0000   1.0000   1.0000   1.0000   1.0000   1.0000   1.0000
     1.0000   1.0000   1.0000   1.0000   1.0000   1.0000   1.0000   1.0000
     1.0000   1.0000   1.0000   1.0000   1.0000   1.0000   1.0000   1.0000
     1.0000   1.0000   1.0000   1.0000   1.0000   1.0000   1.0000   1.0000
     1.0000   1.0000   1.0000   1.0000   1.0000   1.0000   1.0000   1.0000
     1.0000   1.0000   1.0000   1.0000   1.0000   1.0000   1.0000   1.0000
     1.0000   1.0000   1.0000   1.0000   1.0000   1.0000   1.0000   1.0000
     1.0000   1.0000   1.0000   1.0000   1.0000   1.0000   1.0000   1.0000
     1.0000   1.0000   1.0000   1.0000   1.0000   1.0000   1.0000   1.0000
     1.0000   1.0000   1.0000   1.0000   1.0000   1.0000   1.0000   1.0000
     1.0000   1.0000   1.0000   1.0000   1.0000   1.0000   1.0000   1.0000
     1.0000   1.0000   1.0000   1.0000   1.0000   1.0000   1.0000   1.0000
     1.0000   1.0000   1.0000   1.0000   1.0000   1.0000   1.0000   1.0000
     1.0000   1.0000   1.0000   1.0000   1.0000   1.0000   1.0000   1.0000
     1.0000   1.0000   1.0000   1.0000   1.0000   1.0000   1.0000   1.0000
     1.0000   1.0000   1.0000   1.0000   1.0000   1.0000   1.0000   1.0000
     1.0000   1.0000   1.0000   1.0000   1.0000   1.0000   1.0000   1.0000
     1.0000   1.0000   1.0000   1.0000   1.0000   1.0000   1.0000   1.0000
     1.0000   1.0000   1.0000   1.0000   1.0000   1.0000   1.0000   1.0000
     1.0000   1.0000   1.0000   1.0000   0.0000   0.0000   0.0000   0.0000
     0.0000   0.0000   0.0000   0.0000   0.0000   0.0000   0.0000   0.0000
     0.0000   0.0000   0.0000   0.0000   0.0000   0.0000   0.0000   0.0000
     0.0000   0.0000   0.0000   0.0000   0.0000   0.0000   0.0000   0.0000
     0.0000   0.0000   0.0000   0.0000   0.0000   0.0000   0.0000   0.0000
     0.0000   0.0000   0.0000   0.0000   0.0000   0.0000   0.0000   0.0000
     0.0000   0.0000   0.0000   0.0000   0.0000   0.0000   0.0000   0.0000
     0.0000   0.0000   0.0000   0.0000   0.0000   0.0000   0.0000   0.0000
     0.0000   0.0000   0.0000   0.0000   0.0000   0.0000   0.0000   0.0000
     0.0000   0.0000   0.0000   0.0000   0.0000   0.0000   0.0000   0.0000
     0.0000   0.0000

          k = 0.0000 0.2884 0.2337 ( 45658 PWs)   bands (ev):

  -115.8724-115.8706-115.8685-115.8671-115.8645-115.8638-115.8637-115.8636
  -115.8634-115.8623-115.8621-115.8616-115.8593-115.8537-115.8529-115.8517
  -115.8516-115.8450-115.8417-115.8313 -70.2330 -70.2294 -70.2286 -70.2283
   -70.2274 -70.2249 -70.2247 -70.2236 -70.2231 -70.2231 -70.2227 -70.2223
   -70.2221 -70.2221 -70.2220 -70.2218 -70.2215 -70.2213 -70.2213 -70.2210
   -70.2208 -70.2207 -70.2203 -70.2196 -70.2194 -70.2187 -70.2187 -70.2176
   -70.2173 -70.2168 -70.2162 -70.2155 -70.2153 -70.2142 -70.2139 -70.2139
   -70.2137 -70.2132 -70.2118 -70.2106 -70.2104 -70.2101 -70.2100 -70.2098
   -70.2097 -70.2075 -70.2075 -70.2056 -70.2052 -70.2050 -70.2048 -70.2032
   -70.2027 -70.2021 -70.1980 -70.1935 -70.1934 -70.1910 -70.1884 -70.1820
   -65.3590 -65.3474 -65.3349 -65.3317 -65.3187 -65.3123 -65.3098 -65.3073
   -65.3043 -65.2981 -65.2957 -65.2882 -65.2856 -65.2854 -65.2768 -65.2682
   -32.3475 -32.3425 -32.3418 -32.3374 -32.3336 -32.3312 -32.3230 -32.3215
   -32.3213 -32.3189 -32.3179 -32.3135 -32.3091 -32.3057 -32.3053 -32.3029
   -32.3016 -32.3005 -32.2995 -32.2989 -32.2951 -32.2937 -32.2929 -32.2899
   -32.2895 -32.2877 -32.2865 -32.2860 -32.2853 -32.2843 -32.2808 -32.2804
   -32.2775 -32.2769 -32.2754 -32.2745 -32.2729 -32.2722 -32.2699 -32.2699
   -32.2658 -32.2655 -32.2647 -32.2607 -32.2562 -32.2550 -32.2502 -32.2480
   -10.3484 -10.1628 -10.0857 -10.0267  -9.9739  -9.9158  -9.8930  -9.8413
    -9.8383  -9.8026  -9.7855  -9.7625  -9.7390  -9.7095  -9.6968  -9.6587
    -9.6448  -9.6348  -9.6050  -9.5871  -9.5789  -9.5463  -9.5255  -9.5219
    -9.4986  -9.4747  -9.4710  -9.4399  -9.3997  -9.3639  -9.3392  -9.3291
    -9.3054  -9.2891  -9.2356  -9.1191   1.4031   1.4412   1.4591   1.4765
     1.4904   1.5103   1.5219   1.5345   1.5668   1.5761   1.6062   1.6248
     1.6553   1.6714   1.6884   1.6949   1.7209   1.7259   1.7345   1.7519
     1.7615   1.7969   1.8088   1.8163   1.8302   1.8346   1.8520   1.8657
     1.8732   1.8921   1.9003   1.9154   1.9277   1.9319   1.9555   1.9728
     1.9858   1.9962   2.0058   2.0273   2.0288   2.0376   2.0485   2.0605
     2.0776   2.0867   2.1002   2.1083   2.1160   2.1566   2.1724   2.1883
     2.1979   2.2159   2.2410   2.2626   2.2688   2.2820   2.2988   2.3278
     2.3374   2.3544   2.3704   2.3934   2.3983   2.4250   2.4341   2.4533
     2.4728   2.4848   2.4954   2.5086   2.5329   2.5414   2.5594   2.5838
     2.6000   2.6123   2.6312   2.6411   2.6646   2.6835   2.7046   2.7120
     2.7319   2.7466   2.7578   2.7804   2.7877   2.8015   2.8128   2.8194
     2.8353   2.8387   2.8556   2.8637   2.8733   2.8980   2.9146   2.9323
     2.9888   3.0691   3.0992   3.1741   3.2165   3.2266   3.2627   3.3006
     3.3309   3.3582   3.4036   3.4250   3.4632   3.5126   3.5473   3.5644
     3.6552   3.6778   3.7410   3.7836   3.8078   3.8530   3.8731   3.9480
     3.9974   4.0434   4.0831   4.1220   4.1396   4.1993   4.2171   4.2440
     4.2933   4.3395   4.3799   4.4093   4.4439   4.4799   4.5344   4.5880
     4.6744   4.7172   4.8065   4.8365   4.8551   4.8908   4.9192   4.9538
     5.0200   5.0409   5.0862   5.1060   5.1234   5.1548   5.1763   5.2144
     5.2482   5.2877   5.2985   5.3159   5.3516   5.3858   5.4010   5.4380
     5.4666   5.4773   5.5167   5.5434   5.5673   5.6032   5.6080   5.6641
     5.6765   5.6972   5.7397   5.7648   5.7913   5.8088   5.8542   5.8701
     5.8916   5.9361   5.9483   5.9737   5.9902   6.0166   6.0242   6.0392
     6.0642   6.1012   6.1180   6.1789   6.1937   6.2065   6.2166   6.2666
     6.2935   6.3245   6.3515   6.3747   6.4087   6.4315   6.4680   6.5076
     6.5808   6.6130   6.7535   6.8107   9.2352  10.5063  10.9321  11.3976
    11.6114  11.7346  11.9308  12.1386  12.1885  12.3859  12.5125  12.6100
    12.7033  12.7828  12.9173  13.0424  13.1390  13.3100  13.3764  13.4601
    13.5078  13.6199  14.0211  14.1197  14.2096  14.2320  14.2955  14.3547
    14.3838  14.4257  14.4460  14.4837  14.5173  14.5832  14.6162  14.6471
    14.9871  15.1030  15.1973  15.2580  15.3439  15.4145  15.4723  15.5288
    15.5583  15.5701  15.6395  15.7570  15.7787  15.8784  15.9584  16.0873
    16.1522  16.1917  16.2525  16.2740  16.3481  16.3942  16.5027  16.5535
    16.6119  16.7201  16.8337  16.9233  17.0431  17.0539  17.1447  17.1908
    17.2247  17.3295  17.4218  17.5271  17.5708  17.6998  17.8351  17.8784
    17.9682  18.0555

     occupation numbers 
     1.0000   1.0000   1.0000   1.0000   1.0000   1.0000   1.0000   1.0000
     1.0000   1.0000   1.0000   1.0000   1.0000   1.0000   1.0000   1.0000
     1.0000   1.0000   1.0000   1.0000   1.0000   1.0000   1.0000   1.0000
     1.0000   1.0000   1.0000   1.0000   1.0000   1.0000   1.0000   1.0000
     1.0000   1.0000   1.0000   1.0000   1.0000   1.0000   1.0000   1.0000
     1.0000   1.0000   1.0000   1.0000   1.0000   1.0000   1.0000   1.0000
     1.0000   1.0000   1.0000   1.0000   1.0000   1.0000   1.0000   1.0000
     1.0000   1.0000   1.0000   1.0000   1.0000   1.0000   1.0000   1.0000
     1.0000   1.0000   1.0000   1.0000   1.0000   1.0000   1.0000   1.0000
     1.0000   1.0000   1.0000   1.0000   1.0000   1.0000   1.0000   1.0000
     1.0000   1.0000   1.0000   1.0000   1.0000   1.0000   1.0000   1.0000
     1.0000   1.0000   1.0000   1.0000   1.0000   1.0000   1.0000   1.0000
     1.0000   1.0000   1.0000   1.0000   1.0000   1.0000   1.0000   1.0000
     1.0000   1.0000   1.0000   1.0000   1.0000   1.0000   1.0000   1.0000
     1.0000   1.0000   1.0000   1.0000   1.0000   1.0000   1.0000   1.0000
     1.0000   1.0000   1.0000   1.0000   1.0000   1.0000   1.0000   1.0000
     1.0000   1.0000   1.0000   1.0000   1.0000   1.0000   1.0000   1.0000
     1.0000   1.0000   1.0000   1.0000   1.0000   1.0000   1.0000   1.0000
     1.0000   1.0000   1.0000   1.0000   1.0000   1.0000   1.0000   1.0000
     1.0000   1.0000   1.0000   1.0000   1.0000   1.0000   1.0000   1.0000
     1.0000   1.0000   1.0000   1.0000   1.0000   1.0000   1.0000   1.0000
     1.0000   1.0000   1.0000   1.0000   1.0000   1.0000   1.0000   1.0000
     1.0000   1.0000   1.0000   1.0000   1.0000   1.0000   1.0000   1.0000
     1.0000   1.0000   1.0000   1.0000   1.0000   1.0000   1.0000   1.0000
     1.0000   1.0000   1.0000   1.0000   1.0000   1.0000   1.0000   1.0000
     1.0000   1.0000   1.0000   1.0000   1.0000   1.0000   1.0000   1.0000
     1.0000   1.0000   1.0000   1.0000   1.0000   1.0000   1.0000   1.0000
     1.0000   1.0000   1.0000   1.0000   1.0000   1.0000   1.0000   1.0000
     1.0000   1.0000   1.0000   1.0000   1.0000   1.0000   1.0000   1.0000
     1.0000   1.0000   1.0000   1.0000   1.0000   1.0000   1.0000   1.0000
     1.0000   1.0000   1.0000   1.0000   1.0000   1.0000   1.0000   1.0000
     1.0000   1.0000   1.0000   1.0000   1.0000   1.0000   1.0000   1.0000
     1.0000   1.0000   1.0000   1.0000   1.0000   1.0000   1.0000   1.0000
     1.0000   1.0000   1.0000   1.0000   1.0000   1.0000   1.0000   1.0000
     1.0000   1.0000   1.0000   1.0000   1.0000   1.0000   1.0000   1.0000
     1.0000   1.0000   1.0000   1.0000   1.0000   1.0000   1.0000   1.0000
     1.0000   1.0000   1.0000   1.0000   1.0000   1.0000   1.0000   1.0000
     1.0000   1.0000   1.0000   1.0000   1.0000   1.0000   1.0000   1.0000
     1.0000   1.0000   1.0000   1.0000   1.0000   1.0000   1.0000   1.0000
     1.0000   1.0000   1.0000   1.0000   1.0000   1.0000   1.0000   1.0000
     1.0000   1.0000   1.0000   1.0000   1.0000   1.0000   1.0000   1.0000
     1.0000   1.0000   1.0000   1.0000   1.0000   1.0000   1.0000   1.0000
     1.0000   1.0000   1.0000   1.0000   1.0000   1.0000   1.0000   1.0000
     1.0000   1.0000   1.0000   1.0000   1.0000   1.0000   1.0000   1.0000
     1.0000   1.0000   1.0000   1.0000   1.0000   1.0000   1.0000   1.0000
     1.0000   1.0000   1.0000   1.0000   1.0000   1.0000   1.0000   1.0000
     1.0000   1.0000   1.0000   1.0000   1.0000   1.0000   1.0000   1.0000
     1.0000   1.0000   1.0000   1.0000   1.0000   1.0000   1.0000   1.0000
     1.0000   1.0000   1.0000   1.0000   0.0000   0.0000   0.0000   0.0000
     0.0000   0.0000   0.0000   0.0000   0.0000   0.0000   0.0000   0.0000
     0.0000   0.0000   0.0000   0.0000   0.0000   0.0000   0.0000   0.0000
     0.0000   0.0000   0.0000   0.0000   0.0000   0.0000   0.0000   0.0000
     0.0000   0.0000   0.0000   0.0000   0.0000   0.0000   0.0000   0.0000
     0.0000   0.0000   0.0000   0.0000   0.0000   0.0000   0.0000   0.0000
     0.0000   0.0000   0.0000   0.0000   0.0000   0.0000   0.0000   0.0000
     0.0000   0.0000   0.0000   0.0000   0.0000   0.0000   0.0000   0.0000
     0.0000   0.0000   0.0000   0.0000   0.0000   0.0000   0.0000   0.0000
     0.0000   0.0000   0.0000   0.0000   0.0000   0.0000   0.0000   0.0000
     0.0000   0.0000

          k = 0.0005 0.2885-0.4674 ( 45628 PWs)   bands (ev):

  -115.8724-115.8706-115.8685-115.8671-115.8645-115.8638-115.8637-115.8636
  -115.8634-115.8623-115.8621-115.8616-115.8593-115.8537-115.8529-115.8517
  -115.8516-115.8450-115.8417-115.8313 -70.2330 -70.2294 -70.2286 -70.2283
   -70.2274 -70.2249 -70.2247 -70.2236 -70.2231 -70.2231 -70.2227 -70.2223
   -70.2221 -70.2221 -70.2220 -70.2218 -70.2215 -70.2213 -70.2213 -70.2210
   -70.2208 -70.2207 -70.2203 -70.2196 -70.2194 -70.2187 -70.2187 -70.2176
   -70.2173 -70.2168 -70.2162 -70.2155 -70.2153 -70.2142 -70.2139 -70.2139
   -70.2137 -70.2132 -70.2118 -70.2106 -70.2104 -70.2101 -70.2100 -70.2098
   -70.2097 -70.2075 -70.2075 -70.2056 -70.2052 -70.2050 -70.2048 -70.2032
   -70.2027 -70.2021 -70.1980 -70.1935 -70.1934 -70.1910 -70.1884 -70.1820
   -65.3590 -65.3474 -65.3349 -65.3317 -65.3187 -65.3123 -65.3098 -65.3073
   -65.3043 -65.2981 -65.2957 -65.2882 -65.2856 -65.2854 -65.2768 -65.2682
   -32.3475 -32.3425 -32.3418 -32.3374 -32.3336 -32.3312 -32.3230 -32.3215
   -32.3212 -32.3189 -32.3179 -32.3135 -32.3091 -32.3057 -32.3054 -32.3029
   -32.3016 -32.3005 -32.2995 -32.2989 -32.2950 -32.2937 -32.2929 -32.2900
   -32.2895 -32.2877 -32.2865 -32.2860 -32.2853 -32.2843 -32.2809 -32.2804
   -32.2775 -32.2769 -32.2754 -32.2745 -32.2729 -32.2722 -32.2699 -32.2699
   -32.2658 -32.2655 -32.2647 -32.2607 -32.2562 -32.2550 -32.2502 -32.2480
   -10.3165 -10.2183 -10.0719 -10.0098  -9.9788  -9.9410  -9.8986  -9.8372
    -9.8270  -9.8006  -9.7904  -9.7568  -9.7398  -9.7064  -9.6883  -9.6579
    -9.6524  -9.6368  -9.6147  -9.5798  -9.5686  -9.5422  -9.5277  -9.5083
    -9.4949  -9.4866  -9.4649  -9.4338  -9.4022  -9.3680  -9.3425  -9.3298
    -9.3094  -9.2908  -9.2371  -9.1202   1.4131   1.4534   1.4715   1.4879
     1.5005   1.5258   1.5343   1.5508   1.5763   1.5817   1.6185   1.6276
     1.6650   1.6859   1.6895   1.7026   1.7151   1.7262   1.7502   1.7597
     1.7724   1.7806   1.8093   1.8154   1.8244   1.8320   1.8439   1.8568
     1.8651   1.8893   1.9037   1.9161   1.9220   1.9386   1.9606   1.9660
     1.9868   1.9945   2.0020   2.0206   2.0299   2.0384   2.0478   2.0650
     2.0771   2.0851   2.1001   2.1051   2.1152   2.1343   2.1562   2.1650
     2.1815   2.1899   2.2165   2.2338   2.2540   2.2591   2.2922   2.3083
     2.3147   2.3356   2.3401   2.3606   2.3881   2.4028   2.4201   2.4474
     2.4637   2.4852   2.4923   2.5073   2.5209   2.5290   2.5497   2.5703
     2.5899   2.6100   2.6354   2.6542   2.6749   2.6894   2.7120   2.7212
     2.7299   2.7504   2.7624   2.7760   2.7900   2.8008   2.8148   2.8307
     2.8372   2.8466   2.8519   2.8620   2.8804   2.8856   2.9266   2.9401
     3.0317   3.0732   3.1259   3.1855   3.2104   3.2606   3.2917   3.3091
     3.3552   3.3835   3.4157   3.4598   3.4930   3.5248   3.5414   3.5687
     3.6340   3.7094   3.7431   3.7659   3.8070   3.8555   3.9037   3.9384
     3.9744   4.0208   4.0520   4.1076   4.1473   4.1688   4.2063   4.2448
     4.2865   4.3373   4.3921   4.4953   4.5414   4.5756   4.6090   4.6837
     4.7392   4.7557   4.8123   4.8392   4.8678   4.8911   4.9195   4.9669
     4.9854   5.0183   5.0373   5.0858   5.1055   5.1491   5.1576   5.1821
     5.2047   5.2246   5.2578   5.2642   5.2914   5.3173   5.3435   5.3732
     5.3884   5.4535   5.4854   5.5009   5.5267   5.5755   5.6157   5.6388
     5.6851   5.7012   5.7632   5.7733   5.8135   5.8372   5.8488   5.8828
     5.9141   5.9408   5.9667   5.9807   5.9934   6.0239   6.0668   6.0784
     6.1111   6.1144   6.1504   6.1657   6.1967   6.2112   6.2421   6.2787
     6.2881   6.3293   6.3367   6.3613   6.4118   6.4368   6.4592   6.4833
     6.6225   6.6398   6.7256   6.7983   9.6933   9.9169  11.1121  11.2875
    11.5884  11.7247  11.7907  11.9657  12.2920  12.3854  12.4849  12.5699
    12.6648  12.7932  12.8576  13.0475  13.5546  13.6747  13.7418  13.7777
    13.8276  13.8591  13.8917  13.9074  13.9601  14.0105  14.0582  14.1132
    14.1453  14.2765  14.3284  14.3617  14.4834  14.5258  14.5560  14.5944
    15.1575  15.1900  15.2520  15.3537  15.3854  15.4439  15.5152  15.5856
    15.6161  15.6681  15.7186  15.7781  15.7924  15.8372  15.9597  15.9827
    16.0809  16.1995  16.2607  16.3448  16.4188  16.5014  16.5370  16.6028
    16.6453  16.7041  16.7616  16.8208  16.9194  16.9956  17.0770  17.1272
    17.1728  17.2764  17.3366  17.4934  17.5637  17.6922  17.7792  17.8503
    17.9390  17.9516

     occupation numbers 
     1.0000   1.0000   1.0000   1.0000   1.0000   1.0000   1.0000   1.0000
     1.0000   1.0000   1.0000   1.0000   1.0000   1.0000   1.0000   1.0000
     1.0000   1.0000   1.0000   1.0000   1.0000   1.0000   1.0000   1.0000
     1.0000   1.0000   1.0000   1.0000   1.0000   1.0000   1.0000   1.0000
     1.0000   1.0000   1.0000   1.0000   1.0000   1.0000   1.0000   1.0000
     1.0000   1.0000   1.0000   1.0000   1.0000   1.0000   1.0000   1.0000
     1.0000   1.0000   1.0000   1.0000   1.0000   1.0000   1.0000   1.0000
     1.0000   1.0000   1.0000   1.0000   1.0000   1.0000   1.0000   1.0000
     1.0000   1.0000   1.0000   1.0000   1.0000   1.0000   1.0000   1.0000
     1.0000   1.0000   1.0000   1.0000   1.0000   1.0000   1.0000   1.0000
     1.0000   1.0000   1.0000   1.0000   1.0000   1.0000   1.0000   1.0000
     1.0000   1.0000   1.0000   1.0000   1.0000   1.0000   1.0000   1.0000
     1.0000   1.0000   1.0000   1.0000   1.0000   1.0000   1.0000   1.0000
     1.0000   1.0000   1.0000   1.0000   1.0000   1.0000   1.0000   1.0000
     1.0000   1.0000   1.0000   1.0000   1.0000   1.0000   1.0000   1.0000
     1.0000   1.0000   1.0000   1.0000   1.0000   1.0000   1.0000   1.0000
     1.0000   1.0000   1.0000   1.0000   1.0000   1.0000   1.0000   1.0000
     1.0000   1.0000   1.0000   1.0000   1.0000   1.0000   1.0000   1.0000
     1.0000   1.0000   1.0000   1.0000   1.0000   1.0000   1.0000   1.0000
     1.0000   1.0000   1.0000   1.0000   1.0000   1.0000   1.0000   1.0000
     1.0000   1.0000   1.0000   1.0000   1.0000   1.0000   1.0000   1.0000
     1.0000   1.0000   1.0000   1.0000   1.0000   1.0000   1.0000   1.0000
     1.0000   1.0000   1.0000   1.0000   1.0000   1.0000   1.0000   1.0000
     1.0000   1.0000   1.0000   1.0000   1.0000   1.0000   1.0000   1.0000
     1.0000   1.0000   1.0000   1.0000   1.0000   1.0000   1.0000   1.0000
     1.0000   1.0000   1.0000   1.0000   1.0000   1.0000   1.0000   1.0000
     1.0000   1.0000   1.0000   1.0000   1.0000   1.0000   1.0000   1.0000
     1.0000   1.0000   1.0000   1.0000   1.0000   1.0000   1.0000   1.0000
[...]
    -9.8165  -9.7823  -9.7570  -9.7450  -9.7327  -9.7048  -9.6964  -9.6749
    -9.6493  -9.6262  -9.6086  -9.5798  -9.5671  -9.5497  -9.5331  -9.5177
    -9.5117  -9.4785  -9.4671  -9.4399  -9.3901  -9.3514  -9.3403  -9.3334
    -9.3189  -9.2953  -9.2266  -9.1184   1.4261   1.4641   1.4831   1.5048
     1.5149   1.5191   1.5541   1.5661   1.5718   1.5994   1.6129   1.6260
     1.6453   1.6542   1.6723   1.6870   1.7012   1.7120   1.7408   1.7546
     1.7660   1.7745   1.8001   1.8154   1.8341   1.8417   1.8556   1.8725
     1.8863   1.8922   1.9015   1.9165   1.9320   1.9394   1.9579   1.9669
     1.9763   1.9865   1.9973   2.0052   2.0140   2.0288   2.0447   2.0510
     2.0619   2.0737   2.0861   2.1006   2.1189   2.1337   2.1436   2.1565
     2.1703   2.1802   2.1998   2.2427   2.2462   2.2836   2.2940   2.3142
     2.3274   2.3517   2.3643   2.3764   2.3885   2.4121   2.4361   2.4532
     2.4628   2.4810   2.4977   2.5109   2.5407   2.5572   2.5763   2.5905
     2.6022   2.6095   2.6293   2.6536   2.6618   2.6782   2.6963   2.7121
     2.7256   2.7292   2.7510   2.7705   2.7849   2.7958   2.7987   2.8245
     2.8311   2.8449   2.8573   2.8795   2.8917   2.8977   2.9178   2.9330
     2.9739   3.0348   3.0722   3.1272   3.1349   3.2073   3.2460   3.2982
     3.3068   3.3150   3.3665   3.4024   3.4805   3.4985   3.5350   3.5742
     3.6304   3.6737   3.7234   3.7777   3.8268   3.8713   3.9413   3.9744
     4.0277   4.0747   4.1286   4.1906   4.2753   4.3247   4.3536   4.4247
     4.4626   4.4936   4.5276   4.5465   4.5674   4.5937   4.6365   4.6669
     4.6987   4.7330   4.7593   4.7845   4.7955   4.8250   4.8706   4.8810
     4.9333   5.0228   5.1063   5.1111   5.1522   5.1864   5.2149   5.2288
     5.2668   5.2908   5.3193   5.3312   5.3558   5.3827   5.4002   5.4394
     5.4544   5.4841   5.4940   5.5108   5.5733   5.5897   5.6307   5.6490
     5.6649   5.6947   5.7239   5.7477   5.7673   5.7747   5.8160   5.8369
     5.8710   5.8823   5.9048   5.9266   5.9460   5.9512   5.9894   6.0071
     6.0323   6.0439   6.0819   6.1071   6.1227   6.1430   6.1750   6.2039
     6.2214   6.2798   6.2941   6.3132   6.3428   6.4017   6.4454   6.4919
     6.6155   6.6748   6.6838   6.7172   9.9636  10.0608  10.9639  11.1279
    11.4114  11.5518  12.0137  12.2124  12.4134  12.5275  12.8122  13.0458
    13.0898  13.1299  13.1736  13.2510  13.3315  13.3552  13.3747  13.4696
    13.5788  13.6120  13.6634  13.8067  13.8625  13.8920  13.9301  13.9709
    14.0235  14.0826  14.4042  14.4457  14.4690  14.4953  14.5822  14.6658
    14.8062  15.1420  15.1752  15.2098  15.3144  15.4536  15.4879  15.5167
    15.5404  15.6199  15.6809  15.7951  15.8651  15.9326  16.0678  16.1210
    16.2256  16.2957  16.4365  16.5214  16.5636  16.7071  16.7525  16.8528
    16.8621  16.8926  16.9754  17.0254  17.0878  17.1212  17.1969  17.2198
    17.3342  17.4168  17.5819  17.6286  17.7117  17.7990  17.8681  17.9683
    18.0198  18.0780

     occupation numbers 
     1.0000   1.0000   1.0000   1.0000   1.0000   1.0000   1.0000   1.0000
     1.0000   1.0000   1.0000   1.0000   1.0000   1.0000   1.0000   1.0000
     1.0000   1.0000   1.0000   1.0000   1.0000   1.0000   1.0000   1.0000
     1.0000   1.0000   1.0000   1.0000   1.0000   1.0000   1.0000   1.0000
     1.0000   1.0000   1.0000   1.0000   1.0000   1.0000   1.0000   1.0000
     1.0000   1.0000   1.0000   1.0000   1.0000   1.0000   1.0000   1.0000
     1.0000   1.0000   1.0000   1.0000   1.0000   1.0000   1.0000   1.0000
     1.0000   1.0000   1.0000   1.0000   1.0000   1.0000   1.0000   1.0000
     1.0000   1.0000   1.0000   1.0000   1.0000   1.0000   1.0000   1.0000
     1.0000   1.0000   1.0000   1.0000   1.0000   1.0000   1.0000   1.0000
     1.0000   1.0000   1.0000   1.0000   1.0000   1.0000   1.0000   1.0000
     1.0000   1.0000   1.0000   1.0000   1.0000   1.0000   1.0000   1.0000
     1.0000   1.0000   1.0000   1.0000   1.0000   1.0000   1.0000   1.0000
     1.0000   1.0000   1.0000   1.0000   1.0000   1.0000   1.0000   1.0000
     1.0000   1.0000   1.0000   1.0000   1.0000   1.0000   1.0000   1.0000
     1.0000   1.0000   1.0000   1.0000   1.0000   1.0000   1.0000   1.0000
     1.0000   1.0000   1.0000   1.0000   1.0000   1.0000   1.0000   1.0000
     1.0000   1.0000   1.0000   1.0000   1.0000   1.0000   1.0000   1.0000
     1.0000   1.0000   1.0000   1.0000   1.0000   1.0000   1.0000   1.0000
     1.0000   1.0000   1.0000   1.0000   1.0000   1.0000   1.0000   1.0000
     1.0000   1.0000   1.0000   1.0000   1.0000   1.0000   1.0000   1.0000
     1.0000   1.0000   1.0000   1.0000   1.0000   1.0000   1.0000   1.0000
     1.0000   1.0000   1.0000   1.0000   1.0000   1.0000   1.0000   1.0000
     1.0000   1.0000   1.0000   1.0000   1.0000   1.0000   1.0000   1.0000
     1.0000   1.0000   1.0000   1.0000   1.0000   1.0000   1.0000   1.0000
     1.0000   1.0000   1.0000   1.0000   1.0000   1.0000   1.0000   1.0000
     1.0000   1.0000   1.0000   1.0000   1.0000   1.0000   1.0000   1.0000
     1.0000   1.0000   1.0000   1.0000   1.0000   1.0000   1.0000   1.0000
     1.0000   1.0000   1.0000   1.0000   1.0000   1.0000   1.0000   1.0000
     1.0000   1.0000   1.0000   1.0000   1.0000   1.0000   1.0000   1.0000
     1.0000   1.0000   1.0000   1.0000   1.0000   1.0000   1.0000   1.0000
     1.0000   1.0000   1.0000   1.0000   1.0000   1.0000   1.0000   1.0000
     1.0000   1.0000   1.0000   1.0000   1.0000   1.0000   1.0000   1.0000
     1.0000   1.0000   1.0000   1.0000   1.0000   1.0000   1.0000   1.0000
     1.0000   1.0000   1.0000   1.0000   1.0000   1.0000   1.0000   1.0000
     1.0000   1.0000   1.0000   1.0000   1.0000   1.0000   1.0000   1.0000
     1.0000   1.0000   1.0000   1.0000   1.0000   1.0000   1.0000   1.0000
     1.0000   1.0000   1.0000   1.0000   1.0000   1.0000   1.0000   1.0000
     1.0000   1.0000   1.0000   1.0000   1.0000   1.0000   1.0000   1.0000
     1.0000   1.0000   1.0000   1.0000   1.0000   1.0000   1.0000   1.0000
     1.0000   1.0000   1.0000   1.0000   1.0000   1.0000   1.0000   1.0000
     1.0000   1.0000   1.0000   1.0000   1.0000   1.0000   1.0000   1.0000
     1.0000   1.0000   1.0000   1.0000   1.0000   1.0000   1.0000   1.0000
     1.0000   1.0000   1.0000   1.0000   1.0000   1.0000   1.0000   1.0000
     1.0000   1.0000   1.0000   1.0000   1.0000   1.0000   1.0000   1.0000
     1.0000   1.0000   1.0000   1.0000   1.0000   1.0000   1.0000   1.0000
     1.0000   1.0000   1.0000   1.0000   1.0000   1.0000   1.0000   1.0000
     1.0000   1.0000   1.0000   1.0000   1.0000   1.0000   1.0000   1.0000
     1.0000   1.0000   1.0000   1.0000   0.0000   0.0000   0.0000   0.0000
     0.0000   0.0000   0.0000   0.0000   0.0000   0.0000   0.0000   0.0000
     0.0000   0.0000   0.0000   0.0000   0.0000   0.0000   0.0000   0.0000
     0.0000   0.0000   0.0000   0.0000   0.0000   0.0000   0.0000   0.0000
     0.0000   0.0000   0.0000   0.0000   0.0000   0.0000   0.0000   0.0000
     0.0000   0.0000   0.0000   0.0000   0.0000   0.0000   0.0000   0.0000
     0.0000   0.0000   0.0000   0.0000   0.0000   0.0000   0.0000   0.0000
     0.0000   0.0000   0.0000   0.0000   0.0000   0.0000   0.0000   0.0000
     0.0000   0.0000   0.0000   0.0000   0.0000   0.0000   0.0000   0.0000
     0.0000   0.0000   0.0000   0.0000   0.0000   0.0000   0.0000   0.0000
     0.0000   0.0000

          k =-0.5003-0.8657-0.4670 ( 45658 PWs)   bands (ev):

  -115.8724-115.8706-115.8685-115.8671-115.8645-115.8638-115.8637-115.8636
  -115.8634-115.8623-115.8621-115.8616-115.8593-115.8537-115.8529-115.8517
  -115.8516-115.8450-115.8417-115.8313 -70.2330 -70.2294 -70.2286 -70.2283
   -70.2274 -70.2249 -70.2247 -70.2236 -70.2231 -70.2231 -70.2227 -70.2223
   -70.2221 -70.2221 -70.2220 -70.2218 -70.2215 -70.2213 -70.2213 -70.2210
   -70.2208 -70.2207 -70.2203 -70.2196 -70.2194 -70.2187 -70.2187 -70.2176
   -70.2173 -70.2168 -70.2162 -70.2155 -70.2153 -70.2142 -70.2139 -70.2139
   -70.2137 -70.2132 -70.2118 -70.2106 -70.2104 -70.2101 -70.2100 -70.2098
   -70.2097 -70.2075 -70.2075 -70.2056 -70.2052 -70.2050 -70.2048 -70.2033
   -70.2027 -70.2021 -70.1980 -70.1935 -70.1934 -70.1910 -70.1884 -70.1820
   -65.3590 -65.3474 -65.3349 -65.3317 -65.3187 -65.3123 -65.3098 -65.3073
   -65.3043 -65.2981 -65.2957 -65.2882 -65.2856 -65.2854 -65.2768 -65.2682
   -32.3475 -32.3425 -32.3418 -32.3374 -32.3336 -32.3312 -32.3230 -32.3218
   -32.3213 -32.3189 -32.3178 -32.3135 -32.3091 -32.3057 -32.3054 -32.3029
   -32.3012 -32.3007 -32.2995 -32.2989 -32.2951 -32.2937 -32.2929 -32.2896
   -32.2893 -32.2876 -32.2865 -32.2860 -32.2852 -32.2842 -32.2810 -32.2805
   -32.2770 -32.2766 -32.2755 -32.2745 -32.2729 -32.2723 -32.2700 -32.2692
   -32.2661 -32.2656 -32.2648 -32.2611 -32.2568 -32.2553 -32.2502 -32.2476
   -10.2296 -10.2212 -10.1636 -10.0345  -9.9980  -9.9585  -9.9217  -9.8539
    -9.8004  -9.7721  -9.7568  -9.7413  -9.7101  -9.7017  -9.6979  -9.6812
    -9.6382  -9.6255  -9.6074  -9.5871  -9.5649  -9.5583  -9.5301  -9.5191
    -9.5042  -9.4814  -9.4659  -9.4324  -9.3947  -9.3548  -9.3382  -9.3359
    -9.3231  -9.2983  -9.2274  -9.1193   1.4436   1.4908   1.4990   1.5181
     1.5324   1.5367   1.5574   1.5624   1.5738   1.6097   1.6213   1.6400
     1.6433   1.6516   1.6833   1.7003   1.7037   1.7285   1.7385   1.7592
     1.7708   1.7788   1.7930   1.8136   1.8283   1.8352   1.8451   1.8661
     1.8754   1.8909   1.9025   1.9151   1.9296   1.9448   1.9596   1.9699
     1.9835   1.9880   1.9939   1.9978   2.0083   2.0185   2.0255   2.0351
     2.0521   2.0686   2.0826   2.0949   2.1167   2.1312   2.1357   2.1437
     2.1643   2.1752   2.1845   2.2022   2.2358   2.2500   2.2654   2.2969
     2.3117   2.3240   2.3424   2.3698   2.3823   2.3896   2.4302   2.4431
     2.4528   2.4682   2.4899   2.5065   2.5391   2.5518   2.5646   2.5921
     2.6035   2.6078   2.6295   2.6435   2.6584   2.6743   2.6997   2.7142
     2.7396   2.7511   2.7621   2.7706   2.7756   2.7914   2.8036   2.8226
     2.8341   2.8397   2.8543   2.8806   2.8883   2.9070   2.9214   2.9389
     2.9986   3.0523   3.0803   3.1547   3.1750   3.2551   3.2707   3.2828
     3.3212   3.3580   3.4156   3.4539   3.4830   3.5436   3.5521   3.5919
     3.6290   3.6572   3.7226   3.7447   3.8180   3.8387   3.9020   3.9516
     3.9706   4.0141   4.0907   4.1633   4.2595   4.3486   4.4168   4.4807
     4.4931   4.5056   4.5436   4.5603   4.5961   4.6236   4.6712   4.6917
     4.7281   4.8164   4.8366   4.8590   4.8842   4.9279   4.9432   4.9556
     4.9824   5.0239   5.0584   5.0650   5.0988   5.1212   5.1420   5.1565
     5.1638   5.2212   5.2318   5.2560   5.2992   5.3094   5.3644   5.3940
     5.4300   5.4353   5.4616   5.5145   5.5621   5.5771   5.6133   5.6459
     5.6515   5.6766   5.6928   5.7305   5.7424   5.7895   5.8175   5.8392
     5.8627   5.9082   5.9186   5.9427   5.9578   5.9909   6.0094   6.0215
     6.0485   6.0603   6.0696   6.0977   6.1285   6.1432   6.1723   6.1877
     6.2425   6.2790   6.3249   6.3304   6.3919   6.4464   6.5173   6.5631
     6.5982   6.6240   6.6420   6.7116  10.2990  10.3473  10.4510  10.6952
    11.5502  11.6416  11.7142  11.9786  12.7464  12.8762  12.9566  12.9738
    13.0859  13.1051  13.1856  13.2359  13.2601  13.4213  13.4670  13.5499
    13.6130  13.6912  13.7152  13.7513  13.9017  13.9753  14.0284  14.0582
    14.1336  14.1754  14.1849  14.2392  14.2570  14.2883  14.3231  14.3281
    15.0931  15.1864  15.3028  15.3199  15.3601  15.4135  15.5000  15.5741
    15.6321  15.6876  15.7677  15.7721  15.8438  15.9082  15.9691  16.0762
    16.1909  16.2893  16.4127  16.4903  16.5451  16.6783  16.7154  16.8612
    16.9301  16.9583  16.9789  16.9860  17.0438  17.0780  17.1275  17.1640
    17.2715  17.3620  17.5464  17.6025  17.6987  17.7516  17.8074  18.0797
    18.1437  18.1701

     occupation numbers 
     1.0000   1.0000   1.0000   1.0000   1.0000   1.0000   1.0000   1.0000
     1.0000   1.0000   1.0000   1.0000   1.0000   1.0000   1.0000   1.0000
     1.0000   1.0000   1.0000   1.0000   1.0000   1.0000   1.0000   1.0000
     1.0000   1.0000   1.0000   1.0000   1.0000   1.0000   1.0000   1.0000
     1.0000   1.0000   1.0000   1.0000   1.0000   1.0000   1.0000   1.0000
     1.0000   1.0000   1.0000   1.0000   1.0000   1.0000   1.0000   1.0000
     1.0000   1.0000   1.0000   1.0000   1.0000   1.0000   1.0000   1.0000
     1.0000   1.0000   1.0000   1.0000   1.0000   1.0000   1.0000   1.0000
     1.0000   1.0000   1.0000   1.0000   1.0000   1.0000   1.0000   1.0000
     1.0000   1.0000   1.0000   1.0000   1.0000   1.0000   1.0000   1.0000
     1.0000   1.0000   1.0000   1.0000   1.0000   1.0000   1.0000   1.0000
     1.0000   1.0000   1.0000   1.0000   1.0000   1.0000   1.0000   1.0000
     1.0000   1.0000   1.0000   1.0000   1.0000   1.0000   1.0000   1.0000
     1.0000   1.0000   1.0000   1.0000   1.0000   1.0000   1.0000   1.0000
     1.0000   1.0000   1.0000   1.0000   1.0000   1.0000   1.0000   1.0000
     1.0000   1.0000   1.0000   1.0000   1.0000   1.0000   1.0000   1.0000
     1.0000   1.0000   1.0000   1.0000   1.0000   1.0000   1.0000   1.0000
     1.0000   1.0000   1.0000   1.0000   1.0000   1.0000   1.0000   1.0000
     1.0000   1.0000   1.0000   1.0000   1.0000   1.0000   1.0000   1.0000
     1.0000   1.0000   1.0000   1.0000   1.0000   1.0000   1.0000   1.0000
     1.0000   1.0000   1.0000   1.0000   1.0000   1.0000   1.0000   1.0000
     1.0000   1.0000   1.0000   1.0000   1.0000   1.0000   1.0000   1.0000
     1.0000   1.0000   1.0000   1.0000   1.0000   1.0000   1.0000   1.0000
     1.0000   1.0000   1.0000   1.0000   1.0000   1.0000   1.0000   1.0000
     1.0000   1.0000   1.0000   1.0000   1.0000   1.0000   1.0000   1.0000
     1.0000   1.0000   1.0000   1.0000   1.0000   1.0000   1.0000   1.0000
     1.0000   1.0000   1.0000   1.0000   1.0000   1.0000   1.0000   1.0000
     1.0000   1.0000   1.0000   1.0000   1.0000   1.0000   1.0000   1.0000
     1.0000   1.0000   1.0000   1.0000   1.0000   1.0000   1.0000   1.0000
     1.0000   1.0000   1.0000   1.0000   1.0000   1.0000   1.0000   1.0000
     1.0000   1.0000   1.0000   1.0000   1.0000   1.0000   1.0000   1.0000
     1.0000   1.0000   1.0000   1.0000   1.0000   1.0000   1.0000   1.0000
     1.0000   1.0000   1.0000   1.0000   1.0000   1.0000   1.0000   1.0000
     1.0000   1.0000   1.0000   1.0000   1.0000   1.0000   1.0000   1.0000
     1.0000   1.0000   1.0000   1.0000   1.0000   1.0000   1.0000   1.0000
     1.0000   1.0000   1.0000   1.0000   1.0000   1.0000   1.0000   1.0000
     1.0000   1.0000   1.0000   1.0000   1.0000   1.0000   1.0000   1.0000
     1.0000   1.0000   1.0000   1.0000   1.0000   1.0000   1.0000   1.0000
     1.0000   1.0000   1.0000   1.0000   1.0000   1.0000   1.0000   1.0000
     1.0000   1.0000   1.0000   1.0000   1.0000   1.0000   1.0000   1.0000
     1.0000   1.0000   1.0000   1.0000   1.0000   1.0000   1.0000   1.0000
     1.0000   1.0000   1.0000   1.0000   1.0000   1.0000   1.0000   1.0000
     1.0000   1.0000   1.0000   1.0000   1.0000   1.0000   1.0000   1.0000
     1.0000   1.0000   1.0000   1.0000   1.0000   1.0000   1.0000   1.0000
     1.0000   1.0000   1.0000   1.0000   1.0000   1.0000   1.0000   1.0000
     1.0000   1.0000   1.0000   1.0000   1.0000   1.0000   1.0000   1.0000
     1.0000   1.0000   1.0000   1.0000   1.0000   1.0000   1.0000   1.0000
     1.0000   1.0000   1.0000   1.0000   1.0000   1.0000   1.0000   1.0000
     1.0000   1.0000   1.0000   1.0000   0.0000   0.0000   0.0000   0.0000
     0.0000   0.0000   0.0000   0.0000   0.0000   0.0000   0.0000   0.0000
     0.0000   0.0000   0.0000   0.0000   0.0000   0.0000   0.0000   0.0000
     0.0000   0.0000   0.0000   0.0000   0.0000   0.0000   0.0000   0.0000
     0.0000   0.0000   0.0000   0.0000   0.0000   0.0000   0.0000   0.0000
     0.0000   0.0000   0.0000   0.0000   0.0000   0.0000   0.0000   0.0000
     0.0000   0.0000   0.0000   0.0000   0.0000   0.0000   0.0000   0.0000
     0.0000   0.0000   0.0000   0.0000   0.0000   0.0000   0.0000   0.0000
     0.0000   0.0000   0.0000   0.0000   0.0000   0.0000   0.0000   0.0000
     0.0000   0.0000   0.0000   0.0000   0.0000   0.0000   0.0000   0.0000
     0.0000   0.0000

     the Fermi energy is     7.7460 ev

!    total energy              =  -12392.22892330 Ry
     Harris-Foulkes estimate   =  -12392.22892330 Ry
     estimated scf accuracy    <          1.8E-09 Ry

     The total energy is the sum of the following terms:

     one-electron contribution =  -10459.29788019 Ry
     hartree contribution      =    5479.05579245 Ry
     xc contribution           =   -1364.84703064 Ry
     ewald contribution        =   -6047.13980492 Ry
     smearing contrib. (-TS)   =       0.00000000 Ry

     convergence has been achieved in  14 iterations

     Writing output data file ZnO.save/
 
     init_run     :     13.57s CPU     14.19s WALL (       1 calls)
     electrons    :    711.39s CPU    726.23s WALL (       1 calls)

     Called by init_run:
     wfcinit      :     11.36s CPU     11.71s WALL (       1 calls)
     wfcinit:atom :      0.09s CPU      0.10s WALL (       5 calls)
     wfcinit:wfcr :     10.87s CPU     11.15s WALL (       5 calls)
     potinit      :      1.01s CPU      1.07s WALL (       1 calls)
     hinit0       :      0.77s CPU      0.89s WALL (       1 calls)

     Called by electrons:
     c_bands      :    652.02s CPU    665.38s WALL (      14 calls)
     sum_band     :     51.41s CPU     52.28s WALL (      14 calls)
     v_of_rho     :      6.25s CPU      6.60s WALL (      15 calls)
     v_h          :      0.17s CPU      0.22s WALL (      15 calls)
     v_xc         :      6.09s CPU      6.38s WALL (      15 calls)
     newd         :      1.38s CPU      1.47s WALL (      15 calls)
     mix_rho      :      0.39s CPU      0.51s WALL (      14 calls)

     Called by c_bands:
     init_us_2    :      5.00s CPU      5.03s WALL (     145 calls)
     cegterg      :    595.41s CPU    608.28s WALL (      70 calls)

     Called by sum_band:
     sum_band:bec :      0.25s CPU      0.26s WALL (      70 calls)
     addusdens    :      1.24s CPU      1.32s WALL (      14 calls)

     Called by *egterg:
     h_psi        :    223.85s CPU    227.45s WALL (     270 calls)
     s_psi        :     55.64s CPU     55.66s WALL (     270 calls)
     g_psi        :      0.86s CPU      0.87s WALL (     195 calls)
     cdiaghg      :    184.21s CPU    189.57s WALL (     265 calls)
     cegterg:over :     59.97s CPU     61.24s WALL (     195 calls)
     cegterg:upda :     38.61s CPU     39.10s WALL (     195 calls)
     cegterg:last :     21.80s CPU     21.83s WALL (      70 calls)
     cdiaghg:chol :      8.79s CPU      8.84s WALL (     265 calls)
     cdiaghg:inve :      2.80s CPU      2.80s WALL (     265 calls)
     cdiaghg:para :     44.34s CPU     48.71s WALL (     530 calls)

     Called by h_psi:
     h_psi:pot    :    222.02s CPU    224.44s WALL (     270 calls)
     h_psi:calbec :     57.92s CPU     59.46s WALL (     270 calls)
     vloc_psi     :    108.05s CPU    108.65s WALL (     270 calls)
     add_vuspsi   :     56.05s CPU     56.33s WALL (     270 calls)

     General routines
     calbec       :     80.74s CPU     82.83s WALL (     340 calls)
     fft          :      1.38s CPU      1.96s WALL (     193 calls)
     ffts         :      0.10s CPU      0.11s WALL (      29 calls)
     fftw         :    121.85s CPU    122.50s WALL (  194126 calls)
     interpolate  :      0.17s CPU      0.23s WALL (      15 calls)
 
     Parallel routines
     fft_scatt_xy :     20.26s CPU     20.35s WALL (  194348 calls)
     fft_scatt_yz :     33.01s CPU     33.76s WALL (  194348 calls)
 
     PWSCF        :  12m 8.71s CPU  12m28.43s WALL

 
   This run was terminated on:   1:38:55  15Jul2022            

=------------------------------------------------------------------------------=
   JOB DONE.
=------------------------------------------------------------------------------=
