
     Program PWSCF v.6.4.1 starts on 15Jun2022 at 20:45:15 

     This program is part of the open-source Quantum ESPRESSO suite
     for quantum simulation of materials; please cite
         "P. Giannozzi et al., J. Phys.:Condens. Matter 21 395502 (2009);
         "P. Giannozzi et al., J. Phys.:Condens. Matter 29 465901 (2017);
          URL http://www.quantum-espresso.org", 
     in publications or presentations arising from this work. More details at
     http://www.quantum-espresso.org/quote

     Parallel version (MPI), running on    64 processors

     MPI processes distributed on     1 nodes
     K-points division:     npool     =       4
     R & G space division:  proc/nbgrp/npool/nimage =      16
     Waiting for input...
     Reading input from standard input
Warning: card &IONS ignored
Warning: card   UPSCALE           = 100.D0, ignored
Warning: card / ignored
Warning: card &CELL ignored
Warning: card   CELL_DYNAMICS     = 'BFGS' ignored
Warning: card   PRESS_CONV_THR    = 0.5D0 ignored
Warning: card   CELL_DOFREE = 'ALL' ignored
Warning: card / ignored

     Current dimensions of program PWSCF are:
     Max number of different atomic species (ntypx) = 10
     Max number of k-points (npk) =  40000
     Max angular momentum in pseudopotentials (lmaxx) =  3

     Subspace diagonalization in iterative solution of the eigenvalue problem:
     one sub-group per band group will be used
     scalapack distributed-memory algorithm (size of sub-group:  2*  2 procs)

--------------------------------------------------------------------------------
NOTICE: Bravais lattice has wrong number ( 3) of symmetries - symmetries are disabled
--------------------------------------------------------------------------------
 
     Parallelization info
     --------------------
     sticks:   dense  smooth     PW     G-vecs:    dense   smooth      PW
     Min         103      55     17                 4803     1865     327
     Max         104      56     19                 4810     1870     329
     Sum        1663     889    283                76935    29859    5243
 


     bravais-lattice index     =            0
     lattice parameter (alat)  =       6.3713  a.u.
     unit-cell volume          =     310.4236 (a.u.)^3
     number of atoms/cell      =            4
     number of atomic types    =            2
     number of electrons       =        52.00
     number of Kohn-Sham states=           26
     kinetic-energy cutoff     =      80.0000  Ry
     charge density cutoff     =     600.0000  Ry
     convergence threshold     =      1.0E-06
     mixing beta               =       0.5000
     number of iterations used =            8  plain     mixing
     Exchange-correlation      = SLA  PW   PSX  PSC ( 1  4 10  8 0 0)
     Using LIBXC version       =    4   3   4

     celldm(1)=   6.371274  celldm(2)=   0.000000  celldm(3)=   0.000000
     celldm(4)=   0.000000  celldm(5)=   0.000000  celldm(6)=   0.000000

     crystal axes: (cart. coord. in units of alat)
               a(1) = (   1.000000   0.000000  -0.000000 )  
               a(2) = (  -0.500000   0.866026   0.000000 )  
               a(3) = (  -0.000000   0.000001   1.385942 )  

     reciprocal axes: (cart. coord. in units 2 pi/alat)
               b(1) = (  1.000000  0.577350 -0.000000 )  
               b(2) = ( -0.000001  1.154700 -0.000001 )  
               b(3) = (  0.000000 -0.000000  0.721531 )  


     PseudoPot. # 1 for Zn read from file:
     ./GBRV_PBEsol/zn_pbesol_v1.uspp.F.UPF
     MD5 check sum: 7d8615e52efe7c1e2b1899de8658bae2
     Pseudo is Ultrasoft, Zval = 20.0
     Generated by new atomic code, or converted to UPF format
     Using radial grid of  943 points,  6 beta functions with: 
                l(1) =   0
                l(2) =   0
                l(3) =   1
                l(4) =   1
                l(5) =   2
                l(6) =   2
     Q(r) pseudized with  8 coefficients,  rinner =    1.100   1.100   1.100
                                                       1.100   1.100

     PseudoPot. # 2 for O  read from file:
     ./GBRV_PBEsol/o_pbesol_v1.2.uspp.F.UPF
     MD5 check sum: 501638753501ef6325af9037351f7734
     Pseudo is Ultrasoft + core correction, Zval =  6.0
     Generated by new atomic code, or converted to UPF format
     Using radial grid of  737 points,  5 beta functions with: 
                l(1) =   0
                l(2) =   0
                l(3) =   1
                l(4) =   1
                l(5) =   2
     Q(r) pseudized with  8 coefficients,  rinner =    0.900   0.900   0.900
                                                       0.900   0.900

     atomic species   valence    mass     pseudopotential
        Zn            20.00    65.38000     Zn( 1.00)
        O              6.00    15.99900     O ( 1.00)

     No symmetry found


                                    s                        frac. trans.

      isym =  1     identity                                     

 cryst.   s( 1) = (     1          0          0      )
                  (     0          1          0      )
                  (     0          0          1      )

 cart.    s( 1) = (  1.0000000  0.0000000  0.0000000 )
                  ( -0.0000000  1.0000000 -0.0000000 )
                  (  0.0000000  0.0000000  1.0000000 )


   Cartesian axes

     site n.     atom                  positions (alat units)
         1           O   tau(   1) = (   0.5000003   0.2886758   0.0101810  )
         2           O   tau(   2) = (   0.0000002   0.5773500   0.7031521  )
         3           Zn  tau(   3) = (   0.5000000   0.2886755   0.6463400  )
         4           Zn  tau(   4) = (  -0.0000001   0.5773521   1.3393112  )

   Crystallographic axes

     site n.     atom                  positions (cryst. coord.)
         1           O   tau(   1) = (  0.6666670  0.3333337  0.0073459  )
         2           O   tau(   2) = (  0.3333329  0.6666657  0.5073458  )
         3           Zn  tau(   3) = (  0.6666664  0.3333329  0.4663542  )
         4           Zn  tau(   4) = (  0.3333336  0.6666677  0.9663542  )

     number of k points=   260
                       cart. coord. in units 2pi/alat
        k(    1) = (   0.0000000   0.0000000   0.0000000), wk =   0.0039062
        k(    2) = (   0.0000000  -0.0000000   0.0901914), wk =   0.0078125
        k(    3) = (   0.0000000  -0.0000001   0.1803827), wk =   0.0078125
        k(    4) = (   0.0000000  -0.0000001   0.2705741), wk =   0.0078125
        k(    5) = (  -0.0000000   0.0000002  -0.3607654), wk =   0.0039062
        k(    6) = (  -0.0000001   0.1443375  -0.0000001), wk =   0.0078125
        k(    7) = (  -0.0000001   0.1443375   0.0901913), wk =   0.0078125
        k(    8) = (  -0.0000001   0.1443374   0.1803826), wk =   0.0078125
        k(    9) = (  -0.0000001   0.1443374   0.2705740), wk =   0.0078125
        k(   10) = (  -0.0000001   0.1443377  -0.3607655), wk =   0.0078125
        k(   11) = (  -0.0000001   0.1443376  -0.2705742), wk =   0.0078125
        k(   12) = (  -0.0000001   0.1443376  -0.1803828), wk =   0.0078125
        k(   13) = (  -0.0000001   0.1443375  -0.0901914), wk =   0.0078125
        k(   14) = (  -0.0000001   0.2886750  -0.0000001), wk =   0.0078125
        k(   15) = (  -0.0000001   0.2886750   0.0901912), wk =   0.0078125
        k(   16) = (  -0.0000001   0.2886749   0.1803826), wk =   0.0078125
        k(   17) = (  -0.0000001   0.2886749   0.2705739), wk =   0.0078125
        k(   18) = (  -0.0000002   0.2886752  -0.3607656), wk =   0.0078125
        k(   19) = (  -0.0000002   0.2886751  -0.2705742), wk =   0.0078125
        k(   20) = (  -0.0000001   0.2886751  -0.1803829), wk =   0.0078125
        k(   21) = (  -0.0000001   0.2886750  -0.0901915), wk =   0.0078125
        k(   22) = (  -0.0000002   0.4330125  -0.0000002), wk =   0.0078125
        k(   23) = (  -0.0000002   0.4330125   0.0901911), wk =   0.0078125
        k(   24) = (  -0.0000002   0.4330124   0.1803825), wk =   0.0078125
        k(   25) = (  -0.0000002   0.4330124   0.2705739), wk =   0.0078125
        k(   26) = (  -0.0000002   0.4330127  -0.3607657), wk =   0.0078125
        k(   27) = (  -0.0000002   0.4330126  -0.2705743), wk =   0.0078125
        k(   28) = (  -0.0000002   0.4330126  -0.1803829), wk =   0.0078125
        k(   29) = (  -0.0000002   0.4330125  -0.0901916), wk =   0.0078125
        k(   30) = (   0.0000003  -0.5773500   0.0000003), wk =   0.0039062
        k(   31) = (   0.0000003  -0.5773500   0.0901916), wk =   0.0078125
        k(   32) = (   0.0000003  -0.5773501   0.1803830), wk =   0.0078125
        k(   33) = (   0.0000003  -0.5773501   0.2705744), wk =   0.0078125
        k(   34) = (   0.0000003  -0.5773498  -0.3607652), wk =   0.0039062
        k(   35) = (   0.1250000   0.0721687  -0.0000000), wk =   0.0078125
        k(   36) = (   0.1250000   0.0721686   0.0901913), wk =   0.0078125
        k(   37) = (   0.1250000   0.0721686   0.1803827), wk =   0.0078125
        k(   38) = (   0.1250000   0.0721686   0.2705741), wk =   0.0078125
        k(   39) = (   0.1249999   0.0721689  -0.3607655), wk =   0.0078125
        k(   40) = (   0.1250000   0.0721688  -0.2705741), wk =   0.0078125
        k(   41) = (   0.1250000   0.0721688  -0.1803827), wk =   0.0078125
        k(   42) = (   0.1250000   0.0721687  -0.0901914), wk =   0.0078125
        k(   43) = (   0.1249999   0.2165062  -0.0000001), wk =   0.0078125
        k(   44) = (   0.1249999   0.2165061   0.0901913), wk =   0.0078125
        k(   45) = (   0.1249999   0.2165061   0.1803826), wk =   0.0078125
        k(   46) = (   0.1249999   0.2165061   0.2705740), wk =   0.0078125
        k(   47) = (   0.1249999   0.2165064  -0.3607655), wk =   0.0078125
        k(   48) = (   0.1249999   0.2165063  -0.2705742), wk =   0.0078125
        k(   49) = (   0.1249999   0.2165063  -0.1803828), wk =   0.0078125
        k(   50) = (   0.1249999   0.2165062  -0.0901914), wk =   0.0078125
        k(   51) = (   0.1249998   0.3608437  -0.0000002), wk =   0.0078125
        k(   52) = (   0.1249998   0.3608436   0.0901912), wk =   0.0078125
        k(   53) = (   0.1249998   0.3608436   0.1803826), wk =   0.0078125
        k(   54) = (   0.1249998   0.3608436   0.2705739), wk =   0.0078125
        k(   55) = (   0.1249998   0.3608439  -0.3607656), wk =   0.0078125
        k(   56) = (   0.1249998   0.3608438  -0.2705742), wk =   0.0078125
        k(   57) = (   0.1249998   0.3608438  -0.1803829), wk =   0.0078125
        k(   58) = (   0.1249998   0.3608437  -0.0901915), wk =   0.0078125
        k(   59) = (   0.1249998   0.5051812  -0.0000002), wk =   0.0078125
        k(   60) = (   0.1249998   0.5051812   0.0901911), wk =   0.0078125
        k(   61) = (   0.1249998   0.5051811   0.1803825), wk =   0.0078125
        k(   62) = (   0.1249998   0.5051811   0.2705738), wk =   0.0078125
        k(   63) = (   0.1249997   0.5051814  -0.3607657), wk =   0.0078125
        k(   64) = (   0.1249997   0.5051813  -0.2705743), wk =   0.0078125
        k(   65) = (   0.1249997   0.5051813  -0.1803830), wk =   0.0078125
        k(   66) = (   0.1249998   0.5051812  -0.0901916), wk =   0.0078125
        k(   67) = (   0.1250002  -0.5051813   0.0000003), wk =   0.0078125
        k(   68) = (   0.1250002  -0.5051814   0.0901916), wk =   0.0078125
        k(   69) = (   0.1250003  -0.5051814   0.1803830), wk =   0.0078125
        k(   70) = (   0.1250003  -0.5051814   0.2705744), wk =   0.0078125
        k(   71) = (   0.1250002  -0.5051811  -0.3607652), wk =   0.0078125
        k(   72) = (   0.1250002  -0.5051812  -0.2705738), wk =   0.0078125
        k(   73) = (   0.1250002  -0.5051812  -0.1803824), wk =   0.0078125
        k(   74) = (   0.1250002  -0.5051813  -0.0901911), wk =   0.0078125
        k(   75) = (   0.1250002  -0.3608438   0.0000002), wk =   0.0078125
        k(   76) = (   0.1250002  -0.3608439   0.0901916), wk =   0.0078125
        k(   77) = (   0.1250002  -0.3608439   0.1803829), wk =   0.0078125
        k(   78) = (   0.1250002  -0.3608439   0.2705743), wk =   0.0078125
        k(   79) = (   0.1250002  -0.3608436  -0.3607652), wk =   0.0078125
        k(   80) = (   0.1250002  -0.3608437  -0.2705739), wk =   0.0078125
        k(   81) = (   0.1250002  -0.3608437  -0.1803825), wk =   0.0078125
        k(   82) = (   0.1250002  -0.3608438  -0.0901912), wk =   0.0078125
        k(   83) = (   0.1250001  -0.2165063   0.0000001), wk =   0.0078125
        k(   84) = (   0.1250001  -0.2165064   0.0901915), wk =   0.0078125
        k(   85) = (   0.1250001  -0.2165064   0.1803828), wk =   0.0078125
        k(   86) = (   0.1250001  -0.2165064   0.2705742), wk =   0.0078125
        k(   87) = (   0.1250001  -0.2165061  -0.3607653), wk =   0.0078125
        k(   88) = (   0.1250001  -0.2165062  -0.2705740), wk =   0.0078125
        k(   89) = (   0.1250001  -0.2165062  -0.1803826), wk =   0.0078125
        k(   90) = (   0.1250001  -0.2165063  -0.0901912), wk =   0.0078125
        k(   91) = (   0.1250000  -0.0721688   0.0000001), wk =   0.0078125
        k(   92) = (   0.1250000  -0.0721689   0.0901914), wk =   0.0078125
        k(   93) = (   0.1250000  -0.0721689   0.1803828), wk =   0.0078125
        k(   94) = (   0.1250000  -0.0721689   0.2705741), wk =   0.0078125
        k(   95) = (   0.1250000  -0.0721686  -0.3607654), wk =   0.0078125
        k(   96) = (   0.1250000  -0.0721687  -0.2705740), wk =   0.0078125
        k(   97) = (   0.1250000  -0.0721687  -0.1803827), wk =   0.0078125
        k(   98) = (   0.1250000  -0.0721688  -0.0901913), wk =   0.0078125
        k(   99) = (   0.2499999   0.1443374  -0.0000000), wk =   0.0078125
        k(  100) = (   0.2499999   0.1443373   0.0901913), wk =   0.0078125
        k(  101) = (   0.2499999   0.1443373   0.1803827), wk =   0.0078125
        k(  102) = (   0.2499999   0.1443373   0.2705740), wk =   0.0078125
        k(  103) = (   0.2499999   0.1443375  -0.3607655), wk =   0.0078125
        k(  104) = (   0.2499999   0.1443375  -0.2705741), wk =   0.0078125
        k(  105) = (   0.2499999   0.1443375  -0.1803828), wk =   0.0078125
        k(  106) = (   0.2499999   0.1443374  -0.0901914), wk =   0.0078125
        k(  107) = (   0.2499999   0.2886749  -0.0000001), wk =   0.0078125
        k(  108) = (   0.2499999   0.2886748   0.0901913), wk =   0.0078125
        k(  109) = (   0.2499999   0.2886748   0.1803826), wk =   0.0078125
        k(  110) = (   0.2499999   0.2886748   0.2705740), wk =   0.0078125
        k(  111) = (   0.2499998   0.2886750  -0.3607655), wk =   0.0078125
        k(  112) = (   0.2499998   0.2886750  -0.2705742), wk =   0.0078125
        k(  113) = (   0.2499999   0.2886750  -0.1803828), wk =   0.0078125
        k(  114) = (   0.2499999   0.2886749  -0.0901915), wk =   0.0078125
        k(  115) = (   0.2499998   0.4330124  -0.0000002), wk =   0.0078125
        k(  116) = (   0.2499998   0.4330123   0.0901912), wk =   0.0078125
        k(  117) = (   0.2499998   0.4330123   0.1803825), wk =   0.0078125
        k(  118) = (   0.2499998   0.4330123   0.2705739), wk =   0.0078125
        k(  119) = (   0.2499998   0.4330125  -0.3607656), wk =   0.0078125
        k(  120) = (   0.2499998   0.4330125  -0.2705743), wk =   0.0078125
        k(  121) = (   0.2499998   0.4330125  -0.1803829), wk =   0.0078125
        k(  122) = (   0.2499998   0.4330124  -0.0901915), wk =   0.0078125
        k(  123) = (   0.2499997   0.5773499  -0.0000002), wk =   0.0078125
        k(  124) = (   0.2499997   0.5773498   0.0901911), wk =   0.0078125
        k(  125) = (   0.2499997   0.5773498   0.1803825), wk =   0.0078125
        k(  126) = (   0.2499997   0.5773498   0.2705738), wk =   0.0078125
        k(  127) = (   0.2499997   0.5773500  -0.3607657), wk =   0.0078125
        k(  128) = (   0.2499997   0.5773500  -0.2705743), wk =   0.0078125
        k(  129) = (   0.2499997   0.5773500  -0.1803830), wk =   0.0078125
        k(  130) = (   0.2499997   0.5773499  -0.0901916), wk =   0.0078125
        k(  131) = (   0.2500002  -0.4330126   0.0000003), wk =   0.0078125
        k(  132) = (   0.2500002  -0.4330127   0.0901916), wk =   0.0078125
        k(  133) = (   0.2500002  -0.4330127   0.1803830), wk =   0.0078125
        k(  134) = (   0.2500002  -0.4330127   0.2705743), wk =   0.0078125
        k(  135) = (   0.2500002  -0.4330125  -0.3607652), wk =   0.0078125
        k(  136) = (   0.2500002  -0.4330125  -0.2705738), wk =   0.0078125
        k(  137) = (   0.2500002  -0.4330125  -0.1803825), wk =   0.0078125
        k(  138) = (   0.2500002  -0.4330126  -0.0901911), wk =   0.0078125
        k(  139) = (   0.2500001  -0.2886751   0.0000002), wk =   0.0078125
        k(  140) = (   0.2500001  -0.2886752   0.0901915), wk =   0.0078125
        k(  141) = (   0.2500001  -0.2886752   0.1803829), wk =   0.0078125
        k(  142) = (   0.2500002  -0.2886752   0.2705743), wk =   0.0078125
        k(  143) = (   0.2500001  -0.2886750  -0.3607653), wk =   0.0078125
        k(  144) = (   0.2500001  -0.2886750  -0.2705739), wk =   0.0078125
        k(  145) = (   0.2500001  -0.2886750  -0.1803825), wk =   0.0078125
        k(  146) = (   0.2500001  -0.2886751  -0.0901912), wk =   0.0078125
        k(  147) = (   0.2500001  -0.1443376   0.0000001), wk =   0.0078125
        k(  148) = (   0.2500001  -0.1443377   0.0901915), wk =   0.0078125
        k(  149) = (   0.2500001  -0.1443377   0.1803828), wk =   0.0078125
        k(  150) = (   0.2500001  -0.1443377   0.2705742), wk =   0.0078125
        k(  151) = (   0.2500001  -0.1443375  -0.3607653), wk =   0.0078125
        k(  152) = (   0.2500001  -0.1443375  -0.2705740), wk =   0.0078125
        k(  153) = (   0.2500001  -0.1443375  -0.1803826), wk =   0.0078125
        k(  154) = (   0.2500001  -0.1443376  -0.0901912), wk =   0.0078125
        k(  155) = (   0.2500000  -0.0000001   0.0000000), wk =   0.0078125
        k(  156) = (   0.2500000  -0.0000002   0.0901914), wk =   0.0078125
        k(  157) = (   0.2500000  -0.0000002   0.1803828), wk =   0.0078125
        k(  158) = (   0.2500000  -0.0000002   0.2705741), wk =   0.0078125
        k(  159) = (   0.2500000   0.0000000  -0.3607654), wk =   0.0078125
        k(  160) = (   0.2500000   0.0000000  -0.2705740), wk =   0.0078125
        k(  161) = (   0.2500000  -0.0000000  -0.1803827), wk =   0.0078125
        k(  162) = (   0.2500000  -0.0000001  -0.0901913), wk =   0.0078125
        k(  163) = (   0.3749999   0.2165061  -0.0000000), wk =   0.0078125
        k(  164) = (   0.3749999   0.2165060   0.0901913), wk =   0.0078125
        k(  165) = (   0.3749999   0.2165060   0.1803827), wk =   0.0078125
        k(  166) = (   0.3749999   0.2165059   0.2705740), wk =   0.0078125
        k(  167) = (   0.3749999   0.2165062  -0.3607655), wk =   0.0078125
        k(  168) = (   0.3749999   0.2165062  -0.2705741), wk =   0.0078125
        k(  169) = (   0.3749999   0.2165062  -0.1803828), wk =   0.0078125
        k(  170) = (   0.3749999   0.2165061  -0.0901914), wk =   0.0078125
        k(  171) = (   0.3749998   0.3608436  -0.0000001), wk =   0.0078125
        k(  172) = (   0.3749998   0.3608435   0.0901912), wk =   0.0078125
        k(  173) = (   0.3749998   0.3608435   0.1803826), wk =   0.0078125
        k(  174) = (   0.3749998   0.3608434   0.2705740), wk =   0.0078125
        k(  175) = (   0.3749998   0.3608437  -0.3607656), wk =   0.0078125
        k(  176) = (   0.3749998   0.3608437  -0.2705742), wk =   0.0078125
        k(  177) = (   0.3749998   0.3608437  -0.1803828), wk =   0.0078125
        k(  178) = (   0.3749998   0.3608436  -0.0901915), wk =   0.0078125
        k(  179) = (   0.3749998   0.5051811  -0.0000002), wk =   0.0078125
        k(  180) = (   0.3749998   0.5051810   0.0901912), wk =   0.0078125
        k(  181) = (   0.3749998   0.5051810   0.1803825), wk =   0.0078125
        k(  182) = (   0.3749998   0.5051809   0.2705739), wk =   0.0078125
        k(  183) = (   0.3749997   0.5051812  -0.3607656), wk =   0.0078125
        k(  184) = (   0.3749997   0.5051812  -0.2705743), wk =   0.0078125
        k(  185) = (   0.3749997   0.5051812  -0.1803829), wk =   0.0078125
        k(  186) = (   0.3749998   0.5051811  -0.0901916), wk =   0.0078125
        k(  187) = (   0.3749997   0.6495186  -0.0000003), wk =   0.0078125
        k(  188) = (   0.3749997   0.6495185   0.0901911), wk =   0.0078125
        k(  189) = (   0.3749997   0.6495185   0.1803825), wk =   0.0078125
        k(  190) = (   0.3749997   0.6495184   0.2705738), wk =   0.0078125
        k(  191) = (   0.3749997   0.6495187  -0.3607657), wk =   0.0078125
        k(  192) = (   0.3749997   0.6495187  -0.2705743), wk =   0.0078125
        k(  193) = (   0.3749997   0.6495187  -0.1803830), wk =   0.0078125
        k(  194) = (   0.3749997   0.6495186  -0.0901916), wk =   0.0078125
        k(  195) = (   0.3750002  -0.3608439   0.0000002), wk =   0.0078125
        k(  196) = (   0.3750002  -0.3608440   0.0901916), wk =   0.0078125
        k(  197) = (   0.3750002  -0.3608440   0.1803830), wk =   0.0078125
        k(  198) = (   0.3750002  -0.3608441   0.2705743), wk =   0.0078125
        k(  199) = (   0.3750002  -0.3608438  -0.3607652), wk =   0.0078125
        k(  200) = (   0.3750002  -0.3608438  -0.2705738), wk =   0.0078125
        k(  201) = (   0.3750002  -0.3608438  -0.1803825), wk =   0.0078125
        k(  202) = (   0.3750002  -0.3608439  -0.0901911), wk =   0.0078125
        k(  203) = (   0.3750001  -0.2165064   0.0000002), wk =   0.0078125
        k(  204) = (   0.3750001  -0.2165065   0.0901915), wk =   0.0078125
        k(  205) = (   0.3750001  -0.2165065   0.1803829), wk =   0.0078125
        k(  206) = (   0.3750001  -0.2165066   0.2705742), wk =   0.0078125
        k(  207) = (   0.3750001  -0.2165063  -0.3607653), wk =   0.0078125
        k(  208) = (   0.3750001  -0.2165063  -0.2705739), wk =   0.0078125
        k(  209) = (   0.3750001  -0.2165063  -0.1803826), wk =   0.0078125
        k(  210) = (   0.3750001  -0.2165064  -0.0901912), wk =   0.0078125
        k(  211) = (   0.3750000  -0.0721689   0.0000001), wk =   0.0078125
        k(  212) = (   0.3750000  -0.0721690   0.0901915), wk =   0.0078125
        k(  213) = (   0.3750000  -0.0721690   0.1803828), wk =   0.0078125
        k(  214) = (   0.3750000  -0.0721691   0.2705742), wk =   0.0078125
        k(  215) = (   0.3750000  -0.0721688  -0.3607653), wk =   0.0078125
        k(  216) = (   0.3750000  -0.0721688  -0.2705740), wk =   0.0078125
        k(  217) = (   0.3750000  -0.0721688  -0.1803826), wk =   0.0078125
        k(  218) = (   0.3750000  -0.0721689  -0.0901913), wk =   0.0078125
        k(  219) = (   0.3750000   0.0721686   0.0000000), wk =   0.0078125
        k(  220) = (   0.3750000   0.0721685   0.0901914), wk =   0.0078125
        k(  221) = (   0.3750000   0.0721685   0.1803827), wk =   0.0078125
        k(  222) = (   0.3750000   0.0721684   0.2705741), wk =   0.0078125
        k(  223) = (   0.3749999   0.0721687  -0.3607654), wk =   0.0078125
        k(  224) = (   0.3750000   0.0721687  -0.2705741), wk =   0.0078125
        k(  225) = (   0.3750000   0.0721687  -0.1803827), wk =   0.0078125
        k(  226) = (   0.3750000   0.0721686  -0.0901913), wk =   0.0078125
        k(  227) = (  -0.4999999  -0.2886748   0.0000001), wk =   0.0039062
        k(  228) = (  -0.4999999  -0.2886748   0.0901914), wk =   0.0078125
        k(  229) = (  -0.4999999  -0.2886748   0.1803828), wk =   0.0078125
        k(  230) = (  -0.4999998  -0.2886749   0.2705741), wk =   0.0078125
        k(  231) = (  -0.4999999  -0.2886746  -0.3607654), wk =   0.0039062
        k(  232) = (  -0.4999999  -0.1443373  -0.0000000), wk =   0.0078125
        k(  233) = (  -0.4999999  -0.1443373   0.0901914), wk =   0.0078125
        k(  234) = (  -0.4999999  -0.1443373   0.1803827), wk =   0.0078125
        k(  235) = (  -0.4999999  -0.1443374   0.2705741), wk =   0.0078125
        k(  236) = (  -0.4999999  -0.1443371  -0.3607654), wk =   0.0078125
        k(  237) = (  -0.4999999  -0.1443371  -0.2705741), wk =   0.0078125
        k(  238) = (  -0.4999999  -0.1443372  -0.1803827), wk =   0.0078125
        k(  239) = (  -0.4999999  -0.1443372  -0.0901914), wk =   0.0078125
        k(  240) = (  -0.5000000   0.0000002  -0.0000001), wk =   0.0078125
        k(  241) = (  -0.5000000   0.0000002   0.0901913), wk =   0.0078125
        k(  242) = (  -0.5000000   0.0000002   0.1803826), wk =   0.0078125
        k(  243) = (  -0.5000000   0.0000001   0.2705740), wk =   0.0078125
        k(  244) = (  -0.5000000   0.0000004  -0.3607655), wk =   0.0078125
        k(  245) = (  -0.5000000   0.0000004  -0.2705742), wk =   0.0078125
        k(  246) = (  -0.5000000   0.0000003  -0.1803828), wk =   0.0078125
        k(  247) = (  -0.5000000   0.0000003  -0.0901914), wk =   0.0078125
        k(  248) = (  -0.5000001   0.1443377  -0.0000002), wk =   0.0078125
        k(  249) = (  -0.5000001   0.1443377   0.0901912), wk =   0.0078125
        k(  250) = (  -0.5000001   0.1443377   0.1803826), wk =   0.0078125
        k(  251) = (  -0.5000001   0.1443376   0.2705739), wk =   0.0078125
        k(  252) = (  -0.5000001   0.1443379  -0.3607656), wk =   0.0078125
        k(  253) = (  -0.5000001   0.1443379  -0.2705742), wk =   0.0078125
        k(  254) = (  -0.5000001   0.1443378  -0.1803829), wk =   0.0078125
        k(  255) = (  -0.5000001   0.1443378  -0.0901915), wk =   0.0078125
        k(  256) = (  -0.4999996  -0.8660248   0.0000003), wk =   0.0039062
        k(  257) = (  -0.4999996  -0.8660248   0.0901917), wk =   0.0078125
        k(  258) = (  -0.4999996  -0.8660248   0.1803831), wk =   0.0078125
        k(  259) = (  -0.4999996  -0.8660249   0.2705744), wk =   0.0078125
        k(  260) = (  -0.4999996  -0.8660246  -0.3607651), wk =   0.0039062

                       cryst. coord.
        k(    1) = (   0.0000000   0.0000000   0.0000000), wk =   0.0039062
        k(    2) = (   0.0000000  -0.0000000   0.1250000), wk =   0.0078125
        k(    3) = (   0.0000000  -0.0000000   0.2500000), wk =   0.0078125
        k(    4) = (  -0.0000000  -0.0000000   0.3750000), wk =   0.0078125
        k(    5) = (  -0.0000000   0.0000000  -0.5000000), wk =   0.0039062
        k(    6) = (  -0.0000000   0.1250000   0.0000000), wk =   0.0078125
        k(    7) = (   0.0000000   0.1250000   0.1250000), wk =   0.0078125
        k(    8) = (  -0.0000000   0.1250000   0.2500000), wk =   0.0078125
        k(    9) = (   0.0000000   0.1250000   0.3750000), wk =   0.0078125
        k(   10) = (  -0.0000000   0.1250000  -0.5000000), wk =   0.0078125
        k(   11) = (  -0.0000000   0.1250000  -0.3750000), wk =   0.0078125
        k(   12) = (   0.0000000   0.1250000  -0.2500000), wk =   0.0078125
        k(   13) = (   0.0000000   0.1250000  -0.1250000), wk =   0.0078125
        k(   14) = (  -0.0000000   0.2500000   0.0000000), wk =   0.0078125
        k(   15) = (  -0.0000000   0.2500000   0.1250000), wk =   0.0078125
        k(   16) = (   0.0000000   0.2500000   0.2500000), wk =   0.0078125
        k(   17) = (   0.0000000   0.2500000   0.3750000), wk =   0.0078125
        k(   18) = (   0.0000000   0.2500000  -0.5000000), wk =   0.0078125
        k(   19) = (   0.0000000   0.2500000  -0.3750000), wk =   0.0078125
        k(   20) = (   0.0000000   0.2500000  -0.2500000), wk =   0.0078125
        k(   21) = (   0.0000000   0.2500000  -0.1250000), wk =   0.0078125
        k(   22) = (   0.0000000   0.3750000  -0.0000000), wk =   0.0078125
        k(   23) = (  -0.0000000   0.3750000   0.1250000), wk =   0.0078125
        k(   24) = (   0.0000000   0.3750000   0.2500000), wk =   0.0078125
        k(   25) = (  -0.0000000   0.3750000   0.3750000), wk =   0.0078125
        k(   26) = (   0.0000000   0.3750000  -0.5000000), wk =   0.0078125
        k(   27) = (   0.0000000   0.3750000  -0.3750000), wk =   0.0078125
        k(   28) = (  -0.0000000   0.3750000  -0.2500000), wk =   0.0078125
        k(   29) = (   0.0000000   0.3750000  -0.1250000), wk =   0.0078125
        k(   30) = (   0.0000000  -0.5000000  -0.0000000), wk =   0.0039062
        k(   31) = (  -0.0000000  -0.5000000   0.1250000), wk =   0.0078125
        k(   32) = (  -0.0000000  -0.5000000   0.2500000), wk =   0.0078125
        k(   33) = (   0.0000000  -0.5000000   0.3750000), wk =   0.0078125
        k(   34) = (  -0.0000000  -0.5000000  -0.5000000), wk =   0.0039062
        k(   35) = (   0.1250000   0.0000000   0.0000000), wk =   0.0078125
        k(   36) = (   0.1250000   0.0000000   0.1250000), wk =   0.0078125
        k(   37) = (   0.1250000   0.0000000   0.2500000), wk =   0.0078125
        k(   38) = (   0.1250000   0.0000000   0.3750000), wk =   0.0078125
        k(   39) = (   0.1250000   0.0000000  -0.5000000), wk =   0.0078125
        k(   40) = (   0.1250000   0.0000000  -0.3750000), wk =   0.0078125
        k(   41) = (   0.1250000   0.0000000  -0.2500000), wk =   0.0078125
        k(   42) = (   0.1250000   0.0000000  -0.1250000), wk =   0.0078125
        k(   43) = (   0.1250000   0.1250000  -0.0000000), wk =   0.0078125
        k(   44) = (   0.1250000   0.1250000   0.1250000), wk =   0.0078125
        k(   45) = (   0.1250000   0.1250000   0.2500000), wk =   0.0078125
        k(   46) = (   0.1250000   0.1250000   0.3750000), wk =   0.0078125
        k(   47) = (   0.1250000   0.1250000  -0.5000000), wk =   0.0078125
        k(   48) = (   0.1250000   0.1250000  -0.3750000), wk =   0.0078125
        k(   49) = (   0.1250000   0.1250000  -0.2500000), wk =   0.0078125
        k(   50) = (   0.1250000   0.1250000  -0.1250000), wk =   0.0078125
        k(   51) = (   0.1250000   0.2500000  -0.0000000), wk =   0.0078125
        k(   52) = (   0.1250000   0.2500000   0.1250000), wk =   0.0078125
        k(   53) = (   0.1250000   0.2500000   0.2500000), wk =   0.0078125
        k(   54) = (   0.1250000   0.2500000   0.3750000), wk =   0.0078125
        k(   55) = (   0.1250000   0.2500000  -0.5000000), wk =   0.0078125
        k(   56) = (   0.1250000   0.2500000  -0.3750000), wk =   0.0078125
        k(   57) = (   0.1250000   0.2500000  -0.2500000), wk =   0.0078125
        k(   58) = (   0.1250000   0.2500000  -0.1250000), wk =   0.0078125
        k(   59) = (   0.1250000   0.3750000   0.0000000), wk =   0.0078125
        k(   60) = (   0.1250000   0.3750000   0.1250000), wk =   0.0078125
        k(   61) = (   0.1250000   0.3750000   0.2500000), wk =   0.0078125
        k(   62) = (   0.1250000   0.3750000   0.3750000), wk =   0.0078125
        k(   63) = (   0.1250000   0.3750000  -0.5000000), wk =   0.0078125
        k(   64) = (   0.1250000   0.3750000  -0.3750000), wk =   0.0078125
        k(   65) = (   0.1250000   0.3750000  -0.2500000), wk =   0.0078125
        k(   66) = (   0.1250000   0.3750000  -0.1250000), wk =   0.0078125
        k(   67) = (   0.1250000  -0.5000000   0.0000000), wk =   0.0078125
        k(   68) = (   0.1250000  -0.5000000   0.1250000), wk =   0.0078125
        k(   69) = (   0.1250000  -0.5000000   0.2500000), wk =   0.0078125
        k(   70) = (   0.1250000  -0.5000000   0.3750000), wk =   0.0078125
        k(   71) = (   0.1250000  -0.5000000  -0.5000000), wk =   0.0078125
        k(   72) = (   0.1250000  -0.5000000  -0.3750000), wk =   0.0078125
        k(   73) = (   0.1250000  -0.5000000  -0.2500000), wk =   0.0078125
        k(   74) = (   0.1250000  -0.5000000  -0.1250000), wk =   0.0078125
        k(   75) = (   0.1250000  -0.3750000  -0.0000000), wk =   0.0078125
        k(   76) = (   0.1250000  -0.3750000   0.1250000), wk =   0.0078125
        k(   77) = (   0.1250000  -0.3750000   0.2500000), wk =   0.0078125
        k(   78) = (   0.1250000  -0.3750000   0.3750000), wk =   0.0078125
        k(   79) = (   0.1250000  -0.3750000  -0.5000000), wk =   0.0078125
        k(   80) = (   0.1250000  -0.3750000  -0.3750000), wk =   0.0078125
        k(   81) = (   0.1250000  -0.3750000  -0.2500000), wk =   0.0078125
        k(   82) = (   0.1250000  -0.3750000  -0.1250000), wk =   0.0078125
        k(   83) = (   0.1250000  -0.2500000   0.0000000), wk =   0.0078125
        k(   84) = (   0.1250000  -0.2500000   0.1250000), wk =   0.0078125
        k(   85) = (   0.1250000  -0.2500000   0.2500000), wk =   0.0078125
        k(   86) = (   0.1250000  -0.2500000   0.3750000), wk =   0.0078125
        k(   87) = (   0.1250000  -0.2500000  -0.5000000), wk =   0.0078125
        k(   88) = (   0.1250000  -0.2500000  -0.3750000), wk =   0.0078125
        k(   89) = (   0.1250000  -0.2500000  -0.2500000), wk =   0.0078125
        k(   90) = (   0.1250000  -0.2500000  -0.1250000), wk =   0.0078125
        k(   91) = (   0.1250000  -0.1250000   0.0000000), wk =   0.0078125
        k(   92) = (   0.1250000  -0.1250000   0.1250000), wk =   0.0078125
        k(   93) = (   0.1250000  -0.1250000   0.2500000), wk =   0.0078125
        k(   94) = (   0.1250000  -0.1250000   0.3750000), wk =   0.0078125
        k(   95) = (   0.1250000  -0.1250000  -0.5000000), wk =   0.0078125
        k(   96) = (   0.1250000  -0.1250000  -0.3750000), wk =   0.0078125
        k(   97) = (   0.1250000  -0.1250000  -0.2500000), wk =   0.0078125
        k(   98) = (   0.1250000  -0.1250000  -0.1250000), wk =   0.0078125
        k(   99) = (   0.2500000   0.0000000   0.0000000), wk =   0.0078125
        k(  100) = (   0.2500000   0.0000000   0.1250000), wk =   0.0078125
        k(  101) = (   0.2500000   0.0000000   0.2500000), wk =   0.0078125
        k(  102) = (   0.2500000   0.0000000   0.3750000), wk =   0.0078125
        k(  103) = (   0.2500000   0.0000000  -0.5000000), wk =   0.0078125
        k(  104) = (   0.2500000   0.0000000  -0.3750000), wk =   0.0078125
        k(  105) = (   0.2500000   0.0000000  -0.2500000), wk =   0.0078125
        k(  106) = (   0.2500000   0.0000000  -0.1250000), wk =   0.0078125
        k(  107) = (   0.2500000   0.1250000   0.0000000), wk =   0.0078125
        k(  108) = (   0.2500000   0.1250000   0.1250000), wk =   0.0078125
        k(  109) = (   0.2500000   0.1250000   0.2500000), wk =   0.0078125
        k(  110) = (   0.2500000   0.1250000   0.3750000), wk =   0.0078125
        k(  111) = (   0.2500000   0.1250000  -0.5000000), wk =   0.0078125
        k(  112) = (   0.2500000   0.1250000  -0.3750000), wk =   0.0078125
        k(  113) = (   0.2500000   0.1250000  -0.2500000), wk =   0.0078125
        k(  114) = (   0.2500000   0.1250000  -0.1250000), wk =   0.0078125
        k(  115) = (   0.2500000   0.2500000  -0.0000000), wk =   0.0078125
        k(  116) = (   0.2500000   0.2500000   0.1250000), wk =   0.0078125
        k(  117) = (   0.2500000   0.2500000   0.2500000), wk =   0.0078125
        k(  118) = (   0.2500000   0.2500000   0.3750000), wk =   0.0078125
        k(  119) = (   0.2500000   0.2500000  -0.5000000), wk =   0.0078125
        k(  120) = (   0.2500000   0.2500000  -0.3750000), wk =   0.0078125
        k(  121) = (   0.2500000   0.2500000  -0.2500000), wk =   0.0078125
        k(  122) = (   0.2500000   0.2500000  -0.1250000), wk =   0.0078125
        k(  123) = (   0.2500000   0.3750000   0.0000000), wk =   0.0078125
        k(  124) = (   0.2500000   0.3750000   0.1250000), wk =   0.0078125
        k(  125) = (   0.2500000   0.3750000   0.2500000), wk =   0.0078125
        k(  126) = (   0.2500000   0.3750000   0.3750000), wk =   0.0078125
        k(  127) = (   0.2500000   0.3750000  -0.5000000), wk =   0.0078125
        k(  128) = (   0.2500000   0.3750000  -0.3750000), wk =   0.0078125
        k(  129) = (   0.2500000   0.3750000  -0.2500000), wk =   0.0078125
        k(  130) = (   0.2500000   0.3750000  -0.1250000), wk =   0.0078125
        k(  131) = (   0.2500000  -0.5000000   0.0000000), wk =   0.0078125
        k(  132) = (   0.2500000  -0.5000000   0.1250000), wk =   0.0078125
        k(  133) = (   0.2500000  -0.5000000   0.2500000), wk =   0.0078125
        k(  134) = (   0.2500000  -0.5000000   0.3750000), wk =   0.0078125
        k(  135) = (   0.2500000  -0.5000000  -0.5000000), wk =   0.0078125
        k(  136) = (   0.2500000  -0.5000000  -0.3750000), wk =   0.0078125
        k(  137) = (   0.2500000  -0.5000000  -0.2500000), wk =   0.0078125
        k(  138) = (   0.2500000  -0.5000000  -0.1250000), wk =   0.0078125
        k(  139) = (   0.2500000  -0.3750000   0.0000000), wk =   0.0078125
        k(  140) = (   0.2500000  -0.3750000   0.1250000), wk =   0.0078125
        k(  141) = (   0.2500000  -0.3750000   0.2500000), wk =   0.0078125
        k(  142) = (   0.2500000  -0.3750000   0.3750000), wk =   0.0078125
        k(  143) = (   0.2500000  -0.3750000  -0.5000000), wk =   0.0078125
        k(  144) = (   0.2500000  -0.3750000  -0.3750000), wk =   0.0078125
        k(  145) = (   0.2500000  -0.3750000  -0.2500000), wk =   0.0078125
        k(  146) = (   0.2500000  -0.3750000  -0.1250000), wk =   0.0078125
        k(  147) = (   0.2500000  -0.2500000   0.0000000), wk =   0.0078125
        k(  148) = (   0.2500000  -0.2500000   0.1250000), wk =   0.0078125
        k(  149) = (   0.2500000  -0.2500000   0.2500000), wk =   0.0078125
        k(  150) = (   0.2500000  -0.2500000   0.3750000), wk =   0.0078125
        k(  151) = (   0.2500000  -0.2500000  -0.5000000), wk =   0.0078125
        k(  152) = (   0.2500000  -0.2500000  -0.3750000), wk =   0.0078125
        k(  153) = (   0.2500000  -0.2500000  -0.2500000), wk =   0.0078125
        k(  154) = (   0.2500000  -0.2500000  -0.1250000), wk =   0.0078125
        k(  155) = (   0.2500000  -0.1250000   0.0000000), wk =   0.0078125
        k(  156) = (   0.2500000  -0.1250000   0.1250000), wk =   0.0078125
        k(  157) = (   0.2500000  -0.1250000   0.2500000), wk =   0.0078125
        k(  158) = (   0.2500000  -0.1250000   0.3750000), wk =   0.0078125
        k(  159) = (   0.2500000  -0.1250000  -0.5000000), wk =   0.0078125
        k(  160) = (   0.2500000  -0.1250000  -0.3750000), wk =   0.0078125
        k(  161) = (   0.2500000  -0.1250000  -0.2500000), wk =   0.0078125
        k(  162) = (   0.2500000  -0.1250000  -0.1250000), wk =   0.0078125
        k(  163) = (   0.3750000   0.0000000   0.0000000), wk =   0.0078125
        k(  164) = (   0.3750000   0.0000000   0.1250000), wk =   0.0078125
        k(  165) = (   0.3750000   0.0000000   0.2500000), wk =   0.0078125
        k(  166) = (   0.3750000   0.0000000   0.3750000), wk =   0.0078125
        k(  167) = (   0.3750000   0.0000000  -0.5000000), wk =   0.0078125
        k(  168) = (   0.3750000   0.0000000  -0.3750000), wk =   0.0078125
        k(  169) = (   0.3750000   0.0000000  -0.2500000), wk =   0.0078125
        k(  170) = (   0.3750000   0.0000000  -0.1250000), wk =   0.0078125
        k(  171) = (   0.3750000   0.1250000   0.0000000), wk =   0.0078125
        k(  172) = (   0.3750000   0.1250000   0.1250000), wk =   0.0078125
        k(  173) = (   0.3750000   0.1250000   0.2500000), wk =   0.0078125
        k(  174) = (   0.3750000   0.1250000   0.3750000), wk =   0.0078125
        k(  175) = (   0.3750000   0.1250000  -0.5000000), wk =   0.0078125
        k(  176) = (   0.3750000   0.1250000  -0.3750000), wk =   0.0078125
        k(  177) = (   0.3750000   0.1250000  -0.2500000), wk =   0.0078125
        k(  178) = (   0.3750000   0.1250000  -0.1250000), wk =   0.0078125
        k(  179) = (   0.3750000   0.2500000   0.0000000), wk =   0.0078125
        k(  180) = (   0.3750000   0.2500000   0.1250000), wk =   0.0078125
        k(  181) = (   0.3750000   0.2500000   0.2500000), wk =   0.0078125
        k(  182) = (   0.3750000   0.2500000   0.3750000), wk =   0.0078125
        k(  183) = (   0.3750000   0.2500000  -0.5000000), wk =   0.0078125
        k(  184) = (   0.3750000   0.2500000  -0.3750000), wk =   0.0078125
        k(  185) = (   0.3750000   0.2500000  -0.2500000), wk =   0.0078125
        k(  186) = (   0.3750000   0.2500000  -0.1250000), wk =   0.0078125
        k(  187) = (   0.3750000   0.3750000   0.0000000), wk =   0.0078125
        k(  188) = (   0.3750000   0.3750000   0.1250000), wk =   0.0078125
        k(  189) = (   0.3750000   0.3750000   0.2500000), wk =   0.0078125
        k(  190) = (   0.3750000   0.3750000   0.3750000), wk =   0.0078125
        k(  191) = (   0.3750000   0.3750000  -0.5000000), wk =   0.0078125
        k(  192) = (   0.3750000   0.3750000  -0.3750000), wk =   0.0078125
        k(  193) = (   0.3750000   0.3750000  -0.2500000), wk =   0.0078125
        k(  194) = (   0.3750000   0.3750000  -0.1250000), wk =   0.0078125
        k(  195) = (   0.3750000  -0.5000000  -0.0000000), wk =   0.0078125
        k(  196) = (   0.3750000  -0.5000000   0.1250000), wk =   0.0078125
        k(  197) = (   0.3750000  -0.5000000   0.2500000), wk =   0.0078125
        k(  198) = (   0.3750000  -0.5000000   0.3750000), wk =   0.0078125
        k(  199) = (   0.3750000  -0.5000000  -0.5000000), wk =   0.0078125
        k(  200) = (   0.3750000  -0.5000000  -0.3750000), wk =   0.0078125
        k(  201) = (   0.3750000  -0.5000000  -0.2500000), wk =   0.0078125
        k(  202) = (   0.3750000  -0.5000000  -0.1250000), wk =   0.0078125
        k(  203) = (   0.3750000  -0.3750000   0.0000000), wk =   0.0078125
        k(  204) = (   0.3750000  -0.3750000   0.1250000), wk =   0.0078125
        k(  205) = (   0.3750000  -0.3750000   0.2500000), wk =   0.0078125
        k(  206) = (   0.3750000  -0.3750000   0.3750000), wk =   0.0078125
        k(  207) = (   0.3750000  -0.3750000  -0.5000000), wk =   0.0078125
        k(  208) = (   0.3750000  -0.3750000  -0.3750000), wk =   0.0078125
        k(  209) = (   0.3750000  -0.3750000  -0.2500000), wk =   0.0078125
        k(  210) = (   0.3750000  -0.3750000  -0.1250000), wk =   0.0078125
        k(  211) = (   0.3750000  -0.2500000   0.0000000), wk =   0.0078125
        k(  212) = (   0.3750000  -0.2500000   0.1250000), wk =   0.0078125
        k(  213) = (   0.3750000  -0.2500000   0.2500000), wk =   0.0078125
        k(  214) = (   0.3750000  -0.2500000   0.3750000), wk =   0.0078125
        k(  215) = (   0.3750000  -0.2500000  -0.5000000), wk =   0.0078125
        k(  216) = (   0.3750000  -0.2500000  -0.3750000), wk =   0.0078125
        k(  217) = (   0.3750000  -0.2500000  -0.2500000), wk =   0.0078125
        k(  218) = (   0.3750000  -0.2500000  -0.1250000), wk =   0.0078125
        k(  219) = (   0.3750000  -0.1250000   0.0000000), wk =   0.0078125
        k(  220) = (   0.3750000  -0.1250000   0.1250000), wk =   0.0078125
        k(  221) = (   0.3750000  -0.1250000   0.2500000), wk =   0.0078125
        k(  222) = (   0.3750000  -0.1250000   0.3750000), wk =   0.0078125
        k(  223) = (   0.3750000  -0.1250000  -0.5000000), wk =   0.0078125
        k(  224) = (   0.3750000  -0.1250000  -0.3750000), wk =   0.0078125
        k(  225) = (   0.3750000  -0.1250000  -0.2500000), wk =   0.0078125
        k(  226) = (   0.3750000  -0.1250000  -0.1250000), wk =   0.0078125
        k(  227) = (  -0.5000000  -0.0000000  -0.0000000), wk =   0.0039062
        k(  228) = (  -0.5000000  -0.0000000   0.1250000), wk =   0.0078125
        k(  229) = (  -0.5000000  -0.0000000   0.2500000), wk =   0.0078125
        k(  230) = (  -0.5000000  -0.0000000   0.3750000), wk =   0.0078125
        k(  231) = (  -0.5000000  -0.0000000  -0.5000000), wk =   0.0039062
        k(  232) = (  -0.5000000   0.1250000  -0.0000000), wk =   0.0078125
        k(  233) = (  -0.5000000   0.1250000   0.1250000), wk =   0.0078125
        k(  234) = (  -0.5000000   0.1250000   0.2500000), wk =   0.0078125
        k(  235) = (  -0.5000000   0.1250000   0.3750000), wk =   0.0078125
        k(  236) = (  -0.5000000   0.1250000  -0.5000000), wk =   0.0078125
        k(  237) = (  -0.5000000   0.1250000  -0.3750000), wk =   0.0078125
        k(  238) = (  -0.5000000   0.1250000  -0.2500000), wk =   0.0078125
        k(  239) = (  -0.5000000   0.1250000  -0.1250000), wk =   0.0078125
        k(  240) = (  -0.5000000   0.2500000  -0.0000000), wk =   0.0078125
        k(  241) = (  -0.5000000   0.2500000   0.1250000), wk =   0.0078125
        k(  242) = (  -0.5000000   0.2500000   0.2500000), wk =   0.0078125
        k(  243) = (  -0.5000000   0.2500000   0.3750000), wk =   0.0078125
        k(  244) = (  -0.5000000   0.2500000  -0.5000000), wk =   0.0078125
        k(  245) = (  -0.5000000   0.2500000  -0.3750000), wk =   0.0078125
        k(  246) = (  -0.5000000   0.2500000  -0.2500000), wk =   0.0078125
        k(  247) = (  -0.5000000   0.2500000  -0.1250000), wk =   0.0078125
        k(  248) = (  -0.5000000   0.3750000  -0.0000000), wk =   0.0078125
        k(  249) = (  -0.5000000   0.3750000   0.1250000), wk =   0.0078125
        k(  250) = (  -0.5000000   0.3750000   0.2500000), wk =   0.0078125
        k(  251) = (  -0.5000000   0.3750000   0.3750000), wk =   0.0078125
        k(  252) = (  -0.5000000   0.3750000  -0.5000000), wk =   0.0078125
        k(  253) = (  -0.5000000   0.3750000  -0.3750000), wk =   0.0078125
        k(  254) = (  -0.5000000   0.3750000  -0.2500000), wk =   0.0078125
        k(  255) = (  -0.5000000   0.3750000  -0.1250000), wk =   0.0078125
        k(  256) = (  -0.5000000  -0.5000000   0.0000000), wk =   0.0039062
        k(  257) = (  -0.5000000  -0.5000000   0.1250000), wk =   0.0078125
        k(  258) = (  -0.5000000  -0.5000000   0.2500000), wk =   0.0078125
        k(  259) = (  -0.5000000  -0.5000000   0.3750000), wk =   0.0078125
        k(  260) = (  -0.5000000  -0.5000000  -0.5000000), wk =   0.0039062

     Dense  grid:    76935 G-vectors     FFT dimensions: (  50,  50,  72)

     Smooth grid:    29859 G-vectors     FFT dimensions: (  40,  40,  54)

     Dynamical RAM for                 wfc:       0.09 MB

     Dynamical RAM for     wfc (w. buffer):       6.13 MB

     Dynamical RAM for           str. fact:       0.15 MB

     Dynamical RAM for           local pot:       0.00 MB

     Dynamical RAM for          nlocal pot:       0.22 MB

     Dynamical RAM for                qrad:       3.98 MB

     Dynamical RAM for          rho,v,vnew:       0.51 MB

     Dynamical RAM for               rhoin:       0.17 MB

     Dynamical RAM for            rho*nmix:       1.17 MB

     Dynamical RAM for           G-vectors:       0.29 MB

     Dynamical RAM for          h,s,v(r/c):       0.12 MB

     Dynamical RAM for          <psi|beta>:       0.02 MB

     Dynamical RAM for                 psi:       0.37 MB

     Dynamical RAM for                hpsi:       0.37 MB

     Dynamical RAM for                spsi:       0.37 MB

     Dynamical RAM for      wfcinit/wfcrot:       0.27 MB

     Dynamical RAM for           addusdens:       3.50 MB

     Dynamical RAM for          addusforce:       3.65 MB

     Dynamical RAM for         addusstress:       3.71 MB

     Estimated static dynamical RAM per process >      13.31 MB

     Estimated max dynamical RAM per process >      17.03 MB

     Estimated total dynamical RAM >       1.06 GB

     Check: negative core charge=   -0.000003

     Initial potential from superposition of free atoms

     starting charge   51.99974, renormalised to   52.00000
     Starting wfcs are   34 randomized atomic wfcs

     total cpu time spent up to now is        2.7 secs

     Self-consistent Calculation

     iteration #  1     ecut=    80.00 Ry     beta= 0.50
     Davidson diagonalization with overlap
     ethr =  1.00E-02,  avg # of iterations =  1.0

     total cpu time spent up to now is        3.6 secs

     total energy              =    -986.75494232 Ry
     Harris-Foulkes estimate   =    -987.27457295 Ry
     estimated scf accuracy    <       0.81660448 Ry

     iteration #  2     ecut=    80.00 Ry     beta= 0.50
     Davidson diagonalization with overlap
     ethr =  1.57E-03,  avg # of iterations =  3.0

     total cpu time spent up to now is        4.9 secs

     total energy              =    -986.99592297 Ry
     Harris-Foulkes estimate   =    -987.16113621 Ry
     estimated scf accuracy    <       0.38032215 Ry

     iteration #  3     ecut=    80.00 Ry     beta= 0.50
     Davidson diagonalization with overlap
     ethr =  7.31E-04,  avg # of iterations =  2.1

     total cpu time spent up to now is        6.1 secs

     total energy              =    -987.06435793 Ry
     Harris-Foulkes estimate   =    -987.06664405 Ry
     estimated scf accuracy    <       0.00681998 Ry

     iteration #  4     ecut=    80.00 Ry     beta= 0.50
     Davidson diagonalization with overlap
     ethr =  1.31E-05,  avg # of iterations =  2.0

     total cpu time spent up to now is        7.2 secs

     total energy              =    -987.06494513 Ry
     Harris-Foulkes estimate   =    -987.06538827 Ry
     estimated scf accuracy    <       0.00151022 Ry

     iteration #  5     ecut=    80.00 Ry     beta= 0.50
     Davidson diagonalization with overlap
     ethr =  2.90E-06,  avg # of iterations =  2.0

     total cpu time spent up to now is        8.3 secs

     total energy              =    -987.06509952 Ry
     Harris-Foulkes estimate   =    -987.06510779 Ry
     estimated scf accuracy    <       0.00001672 Ry

     iteration #  6     ecut=    80.00 Ry     beta= 0.50
     Davidson diagonalization with overlap
     ethr =  3.21E-08,  avg # of iterations =  2.2

     total cpu time spent up to now is        9.5 secs

     total energy              =    -987.06510260 Ry
     Harris-Foulkes estimate   =    -987.06510207 Ry
     estimated scf accuracy    <       0.00000364 Ry

     iteration #  7     ecut=    80.00 Ry     beta= 0.50
     Davidson diagonalization with overlap
     ethr =  7.00E-09,  avg # of iterations =  2.0

     total cpu time spent up to now is       10.5 secs

     End of self-consistent calculation

          k = 0.0000 0.0000 0.0000 (  3703 PWs)   bands (ev):

  -113.9791-113.9785 -68.3705 -68.3646 -68.3236 -68.3236 -68.3219 -68.3219
    -8.9142  -7.8377   3.2439   3.2439   3.2997   3.2997   4.0141   4.3516
     4.4986   4.4986   4.8414   4.8414   5.2255   8.4085   8.4085   8.4191
     9.0933   9.0933

     occupation numbers 
     1.0000   1.0000   1.0000   1.0000   1.0000   1.0000   1.0000   1.0000
     1.0000   1.0000   1.0000   1.0000   1.0000   1.0000   1.0000   1.0000
     1.0000   1.0000   1.0000   1.0000   1.0000   1.0000   1.0000   1.0000
     1.0000   1.0000

          k = 0.0000-0.0000 0.0902 (  3739 PWs)   bands (ev):

  -113.9791-113.9785 -68.3703 -68.3649 -68.3235 -68.3235 -68.3220 -68.3220
    -8.8743  -7.8791   3.2380   3.2380   3.2879   3.2879   3.8632   4.2730
     4.5213   4.5213   4.8365   4.8365   5.4686   8.1400   8.4393   8.4393
     9.0730   9.0730

     occupation numbers 
     1.0000   1.0000   1.0000   1.0000   1.0000   1.0000   1.0000   1.0000
     1.0000   1.0000   1.0000   1.0000   1.0000   1.0000   1.0000   1.0000
     1.0000   1.0000   1.0000   1.0000   1.0000   1.0000   1.0000   1.0000
     1.0000   1.0000

          k = 0.0000-0.0000 0.1804 (  3739 PWs)   bands (ev):

  -113.9790-113.9785 -68.3697 -68.3655 -68.3234 -68.3234 -68.3222 -68.3222
    -8.7599  -7.9969   3.2245   3.2245   3.2599   3.2599   3.6446   4.0681
     4.5805   4.5805   4.8190   4.8190   5.9487   7.6865   8.5255   8.5255
     9.0123   9.0123

     occupation numbers 
     1.0000   1.0000   1.0000   1.0000   1.0000   1.0000   1.0000   1.0000
     1.0000   1.0000   1.0000   1.0000   1.0000   1.0000   1.0000   1.0000
     1.0000   1.0000   1.0000   1.0000   1.0000   1.0000   1.0000   1.0000
     1.0000   1.0000

          k = 0.0000-0.0000 0.2706 (  3727 PWs)   bands (ev):

  -113.9790-113.9786 -68.3687 -68.3664 -68.3232 -68.3232 -68.3224 -68.3224
    -8.5871  -8.1735   3.2134   3.2134   3.2312   3.2312   3.5518   3.8183
     4.6558   4.6558   4.7836   4.7836   6.4392   7.2729   8.6495   8.6495
     8.9140   8.9140

     occupation numbers 
     1.0000   1.0000   1.0000   1.0000   1.0000   1.0000   1.0000   1.0000
     1.0000   1.0000   1.0000   1.0000   1.0000   1.0000   1.0000   1.0000
     1.0000   1.0000   1.0000   1.0000   1.0000   1.0000   1.0000   1.0000
     1.0000   1.0000

          k =-0.0000 0.0000-0.3608 (  3710 PWs)   bands (ev):

  -113.9790-113.9786 -68.3677 -68.3674 -68.3229 -68.3229 -68.3226 -68.3226
    -8.3812  -8.3811   3.2142   3.2142   3.2144   3.2144   3.6208   3.6210
     4.7276   4.7276   4.7279   4.7279   6.8750   6.8752   8.7871   8.7871
     8.7872   8.7872

     occupation numbers 
     1.0000   1.0000   1.0000   1.0000   1.0000   1.0000   1.0000   1.0000
     1.0000   1.0000   1.0000   1.0000   1.0000   1.0000   1.0000   1.0000
     1.0000   1.0000   1.0000   1.0000   1.0000   1.0000   1.0000   1.0000
     1.0000   1.0000

          k =-0.0000 0.1443-0.0000 (  3747 PWs)   bands (ev):

  -113.9791-113.9785 -68.3703 -68.3649 -68.3238 -68.3237 -68.3222 -68.3220
    -8.8265  -7.8170   3.2037   3.2769   3.3143   3.4026   3.9319   4.3355
     4.4781   4.4917   4.8542   5.0842   5.2255   7.8670   8.1427   8.2659
     8.3916   8.9195

     occupation numbers 
     1.0000   1.0000   1.0000   1.0000   1.0000   1.0000   1.0000   1.0000
     1.0000   1.0000   1.0000   1.0000   1.0000   1.0000   1.0000   1.0000
     1.0000   1.0000   1.0000   1.0000   1.0000   1.0000   1.0000   1.0000
     1.0000   1.0000

          k =-0.0000 0.1443 0.0902 (  3744 PWs)   bands (ev):

  -113.9790-113.9785 -68.3701 -68.3651 -68.3237 -68.3236 -68.3223 -68.3220
    -8.7884  -7.8548   3.1896   3.2556   3.3094   3.3888   3.8193   4.2402
     4.5023   4.5322   4.8476   4.9611   5.5495   7.8141   7.9790   8.1770
     8.7046   8.8956

     occupation numbers 
     1.0000   1.0000   1.0000   1.0000   1.0000   1.0000   1.0000   1.0000
     1.0000   1.0000   1.0000   1.0000   1.0000   1.0000   1.0000   1.0000
     1.0000   1.0000   1.0000   1.0000   1.0000   1.0000   1.0000   1.0000
     1.0000   1.0000

          k =-0.0000 0.1443 0.1804 (  3737 PWs)   bands (ev):

  -113.9790-113.9785 -68.3695 -68.3656 -68.3235 -68.3235 -68.3224 -68.3222
    -8.6794  -7.9633   3.1489   3.2022   3.2987   3.3560   3.6518   4.0312
     4.5650   4.6060   4.8256   4.8904   6.0247   7.4436   8.1068   8.2732
     8.8248   8.8567

     occupation numbers 
     1.0000   1.0000   1.0000   1.0000   1.0000   1.0000   1.0000   1.0000
     1.0000   1.0000   1.0000   1.0000   1.0000   1.0000   1.0000   1.0000
     1.0000   1.0000   1.0000   1.0000   1.0000   1.0000   1.0000   1.0000
     1.0000   1.0000

          k =-0.0000 0.1443 0.2706 (  3729 PWs)   bands (ev):

  -113.9790-113.9786 -68.3686 -68.3665 -68.3233 -68.3232 -68.3226 -68.3225
    -8.5154  -8.1270   3.1056   3.1465   3.2919   3.3212   3.5862   3.8018
     4.6450   4.6895   4.7842   4.8350   6.4583   7.1159   8.3429   8.4119
     8.7114   8.7970

     occupation numbers 
     1.0000   1.0000   1.0000   1.0000   1.0000   1.0000   1.0000   1.0000
     1.0000   1.0000   1.0000   1.0000   1.0000   1.0000   1.0000   1.0000
     1.0000   1.0000   1.0000   1.0000   1.0000   1.0000   1.0000   1.0000
     1.0000   1.0000

          k =-0.0000 0.1443-0.3608 (  3720 PWs)   bands (ev):

  -113.9790-113.9786 -68.3677 -68.3674 -68.3231 -68.3230 -68.3228 -68.3227
    -8.3213  -8.3212   3.1063   3.1064   3.2982   3.2983   3.6388   3.6390
     4.7221   4.7224   4.7688   4.7690   6.8090   6.8091   8.5669   8.5670
     8.6000   8.6001

     occupation numbers 
     1.0000   1.0000   1.0000   1.0000   1.0000   1.0000   1.0000   1.0000
     1.0000   1.0000   1.0000   1.0000   1.0000   1.0000   1.0000   1.0000
     1.0000   1.0000   1.0000   1.0000   1.0000   1.0000   1.0000   1.0000
     1.0000   1.0000

          k =-0.0000 0.1443-0.2706 (  3729 PWs)   bands (ev):

  -113.9790-113.9786 -68.3686 -68.3665 -68.3233 -68.3232 -68.3226 -68.3225
    -8.5154  -8.1271   3.1056   3.1465   3.2919   3.3212   3.5862   3.8018
     4.6449   4.6895   4.7842   4.8351   6.4583   7.1159   8.3429   8.4119
     8.7114   8.7970

     occupation numbers 
     1.0000   1.0000   1.0000   1.0000   1.0000   1.0000   1.0000   1.0000
     1.0000   1.0000   1.0000   1.0000   1.0000   1.0000   1.0000   1.0000
     1.0000   1.0000   1.0000   1.0000   1.0000   1.0000   1.0000   1.0000
     1.0000   1.0000

          k =-0.0000 0.1443-0.1804 (  3737 PWs)   bands (ev):

  -113.9790-113.9785 -68.3695 -68.3656 -68.3235 -68.3235 -68.3224 -68.3222
    -8.6794  -7.9633   3.1489   3.2022   3.2987   3.3560   3.6518   4.0312
     4.5650   4.6060   4.8256   4.8904   6.0247   7.4436   8.1068   8.2732
     8.8248   8.8567

     occupation numbers 
     1.0000   1.0000   1.0000   1.0000   1.0000   1.0000   1.0000   1.0000
     1.0000   1.0000   1.0000   1.0000   1.0000   1.0000   1.0000   1.0000
     1.0000   1.0000   1.0000   1.0000   1.0000   1.0000   1.0000   1.0000
     1.0000   1.0000

          k =-0.0000 0.1443-0.0902 (  3744 PWs)   bands (ev):

  -113.9790-113.9785 -68.3701 -68.3651 -68.3237 -68.3236 -68.3223 -68.3220
    -8.7884  -7.8548   3.1896   3.2556   3.3094   3.3888   3.8193   4.2402
     4.5023   4.5322   4.8476   4.9611   5.5495   7.8141   7.9790   8.1770
     8.7046   8.8956

     occupation numbers 
     1.0000   1.0000   1.0000   1.0000   1.0000   1.0000   1.0000   1.0000
     1.0000   1.0000   1.0000   1.0000   1.0000   1.0000   1.0000   1.0000
     1.0000   1.0000   1.0000   1.0000   1.0000   1.0000   1.0000   1.0000
     1.0000   1.0000

          k =-0.0000 0.2887-0.0000 (  3762 PWs)   bands (ev):

  -113.9790-113.9785 -68.3697 -68.3654 -68.3242 -68.3239 -68.3228 -68.3221
    -8.5959  -7.7804   3.0864   3.3285   3.5300   3.6521   3.8668   4.2361
     4.4430   4.5364   4.8793   5.1701   5.6283   6.7737   7.2274   7.5127
     8.2608   8.4758

     occupation numbers 
     1.0000   1.0000   1.0000   1.0000   1.0000   1.0000   1.0000   1.0000
     1.0000   1.0000   1.0000   1.0000   1.0000   1.0000   1.0000   1.0000
     1.0000   1.0000   1.0000   1.0000   1.0000   1.0000   1.0000   1.0000
     1.0000   1.0000

          k =-0.0000 0.2887 0.0902 (  3756 PWs)   bands (ev):

  -113.9790-113.9785 -68.3696 -68.3655 -68.3241 -68.3238 -68.3229 -68.3221
    -8.5632  -7.8087   3.0657   3.2739   3.5257   3.6348   3.7945   4.1399
     4.4698   4.5828   4.8685   5.0862   5.8227   6.8669   7.1180   7.5552
     8.4413   8.4451

     occupation numbers 
     1.0000   1.0000   1.0000   1.0000   1.0000   1.0000   1.0000   1.0000
     1.0000   1.0000   1.0000   1.0000   1.0000   1.0000   1.0000   1.0000
     1.0000   1.0000   1.0000   1.0000   1.0000   1.0000   1.0000   1.0000
     1.0000   1.0000

          k =-0.0000 0.2887 0.1804 (  3746 PWs)   bands (ev):

  -113.9790-113.9785 -68.3691 -68.3660 -68.3240 -68.3236 -68.3230 -68.3223
    -8.4704  -7.8908   3.0050   3.1407   3.5169   3.5945   3.6850   3.9462
     4.5381   4.6682   4.8361   4.9971   6.0818   6.7599   7.3932   7.6738
     8.3552   8.6828

     occupation numbers 
     1.0000   1.0000   1.0000   1.0000   1.0000   1.0000   1.0000   1.0000
     1.0000   1.0000   1.0000   1.0000   1.0000   1.0000   1.0000   1.0000
     1.0000   1.0000   1.0000   1.0000   1.0000   1.0000   1.0000   1.0000
     1.0000   1.0000

          k =-0.0000 0.2887 0.2706 (  3736 PWs)   bands (ev):

  -113.9790-113.9786 -68.3684 -68.3667 -68.3238 -68.3234 -68.3232 -68.3226
    -8.3328  -8.0180   2.9364   3.0122   3.5131   3.5525   3.6353   3.7658
     4.6245   4.7606   4.7825   4.9255   6.2623   6.5684   7.8442   7.9377
     8.2132   8.6949

     occupation numbers 
     1.0000   1.0000   1.0000   1.0000   1.0000   1.0000   1.0000   1.0000
     1.0000   1.0000   1.0000   1.0000   1.0000   1.0000   1.0000   1.0000
     1.0000   1.0000   1.0000   1.0000   1.0000   1.0000   1.0000   1.0000
     1.0000   1.0000

          k =-0.0000 0.2887-0.3608 (  3732 PWs)   bands (ev):

  -113.9789-113.9786 -68.3677 -68.3674 -68.3236 -68.3233 -68.3232 -68.3228
    -8.1733  -8.1732   2.9337   2.9337   3.5237   3.5238   3.6594   3.6595
     4.7098   4.7100   4.8483   4.8484   6.4111   6.4112   8.0345   8.0346
     8.4214   8.4215

     occupation numbers 
     1.0000   1.0000   1.0000   1.0000   1.0000   1.0000   1.0000   1.0000
     1.0000   1.0000   1.0000   1.0000   1.0000   1.0000   1.0000   1.0000
     1.0000   1.0000   1.0000   1.0000   1.0000   1.0000   1.0000   1.0000
     1.0000   1.0000

          k =-0.0000 0.2887-0.2706 (  3736 PWs)   bands (ev):

  -113.9790-113.9786 -68.3684 -68.3667 -68.3238 -68.3234 -68.3232 -68.3226
    -8.3328  -8.0180   2.9364   3.0122   3.5131   3.5525   3.6353   3.7658
     4.6245   4.7606   4.7825   4.9255   6.2623   6.5683   7.8442   7.9377
     8.2132   8.6949

     occupation numbers 
     1.0000   1.0000   1.0000   1.0000   1.0000   1.0000   1.0000   1.0000
     1.0000   1.0000   1.0000   1.0000   1.0000   1.0000   1.0000   1.0000
     1.0000   1.0000   1.0000   1.0000   1.0000   1.0000   1.0000   1.0000
     1.0000   1.0000

          k =-0.0000 0.2887-0.1804 (  3746 PWs)   bands (ev):

  -113.9790-113.9785 -68.3691 -68.3660 -68.3240 -68.3236 -68.3230 -68.3223
    -8.4704  -7.8908   3.0051   3.1407   3.5169   3.5945   3.6851   3.9462
     4.5381   4.6681   4.8361   4.9971   6.0818   6.7599   7.3932   7.6738
     8.3552   8.6828

     occupation numbers 
     1.0000   1.0000   1.0000   1.0000   1.0000   1.0000   1.0000   1.0000
     1.0000   1.0000   1.0000   1.0000   1.0000   1.0000   1.0000   1.0000
     1.0000   1.0000   1.0000   1.0000   1.0000   1.0000   1.0000   1.0000
     1.0000   1.0000

          k =-0.0000 0.2887-0.0902 (  3756 PWs)   bands (ev):

  -113.9790-113.9785 -68.3696 -68.3655 -68.3241 -68.3238 -68.3229 -68.3221
    -8.5632  -7.8087   3.0657   3.2739   3.5257   3.6348   3.7945   4.1399
     4.4698   4.5828   4.8686   5.0863   5.8227   6.8670   7.1179   7.5552
     8.4413   8.4451

     occupation numbers 
     1.0000   1.0000   1.0000   1.0000   1.0000   1.0000   1.0000   1.0000
     1.0000   1.0000   1.0000   1.0000   1.0000   1.0000   1.0000   1.0000
     1.0000   1.0000   1.0000   1.0000   1.0000   1.0000   1.0000   1.0000
     1.0000   1.0000

          k =-0.0000 0.4330-0.0000 (  3752 PWs)   bands (ev):

  -113.9790-113.9785 -68.3689 -68.3660 -68.3246 -68.3241 -68.3234 -68.3221
    -8.3174  -7.7838   3.0549   3.4306   3.8123   3.9174   3.9463   4.1337
     4.4504   4.6078   4.8988   5.0543   5.7889   6.1311   6.4099   6.8502
     7.9949   8.0212

     occupation numbers 
     1.0000   1.0000   1.0000   1.0000   1.0000   1.0000   1.0000   1.0000
     1.0000   1.0000   1.0000   1.0000   1.0000   1.0000   1.0000   1.0000
     1.0000   1.0000   1.0000   1.0000   1.0000   1.0000   1.0000   1.0000
     1.0000   1.0000

          k =-0.0000 0.4330 0.0902 (  3748 PWs)   bands (ev):

  -113.9790-113.9785 -68.3688 -68.3662 -68.3245 -68.3240 -68.3235 -68.3222
    -8.2932  -7.7991   3.0227   3.3564   3.8072   3.8719   3.8995   4.0602
     4.4759   4.6470   4.8826   5.0337   5.7146   6.0898   6.7033   6.9038
     7.9591   8.2006

     occupation numbers 
     1.0000   1.0000   1.0000   1.0000   1.0000   1.0000   1.0000   1.0000
     1.0000   1.0000   1.0000   1.0000   1.0000   1.0000   1.0000   1.0000
     1.0000   1.0000   1.0000   1.0000   1.0000   1.0000   1.0000   1.0000
     1.0000   1.0000

          k =-0.0000 0.4330 0.1804 (  3756 PWs)   bands (ev):

  -113.9789-113.9785 -68.3686 -68.3665 -68.3244 -68.3238 -68.3236 -68.3224
    -8.2255  -7.8454   2.9340   3.1701   3.7553   3.7960   3.8593   3.9124
     4.5396   4.7234   4.8384   4.9913   5.6861   5.9580   7.0504   7.3349
     7.8542   8.5259

     occupation numbers 
     1.0000   1.0000   1.0000   1.0000   1.0000   1.0000   1.0000   1.0000
     1.0000   1.0000   1.0000   1.0000   1.0000   1.0000   1.0000   1.0000
     1.0000   1.0000   1.0000   1.0000   1.0000   1.0000   1.0000   1.0000
     1.0000   1.0000

          k =-0.0000 0.4330 0.2706 (  3754 PWs)   bands (ev):

  -113.9789-113.9786 -68.3681 -68.3670 -68.3242 -68.3237 -68.3235 -68.3227
    -8.1281  -7.9213   2.8464   2.9718   3.6972   3.7845   3.7886   3.8198
     4.6192   4.7753   4.8034   4.9394   5.7178   5.8509   7.2558   7.6889
     7.9887   8.6724

     occupation numbers 
     1.0000   1.0000   1.0000   1.0000   1.0000   1.0000   1.0000   1.0000
     1.0000   1.0000   1.0000   1.0000   1.0000   1.0000   1.0000   1.0000
     1.0000   1.0000   1.0000   1.0000   1.0000   1.0000   1.0000   1.0000
     1.0000   1.0000

          k =-0.0000 0.4330-0.3608 (  3742 PWs)   bands (ev):

  -113.9789-113.9786 -68.3677 -68.3674 -68.3241 -68.3238 -68.3233 -68.3230
    -8.0203  -8.0202   2.8494   2.8495   3.7098   3.7100   3.7949   3.7950
     4.7003   4.7005   4.8767   4.8768   5.7749   5.7750   7.4804   7.4804
     8.4807   8.4809

     occupation numbers 
     1.0000   1.0000   1.0000   1.0000   1.0000   1.0000   1.0000   1.0000
     1.0000   1.0000   1.0000   1.0000   1.0000   1.0000   1.0000   1.0000
     1.0000   1.0000   1.0000   1.0000   1.0000   1.0000   1.0000   1.0000
     1.0000   1.0000

          k =-0.0000 0.4330-0.2706 (  3754 PWs)   bands (ev):

  -113.9789-113.9786 -68.3681 -68.3670 -68.3242 -68.3237 -68.3235 -68.3227
    -8.1281  -7.9213   2.8464   2.9718   3.6973   3.7844   3.7886   3.8198
     4.6192   4.7753   4.8034   4.9395   5.7178   5.8509   7.2558   7.6889
     7.9887   8.6724

     occupation numbers 
     1.0000   1.0000   1.0000   1.0000   1.0000   1.0000   1.0000   1.0000
     1.0000   1.0000   1.0000   1.0000   1.0000   1.0000   1.0000   1.0000
     1.0000   1.0000   1.0000   1.0000   1.0000   1.0000   1.0000   1.0000
     1.0000   1.0000

          k =-0.0000 0.4330-0.1804 (  3756 PWs)   bands (ev):

  -113.9789-113.9785 -68.3686 -68.3665 -68.3244 -68.3238 -68.3236 -68.3224
    -8.2255  -7.8454   2.9340   3.1701   3.7554   3.7960   3.8593   3.9124
     4.5395   4.7234   4.8385   4.9913   5.6861   5.9580   7.0504   7.3349
     7.8542   8.5259

     occupation numbers 
     1.0000   1.0000   1.0000   1.0000   1.0000   1.0000   1.0000   1.0000
     1.0000   1.0000   1.0000   1.0000   1.0000   1.0000   1.0000   1.0000
     1.0000   1.0000   1.0000   1.0000   1.0000   1.0000   1.0000   1.0000
     1.0000   1.0000

          k =-0.0000 0.4330-0.0902 (  3748 PWs)   bands (ev):

  -113.9790-113.9785 -68.3688 -68.3662 -68.3245 -68.3240 -68.3235 -68.3222
    -8.2932  -7.7991   3.0227   3.3564   3.8072   3.8719   3.8995   4.0601
     4.4759   4.6470   4.8826   5.0337   5.7146   6.0899   6.7033   6.9038
     7.9591   8.2006

     occupation numbers 
     1.0000   1.0000   1.0000   1.0000   1.0000   1.0000   1.0000   1.0000
     1.0000   1.0000   1.0000   1.0000   1.0000   1.0000   1.0000   1.0000
     1.0000   1.0000   1.0000   1.0000   1.0000   1.0000   1.0000   1.0000
     1.0000   1.0000

          k = 0.0000-0.5774 0.0000 (  3730 PWs)   bands (ev):

  -113.9789-113.9785 -68.3684 -68.3665 -68.3247 -68.3242 -68.3237 -68.3221
    -8.1650  -7.8198   3.0902   3.4690   3.9564   3.9696   4.0222   4.2105
     4.4936   4.6526   4.9054   4.9163   5.5180   5.7062   6.5429   6.6282
     7.7802   7.8414

     occupation numbers 
     1.0000   1.0000   1.0000   1.0000   1.0000   1.0000   1.0000   1.0000
     1.0000   1.0000   1.0000   1.0000   1.0000   1.0000   1.0000   1.0000
     1.0000   1.0000   1.0000   1.0000   1.0000   1.0000   1.0000   1.0000
     1.0000   1.0000

          k = 0.0000-0.5774 0.0902 (  3742 PWs)   bands (ev):

  -113.9789-113.9785 -68.3684 -68.3666 -68.3247 -68.3241 -68.3237 -68.3222
    -8.1468  -7.8272   3.0476   3.3978   3.8914   3.9507   4.0078   4.1381
     4.5138   4.6834   4.8850   4.9095   5.4912   5.6325   6.6042   6.9111
     7.7424   8.0338

     occupation numbers 
     1.0000   1.0000   1.0000   1.0000   1.0000   1.0000   1.0000   1.0000
     1.0000   1.0000   1.0000   1.0000   1.0000   1.0000   1.0000   1.0000
     1.0000   1.0000   1.0000   1.0000   1.0000   1.0000   1.0000   1.0000
     1.0000   1.0000

          k = 0.0000-0.5774 0.1804 (  3768 PWs)   bands (ev):

  -113.9789-113.9785 -68.3683 -68.3668 -68.3246 -68.3239 -68.3238 -68.3225
    -8.0969  -7.8509   2.9357   3.2058   3.7762   3.9377   3.9755   3.9874
     4.5646   4.7377   4.8335   4.8920   5.4659   5.5507   6.7688   7.4986
     7.6318   8.4147

     occupation numbers 
     1.0000   1.0000   1.0000   1.0000   1.0000   1.0000   1.0000   1.0000
     1.0000   1.0000   1.0000   1.0000   1.0000   1.0000   1.0000   1.0000
     1.0000   1.0000   1.0000   1.0000   1.0000   1.0000   1.0000   1.0000
     1.0000   1.0000

          k = 0.0000-0.5774 0.2706 (  3740 PWs)   bands (ev):

  -113.9789-113.9785 -68.3679 -68.3671 -68.3244 -68.3239 -68.3236 -68.3227
    -8.0277  -7.8938   2.8342   2.9820   3.7345   3.8532   3.9267   3.9445
     4.6295   4.7680   4.7874   4.8654   5.4719   5.5121   6.9939   7.4570
     8.1043   8.6483

     occupation numbers 
     1.0000   1.0000   1.0000   1.0000   1.0000   1.0000   1.0000   1.0000
     1.0000   1.0000   1.0000   1.0000   1.0000   1.0000   1.0000   1.0000
     1.0000   1.0000   1.0000   1.0000   1.0000   1.0000   1.0000   1.0000
     1.0000   1.0000

          k = 0.0000-0.5773-0.3608 (  3752 PWs)   bands (ev):

  -113.9789-113.9786 -68.3677 -68.3674 -68.3243 -68.3240 -68.3233 -68.3230
    -7.9553  -7.9552   2.8400   2.8400   3.7657   3.7659   3.9272   3.9273
     4.6986   4.6988   4.8300   4.8303   5.4903   5.4905   7.2354   7.2354
     8.5371   8.5373

     occupation numbers 
     1.0000   1.0000   1.0000   1.0000   1.0000   1.0000   1.0000   1.0000
     1.0000   1.0000   1.0000   1.0000   1.0000   1.0000   1.0000   1.0000
     1.0000   1.0000   1.0000   1.0000   1.0000   1.0000   1.0000   1.0000
     1.0000   1.0000

          k = 0.1250 0.0722-0.0000 (  3747 PWs)   bands (ev):

  -113.9791-113.9785 -68.3703 -68.3649 -68.3238 -68.3237 -68.3222 -68.3220
    -8.8265  -7.8170   3.2037   3.2769   3.3143   3.4026   3.9319   4.3355
     4.4781   4.4917   4.8542   5.0842   5.2255   7.8670   8.1427   8.2659
     8.3916   8.9195

     occupation numbers 
     1.0000   1.0000   1.0000   1.0000   1.0000   1.0000   1.0000   1.0000
     1.0000   1.0000   1.0000   1.0000   1.0000   1.0000   1.0000   1.0000
     1.0000   1.0000   1.0000   1.0000   1.0000   1.0000   1.0000   1.0000
     1.0000   1.0000

          k = 0.1250 0.0722 0.0902 (  3744 PWs)   bands (ev):

  -113.9790-113.9785 -68.3701 -68.3651 -68.3237 -68.3236 -68.3223 -68.3220
    -8.7884  -7.8548   3.1896   3.2556   3.3094   3.3888   3.8193   4.2402
     4.5023   4.5322   4.8476   4.9611   5.5495   7.8141   7.9790   8.1770
     8.7046   8.8956

     occupation numbers 
     1.0000   1.0000   1.0000   1.0000   1.0000   1.0000   1.0000   1.0000
     1.0000   1.0000   1.0000   1.0000   1.0000   1.0000   1.0000   1.0000
     1.0000   1.0000   1.0000   1.0000   1.0000   1.0000   1.0000   1.0000
     1.0000   1.0000

          k = 0.1250 0.0722 0.1804 (  3737 PWs)   bands (ev):

  -113.9790-113.9785 -68.3695 -68.3656 -68.3235 -68.3235 -68.3224 -68.3222
    -8.6794  -7.9633   3.1489   3.2022   3.2987   3.3560   3.6518   4.0312
     4.5650   4.6060   4.8256   4.8904   6.0247   7.4436   8.1068   8.2732
     8.8248   8.8567

     occupation numbers 
     1.0000   1.0000   1.0000   1.0000   1.0000   1.0000   1.0000   1.0000
     1.0000   1.0000   1.0000   1.0000   1.0000   1.0000   1.0000   1.0000
     1.0000   1.0000   1.0000   1.0000   1.0000   1.0000   1.0000   1.0000
     1.0000   1.0000

          k = 0.1250 0.0722 0.2706 (  3729 PWs)   bands (ev):

  -113.9790-113.9786 -68.3686 -68.3665 -68.3233 -68.3232 -68.3226 -68.3225
    -8.5154  -8.1270   3.1056   3.1465   3.2919   3.3212   3.5862   3.8018
     4.6449   4.6895   4.7842   4.8350   6.4583   7.1159   8.3429   8.4120
     8.7114   8.7970

     occupation numbers 
     1.0000   1.0000   1.0000   1.0000   1.0000   1.0000   1.0000   1.0000
     1.0000   1.0000   1.0000   1.0000   1.0000   1.0000   1.0000   1.0000
     1.0000   1.0000   1.0000   1.0000   1.0000   1.0000   1.0000   1.0000
     1.0000   1.0000

          k = 0.1250 0.0722-0.3608 (  3720 PWs)   bands (ev):

  -113.9790-113.9786 -68.3677 -68.3674 -68.3231 -68.3230 -68.3228 -68.3227
    -8.3213  -8.3212   3.1063   3.1064   3.2982   3.2983   3.6388   3.6390
     4.7221   4.7224   4.7688   4.7690   6.8090   6.8091   8.5669   8.5670
     8.6000   8.6000

     occupation numbers 
     1.0000   1.0000   1.0000   1.0000   1.0000   1.0000   1.0000   1.0000
     1.0000   1.0000   1.0000   1.0000   1.0000   1.0000   1.0000   1.0000
     1.0000   1.0000   1.0000   1.0000   1.0000   1.0000   1.0000   1.0000
     1.0000   1.0000

          k = 0.1250 0.0722-0.2706 (  3729 PWs)   bands (ev):

  -113.9790-113.9786 -68.3686 -68.3665 -68.3233 -68.3232 -68.3226 -68.3225
    -8.5154  -8.1270   3.1056   3.1465   3.2919   3.3212   3.5862   3.8018
     4.6450   4.6895   4.7842   4.8350   6.4583   7.1159   8.3429   8.4119
     8.7114   8.7970

     occupation numbers 
     1.0000   1.0000   1.0000   1.0000   1.0000   1.0000   1.0000   1.0000
     1.0000   1.0000   1.0000   1.0000   1.0000   1.0000   1.0000   1.0000
     1.0000   1.0000   1.0000   1.0000   1.0000   1.0000   1.0000   1.0000
     1.0000   1.0000

          k = 0.1250 0.0722-0.1804 (  3737 PWs)   bands (ev):

  -113.9790-113.9785 -68.3695 -68.3656 -68.3235 -68.3235 -68.3224 -68.3222
    -8.6794  -7.9633   3.1489   3.2022   3.2987   3.3560   3.6518   4.0312
     4.5650   4.6060   4.8256   4.8903   6.0247   7.4436   8.1068   8.2732
     8.8248   8.8567

     occupation numbers 
     1.0000   1.0000   1.0000   1.0000   1.0000   1.0000   1.0000   1.0000
     1.0000   1.0000   1.0000   1.0000   1.0000   1.0000   1.0000   1.0000
     1.0000   1.0000   1.0000   1.0000   1.0000   1.0000   1.0000   1.0000
     1.0000   1.0000

          k = 0.1250 0.0722-0.0902 (  3744 PWs)   bands (ev):

  -113.9790-113.9785 -68.3701 -68.3651 -68.3237 -68.3236 -68.3223 -68.3220
    -8.7884  -7.8548   3.1896   3.2556   3.3094   3.3888   3.8193   4.2402
     4.5023   4.5322   4.8476   4.9611   5.5495   7.8141   7.9790   8.1770
     8.7046   8.8956

     occupation numbers 
     1.0000   1.0000   1.0000   1.0000   1.0000   1.0000   1.0000   1.0000
     1.0000   1.0000   1.0000   1.0000   1.0000   1.0000   1.0000   1.0000
     1.0000   1.0000   1.0000   1.0000   1.0000   1.0000   1.0000   1.0000
     1.0000   1.0000

          k = 0.1250 0.2165-0.0000 (  3765 PWs)   bands (ev):

  -113.9790-113.9785 -68.3699 -68.3652 -68.3240 -68.3239 -68.3226 -68.3221
    -8.6670  -7.7884   3.1512   3.2652   3.4803   3.5597   3.8807   4.2683
     4.4515   4.5172   4.8720   5.1844   5.4812   7.1964   7.3412   7.7498
     8.3143   8.5342

     occupation numbers 
     1.0000   1.0000   1.0000   1.0000   1.0000   1.0000   1.0000   1.0000
     1.0000   1.0000   1.0000   1.0000   1.0000   1.0000   1.0000   1.0000
     1.0000   1.0000   1.0000   1.0000   1.0000   1.0000   1.0000   1.0000
     1.0000   1.0000

          k = 0.1250 0.2165 0.0902 (  3765 PWs)   bands (ev):

  -113.9790-113.9785 -68.3697 -68.3654 -68.3240 -68.3239 -68.3227 -68.3221
    -8.6325  -7.8198   3.1361   3.2204   3.4726   3.5425   3.8001   4.1711
     4.4758   4.5644   4.8633   5.0702   5.7439   7.2298   7.3000   7.6964
     8.5035   8.5236

     occupation numbers 
     1.0000   1.0000   1.0000   1.0000   1.0000   1.0000   1.0000   1.0000
     1.0000   1.0000   1.0000   1.0000   1.0000   1.0000   1.0000   1.0000
     1.0000   1.0000   1.0000   1.0000   1.0000   1.0000   1.0000   1.0000
     1.0000   1.0000

          k = 0.1250 0.2165 0.1804 (  3745 PWs)   bands (ev):

  -113.9790-113.9785 -68.3692 -68.3659 -68.3238 -68.3237 -68.3228 -68.3223
    -8.5344  -7.9104   3.0927   3.1045   3.4559   3.5060   3.6783   3.9699
     4.5417   4.6489   4.8355   4.9752   6.1085   6.9862   7.6146   7.7603
     8.4140   8.7595

     occupation numbers 
     1.0000   1.0000   1.0000   1.0000   1.0000   1.0000   1.0000   1.0000
     1.0000   1.0000   1.0000   1.0000   1.0000   1.0000   1.0000   1.0000
     1.0000   1.0000   1.0000   1.0000   1.0000   1.0000   1.0000   1.0000
     1.0000   1.0000

          k = 0.1250 0.2165 0.2706 (  3725 PWs)   bands (ev):

  -113.9790-113.9786 -68.3685 -68.3666 -68.3236 -68.3234 -68.3229 -68.3226
    -8.3881  -8.0493   3.0016   3.0302   3.4438   3.4712   3.6244   3.7742
     4.6272   4.7347   4.7908   4.9049   6.3785   6.7667   7.9123   8.0658
     8.2764   8.7577

     occupation numbers 
     1.0000   1.0000   1.0000   1.0000   1.0000   1.0000   1.0000   1.0000
     1.0000   1.0000   1.0000   1.0000   1.0000   1.0000   1.0000   1.0000
     1.0000   1.0000   1.0000   1.0000   1.0000   1.0000   1.0000   1.0000
     1.0000   1.0000

          k = 0.1250 0.2165-0.3608 (  3724 PWs)   bands (ev):

  -113.9789-113.9786 -68.3677 -68.3674 -68.3235 -68.3231 -68.3231 -68.3228
    -8.2173  -8.2172   2.9818   2.9819   3.4482   3.4483   3.6540   3.6542
     4.7100   4.7102   4.8311   4.8313   6.5786   6.5787   8.0934   8.0935
     8.5016   8.5016

     occupation numbers 
     1.0000   1.0000   1.0000   1.0000   1.0000   1.0000   1.0000   1.0000
     1.0000   1.0000   1.0000   1.0000   1.0000   1.0000   1.0000   1.0000
     1.0000   1.0000   1.0000   1.0000   1.0000   1.0000   1.0000   1.0000
     1.0000   1.0000

          k = 0.1250 0.2165-0.2706 (  3725 PWs)   bands (ev):

  -113.9790-113.9786 -68.3685 -68.3666 -68.3236 -68.3234 -68.3229 -68.3226
    -8.3881  -8.0493   3.0016   3.0302   3.4438   3.4712   3.6244   3.7742
     4.6272   4.7347   4.7908   4.9049   6.3785   6.7667   7.9123   8.0658
     8.2764   8.7577

     occupation numbers 
     1.0000   1.0000   1.0000   1.0000   1.0000   1.0000   1.0000   1.0000
     1.0000   1.0000   1.0000   1.0000   1.0000   1.0000   1.0000   1.0000
     1.0000   1.0000   1.0000   1.0000   1.0000   1.0000   1.0000   1.0000
     1.0000   1.0000

          k = 0.1250 0.2165-0.1804 (  3745 PWs)   bands (ev):

  -113.9790-113.9785 -68.3692 -68.3659 -68.3238 -68.3237 -68.3228 -68.3223
    -8.5344  -7.9104   3.0927   3.1045   3.4559   3.5060   3.6783   3.9699
     4.5417   4.6489   4.8355   4.9752   6.1085   6.9862   7.6146   7.7603
     8.4140   8.7595

     occupation numbers 
     1.0000   1.0000   1.0000   1.0000   1.0000   1.0000   1.0000   1.0000
     1.0000   1.0000   1.0000   1.0000   1.0000   1.0000   1.0000   1.0000
     1.0000   1.0000   1.0000   1.0000   1.0000   1.0000   1.0000   1.0000
     1.0000   1.0000

          k = 0.1250 0.2165-0.0902 (  3765 PWs)   bands (ev):

  -113.9790-113.9785 -68.3697 -68.3654 -68.3240 -68.3239 -68.3227 -68.3221
    -8.6325  -7.8198   3.1361   3.2204   3.4726   3.5425   3.8001   4.1711
     4.4758   4.5644   4.8633   5.0702   5.7439   7.2298   7.3000   7.6964
     8.5035   8.5236

     occupation numbers 
     1.0000   1.0000   1.0000   1.0000   1.0000   1.0000   1.0000   1.0000
     1.0000   1.0000   1.0000   1.0000   1.0000   1.0000   1.0000   1.0000
     1.0000   1.0000   1.0000   1.0000   1.0000   1.0000   1.0000   1.0000
     1.0000   1.0000

          k = 0.1250 0.3608-0.0000 (  3753 PWs)   bands (ev):

  -113.9790-113.9785 -68.3692 -68.3658 -68.3244 -68.3242 -68.3231 -68.3222
    -8.4089  -7.7746   3.1244   3.3861   3.7141   3.7568   3.9745   4.1599
     4.4258   4.5808   4.8935   5.1205   5.9317   6.3178   6.5890   6.8973
     7.9562   8.1148

     occupation numbers 
     1.0000   1.0000   1.0000   1.0000   1.0000   1.0000   1.0000   1.0000
     1.0000   1.0000   1.0000   1.0000   1.0000   1.0000   1.0000   1.0000
     1.0000   1.0000   1.0000   1.0000   1.0000   1.0000   1.0000   1.0000
     1.0000   1.0000

          k = 0.1250 0.3608 0.0902 (  3749 PWs)   bands (ev):

  -113.9790-113.9785 -68.3691 -68.3659 -68.3243 -68.3241 -68.3232 -68.3223
    -8.3816  -7.7944   3.0989   3.3142   3.7057   3.7354   3.9103   4.0748
     4.4554   4.6222   4.8809   5.0832   5.8980   6.4189   6.7133   6.9278
     7.9127   8.3089

     occupation numbers 
[...]

  -113.9789-113.9785 -68.3682 -68.3668 -68.3244 -68.3241 -68.3235 -68.3227
    -8.1066  -7.8457   3.2082   3.2408   3.7813   3.8001   3.9566   3.9788
     4.5582   4.6623   4.8856   5.0039   5.6620   5.8216   6.0555   6.9900
     7.6877   8.4737

     occupation numbers 
     1.0000   1.0000   1.0000   1.0000   1.0000   1.0000   1.0000   1.0000
     1.0000   1.0000   1.0000   1.0000   1.0000   1.0000   1.0000   1.0000
     1.0000   1.0000   1.0000   1.0000   1.0000   1.0000   1.0000   1.0000
     1.0000   1.0000

          k =-0.5000 0.0000 0.2706 (  3760 PWs)   bands (ev):

  -113.9789-113.9786 -68.3680 -68.3671 -68.3242 -68.3239 -68.3236 -68.3230
    -8.0343  -7.8923   3.0471   3.0606   3.7360   3.7406   3.9153   3.9280
     4.6028   4.6637   4.9001   4.9685   5.6789   5.7675   6.2592   6.7800
     8.3181   8.7698

     occupation numbers 
     1.0000   1.0000   1.0000   1.0000   1.0000   1.0000   1.0000   1.0000
     1.0000   1.0000   1.0000   1.0000   1.0000   1.0000   1.0000   1.0000
     1.0000   1.0000   1.0000   1.0000   1.0000   1.0000   1.0000   1.0000
     1.0000   1.0000

          k =-0.5000 0.0000-0.3608 (  3756 PWs)   bands (ev):

  -113.9789-113.9786 -68.3677 -68.3674 -68.3241 -68.3237 -68.3236 -68.3233
    -7.9580  -7.9579   2.9829   2.9830   3.7203   3.7204   3.9070   3.9071
     4.6401   4.6403   4.9320   4.9321   5.7171   5.7171   6.5218   6.5219
     8.7255   8.7256

     occupation numbers 
     1.0000   1.0000   1.0000   1.0000   1.0000   1.0000   1.0000   1.0000
     1.0000   1.0000   1.0000   1.0000   1.0000   1.0000   1.0000   1.0000
     1.0000   1.0000   1.0000   1.0000   1.0000   1.0000   1.0000   1.0000
     1.0000   1.0000

          k =-0.5000 0.0000-0.2706 (  3760 PWs)   bands (ev):

  -113.9789-113.9786 -68.3680 -68.3671 -68.3242 -68.3239 -68.3236 -68.3230
    -8.0343  -7.8923   3.0471   3.0606   3.7360   3.7406   3.9153   3.9280
     4.6028   4.6637   4.9001   4.9685   5.6789   5.7675   6.2592   6.7800
     8.3181   8.7698

     occupation numbers 
     1.0000   1.0000   1.0000   1.0000   1.0000   1.0000   1.0000   1.0000
     1.0000   1.0000   1.0000   1.0000   1.0000   1.0000   1.0000   1.0000
     1.0000   1.0000   1.0000   1.0000   1.0000   1.0000   1.0000   1.0000
     1.0000   1.0000

          k =-0.5000 0.0000-0.1804 (  3754 PWs)   bands (ev):

  -113.9789-113.9785 -68.3682 -68.3668 -68.3244 -68.3241 -68.3235 -68.3227
    -8.1066  -7.8457   3.2082   3.2408   3.7813   3.8001   3.9566   3.9788
     4.5582   4.6623   4.8856   5.0039   5.6620   5.8216   6.0555   6.9900
     7.6877   8.4737

     occupation numbers 
     1.0000   1.0000   1.0000   1.0000   1.0000   1.0000   1.0000   1.0000
     1.0000   1.0000   1.0000   1.0000   1.0000   1.0000   1.0000   1.0000
     1.0000   1.0000   1.0000   1.0000   1.0000   1.0000   1.0000   1.0000
     1.0000   1.0000

          k =-0.5000 0.0000-0.0902 (  3757 PWs)   bands (ev):

  -113.9789-113.9785 -68.3684 -68.3666 -68.3246 -68.3242 -68.3235 -68.3225
    -8.1584  -7.8195   3.3204   3.4509   3.8255   3.8783   4.0377   4.0676
     4.5152   4.6311   4.8968   5.0334   5.6969   5.7735   6.0649   6.9724
     7.2029   8.0462

     occupation numbers 
     1.0000   1.0000   1.0000   1.0000   1.0000   1.0000   1.0000   1.0000
     1.0000   1.0000   1.0000   1.0000   1.0000   1.0000   1.0000   1.0000
     1.0000   1.0000   1.0000   1.0000   1.0000   1.0000   1.0000   1.0000
     1.0000   1.0000

          k =-0.5000 0.1443-0.0000 (  3748 PWs)   bands (ev):

  -113.9789-113.9785 -68.3685 -68.3665 -68.3247 -68.3242 -68.3236 -68.3223
    -8.1712  -7.8154   3.2070   3.5023   3.9089   3.9438   4.0348   4.2005
     4.4877   4.6264   4.9068   4.9678   5.5935   5.8141   6.2419   6.6885
     7.5235   7.8343

     occupation numbers 
     1.0000   1.0000   1.0000   1.0000   1.0000   1.0000   1.0000   1.0000
     1.0000   1.0000   1.0000   1.0000   1.0000   1.0000   1.0000   1.0000
     1.0000   1.0000   1.0000   1.0000   1.0000   1.0000   1.0000   1.0000
     1.0000   1.0000

          k =-0.5000 0.1443 0.0902 (  3756 PWs)   bands (ev):

  -113.9789-113.9785 -68.3684 -68.3666 -68.3247 -68.3242 -68.3236 -68.3223
    -8.1527  -7.8233   3.1643   3.4305   3.8610   3.9315   3.9953   4.1254
     4.5119   4.6534   4.8915   4.9608   5.5578   5.7583   6.2700   6.9931
     7.4710   8.0453

     occupation numbers 
     1.0000   1.0000   1.0000   1.0000   1.0000   1.0000   1.0000   1.0000
     1.0000   1.0000   1.0000   1.0000   1.0000   1.0000   1.0000   1.0000
     1.0000   1.0000   1.0000   1.0000   1.0000   1.0000   1.0000   1.0000
     1.0000   1.0000

          k =-0.5000 0.1443 0.1804 (  3753 PWs)   bands (ev):

  -113.9789-113.9785 -68.3682 -68.3668 -68.3245 -68.3240 -68.3237 -68.3226
    -8.1018  -7.8483   3.0443   3.2412   3.7667   3.8911   3.9521   3.9968
     4.5612   4.6931   4.8640   4.9417   5.5328   5.6690   6.4142   7.3271
     7.6188   8.4522

     occupation numbers 
     1.0000   1.0000   1.0000   1.0000   1.0000   1.0000   1.0000   1.0000
     1.0000   1.0000   1.0000   1.0000   1.0000   1.0000   1.0000   1.0000
     1.0000   1.0000   1.0000   1.0000   1.0000   1.0000   1.0000   1.0000
     1.0000   1.0000

          k =-0.5000 0.1443 0.2706 (  3758 PWs)   bands (ev):

  -113.9789-113.9786 -68.3680 -68.3671 -68.3243 -68.3238 -68.3237 -68.3229
    -8.0310  -7.8930   2.9232   3.0309   3.7257   3.8122   3.9253   3.9340
     4.6158   4.6986   4.8593   4.9143   5.5462   5.6109   6.6381   7.1324
     8.2325   8.7211

     occupation numbers 
     1.0000   1.0000   1.0000   1.0000   1.0000   1.0000   1.0000   1.0000
     1.0000   1.0000   1.0000   1.0000   1.0000   1.0000   1.0000   1.0000
     1.0000   1.0000   1.0000   1.0000   1.0000   1.0000   1.0000   1.0000
     1.0000   1.0000

          k =-0.5000 0.1443-0.3608 (  3766 PWs)   bands (ev):

  -113.9789-113.9786 -68.3677 -68.3674 -68.3242 -68.3239 -68.3235 -68.3231
    -7.9567  -7.9566   2.9078   2.9079   3.7463   3.7465   3.9175   3.9176
     4.6656   4.6657   4.8830   4.8832   5.5745   5.5746   6.8908   6.8908
     8.6484   8.6485

     occupation numbers 
     1.0000   1.0000   1.0000   1.0000   1.0000   1.0000   1.0000   1.0000
     1.0000   1.0000   1.0000   1.0000   1.0000   1.0000   1.0000   1.0000
     1.0000   1.0000   1.0000   1.0000   1.0000   1.0000   1.0000   1.0000
     1.0000   1.0000

          k =-0.5000 0.1443-0.2706 (  3758 PWs)   bands (ev):

  -113.9789-113.9786 -68.3680 -68.3671 -68.3243 -68.3238 -68.3237 -68.3229
    -8.0310  -7.8930   2.9233   3.0309   3.7257   3.8122   3.9253   3.9340
     4.6158   4.6986   4.8593   4.9142   5.5461   5.6109   6.6381   7.1324
     8.2325   8.7211

     occupation numbers 
     1.0000   1.0000   1.0000   1.0000   1.0000   1.0000   1.0000   1.0000
     1.0000   1.0000   1.0000   1.0000   1.0000   1.0000   1.0000   1.0000
     1.0000   1.0000   1.0000   1.0000   1.0000   1.0000   1.0000   1.0000
     1.0000   1.0000

          k =-0.5000 0.1443-0.1804 (  3753 PWs)   bands (ev):

  -113.9789-113.9785 -68.3682 -68.3668 -68.3245 -68.3240 -68.3237 -68.3226
    -8.1018  -7.8483   3.0443   3.2412   3.7666   3.8911   3.9521   3.9968
     4.5612   4.6932   4.8640   4.9417   5.5328   5.6690   6.4142   7.3271
     7.6188   8.4522

     occupation numbers 
     1.0000   1.0000   1.0000   1.0000   1.0000   1.0000   1.0000   1.0000
     1.0000   1.0000   1.0000   1.0000   1.0000   1.0000   1.0000   1.0000
     1.0000   1.0000   1.0000   1.0000   1.0000   1.0000   1.0000   1.0000
     1.0000   1.0000

          k =-0.5000 0.1443-0.0902 (  3756 PWs)   bands (ev):

  -113.9789-113.9785 -68.3684 -68.3666 -68.3247 -68.3242 -68.3236 -68.3223
    -8.1527  -7.8233   3.1643   3.4305   3.8610   3.9316   3.9953   4.1254
     4.5119   4.6534   4.8915   4.9608   5.5578   5.7583   6.2700   6.9931
     7.4710   8.0453

     occupation numbers 
     1.0000   1.0000   1.0000   1.0000   1.0000   1.0000   1.0000   1.0000
     1.0000   1.0000   1.0000   1.0000   1.0000   1.0000   1.0000   1.0000
     1.0000   1.0000   1.0000   1.0000   1.0000   1.0000   1.0000   1.0000
     1.0000   1.0000

          k =-0.5000-0.8660 0.0000 (  3730 PWs)   bands (ev):

  -113.9789-113.9785 -68.3684 -68.3665 -68.3247 -68.3242 -68.3237 -68.3221
    -8.1650  -7.8198   3.0902   3.4690   3.9564   3.9696   4.0222   4.2105
     4.4936   4.6526   4.9054   4.9163   5.5180   5.7063   6.5429   6.6282
     7.7802   7.8414

     occupation numbers 
     1.0000   1.0000   1.0000   1.0000   1.0000   1.0000   1.0000   1.0000
     1.0000   1.0000   1.0000   1.0000   1.0000   1.0000   1.0000   1.0000
     1.0000   1.0000   1.0000   1.0000   1.0000   1.0000   1.0000   1.0000
     1.0000   1.0000

          k =-0.5000-0.8660 0.0902 (  3742 PWs)   bands (ev):

  -113.9789-113.9785 -68.3684 -68.3666 -68.3247 -68.3241 -68.3237 -68.3222
    -8.1468  -7.8272   3.0476   3.3978   3.8914   3.9507   4.0078   4.1381
     4.5138   4.6834   4.8850   4.9095   5.4912   5.6325   6.6042   6.9111
     7.7424   8.0338

     occupation numbers 
     1.0000   1.0000   1.0000   1.0000   1.0000   1.0000   1.0000   1.0000
     1.0000   1.0000   1.0000   1.0000   1.0000   1.0000   1.0000   1.0000
     1.0000   1.0000   1.0000   1.0000   1.0000   1.0000   1.0000   1.0000
     1.0000   1.0000

          k =-0.5000-0.8660 0.1804 (  3768 PWs)   bands (ev):

  -113.9789-113.9785 -68.3683 -68.3668 -68.3246 -68.3239 -68.3238 -68.3225
    -8.0969  -7.8509   2.9357   3.2058   3.7762   3.9377   3.9755   3.9874
     4.5646   4.7377   4.8335   4.8920   5.4659   5.5507   6.7688   7.4986
     7.6317   8.4147

     occupation numbers 
     1.0000   1.0000   1.0000   1.0000   1.0000   1.0000   1.0000   1.0000
     1.0000   1.0000   1.0000   1.0000   1.0000   1.0000   1.0000   1.0000
     1.0000   1.0000   1.0000   1.0000   1.0000   1.0000   1.0000   1.0000
     1.0000   1.0000

          k =-0.5000-0.8660 0.2706 (  3740 PWs)   bands (ev):

  -113.9789-113.9785 -68.3679 -68.3671 -68.3244 -68.3239 -68.3236 -68.3227
    -8.0277  -7.8938   2.8342   2.9820   3.7345   3.8532   3.9267   3.9445
     4.6295   4.7680   4.7874   4.8654   5.4719   5.5121   6.9939   7.4570
     8.1043   8.6483

     occupation numbers 
     1.0000   1.0000   1.0000   1.0000   1.0000   1.0000   1.0000   1.0000
     1.0000   1.0000   1.0000   1.0000   1.0000   1.0000   1.0000   1.0000
     1.0000   1.0000   1.0000   1.0000   1.0000   1.0000   1.0000   1.0000
     1.0000   1.0000

          k =-0.5000-0.8660-0.3608 (  3752 PWs)   bands (ev):

  -113.9789-113.9786 -68.3677 -68.3674 -68.3243 -68.3240 -68.3233 -68.3230
    -7.9553  -7.9552   2.8400   2.8401   3.7657   3.7659   3.9272   3.9273
     4.6986   4.6988   4.8300   4.8303   5.4903   5.4905   7.2354   7.2354
     8.5372   8.5373

     occupation numbers 
     1.0000   1.0000   1.0000   1.0000   1.0000   1.0000   1.0000   1.0000
     1.0000   1.0000   1.0000   1.0000   1.0000   1.0000   1.0000   1.0000
     1.0000   1.0000   1.0000   1.0000   1.0000   1.0000   1.0000   1.0000
     1.0000   1.0000

     highest occupied level (ev):     9.0933

!    total energy              =    -987.06510284 Ry
     Harris-Foulkes estimate   =    -987.06510287 Ry
     estimated scf accuracy    <       0.00000007 Ry

     The total energy is the sum of the following terms:

     one-electron contribution =    -794.41601207 Ry
     hartree contribution      =     419.35975729 Ry
     xc contribution           =     -98.09135755 Ry
     ewald contribution        =    -513.91749051 Ry

     convergence has been achieved in   7 iterations

     Forces acting on atoms (cartesian axes, Ry/au):

     atom    1 type  2   force =     0.00000053   -0.00000049    0.00832086
     atom    2 type  2   force =    -0.00000062    0.00000064    0.00831838
     atom    3 type  1   force =     0.00000165   -0.00000101   -0.00832918
     atom    4 type  1   force =    -0.00000155    0.00000086   -0.00831006
     The non-local contrib.  to forces
     atom    1 type  2   force =    -0.00000029   -0.00000277    0.06105645
     atom    2 type  2   force =     0.00000143   -0.00000021    0.06105782
     atom    3 type  1   force =     0.00000508   -0.00000631    0.14350683
     atom    4 type  1   force =    -0.00000107   -0.00000041    0.14351651
     The ionic contribution  to forces
     atom    1 type  2   force =     0.00001438    0.00002279   -0.85121825
     atom    2 type  2   force =    -0.00003378    0.00002046   -0.85121751
     atom    3 type  1   force =     0.00004470   -0.00003552    0.85122254
     atom    4 type  1   force =    -0.00002529   -0.00000773    0.85121323
     The local contribution  to forces
     atom    1 type  2   force =    -0.00001390   -0.00002128    0.79895128
     atom    2 type  2   force =     0.00003081   -0.00001842    0.79896505
     atom    3 type  1   force =    -0.00004716    0.00004029   -1.00321643
     atom    4 type  1   force =     0.00002683    0.00000874   -1.00323897
     The core correction contribution to forces
     atom    1 type  2   force =    -0.00000000    0.00000001   -0.00033184
     atom    2 type  2   force =    -0.00000001   -0.00000001   -0.00033184
     atom    3 type  1   force =     0.00000000    0.00000000    0.00000000
     atom    4 type  1   force =     0.00000000    0.00000000    0.00000000
     The Hubbard contrib.    to forces
     atom    1 type  2   force =     0.00000000    0.00000000    0.00000000
     atom    2 type  2   force =     0.00000000    0.00000000    0.00000000
     atom    3 type  1   force =     0.00000000    0.00000000    0.00000000
     atom    4 type  1   force =     0.00000000    0.00000000    0.00000000
     The SCF correction term to forces
     atom    1 type  2   force =     0.00000000    0.00000000    0.00000000
     atom    2 type  2   force =     0.00000000    0.00000000    0.00000000
     atom    3 type  1   force =     0.00000000    0.00000000    0.00000000
     atom    4 type  1   force =     0.00000000    0.00000000    0.00000000

     Total force =     0.000000     Total SCF correction =     0.000000


     Computing stress (Cartesian axis) and pressure

          total   stress  (Ry/bohr**3)                   (kbar)     P=   -1.88
  -0.00000837  -0.00000001  -0.00000000         -1.23     -0.00     -0.00
  -0.00000001  -0.00000839  -0.00000001         -0.00     -1.23     -0.00
  -0.00000000  -0.00000001  -0.00002165         -0.00     -0.00     -3.18

     kinetic stress (kbar)  34676.66     -0.00      0.00
                               -0.00  34676.66     -0.00
                                0.00     -0.00  35096.64

     local   stress (kbar)   -858.19      0.01      0.02
                                0.01   -858.32     -0.05
                                0.02     -0.05  -8292.45

     nonloc. stress (kbar)  -1697.05      0.00      0.00
                                0.00  -1697.05      0.00
                                0.00      0.00  -1860.97

     hartree stress (kbar)  64710.67     -0.00     -0.01
                               -0.00  64710.74      0.02
                               -0.01      0.02  69306.87

     exc-cor stress (kbar) -14536.24      0.00      0.00
                                0.00 -14536.24      0.00
                                0.00      0.00 -14542.04

     corecor stress (kbar)   -255.59      0.00      0.00
                                0.00   -255.59      0.00
                                0.00      0.00   -256.39

     ewald   stress (kbar) -82041.50     -0.01     -0.01
                               -0.01 -82041.43      0.03
                               -0.01      0.03 -79454.84

     hubbard stress (kbar)      0.00      0.00      0.00
                                0.00      0.00      0.00
                                0.00      0.00      0.00

     london  stress (kbar)      0.00      0.00      0.00
                                0.00      0.00      0.00
                                0.00      0.00      0.00

     DFT-D3  stress (kbar)      0.00      0.00      0.00
                                0.00      0.00      0.00
                                0.00      0.00      0.00

     XDM     stress (kbar)      0.00      0.00      0.00
                                0.00      0.00      0.00
                                0.00      0.00      0.00

     dft-nl  stress (kbar)      0.00      0.00      0.00
                                0.00      0.00      0.00
                                0.00      0.00      0.00

     TS-vdW  stress (kbar)      0.00      0.00      0.00
                                0.00      0.00      0.00
                                0.00      0.00      0.00



     Writing output data file ZnO.save/
 
     init_run     :      0.56s CPU      1.93s WALL (       1 calls)
     electrons    :      7.26s CPU      8.01s WALL (       1 calls)
     forces       :      0.15s CPU      0.34s WALL (       1 calls)
     stress       :      1.20s CPU      1.36s WALL (       1 calls)

     Called by init_run:
     wfcinit      :      0.42s CPU      1.38s WALL (       1 calls)
     wfcinit:atom :      0.00s CPU      0.01s WALL (      65 calls)
     wfcinit:wfcr :      0.40s CPU      1.33s WALL (      65 calls)
     potinit      :      0.05s CPU      0.09s WALL (       1 calls)
     hinit0       :      0.07s CPU      0.26s WALL (       1 calls)

     Called by electrons:
     c_bands      :      6.12s CPU      6.56s WALL (       7 calls)
     sum_band     :      0.90s CPU      0.99s WALL (       7 calls)
     v_of_rho     :      0.22s CPU      0.24s WALL (       8 calls)
     v_h          :      0.00s CPU      0.00s WALL (       8 calls)
     v_xc         :      0.45s CPU      0.49s WALL (      10 calls)
     newd         :      0.04s CPU      0.05s WALL (       8 calls)
     mix_rho      :      0.01s CPU      0.05s WALL (       7 calls)

     Called by c_bands:
     init_us_2    :      0.08s CPU      0.08s WALL (    1105 calls)
     cegterg      :      5.78s CPU      6.04s WALL (     455 calls)

     Called by sum_band:
     sum_band:bec :      0.01s CPU      0.01s WALL (     455 calls)
     addusdens    :      0.03s CPU      0.04s WALL (       7 calls)

     Called by *egterg:
     h_psi        :      3.73s CPU      3.89s WALL (    1470 calls)
     s_psi        :      0.12s CPU      0.12s WALL (    1470 calls)
     g_psi        :      0.01s CPU      0.01s WALL (     950 calls)
     cdiaghg      :      1.48s CPU      2.43s WALL (    1405 calls)
     cegterg:over :      0.34s CPU      0.39s WALL (     950 calls)
     cegterg:upda :      0.20s CPU      0.20s WALL (     950 calls)
     cegterg:last :      0.13s CPU      0.13s WALL (     455 calls)
     cdiaghg:chol :      0.08s CPU      0.40s WALL (    1405 calls)
     cdiaghg:inve :      0.02s CPU      0.07s WALL (    1405 calls)
     cdiaghg:para :      0.16s CPU      0.18s WALL (    2810 calls)

     Called by h_psi:
     h_psi:pot    :      3.72s CPU      3.88s WALL (    1470 calls)
     h_psi:calbec :      0.21s CPU      0.22s WALL (    1470 calls)
     vloc_psi     :      3.39s CPU      3.52s WALL (    1470 calls)
     add_vuspsi   :      0.12s CPU      0.13s WALL (    1470 calls)

     General routines
     calbec       :      0.34s CPU      0.36s WALL (    2250 calls)
     fft          :      0.06s CPU      0.11s WALL (     127 calls)
     ffts         :      0.00s CPU      0.01s WALL (      15 calls)
     fftw         :      3.88s CPU      4.02s WALL (   74178 calls)
     interpolate  :      0.00s CPU      0.01s WALL (       8 calls)
 
     Parallel routines
     fft_scatt_xy :      0.60s CPU      0.62s WALL (   74320 calls)
     fft_scatt_yz :      1.99s CPU      2.07s WALL (   74320 calls)
 
     PWSCF        :      9.47s CPU     13.63s WALL

 
   This run was terminated on:  20:45:29  15Jun2022            

=------------------------------------------------------------------------------=
   JOB DONE.
=------------------------------------------------------------------------------=
