
     Program PWSCF v.6.4.1 starts on 16Jun2022 at 16: 0:58 

     This program is part of the open-source Quantum ESPRESSO suite
     for quantum simulation of materials; please cite
         "P. Giannozzi et al., J. Phys.:Condens. Matter 21 395502 (2009);
         "P. Giannozzi et al., J. Phys.:Condens. Matter 29 465901 (2017);
          URL http://www.quantum-espresso.org", 
     in publications or presentations arising from this work. More details at
     http://www.quantum-espresso.org/quote

     Parallel version (MPI), running on    64 processors

     MPI processes distributed on     1 nodes
     K-points division:     npool     =       4
     R & G space division:  proc/nbgrp/npool/nimage =      16
     Waiting for input...
     Reading input from standard input

     Current dimensions of program PWSCF are:
     Max number of different atomic species (ntypx) = 10
     Max number of k-points (npk) =  40000
     Max angular momentum in pseudopotentials (lmaxx) =  3

     Subspace diagonalization in iterative solution of the eigenvalue problem:
     one sub-group per band group will be used
     scalapack distributed-memory algorithm (size of sub-group:  2*  2 procs)

 
     Parallelization info
     --------------------
     sticks:   dense  smooth     PW     G-vecs:    dense   smooth      PW
     Min          94      51     15                 5016     1955     341
     Max          95      52     16                 5025     1960     348
     Sum        1519     817    253                80341    31305    5529
 


     bravais-lattice index     =            0
     lattice parameter (alat)  =       6.0764  a.u.
     unit-cell volume          =     323.9155 (a.u.)^3
     number of atoms/cell      =            4
     number of atomic types    =            2
     number of electrons       =        32.00
     number of Kohn-Sham states=           16
     kinetic-energy cutoff     =      80.0000  Ry
     charge density cutoff     =     600.0000  Ry
     convergence threshold     =      1.0E-06
     mixing beta               =       0.5000
     number of iterations used =            8  plain     mixing
     Exchange-correlation      = SLA  PW   PSX  PSC ( 1  4 10  8 0 0)
     Using LIBXC version       =    4   3   4
     nstep                     =          200


     celldm(1)=   6.076409  celldm(2)=   0.000000  celldm(3)=   0.000000
     celldm(4)=   0.000000  celldm(5)=   0.000000  celldm(6)=   0.000000

     crystal axes: (cart. coord. in units of alat)
               a(1) = (   1.000000  -0.000000  -0.000000 )  
               a(2) = (  -0.500000   0.866026   0.000000 )  
               a(3) = (  -0.000000   0.000000   1.667094 )  

     reciprocal axes: (cart. coord. in units 2 pi/alat)
               b(1) = (  1.000000  0.577350  0.000000 )  
               b(2) = (  0.000000  1.154700 -0.000000 )  
               b(3) = (  0.000000 -0.000000  0.599846 )  


     PseudoPot. # 1 for Mg read from file:
     ./GBRV_PBEsol/mg_pbesol_v1.4.uspp.F.UPF
     MD5 check sum: 4059f37963cf5867752dbf5ab2400678
     Pseudo is Ultrasoft, Zval = 10.0
     Generated by new atomic code, or converted to UPF format
     Using radial grid of  821 points,  7 beta functions with: 
                l(1) =   0
                l(2) =   0
                l(3) =   0
                l(4) =   1
                l(5) =   1
                l(6) =   2
                l(7) =   2
     Q(r) pseudized with  8 coefficients,  rinner =    1.200   1.200   1.200
                                                       1.200   1.200

     PseudoPot. # 2 for O  read from file:
     ./GBRV_PBEsol/o_pbesol_v1.2.uspp.F.UPF
     MD5 check sum: 501638753501ef6325af9037351f7734
     Pseudo is Ultrasoft + core correction, Zval =  6.0
     Generated by new atomic code, or converted to UPF format
     Using radial grid of  737 points,  5 beta functions with: 
                l(1) =   0
                l(2) =   0
                l(3) =   1
                l(4) =   1
                l(5) =   2
     Q(r) pseudized with  8 coefficients,  rinner =    0.900   0.900   0.900
                                                       0.900   0.900

     atomic species   valence    mass     pseudopotential
        Mg            10.00    24.30500     Mg( 1.00)
        O              6.00    15.99900     O ( 1.00)

     No symmetry found


                                    s                        frac. trans.

      isym =  1     identity                                     

 cryst.   s( 1) = (     1          0          0      )
                  (     0          1          0      )
                  (     0          0          1      )

 cart.    s( 1) = (  1.0000000  0.0000000  0.0000000 )
                  (  0.0000000  1.0000000 -0.0000000 )
                  (  0.0000000 -0.0000000  1.0000000 )


   Cartesian axes

     site n.     atom                  positions (alat units)
         1           O   tau(   1) = (   0.5000001   0.2886754   0.0122462  )
         2           O   tau(   2) = (  -0.0000001   0.5773496   0.8457930  )
         3           Mg  tau(   3) = (   0.4999999   0.2886748   0.6107465  )
         4           Mg  tau(   4) = (  -0.0000004   0.5773514   1.4442932  )

   Crystallographic axes

     site n.     atom                  positions (cryst. coord.)
         1           O   tau(   1) = (  0.6666670  0.3333337  0.0073459  )
         2           O   tau(   2) = (  0.3333329  0.6666657  0.5073458  )
         3           Mg  tau(   3) = (  0.6666664  0.3333329  0.3663540  )
         4           Mg  tau(   4) = (  0.3333336  0.6666677  0.8663539  )

     number of k points=   260
                       cart. coord. in units 2pi/alat
        k(    1) = (   0.0000000   0.0000000   0.0000000), wk =   0.0039062
        k(    2) = (   0.0000000  -0.0000000   0.0749808), wk =   0.0078125
        k(    3) = (   0.0000000  -0.0000000   0.1499616), wk =   0.0078125
        k(    4) = (   0.0000000  -0.0000000   0.2249424), wk =   0.0078125
        k(    5) = (  -0.0000000   0.0000000  -0.2999232), wk =   0.0039062
        k(    6) = (   0.0000000   0.1443375  -0.0000000), wk =   0.0078125
        k(    7) = (   0.0000000   0.1443375   0.0749808), wk =   0.0078125
        k(    8) = (   0.0000000   0.1443375   0.1499616), wk =   0.0078125
        k(    9) = (   0.0000000   0.1443375   0.2249424), wk =   0.0078125
        k(   10) = (   0.0000000   0.1443376  -0.2999232), wk =   0.0078125
        k(   11) = (   0.0000000   0.1443376  -0.2249424), wk =   0.0078125
        k(   12) = (   0.0000000   0.1443376  -0.1499616), wk =   0.0078125
        k(   13) = (   0.0000000   0.1443375  -0.0749808), wk =   0.0078125
        k(   14) = (   0.0000001   0.2886751  -0.0000000), wk =   0.0078125
        k(   15) = (   0.0000001   0.2886751   0.0749808), wk =   0.0078125
        k(   16) = (   0.0000001   0.2886751   0.1499616), wk =   0.0078125
        k(   17) = (   0.0000001   0.2886751   0.2249423), wk =   0.0078125
        k(   18) = (   0.0000000   0.2886751  -0.2999232), wk =   0.0078125
        k(   19) = (   0.0000000   0.2886751  -0.2249424), wk =   0.0078125
        k(   20) = (   0.0000000   0.2886751  -0.1499616), wk =   0.0078125
        k(   21) = (   0.0000000   0.2886751  -0.0749808), wk =   0.0078125
        k(   22) = (   0.0000001   0.4330126  -0.0000000), wk =   0.0078125
        k(   23) = (   0.0000001   0.4330126   0.0749807), wk =   0.0078125
        k(   24) = (   0.0000001   0.4330126   0.1499615), wk =   0.0078125
        k(   25) = (   0.0000001   0.4330126   0.2249423), wk =   0.0078125
        k(   26) = (   0.0000001   0.4330127  -0.2999232), wk =   0.0078125
        k(   27) = (   0.0000001   0.4330126  -0.2249424), wk =   0.0078125
        k(   28) = (   0.0000001   0.4330126  -0.1499616), wk =   0.0078125
        k(   29) = (   0.0000001   0.4330126  -0.0749808), wk =   0.0078125
        k(   30) = (  -0.0000001  -0.5773502   0.0000001), wk =   0.0039062
        k(   31) = (  -0.0000001  -0.5773502   0.0749808), wk =   0.0078125
        k(   32) = (  -0.0000001  -0.5773502   0.1499616), wk =   0.0078125
        k(   33) = (  -0.0000001  -0.5773502   0.2249424), wk =   0.0078125
        k(   34) = (  -0.0000001  -0.5773501  -0.2999231), wk =   0.0039062
        k(   35) = (   0.1250000   0.0721688   0.0000000), wk =   0.0078125
        k(   36) = (   0.1250000   0.0721688   0.0749808), wk =   0.0078125
        k(   37) = (   0.1250000   0.0721688   0.1499616), wk =   0.0078125
        k(   38) = (   0.1250000   0.0721688   0.2249424), wk =   0.0078125
        k(   39) = (   0.1250000   0.0721688  -0.2999232), wk =   0.0078125
        k(   40) = (   0.1250000   0.0721688  -0.2249424), wk =   0.0078125
        k(   41) = (   0.1250000   0.0721688  -0.1499616), wk =   0.0078125
        k(   42) = (   0.1250000   0.0721688  -0.0749808), wk =   0.0078125
        k(   43) = (   0.1250000   0.2165063  -0.0000000), wk =   0.0078125
        k(   44) = (   0.1250000   0.2165063   0.0749808), wk =   0.0078125
        k(   45) = (   0.1250000   0.2165063   0.1499616), wk =   0.0078125
        k(   46) = (   0.1250001   0.2165063   0.2249424), wk =   0.0078125
        k(   47) = (   0.1250000   0.2165064  -0.2999232), wk =   0.0078125
        k(   48) = (   0.1250000   0.2165063  -0.2249424), wk =   0.0078125
        k(   49) = (   0.1250000   0.2165063  -0.1499616), wk =   0.0078125
        k(   50) = (   0.1250000   0.2165063  -0.0749808), wk =   0.0078125
        k(   51) = (   0.1250001   0.3608439  -0.0000000), wk =   0.0078125
        k(   52) = (   0.1250001   0.3608439   0.0749808), wk =   0.0078125
        k(   53) = (   0.1250001   0.3608439   0.1499616), wk =   0.0078125
        k(   54) = (   0.1250001   0.3608438   0.2249423), wk =   0.0078125
        k(   55) = (   0.1250000   0.3608439  -0.2999232), wk =   0.0078125
        k(   56) = (   0.1250000   0.3608439  -0.2249424), wk =   0.0078125
        k(   57) = (   0.1250001   0.3608439  -0.1499616), wk =   0.0078125
        k(   58) = (   0.1250001   0.3608439  -0.0749808), wk =   0.0078125
        k(   59) = (   0.1250001   0.5051814  -0.0000000), wk =   0.0078125
        k(   60) = (   0.1250001   0.5051814   0.0749808), wk =   0.0078125
        k(   61) = (   0.1250001   0.5051814   0.1499615), wk =   0.0078125
        k(   62) = (   0.1250001   0.5051814   0.2249423), wk =   0.0078125
        k(   63) = (   0.1250001   0.5051814  -0.2999232), wk =   0.0078125
        k(   64) = (   0.1250001   0.5051814  -0.2249424), wk =   0.0078125
        k(   65) = (   0.1250001   0.5051814  -0.1499616), wk =   0.0078125
        k(   66) = (   0.1250001   0.5051814  -0.0749808), wk =   0.0078125
        k(   67) = (   0.1249999  -0.5051814   0.0000001), wk =   0.0078125
        k(   68) = (   0.1249999  -0.5051814   0.0749808), wk =   0.0078125
        k(   69) = (   0.1249999  -0.5051814   0.1499616), wk =   0.0078125
        k(   70) = (   0.1249999  -0.5051814   0.2249424), wk =   0.0078125
        k(   71) = (   0.1249999  -0.5051814  -0.2999231), wk =   0.0078125
        k(   72) = (   0.1249999  -0.5051814  -0.2249423), wk =   0.0078125
        k(   73) = (   0.1249999  -0.5051814  -0.1499615), wk =   0.0078125
        k(   74) = (   0.1249999  -0.5051814  -0.0749807), wk =   0.0078125
        k(   75) = (   0.1249999  -0.3608438   0.0000000), wk =   0.0078125
        k(   76) = (   0.1249999  -0.3608438   0.0749808), wk =   0.0078125
        k(   77) = (   0.1249999  -0.3608439   0.1499616), wk =   0.0078125
        k(   78) = (   0.1250000  -0.3608439   0.2249424), wk =   0.0078125
        k(   79) = (   0.1249999  -0.3608438  -0.2999231), wk =   0.0078125
        k(   80) = (   0.1249999  -0.3608438  -0.2249423), wk =   0.0078125
        k(   81) = (   0.1249999  -0.3608438  -0.1499615), wk =   0.0078125
        k(   82) = (   0.1249999  -0.3608438  -0.0749807), wk =   0.0078125
        k(   83) = (   0.1250000  -0.2165063   0.0000000), wk =   0.0078125
        k(   84) = (   0.1250000  -0.2165063   0.0749808), wk =   0.0078125
        k(   85) = (   0.1250000  -0.2165063   0.1499616), wk =   0.0078125
        k(   86) = (   0.1250000  -0.2165063   0.2249424), wk =   0.0078125
        k(   87) = (   0.1249999  -0.2165063  -0.2999231), wk =   0.0078125
        k(   88) = (   0.1249999  -0.2165063  -0.2249423), wk =   0.0078125
        k(   89) = (   0.1250000  -0.2165063  -0.1499615), wk =   0.0078125
        k(   90) = (   0.1250000  -0.2165063  -0.0749808), wk =   0.0078125
        k(   91) = (   0.1250000  -0.0721688   0.0000000), wk =   0.0078125
        k(   92) = (   0.1250000  -0.0721688   0.0749808), wk =   0.0078125
        k(   93) = (   0.1250000  -0.0721688   0.1499616), wk =   0.0078125
        k(   94) = (   0.1250000  -0.0721688   0.2249424), wk =   0.0078125
        k(   95) = (   0.1250000  -0.0721687  -0.2999231), wk =   0.0078125
        k(   96) = (   0.1250000  -0.0721687  -0.2249424), wk =   0.0078125
        k(   97) = (   0.1250000  -0.0721687  -0.1499616), wk =   0.0078125
        k(   98) = (   0.1250000  -0.0721688  -0.0749808), wk =   0.0078125
        k(   99) = (   0.2500000   0.1443376   0.0000000), wk =   0.0078125
        k(  100) = (   0.2500000   0.1443376   0.0749808), wk =   0.0078125
        k(  101) = (   0.2500000   0.1443376   0.1499616), wk =   0.0078125
        k(  102) = (   0.2500000   0.1443375   0.2249424), wk =   0.0078125
        k(  103) = (   0.2500000   0.1443376  -0.2999231), wk =   0.0078125
        k(  104) = (   0.2500000   0.1443376  -0.2249424), wk =   0.0078125
        k(  105) = (   0.2500000   0.1443376  -0.1499616), wk =   0.0078125
        k(  106) = (   0.2500000   0.1443376  -0.0749808), wk =   0.0078125
        k(  107) = (   0.2500001   0.2886751  -0.0000000), wk =   0.0078125
        k(  108) = (   0.2500001   0.2886751   0.0749808), wk =   0.0078125
        k(  109) = (   0.2500001   0.2886751   0.1499616), wk =   0.0078125
        k(  110) = (   0.2500001   0.2886751   0.2249424), wk =   0.0078125
        k(  111) = (   0.2500000   0.2886751  -0.2999232), wk =   0.0078125
        k(  112) = (   0.2500000   0.2886751  -0.2249424), wk =   0.0078125
        k(  113) = (   0.2500000   0.2886751  -0.1499616), wk =   0.0078125
        k(  114) = (   0.2500000   0.2886751  -0.0749808), wk =   0.0078125
        k(  115) = (   0.2500001   0.4330126  -0.0000000), wk =   0.0078125
        k(  116) = (   0.2500001   0.4330126   0.0749808), wk =   0.0078125
        k(  117) = (   0.2500001   0.4330126   0.1499616), wk =   0.0078125
        k(  118) = (   0.2500001   0.4330126   0.2249423), wk =   0.0078125
        k(  119) = (   0.2500001   0.4330127  -0.2999232), wk =   0.0078125
        k(  120) = (   0.2500001   0.4330127  -0.2249424), wk =   0.0078125
        k(  121) = (   0.2500001   0.4330127  -0.1499616), wk =   0.0078125
        k(  122) = (   0.2500001   0.4330127  -0.0749808), wk =   0.0078125
        k(  123) = (   0.2500001   0.5773502  -0.0000000), wk =   0.0078125
        k(  124) = (   0.2500001   0.5773502   0.0749808), wk =   0.0078125
        k(  125) = (   0.2500001   0.5773502   0.1499615), wk =   0.0078125
        k(  126) = (   0.2500001   0.5773502   0.2249423), wk =   0.0078125
        k(  127) = (   0.2500001   0.5773502  -0.2999232), wk =   0.0078125
        k(  128) = (   0.2500001   0.5773502  -0.2249424), wk =   0.0078125
        k(  129) = (   0.2500001   0.5773502  -0.1499616), wk =   0.0078125
        k(  130) = (   0.2500001   0.5773502  -0.0749808), wk =   0.0078125
        k(  131) = (   0.2499999  -0.4330126   0.0000001), wk =   0.0078125
        k(  132) = (   0.2499999  -0.4330126   0.0749808), wk =   0.0078125
        k(  133) = (   0.2499999  -0.4330126   0.1499616), wk =   0.0078125
        k(  134) = (   0.2499999  -0.4330126   0.2249424), wk =   0.0078125
        k(  135) = (   0.2499999  -0.4330126  -0.2999231), wk =   0.0078125
        k(  136) = (   0.2499999  -0.4330126  -0.2249423), wk =   0.0078125
        k(  137) = (   0.2499999  -0.4330126  -0.1499615), wk =   0.0078125
        k(  138) = (   0.2499999  -0.4330126  -0.0749807), wk =   0.0078125
        k(  139) = (   0.2499999  -0.2886751   0.0000000), wk =   0.0078125
        k(  140) = (   0.2500000  -0.2886751   0.0749808), wk =   0.0078125
        k(  141) = (   0.2500000  -0.2886751   0.1499616), wk =   0.0078125
        k(  142) = (   0.2500000  -0.2886751   0.2249424), wk =   0.0078125
        k(  143) = (   0.2499999  -0.2886750  -0.2999231), wk =   0.0078125
        k(  144) = (   0.2499999  -0.2886750  -0.2249423), wk =   0.0078125
        k(  145) = (   0.2499999  -0.2886750  -0.1499615), wk =   0.0078125
        k(  146) = (   0.2499999  -0.2886751  -0.0749807), wk =   0.0078125
        k(  147) = (   0.2500000  -0.1443375   0.0000000), wk =   0.0078125
        k(  148) = (   0.2500000  -0.1443375   0.0749808), wk =   0.0078125
        k(  149) = (   0.2500000  -0.1443375   0.1499616), wk =   0.0078125
        k(  150) = (   0.2500000  -0.1443375   0.2249424), wk =   0.0078125
        k(  151) = (   0.2500000  -0.1443375  -0.2999231), wk =   0.0078125
        k(  152) = (   0.2500000  -0.1443375  -0.2249423), wk =   0.0078125
        k(  153) = (   0.2500000  -0.1443375  -0.1499615), wk =   0.0078125
        k(  154) = (   0.2500000  -0.1443375  -0.0749808), wk =   0.0078125
        k(  155) = (   0.2500000   0.0000000   0.0000000), wk =   0.0078125
        k(  156) = (   0.2500000   0.0000000   0.0749808), wk =   0.0078125
        k(  157) = (   0.2500000   0.0000000   0.1499616), wk =   0.0078125
        k(  158) = (   0.2500000   0.0000000   0.2249424), wk =   0.0078125
        k(  159) = (   0.2500000   0.0000001  -0.2999231), wk =   0.0078125
        k(  160) = (   0.2500000   0.0000000  -0.2249423), wk =   0.0078125
        k(  161) = (   0.2500000   0.0000000  -0.1499616), wk =   0.0078125
        k(  162) = (   0.2500000   0.0000000  -0.0749808), wk =   0.0078125
        k(  163) = (   0.3750000   0.2165064   0.0000000), wk =   0.0078125
        k(  164) = (   0.3750000   0.2165063   0.0749808), wk =   0.0078125
        k(  165) = (   0.3750000   0.2165063   0.1499616), wk =   0.0078125
        k(  166) = (   0.3750001   0.2165063   0.2249424), wk =   0.0078125
        k(  167) = (   0.3750000   0.2165064  -0.2999231), wk =   0.0078125
        k(  168) = (   0.3750000   0.2165064  -0.2249424), wk =   0.0078125
        k(  169) = (   0.3750000   0.2165064  -0.1499616), wk =   0.0078125
        k(  170) = (   0.3750000   0.2165064  -0.0749808), wk =   0.0078125
        k(  171) = (   0.3750001   0.3608439  -0.0000000), wk =   0.0078125
        k(  172) = (   0.3750001   0.3608439   0.0749808), wk =   0.0078125
        k(  173) = (   0.3750001   0.3608439   0.1499616), wk =   0.0078125
        k(  174) = (   0.3750001   0.3608439   0.2249424), wk =   0.0078125
        k(  175) = (   0.3750000   0.3608439  -0.2999232), wk =   0.0078125
        k(  176) = (   0.3750000   0.3608439  -0.2249424), wk =   0.0078125
        k(  177) = (   0.3750001   0.3608439  -0.1499616), wk =   0.0078125
        k(  178) = (   0.3750001   0.3608439  -0.0749808), wk =   0.0078125
        k(  179) = (   0.3750001   0.5051814  -0.0000000), wk =   0.0078125
        k(  180) = (   0.3750001   0.5051814   0.0749808), wk =   0.0078125
        k(  181) = (   0.3750001   0.5051814   0.1499616), wk =   0.0078125
        k(  182) = (   0.3750001   0.5051814   0.2249423), wk =   0.0078125
        k(  183) = (   0.3750001   0.5051815  -0.2999232), wk =   0.0078125
        k(  184) = (   0.3750001   0.5051815  -0.2249424), wk =   0.0078125
        k(  185) = (   0.3750001   0.5051814  -0.1499616), wk =   0.0078125
        k(  186) = (   0.3750001   0.5051814  -0.0749808), wk =   0.0078125
        k(  187) = (   0.3750001   0.6495190  -0.0000000), wk =   0.0078125
        k(  188) = (   0.3750001   0.6495190   0.0749808), wk =   0.0078125
        k(  189) = (   0.3750001   0.6495190   0.1499615), wk =   0.0078125
        k(  190) = (   0.3750001   0.6495190   0.2249423), wk =   0.0078125
        k(  191) = (   0.3750001   0.6495190  -0.2999232), wk =   0.0078125
        k(  192) = (   0.3750001   0.6495190  -0.2249424), wk =   0.0078125
        k(  193) = (   0.3750001   0.6495190  -0.1499616), wk =   0.0078125
        k(  194) = (   0.3750001   0.6495190  -0.0749808), wk =   0.0078125
        k(  195) = (   0.3749999  -0.3608438   0.0000001), wk =   0.0078125
        k(  196) = (   0.3749999  -0.3608438   0.0749808), wk =   0.0078125
        k(  197) = (   0.3749999  -0.3608438   0.1499616), wk =   0.0078125
        k(  198) = (   0.3750000  -0.3608438   0.2249424), wk =   0.0078125
        k(  199) = (   0.3749999  -0.3608438  -0.2999231), wk =   0.0078125
        k(  200) = (   0.3749999  -0.3608438  -0.2249423), wk =   0.0078125
        k(  201) = (   0.3749999  -0.3608438  -0.1499615), wk =   0.0078125
        k(  202) = (   0.3749999  -0.3608438  -0.0749807), wk =   0.0078125
        k(  203) = (   0.3750000  -0.2165063   0.0000000), wk =   0.0078125
        k(  204) = (   0.3750000  -0.2165063   0.0749808), wk =   0.0078125
        k(  205) = (   0.3750000  -0.2165063   0.1499616), wk =   0.0078125
        k(  206) = (   0.3750000  -0.2165063   0.2249424), wk =   0.0078125
        k(  207) = (   0.3749999  -0.2165062  -0.2999231), wk =   0.0078125
        k(  208) = (   0.3749999  -0.2165063  -0.2249423), wk =   0.0078125
        k(  209) = (   0.3750000  -0.2165063  -0.1499615), wk =   0.0078125
        k(  210) = (   0.3750000  -0.2165063  -0.0749807), wk =   0.0078125
        k(  211) = (   0.3750000  -0.0721687   0.0000000), wk =   0.0078125
        k(  212) = (   0.3750000  -0.0721687   0.0749808), wk =   0.0078125
        k(  213) = (   0.3750000  -0.0721687   0.1499616), wk =   0.0078125
        k(  214) = (   0.3750000  -0.0721688   0.2249424), wk =   0.0078125
        k(  215) = (   0.3750000  -0.0721687  -0.2999231), wk =   0.0078125
        k(  216) = (   0.3750000  -0.0721687  -0.2249423), wk =   0.0078125
        k(  217) = (   0.3750000  -0.0721687  -0.1499615), wk =   0.0078125
        k(  218) = (   0.3750000  -0.0721687  -0.0749808), wk =   0.0078125
        k(  219) = (   0.3750000   0.0721688   0.0000000), wk =   0.0078125
        k(  220) = (   0.3750000   0.0721688   0.0749808), wk =   0.0078125
        k(  221) = (   0.3750000   0.0721688   0.1499616), wk =   0.0078125
        k(  222) = (   0.3750000   0.0721688   0.2249424), wk =   0.0078125
        k(  223) = (   0.3750000   0.0721688  -0.2999231), wk =   0.0078125
        k(  224) = (   0.3750000   0.0721688  -0.2249423), wk =   0.0078125
        k(  225) = (   0.3750000   0.0721688  -0.1499616), wk =   0.0078125
        k(  226) = (   0.3750000   0.0721688  -0.0749808), wk =   0.0078125
        k(  227) = (  -0.5000001  -0.2886751  -0.0000000), wk =   0.0039062
        k(  228) = (  -0.5000000  -0.2886751   0.0749808), wk =   0.0078125
        k(  229) = (  -0.5000000  -0.2886751   0.1499616), wk =   0.0078125
        k(  230) = (  -0.5000000  -0.2886752   0.2249424), wk =   0.0078125
        k(  231) = (  -0.5000001  -0.2886751  -0.2999232), wk =   0.0039062
        k(  232) = (  -0.5000000  -0.1443376  -0.0000000), wk =   0.0078125
        k(  233) = (  -0.5000000  -0.1443376   0.0749808), wk =   0.0078125
        k(  234) = (  -0.5000000  -0.1443376   0.1499616), wk =   0.0078125
        k(  235) = (  -0.5000000  -0.1443376   0.2249423), wk =   0.0078125
        k(  236) = (  -0.5000000  -0.1443376  -0.2999232), wk =   0.0078125
        k(  237) = (  -0.5000000  -0.1443376  -0.2249424), wk =   0.0078125
        k(  238) = (  -0.5000000  -0.1443376  -0.1499616), wk =   0.0078125
        k(  239) = (  -0.5000000  -0.1443376  -0.0749808), wk =   0.0078125
        k(  240) = (  -0.5000000  -0.0000001  -0.0000000), wk =   0.0078125
        k(  241) = (  -0.5000000  -0.0000001   0.0749808), wk =   0.0078125
        k(  242) = (  -0.5000000  -0.0000001   0.1499615), wk =   0.0078125
        k(  243) = (  -0.5000000  -0.0000001   0.2249423), wk =   0.0078125
        k(  244) = (  -0.5000000  -0.0000000  -0.2999232), wk =   0.0078125
        k(  245) = (  -0.5000000  -0.0000000  -0.2249424), wk =   0.0078125
        k(  246) = (  -0.5000000  -0.0000000  -0.1499616), wk =   0.0078125
        k(  247) = (  -0.5000000  -0.0000000  -0.0749808), wk =   0.0078125
        k(  248) = (  -0.5000000   0.1443375  -0.0000000), wk =   0.0078125
        k(  249) = (  -0.5000000   0.1443375   0.0749807), wk =   0.0078125
        k(  250) = (  -0.5000000   0.1443375   0.1499615), wk =   0.0078125
        k(  251) = (  -0.5000000   0.1443375   0.2249423), wk =   0.0078125
        k(  252) = (  -0.5000000   0.1443375  -0.2999232), wk =   0.0078125
        k(  253) = (  -0.5000000   0.1443375  -0.2249424), wk =   0.0078125
        k(  254) = (  -0.5000000   0.1443375  -0.1499616), wk =   0.0078125
        k(  255) = (  -0.5000000   0.1443375  -0.0749808), wk =   0.0078125
        k(  256) = (  -0.5000002  -0.8660253   0.0000000), wk =   0.0039062
        k(  257) = (  -0.5000001  -0.8660253   0.0749808), wk =   0.0078125
        k(  258) = (  -0.5000001  -0.8660253   0.1499616), wk =   0.0078125
        k(  259) = (  -0.5000001  -0.8660253   0.2249424), wk =   0.0078125
        k(  260) = (  -0.5000002  -0.8660253  -0.2999231), wk =   0.0039062

                       cryst. coord.
        k(    1) = (   0.0000000   0.0000000   0.0000000), wk =   0.0039062
        k(    2) = (  -0.0000000   0.0000000   0.1250000), wk =   0.0078125
        k(    3) = (  -0.0000000   0.0000000   0.2500000), wk =   0.0078125
        k(    4) = (  -0.0000000  -0.0000000   0.3750000), wk =   0.0078125
        k(    5) = (   0.0000000  -0.0000000  -0.5000000), wk =   0.0039062
        k(    6) = (  -0.0000000   0.1250000  -0.0000000), wk =   0.0078125
        k(    7) = (   0.0000000   0.1250000   0.1250000), wk =   0.0078125
        k(    8) = (  -0.0000000   0.1250000   0.2500000), wk =   0.0078125
        k(    9) = (   0.0000000   0.1250000   0.3750000), wk =   0.0078125
        k(   10) = (   0.0000000   0.1250000  -0.5000000), wk =   0.0078125
        k(   11) = (   0.0000000   0.1250000  -0.3750000), wk =   0.0078125
        k(   12) = (   0.0000000   0.1250000  -0.2500000), wk =   0.0078125
        k(   13) = (  -0.0000000   0.1250000  -0.1250000), wk =   0.0078125
        k(   14) = (  -0.0000000   0.2500000  -0.0000000), wk =   0.0078125
        k(   15) = (  -0.0000000   0.2500000   0.1250000), wk =   0.0078125
        k(   16) = (   0.0000000   0.2500000   0.2500000), wk =   0.0078125
        k(   17) = (  -0.0000000   0.2500000   0.3750000), wk =   0.0078125
        k(   18) = (   0.0000000   0.2500000  -0.5000000), wk =   0.0078125
        k(   19) = (  -0.0000000   0.2500000  -0.3750000), wk =   0.0078125
        k(   20) = (  -0.0000000   0.2500000  -0.2500000), wk =   0.0078125
        k(   21) = (  -0.0000000   0.2500000  -0.1250000), wk =   0.0078125
        k(   22) = (  -0.0000000   0.3750000  -0.0000000), wk =   0.0078125
        k(   23) = (  -0.0000000   0.3750000   0.1250000), wk =   0.0078125
        k(   24) = (   0.0000000   0.3750000   0.2500000), wk =   0.0078125
        k(   25) = (   0.0000000   0.3750000   0.3750000), wk =   0.0078125
        k(   26) = (  -0.0000000   0.3750000  -0.5000000), wk =   0.0078125
        k(   27) = (  -0.0000000   0.3750000  -0.3750000), wk =   0.0078125
        k(   28) = (  -0.0000000   0.3750000  -0.2500000), wk =   0.0078125
        k(   29) = (  -0.0000000   0.3750000  -0.1250000), wk =   0.0078125
        k(   30) = (   0.0000000  -0.5000000   0.0000000), wk =   0.0039062
        k(   31) = (   0.0000000  -0.5000000   0.1250000), wk =   0.0078125
        k(   32) = (   0.0000000  -0.5000000   0.2500000), wk =   0.0078125
        k(   33) = (   0.0000000  -0.5000000   0.3750000), wk =   0.0078125
        k(   34) = (  -0.0000000  -0.5000000  -0.5000000), wk =   0.0039062
        k(   35) = (   0.1250000   0.0000000   0.0000000), wk =   0.0078125
        k(   36) = (   0.1250000   0.0000000   0.1250000), wk =   0.0078125
        k(   37) = (   0.1250000   0.0000000   0.2500000), wk =   0.0078125
        k(   38) = (   0.1250000   0.0000000   0.3750000), wk =   0.0078125
        k(   39) = (   0.1250000   0.0000000  -0.5000000), wk =   0.0078125
        k(   40) = (   0.1250000   0.0000000  -0.3750000), wk =   0.0078125
        k(   41) = (   0.1250000   0.0000000  -0.2500000), wk =   0.0078125
        k(   42) = (   0.1250000   0.0000000  -0.1250000), wk =   0.0078125
        k(   43) = (   0.1250000   0.1250000  -0.0000000), wk =   0.0078125
        k(   44) = (   0.1250000   0.1250000   0.1250000), wk =   0.0078125
        k(   45) = (   0.1250000   0.1250000   0.2500000), wk =   0.0078125
        k(   46) = (   0.1250000   0.1250000   0.3750000), wk =   0.0078125
        k(   47) = (   0.1250000   0.1250000  -0.5000000), wk =   0.0078125
        k(   48) = (   0.1250000   0.1250000  -0.3750000), wk =   0.0078125
        k(   49) = (   0.1250000   0.1250000  -0.2500000), wk =   0.0078125
        k(   50) = (   0.1250000   0.1250000  -0.1250000), wk =   0.0078125
        k(   51) = (   0.1250000   0.2500000  -0.0000000), wk =   0.0078125
        k(   52) = (   0.1250000   0.2500000   0.1250000), wk =   0.0078125
        k(   53) = (   0.1250000   0.2500000   0.2500000), wk =   0.0078125
        k(   54) = (   0.1250000   0.2500000   0.3750000), wk =   0.0078125
        k(   55) = (   0.1250000   0.2500000  -0.5000000), wk =   0.0078125
        k(   56) = (   0.1250000   0.2500000  -0.3750000), wk =   0.0078125
        k(   57) = (   0.1250000   0.2500000  -0.2500000), wk =   0.0078125
        k(   58) = (   0.1250000   0.2500000  -0.1250000), wk =   0.0078125
        k(   59) = (   0.1250000   0.3750000  -0.0000000), wk =   0.0078125
        k(   60) = (   0.1250000   0.3750000   0.1250000), wk =   0.0078125
        k(   61) = (   0.1250000   0.3750000   0.2500000), wk =   0.0078125
        k(   62) = (   0.1250000   0.3750000   0.3750000), wk =   0.0078125
        k(   63) = (   0.1250000   0.3750000  -0.5000000), wk =   0.0078125
        k(   64) = (   0.1250000   0.3750000  -0.3750000), wk =   0.0078125
        k(   65) = (   0.1250000   0.3750000  -0.2500000), wk =   0.0078125
        k(   66) = (   0.1250000   0.3750000  -0.1250000), wk =   0.0078125
        k(   67) = (   0.1250000  -0.5000000   0.0000000), wk =   0.0078125
        k(   68) = (   0.1250000  -0.5000000   0.1250000), wk =   0.0078125
        k(   69) = (   0.1250000  -0.5000000   0.2500000), wk =   0.0078125
        k(   70) = (   0.1250000  -0.5000000   0.3750000), wk =   0.0078125
        k(   71) = (   0.1250000  -0.5000000  -0.5000000), wk =   0.0078125
        k(   72) = (   0.1250000  -0.5000000  -0.3750000), wk =   0.0078125
        k(   73) = (   0.1250000  -0.5000000  -0.2500000), wk =   0.0078125
        k(   74) = (   0.1250000  -0.5000000  -0.1250000), wk =   0.0078125
        k(   75) = (   0.1250000  -0.3750000   0.0000000), wk =   0.0078125
        k(   76) = (   0.1250000  -0.3750000   0.1250000), wk =   0.0078125
        k(   77) = (   0.1250000  -0.3750000   0.2500000), wk =   0.0078125
        k(   78) = (   0.1250000  -0.3750000   0.3750000), wk =   0.0078125
        k(   79) = (   0.1250000  -0.3750000  -0.5000000), wk =   0.0078125
        k(   80) = (   0.1250000  -0.3750000  -0.3750000), wk =   0.0078125
        k(   81) = (   0.1250000  -0.3750000  -0.2500000), wk =   0.0078125
        k(   82) = (   0.1250000  -0.3750000  -0.1250000), wk =   0.0078125
        k(   83) = (   0.1250000  -0.2500000   0.0000000), wk =   0.0078125
        k(   84) = (   0.1250000  -0.2500000   0.1250000), wk =   0.0078125
        k(   85) = (   0.1250000  -0.2500000   0.2500000), wk =   0.0078125
        k(   86) = (   0.1250000  -0.2500000   0.3750000), wk =   0.0078125
        k(   87) = (   0.1250000  -0.2500000  -0.5000000), wk =   0.0078125
        k(   88) = (   0.1250000  -0.2500000  -0.3750000), wk =   0.0078125
        k(   89) = (   0.1250000  -0.2500000  -0.2500000), wk =   0.0078125
        k(   90) = (   0.1250000  -0.2500000  -0.1250000), wk =   0.0078125
        k(   91) = (   0.1250000  -0.1250000   0.0000000), wk =   0.0078125
        k(   92) = (   0.1250000  -0.1250000   0.1250000), wk =   0.0078125
        k(   93) = (   0.1250000  -0.1250000   0.2500000), wk =   0.0078125
        k(   94) = (   0.1250000  -0.1250000   0.3750000), wk =   0.0078125
        k(   95) = (   0.1250000  -0.1250000  -0.5000000), wk =   0.0078125
        k(   96) = (   0.1250000  -0.1250000  -0.3750000), wk =   0.0078125
        k(   97) = (   0.1250000  -0.1250000  -0.2500000), wk =   0.0078125
        k(   98) = (   0.1250000  -0.1250000  -0.1250000), wk =   0.0078125
        k(   99) = (   0.2500000   0.0000000   0.0000000), wk =   0.0078125
        k(  100) = (   0.2500000   0.0000000   0.1250000), wk =   0.0078125
        k(  101) = (   0.2500000   0.0000000   0.2500000), wk =   0.0078125
        k(  102) = (   0.2500000   0.0000000   0.3750000), wk =   0.0078125
        k(  103) = (   0.2500000   0.0000000  -0.5000000), wk =   0.0078125
        k(  104) = (   0.2500000   0.0000000  -0.3750000), wk =   0.0078125
        k(  105) = (   0.2500000   0.0000000  -0.2500000), wk =   0.0078125
        k(  106) = (   0.2500000   0.0000000  -0.1250000), wk =   0.0078125
        k(  107) = (   0.2500000   0.1250000   0.0000000), wk =   0.0078125
        k(  108) = (   0.2500000   0.1250000   0.1250000), wk =   0.0078125
        k(  109) = (   0.2500000   0.1250000   0.2500000), wk =   0.0078125
        k(  110) = (   0.2500000   0.1250000   0.3750000), wk =   0.0078125
        k(  111) = (   0.2500000   0.1250000  -0.5000000), wk =   0.0078125
        k(  112) = (   0.2500000   0.1250000  -0.3750000), wk =   0.0078125
        k(  113) = (   0.2500000   0.1250000  -0.2500000), wk =   0.0078125
        k(  114) = (   0.2500000   0.1250000  -0.1250000), wk =   0.0078125
        k(  115) = (   0.2500000   0.2500000  -0.0000000), wk =   0.0078125
        k(  116) = (   0.2500000   0.2500000   0.1250000), wk =   0.0078125
        k(  117) = (   0.2500000   0.2500000   0.2500000), wk =   0.0078125
        k(  118) = (   0.2500000   0.2500000   0.3750000), wk =   0.0078125
        k(  119) = (   0.2500000   0.2500000  -0.5000000), wk =   0.0078125
        k(  120) = (   0.2500000   0.2500000  -0.3750000), wk =   0.0078125
        k(  121) = (   0.2500000   0.2500000  -0.2500000), wk =   0.0078125
        k(  122) = (   0.2500000   0.2500000  -0.1250000), wk =   0.0078125
        k(  123) = (   0.2500000   0.3750000  -0.0000000), wk =   0.0078125
        k(  124) = (   0.2500000   0.3750000   0.1250000), wk =   0.0078125
        k(  125) = (   0.2500000   0.3750000   0.2500000), wk =   0.0078125
        k(  126) = (   0.2500000   0.3750000   0.3750000), wk =   0.0078125
        k(  127) = (   0.2500000   0.3750000  -0.5000000), wk =   0.0078125
        k(  128) = (   0.2500000   0.3750000  -0.3750000), wk =   0.0078125
        k(  129) = (   0.2500000   0.3750000  -0.2500000), wk =   0.0078125
        k(  130) = (   0.2500000   0.3750000  -0.1250000), wk =   0.0078125
        k(  131) = (   0.2500000  -0.5000000   0.0000000), wk =   0.0078125
        k(  132) = (   0.2500000  -0.5000000   0.1250000), wk =   0.0078125
        k(  133) = (   0.2500000  -0.5000000   0.2500000), wk =   0.0078125
        k(  134) = (   0.2500000  -0.5000000   0.3750000), wk =   0.0078125
        k(  135) = (   0.2500000  -0.5000000  -0.5000000), wk =   0.0078125
        k(  136) = (   0.2500000  -0.5000000  -0.3750000), wk =   0.0078125
        k(  137) = (   0.2500000  -0.5000000  -0.2500000), wk =   0.0078125
        k(  138) = (   0.2500000  -0.5000000  -0.1250000), wk =   0.0078125
        k(  139) = (   0.2500000  -0.3750000   0.0000000), wk =   0.0078125
        k(  140) = (   0.2500000  -0.3750000   0.1250000), wk =   0.0078125
        k(  141) = (   0.2500000  -0.3750000   0.2500000), wk =   0.0078125
        k(  142) = (   0.2500000  -0.3750000   0.3750000), wk =   0.0078125
        k(  143) = (   0.2500000  -0.3750000  -0.5000000), wk =   0.0078125
        k(  144) = (   0.2500000  -0.3750000  -0.3750000), wk =   0.0078125
        k(  145) = (   0.2500000  -0.3750000  -0.2500000), wk =   0.0078125
        k(  146) = (   0.2500000  -0.3750000  -0.1250000), wk =   0.0078125
        k(  147) = (   0.2500000  -0.2500000   0.0000000), wk =   0.0078125
        k(  148) = (   0.2500000  -0.2500000   0.1250000), wk =   0.0078125
        k(  149) = (   0.2500000  -0.2500000   0.2500000), wk =   0.0078125
        k(  150) = (   0.2500000  -0.2500000   0.3750000), wk =   0.0078125
        k(  151) = (   0.2500000  -0.2500000  -0.5000000), wk =   0.0078125
        k(  152) = (   0.2500000  -0.2500000  -0.3750000), wk =   0.0078125
        k(  153) = (   0.2500000  -0.2500000  -0.2500000), wk =   0.0078125
        k(  154) = (   0.2500000  -0.2500000  -0.1250000), wk =   0.0078125
        k(  155) = (   0.2500000  -0.1250000   0.0000000), wk =   0.0078125
        k(  156) = (   0.2500000  -0.1250000   0.1250000), wk =   0.0078125
        k(  157) = (   0.2500000  -0.1250000   0.2500000), wk =   0.0078125
        k(  158) = (   0.2500000  -0.1250000   0.3750000), wk =   0.0078125
        k(  159) = (   0.2500000  -0.1250000  -0.5000000), wk =   0.0078125
        k(  160) = (   0.2500000  -0.1250000  -0.3750000), wk =   0.0078125
        k(  161) = (   0.2500000  -0.1250000  -0.2500000), wk =   0.0078125
        k(  162) = (   0.2500000  -0.1250000  -0.1250000), wk =   0.0078125
        k(  163) = (   0.3750000   0.0000000   0.0000000), wk =   0.0078125
        k(  164) = (   0.3750000   0.0000000   0.1250000), wk =   0.0078125
        k(  165) = (   0.3750000   0.0000000   0.2500000), wk =   0.0078125
        k(  166) = (   0.3750000   0.0000000   0.3750000), wk =   0.0078125
        k(  167) = (   0.3750000  -0.0000000  -0.5000000), wk =   0.0078125
        k(  168) = (   0.3750000   0.0000000  -0.3750000), wk =   0.0078125
        k(  169) = (   0.3750000   0.0000000  -0.2500000), wk =   0.0078125
        k(  170) = (   0.3750000  -0.0000000  -0.1250000), wk =   0.0078125
        k(  171) = (   0.3750000   0.1250000  -0.0000000), wk =   0.0078125
        k(  172) = (   0.3750000   0.1250000   0.1250000), wk =   0.0078125
        k(  173) = (   0.3750000   0.1250000   0.2500000), wk =   0.0078125
        k(  174) = (   0.3750000   0.1250000   0.3750000), wk =   0.0078125
        k(  175) = (   0.3750000   0.1250000  -0.5000000), wk =   0.0078125
        k(  176) = (   0.3750000   0.1250000  -0.3750000), wk =   0.0078125
        k(  177) = (   0.3750000   0.1250000  -0.2500000), wk =   0.0078125
        k(  178) = (   0.3750000   0.1250000  -0.1250000), wk =   0.0078125
        k(  179) = (   0.3750000   0.2500000  -0.0000000), wk =   0.0078125
        k(  180) = (   0.3750000   0.2500000   0.1250000), wk =   0.0078125
        k(  181) = (   0.3750000   0.2500000   0.2500000), wk =   0.0078125
        k(  182) = (   0.3750000   0.2500000   0.3750000), wk =   0.0078125
        k(  183) = (   0.3750000   0.2500000  -0.5000000), wk =   0.0078125
        k(  184) = (   0.3750000   0.2500000  -0.3750000), wk =   0.0078125
        k(  185) = (   0.3750000   0.2500000  -0.2500000), wk =   0.0078125
        k(  186) = (   0.3750000   0.2500000  -0.1250000), wk =   0.0078125
        k(  187) = (   0.3750000   0.3750000  -0.0000000), wk =   0.0078125
        k(  188) = (   0.3750000   0.3750000   0.1250000), wk =   0.0078125
        k(  189) = (   0.3750000   0.3750000   0.2500000), wk =   0.0078125
        k(  190) = (   0.3750000   0.3750000   0.3750000), wk =   0.0078125
        k(  191) = (   0.3750000   0.3750000  -0.5000000), wk =   0.0078125
        k(  192) = (   0.3750000   0.3750000  -0.3750000), wk =   0.0078125
        k(  193) = (   0.3750000   0.3750000  -0.2500000), wk =   0.0078125
        k(  194) = (   0.3750000   0.3750000  -0.1250000), wk =   0.0078125
        k(  195) = (   0.3750000  -0.5000000   0.0000000), wk =   0.0078125
        k(  196) = (   0.3750000  -0.5000000   0.1250000), wk =   0.0078125
        k(  197) = (   0.3750000  -0.5000000   0.2500000), wk =   0.0078125
        k(  198) = (   0.3750000  -0.5000000   0.3750000), wk =   0.0078125
        k(  199) = (   0.3750000  -0.5000000  -0.5000000), wk =   0.0078125
        k(  200) = (   0.3750000  -0.5000000  -0.3750000), wk =   0.0078125
        k(  201) = (   0.3750000  -0.5000000  -0.2500000), wk =   0.0078125
        k(  202) = (   0.3750000  -0.5000000  -0.1250000), wk =   0.0078125
        k(  203) = (   0.3750000  -0.3750000   0.0000000), wk =   0.0078125
        k(  204) = (   0.3750000  -0.3750000   0.1250000), wk =   0.0078125
        k(  205) = (   0.3750000  -0.3750000   0.2500000), wk =   0.0078125
        k(  206) = (   0.3750000  -0.3750000   0.3750000), wk =   0.0078125
        k(  207) = (   0.3750000  -0.3750000  -0.5000000), wk =   0.0078125
        k(  208) = (   0.3750000  -0.3750000  -0.3750000), wk =   0.0078125
        k(  209) = (   0.3750000  -0.3750000  -0.2500000), wk =   0.0078125
        k(  210) = (   0.3750000  -0.3750000  -0.1250000), wk =   0.0078125
        k(  211) = (   0.3750000  -0.2500000   0.0000000), wk =   0.0078125
        k(  212) = (   0.3750000  -0.2500000   0.1250000), wk =   0.0078125
        k(  213) = (   0.3750000  -0.2500000   0.2500000), wk =   0.0078125
        k(  214) = (   0.3750000  -0.2500000   0.3750000), wk =   0.0078125
        k(  215) = (   0.3750000  -0.2500000  -0.5000000), wk =   0.0078125
        k(  216) = (   0.3750000  -0.2500000  -0.3750000), wk =   0.0078125
        k(  217) = (   0.3750000  -0.2500000  -0.2500000), wk =   0.0078125
        k(  218) = (   0.3750000  -0.2500000  -0.1250000), wk =   0.0078125
        k(  219) = (   0.3750000  -0.1250000   0.0000000), wk =   0.0078125
        k(  220) = (   0.3750000  -0.1250000   0.1250000), wk =   0.0078125
        k(  221) = (   0.3750000  -0.1250000   0.2500000), wk =   0.0078125
        k(  222) = (   0.3750000  -0.1250000   0.3750000), wk =   0.0078125
        k(  223) = (   0.3750000  -0.1250000  -0.5000000), wk =   0.0078125
        k(  224) = (   0.3750000  -0.1250000  -0.3750000), wk =   0.0078125
        k(  225) = (   0.3750000  -0.1250000  -0.2500000), wk =   0.0078125
        k(  226) = (   0.3750000  -0.1250000  -0.1250000), wk =   0.0078125
        k(  227) = (  -0.5000000  -0.0000000  -0.0000000), wk =   0.0039062
        k(  228) = (  -0.5000000  -0.0000000   0.1250000), wk =   0.0078125
        k(  229) = (  -0.5000000  -0.0000000   0.2500000), wk =   0.0078125
        k(  230) = (  -0.5000000  -0.0000000   0.3750000), wk =   0.0078125
        k(  231) = (  -0.5000000  -0.0000000  -0.5000000), wk =   0.0039062
        k(  232) = (  -0.5000000   0.1250000  -0.0000000), wk =   0.0078125
        k(  233) = (  -0.5000000   0.1250000   0.1250000), wk =   0.0078125
        k(  234) = (  -0.5000000   0.1250000   0.2500000), wk =   0.0078125
        k(  235) = (  -0.5000000   0.1250000   0.3750000), wk =   0.0078125
        k(  236) = (  -0.5000000   0.1250000  -0.5000000), wk =   0.0078125
        k(  237) = (  -0.5000000   0.1250000  -0.3750000), wk =   0.0078125
        k(  238) = (  -0.5000000   0.1250000  -0.2500000), wk =   0.0078125
        k(  239) = (  -0.5000000   0.1250000  -0.1250000), wk =   0.0078125
        k(  240) = (  -0.5000000   0.2500000  -0.0000000), wk =   0.0078125
        k(  241) = (  -0.5000000   0.2500000   0.1250000), wk =   0.0078125
        k(  242) = (  -0.5000000   0.2500000   0.2500000), wk =   0.0078125
        k(  243) = (  -0.5000000   0.2500000   0.3750000), wk =   0.0078125
        k(  244) = (  -0.5000000   0.2500000  -0.5000000), wk =   0.0078125
        k(  245) = (  -0.5000000   0.2500000  -0.3750000), wk =   0.0078125
        k(  246) = (  -0.5000000   0.2500000  -0.2500000), wk =   0.0078125
        k(  247) = (  -0.5000000   0.2500000  -0.1250000), wk =   0.0078125
        k(  248) = (  -0.5000000   0.3750000  -0.0000000), wk =   0.0078125
        k(  249) = (  -0.5000000   0.3750000   0.1250000), wk =   0.0078125
        k(  250) = (  -0.5000000   0.3750000   0.2500000), wk =   0.0078125
        k(  251) = (  -0.5000000   0.3750000   0.3750000), wk =   0.0078125
        k(  252) = (  -0.5000000   0.3750000  -0.5000000), wk =   0.0078125
        k(  253) = (  -0.5000000   0.3750000  -0.3750000), wk =   0.0078125
        k(  254) = (  -0.5000000   0.3750000  -0.2500000), wk =   0.0078125
        k(  255) = (  -0.5000000   0.3750000  -0.1250000), wk =   0.0078125
        k(  256) = (  -0.5000000  -0.5000000   0.0000000), wk =   0.0039062
        k(  257) = (  -0.5000000  -0.5000000   0.1250000), wk =   0.0078125
        k(  258) = (  -0.5000000  -0.5000000   0.2500000), wk =   0.0078125
        k(  259) = (  -0.5000000  -0.5000000   0.3750000), wk =   0.0078125
        k(  260) = (  -0.5000000  -0.5000000  -0.5000000), wk =   0.0039062

     Dense  grid:    80341 G-vectors     FFT dimensions: (  48,  48,  80)

     Smooth grid:    31305 G-vectors     FFT dimensions: (  36,  36,  60)

     Dynamical RAM for                 wfc:       0.06 MB

     Dynamical RAM for     wfc (w. buffer):       3.93 MB

     Dynamical RAM for           str. fact:       0.15 MB

     Dynamical RAM for           local pot:       0.00 MB

     Dynamical RAM for          nlocal pot:       0.24 MB

     Dynamical RAM for                qrad:      10.14 MB

     Dynamical RAM for          rho,v,vnew:       0.49 MB

     Dynamical RAM for               rhoin:       0.16 MB

     Dynamical RAM for            rho*nmix:       1.23 MB

     Dynamical RAM for           G-vectors:       0.30 MB

     Dynamical RAM for          h,s,v(r/c):       0.05 MB

     Dynamical RAM for          <psi|beta>:       0.02 MB

     Dynamical RAM for                 psi:       0.24 MB

     Dynamical RAM for                hpsi:       0.24 MB

     Dynamical RAM for                spsi:       0.24 MB

     Dynamical RAM for      wfcinit/wfcrot:       0.14 MB

     Dynamical RAM for           addusdens:       4.02 MB

     Dynamical RAM for          addusforce:       4.18 MB

     Dynamical RAM for         addusstress:       4.25 MB

     Estimated static dynamical RAM per process >      17.32 MB

     Estimated max dynamical RAM per process >      21.56 MB

     Estimated total dynamical RAM >       1.35 GB

     Check: negative core charge=   -0.000003

     Initial potential from superposition of free atoms

     starting charge   31.39954, renormalised to   32.00000
     Starting wfcs are   18 randomized atomic wfcs

     total cpu time spent up to now is        2.9 secs

     Self-consistent Calculation

     iteration #  1     ecut=    80.00 Ry     beta= 0.50
     Davidson diagonalization with overlap
     ethr =  1.00E-02,  avg # of iterations =  2.0

     total cpu time spent up to now is        3.8 secs

     total energy              =    -314.88102125 Ry
     Harris-Foulkes estimate   =    -315.45460338 Ry
     estimated scf accuracy    <       0.90751247 Ry

     iteration #  2     ecut=    80.00 Ry     beta= 0.50
     Davidson diagonalization with overlap
     ethr =  2.84E-03,  avg # of iterations =  3.0

     total cpu time spent up to now is        4.7 secs

     total energy              =    -315.12299112 Ry
     Harris-Foulkes estimate   =    -315.24119977 Ry
     estimated scf accuracy    <       0.27358130 Ry

     iteration #  3     ecut=    80.00 Ry     beta= 0.50
     Davidson diagonalization with overlap
     ethr =  8.55E-04,  avg # of iterations =  2.0

     total cpu time spent up to now is        5.5 secs

     total energy              =    -315.16994593 Ry
     Harris-Foulkes estimate   =    -315.17294170 Ry
     estimated scf accuracy    <       0.00991875 Ry

     iteration #  4     ecut=    80.00 Ry     beta= 0.50
     Davidson diagonalization with overlap
     ethr =  3.10E-05,  avg # of iterations =  2.0

     total cpu time spent up to now is        6.2 secs

     total energy              =    -315.17058654 Ry
     Harris-Foulkes estimate   =    -315.17061311 Ry
     estimated scf accuracy    <       0.00051684 Ry

     iteration #  5     ecut=    80.00 Ry     beta= 0.50
     Davidson diagonalization with overlap
     ethr =  1.62E-06,  avg # of iterations =  1.9

     total cpu time spent up to now is        6.9 secs

     total energy              =    -315.17064254 Ry
     Harris-Foulkes estimate   =    -315.17064283 Ry
     estimated scf accuracy    <       0.00002093 Ry

     iteration #  6     ecut=    80.00 Ry     beta= 0.50
     Davidson diagonalization with overlap
     ethr =  6.54E-08,  avg # of iterations =  2.3

     total cpu time spent up to now is        7.8 secs

     End of self-consistent calculation

          k = 0.0000 0.0000 0.0000 (  3899 PWs)   bands (ev):

   -66.9681 -66.9652 -33.9621 -33.9457 -33.9457 -33.9403 -33.9403 -33.9201
   -11.5394 -10.8575   1.0640   4.0611   4.1412   4.1412   4.3200   4.3200

     occupation numbers 
     1.0000   1.0000   1.0000   1.0000   1.0000   1.0000   1.0000   1.0000
     1.0000   1.0000   1.0000   1.0000   1.0000   1.0000   1.0000   1.0000

          k = 0.0000-0.0000 0.0750 (  3935 PWs)   bands (ev):

   -66.9680 -66.9653 -33.9606 -33.9455 -33.9455 -33.9405 -33.9405 -33.9217
   -11.5152 -10.8855   1.1451   3.8634   4.1478   4.1478   4.3130   4.3130

     occupation numbers 
     1.0000   1.0000   1.0000   1.0000   1.0000   1.0000   1.0000   1.0000
     1.0000   1.0000   1.0000   1.0000   1.0000   1.0000   1.0000   1.0000

          k = 0.0000-0.0000 0.1500 (  3899 PWs)   bands (ev):

   -66.9677 -66.9656 -33.9560 -33.9449 -33.9449 -33.9411 -33.9411 -33.9263
   -11.4455 -10.9640   1.3824   3.3873   4.1667   4.1667   4.2931   4.2931

     occupation numbers 
     1.0000   1.0000   1.0000   1.0000   1.0000   1.0000   1.0000   1.0000
     1.0000   1.0000   1.0000   1.0000   1.0000   1.0000   1.0000   1.0000

          k = 0.0000-0.0000 0.2249 (  3941 PWs)   bands (ev):

   -66.9672 -66.9661 -33.9492 -33.9440 -33.9440 -33.9420 -33.9420 -33.9332
   -11.3394 -11.0790   1.7594   2.8123   4.1952   4.1952   4.2636   4.2636

     occupation numbers 
     1.0000   1.0000   1.0000   1.0000   1.0000   1.0000   1.0000   1.0000
     1.0000   1.0000   1.0000   1.0000   1.0000   1.0000   1.0000   1.0000

          k =-0.0000 0.0000-0.2999 (  3892 PWs)   bands (ev):

   -66.9667 -66.9666 -33.9430 -33.9430 -33.9430 -33.9430 -33.9412 -33.9412
   -11.2115 -11.2105   2.2487   2.2495   4.2287   4.2287   4.2297   4.2297

     occupation numbers 
     1.0000   1.0000   1.0000   1.0000   1.0000   1.0000   1.0000   1.0000
     1.0000   1.0000   1.0000   1.0000   1.0000   1.0000   1.0000   1.0000

          k = 0.0000 0.1443-0.0000 (  3913 PWs)   bands (ev):

   -66.9677 -66.9650 -33.9608 -33.9497 -33.9470 -33.9452 -33.9411 -33.9209
   -11.4532 -10.8162   1.2326   3.6324   3.8353   4.0359   4.0450   4.3007

     occupation numbers 
     1.0000   1.0000   1.0000   1.0000   1.0000   1.0000   1.0000   1.0000
     1.0000   1.0000   1.0000   1.0000   1.0000   1.0000   1.0000   1.0000

          k = 0.0000 0.1443 0.0750 (  3922 PWs)   bands (ev):

   -66.9676 -66.9651 -33.9596 -33.9491 -33.9468 -33.9455 -33.9414 -33.9222
   -11.4304 -10.8421   1.3020   3.5221   3.7874   4.0455   4.0697   4.2902

     occupation numbers 
     1.0000   1.0000   1.0000   1.0000   1.0000   1.0000   1.0000   1.0000
     1.0000   1.0000   1.0000   1.0000   1.0000   1.0000   1.0000   1.0000

          k = 0.0000 0.1443 0.1500 (  3919 PWs)   bands (ev):

   -66.9673 -66.9654 -33.9566 -33.9474 -33.9464 -33.9461 -33.9420 -33.9261
   -11.3648 -10.9149   1.5050   3.1654   3.8056   4.0634   4.0732   4.2604

     occupation numbers 
     1.0000   1.0000   1.0000   1.0000   1.0000   1.0000   1.0000   1.0000
     1.0000   1.0000   1.0000   1.0000   1.0000   1.0000   1.0000   1.0000

          k = 0.0000 0.1443 0.2249 (  3929 PWs)   bands (ev):

   -66.9668 -66.9658 -33.9530 -33.9481 -33.9452 -33.9437 -33.9429 -33.9318
   -11.2651 -11.0218   1.8259   2.7048   3.8670   4.0141   4.1150   4.2163

     occupation numbers 
     1.0000   1.0000   1.0000   1.0000   1.0000   1.0000   1.0000   1.0000
     1.0000   1.0000   1.0000   1.0000   1.0000   1.0000   1.0000   1.0000

          k = 0.0000 0.1443-0.2999 (  3930 PWs)   bands (ev):

   -66.9663 -66.9663 -33.9502 -33.9502 -33.9441 -33.9441 -33.9382 -33.9382
   -11.1455 -11.1444   2.2385   2.2390   3.9420   3.9428   4.1647   4.1658

     occupation numbers 
     1.0000   1.0000   1.0000   1.0000   1.0000   1.0000   1.0000   1.0000
     1.0000   1.0000   1.0000   1.0000   1.0000   1.0000   1.0000   1.0000

          k = 0.0000 0.1443-0.2249 (  3929 PWs)   bands (ev):

   -66.9668 -66.9658 -33.9530 -33.9481 -33.9452 -33.9437 -33.9429 -33.9318
   -11.2651 -11.0218   1.8259   2.7048   3.8670   4.0141   4.1150   4.2163

     occupation numbers 
     1.0000   1.0000   1.0000   1.0000   1.0000   1.0000   1.0000   1.0000
     1.0000   1.0000   1.0000   1.0000   1.0000   1.0000   1.0000   1.0000

          k = 0.0000 0.1443-0.1500 (  3919 PWs)   bands (ev):

   -66.9673 -66.9654 -33.9566 -33.9474 -33.9464 -33.9461 -33.9420 -33.9261
   -11.3648 -10.9149   1.5050   3.1654   3.8056   4.0634   4.0732   4.2604

     occupation numbers 
     1.0000   1.0000   1.0000   1.0000   1.0000   1.0000   1.0000   1.0000
     1.0000   1.0000   1.0000   1.0000   1.0000   1.0000   1.0000   1.0000

          k = 0.0000 0.1443-0.0750 (  3922 PWs)   bands (ev):

   -66.9676 -66.9651 -33.9596 -33.9491 -33.9468 -33.9455 -33.9414 -33.9222
   -11.4304 -10.8421   1.3020   3.5221   3.7874   4.0455   4.0697   4.2902

     occupation numbers 
     1.0000   1.0000   1.0000   1.0000   1.0000   1.0000   1.0000   1.0000
     1.0000   1.0000   1.0000   1.0000   1.0000   1.0000   1.0000   1.0000

          k = 0.0000 0.2887-0.0000 (  3923 PWs)   bands (ev):

   -66.9666 -66.9645 -33.9640 -33.9572 -33.9521 -33.9501 -33.9432 -33.9232
   -11.2308 -10.7218   1.6953   2.5782   3.0760   3.8269   3.9541   4.2189

     occupation numbers 
     1.0000   1.0000   1.0000   1.0000   1.0000   1.0000   1.0000   1.0000
     1.0000   1.0000   1.0000   1.0000   1.0000   1.0000   1.0000   1.0000

          k = 0.0000 0.2887 0.0750 (  3930 PWs)   bands (ev):

   -66.9665 -66.9646 -33.9643 -33.9577 -33.9504 -33.9499 -33.9435 -33.9241
   -11.2120 -10.7418   1.7106   2.5645   3.0739   3.8408   3.9435   4.2029

     occupation numbers 
     1.0000   1.0000   1.0000   1.0000   1.0000   1.0000   1.0000   1.0000
     1.0000   1.0000   1.0000   1.0000   1.0000   1.0000   1.0000   1.0000

          k = 0.0000 0.2887 0.1500 (  3943 PWs)   bands (ev):

   -66.9663 -66.9648 -33.9645 -33.9589 -33.9491 -33.9464 -33.9443 -33.9267
   -11.1584 -10.7986   1.7666   2.4598   3.1514   3.8810   3.8876   4.1579

     occupation numbers 
     1.0000   1.0000   1.0000   1.0000   1.0000   1.0000   1.0000   1.0000
     1.0000   1.0000   1.0000   1.0000   1.0000   1.0000   1.0000   1.0000

          k = 0.0000 0.2887 0.2249 (  3919 PWs)   bands (ev):

   -66.9660 -66.9651 -33.9639 -33.9607 -33.9480 -33.9454 -33.9412 -33.9307
   -11.0774 -10.8827   1.8794   2.2616   3.3385   3.7576   3.9422   4.0920

     occupation numbers 
     1.0000   1.0000   1.0000   1.0000   1.0000   1.0000   1.0000   1.0000
     1.0000   1.0000   1.0000   1.0000   1.0000   1.0000   1.0000   1.0000

          k = 0.0000 0.2887-0.2999 (  3900 PWs)   bands (ev):

   -66.9656 -66.9655 -33.9625 -33.9625 -33.9467 -33.9467 -33.9357 -33.9357
   -10.9812 -10.9802   2.0511   2.0512   3.5614   3.5615   4.0156   4.0167

     occupation numbers 
     1.0000   1.0000   1.0000   1.0000   1.0000   1.0000   1.0000   1.0000
     1.0000   1.0000   1.0000   1.0000   1.0000   1.0000   1.0000   1.0000

          k = 0.0000 0.2887-0.2249 (  3919 PWs)   bands (ev):

   -66.9660 -66.9651 -33.9639 -33.9607 -33.9480 -33.9454 -33.9412 -33.9307
   -11.0774 -10.8827   1.8794   2.2616   3.3385   3.7576   3.9422   4.0920

     occupation numbers 
     1.0000   1.0000   1.0000   1.0000   1.0000   1.0000   1.0000   1.0000
     1.0000   1.0000   1.0000   1.0000   1.0000   1.0000   1.0000   1.0000

          k = 0.0000 0.2887-0.1500 (  3943 PWs)   bands (ev):

   -66.9663 -66.9648 -33.9645 -33.9589 -33.9491 -33.9464 -33.9443 -33.9267
   -11.1584 -10.7986   1.7666   2.4598   3.1514   3.8810   3.8876   4.1579

     occupation numbers 
     1.0000   1.0000   1.0000   1.0000   1.0000   1.0000   1.0000   1.0000
     1.0000   1.0000   1.0000   1.0000   1.0000   1.0000   1.0000   1.0000

          k = 0.0000 0.2887-0.0750 (  3930 PWs)   bands (ev):

   -66.9665 -66.9646 -33.9643 -33.9577 -33.9504 -33.9499 -33.9435 -33.9241
   -11.2120 -10.7418   1.7106   2.5645   3.0739   3.8408   3.9435   4.2029

     occupation numbers 
     1.0000   1.0000   1.0000   1.0000   1.0000   1.0000   1.0000   1.0000
     1.0000   1.0000   1.0000   1.0000   1.0000   1.0000   1.0000   1.0000

          k = 0.0000 0.4330-0.0000 (  3925 PWs)   bands (ev):

   -66.9655 -66.9641 -33.9742 -33.9688 -33.9532 -33.9464 -33.9454 -33.9268
   -10.9739 -10.6477   1.7571   2.3017   2.4491   3.6457   3.7382   4.1220

     occupation numbers 
     1.0000   1.0000   1.0000   1.0000   1.0000   1.0000   1.0000   1.0000
     1.0000   1.0000   1.0000   1.0000   1.0000   1.0000   1.0000   1.0000

          k = 0.0000 0.4330 0.0750 (  3917 PWs)   bands (ev):

   -66.9654 -66.9641 -33.9745 -33.9693 -33.9529 -33.9457 -33.9452 -33.9272
   -10.9613 -10.6598   1.6972   2.1891   2.6140   3.6625   3.7631   4.1023

     occupation numbers 
     1.0000   1.0000   1.0000   1.0000   1.0000   1.0000   1.0000   1.0000
     1.0000   1.0000   1.0000   1.0000   1.0000   1.0000   1.0000   1.0000

          k = 0.0000 0.4330 0.1500 (  3915 PWs)   bands (ev):

   -66.9653 -66.9643 -33.9750 -33.9708 -33.9520 -33.9466 -33.9419 -33.9285
   -10.9254 -10.6946   1.6096   1.9941   2.9154   3.7107   3.7833   4.0470

     occupation numbers 
     1.0000   1.0000   1.0000   1.0000   1.0000   1.0000   1.0000   1.0000
     1.0000   1.0000   1.0000   1.0000   1.0000   1.0000   1.0000   1.0000

          k = 0.0000 0.4330 0.2249 (  3914 PWs)   bands (ev):

   -66.9651 -66.9645 -33.9750 -33.9727 -33.9508 -33.9478 -33.9379 -33.9307
   -10.8719 -10.7469   1.5854   1.7962   3.2419   3.7148   3.7844   3.9662

     occupation numbers 
     1.0000   1.0000   1.0000   1.0000   1.0000   1.0000   1.0000   1.0000
     1.0000   1.0000   1.0000   1.0000   1.0000   1.0000   1.0000   1.0000

          k = 0.0000 0.4330-0.2999 (  3906 PWs)   bands (ev):

   -66.9648 -66.9648 -33.9742 -33.9742 -33.9493 -33.9493 -33.9340 -33.9339
   -10.8097 -10.8087   1.6496   1.6500   3.5260   3.5265   3.8734   3.8744

     occupation numbers 
     1.0000   1.0000   1.0000   1.0000   1.0000   1.0000   1.0000   1.0000
     1.0000   1.0000   1.0000   1.0000   1.0000   1.0000   1.0000   1.0000

          k = 0.0000 0.4330-0.2249 (  3914 PWs)   bands (ev):

   -66.9651 -66.9645 -33.9750 -33.9727 -33.9508 -33.9478 -33.9379 -33.9307
   -10.8719 -10.7469   1.5854   1.7962   3.2419   3.7148   3.7844   3.9662

     occupation numbers 
     1.0000   1.0000   1.0000   1.0000   1.0000   1.0000   1.0000   1.0000
     1.0000   1.0000   1.0000   1.0000   1.0000   1.0000   1.0000   1.0000

          k = 0.0000 0.4330-0.1500 (  3915 PWs)   bands (ev):

   -66.9653 -66.9643 -33.9750 -33.9708 -33.9520 -33.9466 -33.9419 -33.9285
   -10.9254 -10.6946   1.6096   1.9942   2.9154   3.7107   3.7833   4.0470

     occupation numbers 
     1.0000   1.0000   1.0000   1.0000   1.0000   1.0000   1.0000   1.0000
     1.0000   1.0000   1.0000   1.0000   1.0000   1.0000   1.0000   1.0000

          k = 0.0000 0.4330-0.0750 (  3917 PWs)   bands (ev):

   -66.9654 -66.9641 -33.9745 -33.9693 -33.9529 -33.9457 -33.9452 -33.9272
   -10.9613 -10.6598   1.6972   2.1891   2.6140   3.6625   3.7631   4.1023

     occupation numbers 
     1.0000   1.0000   1.0000   1.0000   1.0000   1.0000   1.0000   1.0000
     1.0000   1.0000   1.0000   1.0000   1.0000   1.0000   1.0000   1.0000

          k =-0.0000-0.5774 0.0000 (  3926 PWs)   bands (ev):

   -66.9649 -66.9640 -33.9788 -33.9735 -33.9544 -33.9463 -33.9427 -33.9294
   -10.8416 -10.6383   1.4586   2.1777   2.7197   3.5205   3.5758   4.0802

     occupation numbers 
     1.0000   1.0000   1.0000   1.0000   1.0000   1.0000   1.0000   1.0000
     1.0000   1.0000   1.0000   1.0000   1.0000   1.0000   1.0000   1.0000

          k =-0.0000-0.5774 0.0750 (  3922 PWs)   bands (ev):

   -66.9649 -66.9640 -33.9790 -33.9741 -33.9541 -33.9466 -33.9418 -33.9295
   -10.8332 -10.6454   1.4265   2.0737   2.8169   3.5856   3.5934   4.0593

     occupation numbers 
     1.0000   1.0000   1.0000   1.0000   1.0000   1.0000   1.0000   1.0000
     1.0000   1.0000   1.0000   1.0000   1.0000   1.0000   1.0000   1.0000

          k =-0.0000-0.5774 0.1500 (  3902 PWs)   bands (ev):

   -66.9648 -66.9641 -33.9796 -33.9757 -33.9532 -33.9475 -33.9392 -33.9300
   -10.8098 -10.6659   1.3754   1.8477   3.0538   3.6443   3.6870   4.0005

     occupation numbers 
     1.0000   1.0000   1.0000   1.0000   1.0000   1.0000   1.0000   1.0000
     1.0000   1.0000   1.0000   1.0000   1.0000   1.0000   1.0000   1.0000

          k =-0.0000-0.5774 0.2249 (  3910 PWs)   bands (ev):

   -66.9646 -66.9643 -33.9797 -33.9775 -33.9519 -33.9488 -33.9361 -33.9312
   -10.7753 -10.6974   1.3728   1.6195   3.3329   3.6966   3.7221   3.9147

     occupation numbers 
     1.0000   1.0000   1.0000   1.0000   1.0000   1.0000   1.0000   1.0000
     1.0000   1.0000   1.0000   1.0000   1.0000   1.0000   1.0000   1.0000

          k =-0.0000-0.5774-0.2999 (  3912 PWs)   bands (ev):

   -66.9645 -66.9645 -33.9790 -33.9790 -33.9504 -33.9504 -33.9333 -33.9332
   -10.7363 -10.7352   1.4527   1.4532   3.5690   3.5696   3.8163   3.8173

     occupation numbers 
     1.0000   1.0000   1.0000   1.0000   1.0000   1.0000   1.0000   1.0000
     1.0000   1.0000   1.0000   1.0000   1.0000   1.0000   1.0000   1.0000

          k = 0.1250 0.0722 0.0000 (  3913 PWs)   bands (ev):

   -66.9677 -66.9650 -33.9608 -33.9497 -33.9470 -33.9452 -33.9411 -33.9209
   -11.4532 -10.8162   1.2326   3.6324   3.8353   4.0359   4.0450   4.3007

     occupation numbers 
     1.0000   1.0000   1.0000   1.0000   1.0000   1.0000   1.0000   1.0000
     1.0000   1.0000   1.0000   1.0000   1.0000   1.0000   1.0000   1.0000

          k = 0.1250 0.0722 0.0750 (  3922 PWs)   bands (ev):

   -66.9676 -66.9651 -33.9596 -33.9491 -33.9468 -33.9455 -33.9414 -33.9222
   -11.4304 -10.8421   1.3020   3.5221   3.7874   4.0455   4.0697   4.2902

     occupation numbers 
     1.0000   1.0000   1.0000   1.0000   1.0000   1.0000   1.0000   1.0000
     1.0000   1.0000   1.0000   1.0000   1.0000   1.0000   1.0000   1.0000

          k = 0.1250 0.0722 0.1500 (  3919 PWs)   bands (ev):

   -66.9673 -66.9654 -33.9566 -33.9474 -33.9464 -33.9461 -33.9420 -33.9261
   -11.3648 -10.9149   1.5050   3.1654   3.8056   4.0634   4.0732   4.2604

     occupation numbers 
     1.0000   1.0000   1.0000   1.0000   1.0000   1.0000   1.0000   1.0000
     1.0000   1.0000   1.0000   1.0000   1.0000   1.0000   1.0000   1.0000

          k = 0.1250 0.0722 0.2249 (  3929 PWs)   bands (ev):

   -66.9668 -66.9658 -33.9530 -33.9481 -33.9452 -33.9437 -33.9429 -33.9318
   -11.2651 -11.0218   1.8259   2.7048   3.8670   4.0141   4.1150   4.2163

     occupation numbers 
     1.0000   1.0000   1.0000   1.0000   1.0000   1.0000   1.0000   1.0000
     1.0000   1.0000   1.0000   1.0000   1.0000   1.0000   1.0000   1.0000

          k = 0.1250 0.0722-0.2999 (  3930 PWs)   bands (ev):

   -66.9663 -66.9663 -33.9502 -33.9502 -33.9441 -33.9441 -33.9382 -33.9382
   -11.1455 -11.1444   2.2385   2.2390   3.9420   3.9428   4.1647   4.1658

     occupation numbers 
     1.0000   1.0000   1.0000   1.0000   1.0000   1.0000   1.0000   1.0000
     1.0000   1.0000   1.0000   1.0000   1.0000   1.0000   1.0000   1.0000

          k = 0.1250 0.0722-0.2249 (  3929 PWs)   bands (ev):

   -66.9668 -66.9658 -33.9530 -33.9481 -33.9452 -33.9437 -33.9429 -33.9318
   -11.2651 -11.0218   1.8259   2.7048   3.8670   4.0141   4.1150   4.2163

     occupation numbers 
     1.0000   1.0000   1.0000   1.0000   1.0000   1.0000   1.0000   1.0000
     1.0000   1.0000   1.0000   1.0000   1.0000   1.0000   1.0000   1.0000

          k = 0.1250 0.0722-0.1500 (  3919 PWs)   bands (ev):

   -66.9673 -66.9654 -33.9566 -33.9474 -33.9464 -33.9461 -33.9420 -33.9261
   -11.3648 -10.9149   1.5050   3.1654   3.8056   4.0634   4.0732   4.2604

     occupation numbers 
     1.0000   1.0000   1.0000   1.0000   1.0000   1.0000   1.0000   1.0000
     1.0000   1.0000   1.0000   1.0000   1.0000   1.0000   1.0000   1.0000

          k = 0.1250 0.0722-0.0750 (  3922 PWs)   bands (ev):

   -66.9676 -66.9651 -33.9596 -33.9491 -33.9468 -33.9455 -33.9414 -33.9222
   -11.4304 -10.8421   1.3020   3.5221   3.7874   4.0455   4.0697   4.2902

     occupation numbers 
     1.0000   1.0000   1.0000   1.0000   1.0000   1.0000   1.0000   1.0000
     1.0000   1.0000   1.0000   1.0000   1.0000   1.0000   1.0000   1.0000

          k = 0.1250 0.2165-0.0000 (  3919 PWs)   bands (ev):

   -66.9669 -66.9646 -33.9612 -33.9542 -33.9525 -33.9488 -33.9434 -33.9224
   -11.2986 -10.7483   1.5490   2.9301   3.2388   3.9217   3.9921   4.1477

     occupation numbers 
     1.0000   1.0000   1.0000   1.0000   1.0000   1.0000   1.0000   1.0000
     1.0000   1.0000   1.0000   1.0000   1.0000   1.0000   1.0000   1.0000

          k = 0.1250 0.2165 0.0750 (  3921 PWs)   bands (ev):

   -66.9668 -66.9647 -33.9613 -33.9545 -33.9510 -33.9487 -33.9436 -33.9234
   -11.2786 -10.7702   1.5890   2.8666   3.2752   3.8514   4.0394   4.1339

     occupation numbers 
     1.0000   1.0000   1.0000   1.0000   1.0000   1.0000   1.0000   1.0000
     1.0000   1.0000   1.0000   1.0000   1.0000   1.0000   1.0000   1.0000

          k = 0.1250 0.2165 0.1500 (  3922 PWs)   bands (ev):

   -66.9666 -66.9650 -33.9611 -33.9553 -33.9484 -33.9471 -33.9442 -33.9264
   -11.2211 -10.8321   1.7074   2.6845   3.3750   3.7809   4.0537   4.0969

     occupation numbers 
     1.0000   1.0000   1.0000   1.0000   1.0000   1.0000   1.0000   1.0000
     1.0000   1.0000   1.0000   1.0000   1.0000   1.0000   1.0000   1.0000

          k = 0.1250 0.2165 0.2249 (  3925 PWs)   bands (ev):

   -66.9662 -66.9653 -33.9601 -33.9568 -33.9476 -33.9454 -33.9418 -33.9308
   -11.1340 -10.9235   1.8984   2.4248   3.5120   3.7300   4.0275   4.0503

     occupation numbers 
     1.0000   1.0000   1.0000   1.0000   1.0000   1.0000   1.0000   1.0000
     1.0000   1.0000   1.0000   1.0000   1.0000   1.0000   1.0000   1.0000

          k = 0.1250 0.2165-0.2999 (  3934 PWs)   bands (ev):

   -66.9658 -66.9658 -33.9585 -33.9585 -33.9465 -33.9465 -33.9362 -33.9362
   -11.0302 -11.0291   2.1469   2.1472   3.6445   3.6449   4.0179   4.0189

     occupation numbers 
     1.0000   1.0000   1.0000   1.0000   1.0000   1.0000   1.0000   1.0000
     1.0000   1.0000   1.0000   1.0000   1.0000   1.0000   1.0000   1.0000

          k = 0.1250 0.2165-0.2249 (  3925 PWs)   bands (ev):

   -66.9662 -66.9653 -33.9601 -33.9568 -33.9476 -33.9454 -33.9418 -33.9308
   -11.1340 -10.9235   1.8984   2.4248   3.5120   3.7300   4.0275   4.0503

     occupation numbers 
     1.0000   1.0000   1.0000   1.0000   1.0000   1.0000   1.0000   1.0000
     1.0000   1.0000   1.0000   1.0000   1.0000   1.0000   1.0000   1.0000

          k = 0.1250 0.2165-0.1500 (  3922 PWs)   bands (ev):

   -66.9666 -66.9650 -33.9610 -33.9553 -33.9484 -33.9471 -33.9442 -33.9264
   -11.2211 -10.8321   1.7074   2.6845   3.3750   3.7809   4.0537   4.0969

     occupation numbers 
     1.0000   1.0000   1.0000   1.0000   1.0000   1.0000   1.0000   1.0000
     1.0000   1.0000   1.0000   1.0000   1.0000   1.0000   1.0000   1.0000

          k = 0.1250 0.2165-0.0750 (  3921 PWs)   bands (ev):

   -66.9668 -66.9647 -33.9613 -33.9545 -33.9510 -33.9487 -33.9436 -33.9234
   -11.2786 -10.7702   1.5890   2.8666   3.2752   3.8514   4.0394   4.1339

     occupation numbers 
     1.0000   1.0000   1.0000   1.0000   1.0000   1.0000   1.0000   1.0000
     1.0000   1.0000   1.0000   1.0000   1.0000   1.0000   1.0000   1.0000

          k = 0.1250 0.3608-0.0000 (  3900 PWs)   bands (ev):

   -66.9658 -66.9642 -33.9690 -33.9647 -33.9534 -33.9483 -33.9466 -33.9255
   -11.0566 -10.6645   2.0731   2.1442   2.6739   3.5912   3.8391   3.9619

     occupation numbers 
     1.0000   1.0000   1.0000   1.0000   1.0000   1.0000   1.0000   1.0000
     1.0000   1.0000   1.0000   1.0000   1.0000   1.0000   1.0000   1.0000

          k = 0.1250 0.3608 0.0750 (  3911 PWs)   bands (ev):

   -66.9658 -66.9642 -33.9694 -33.9651 -33.9532 -33.9474 -33.9464 -33.9260
   -11.0418 -10.6795   1.9633   2.1744   2.7702   3.5592   3.8564   3.9655

     occupation numbers 
     1.0000   1.0000   1.0000   1.0000   1.0000   1.0000   1.0000   1.0000
     1.0000   1.0000   1.0000   1.0000   1.0000   1.0000   1.0000   1.0000

          k = 0.1250 0.3608 0.1500 (  3915 PWs)   bands (ev):

   -66.9656 -66.9644 -33.9699 -33.9663 -33.9526 -33.9479 -33.9431 -33.9277
   -10.9994 -10.7220   1.8560   2.1030   3.0014   3.5314   3.8285   3.9813

     occupation numbers 
     1.0000   1.0000   1.0000   1.0000   1.0000   1.0000   1.0000   1.0000
     1.0000   1.0000   1.0000   1.0000   1.0000   1.0000   1.0000   1.0000

          k = 0.1250 0.3608 0.2249 (  3914 PWs)   bands (ev):

   -66.9653 -66.9647 -33.9700 -33.9678 -33.9517 -33.9490 -33.9386 -33.9304
   -10.9359 -10.7858   1.8228   1.9780   3.2507   3.5223   3.7939   3.9446

     occupation numbers 
     1.0000   1.0000   1.0000   1.0000   1.0000   1.0000   1.0000   1.0000
     1.0000   1.0000   1.0000   1.0000   1.0000   1.0000   1.0000   1.0000

          k = 0.1250 0.3608-0.2999 (  3912 PWs)   bands (ev):

   -66.9650 -66.9650 -33.9692 -33.9692 -33.9504 -33.9504 -33.9342 -33.9341
   -10.8614 -10.8604   1.8699   1.8701   3.4369   3.4370   3.8509   3.8515

     occupation numbers 
     1.0000   1.0000   1.0000   1.0000   1.0000   1.0000   1.0000   1.0000
     1.0000   1.0000   1.0000   1.0000   1.0000   1.0000   1.0000   1.0000

          k = 0.1250 0.3608-0.2249 (  3914 PWs)   bands (ev):

   -66.9653 -66.9647 -33.9700 -33.9678 -33.9517 -33.9490 -33.9386 -33.9304
   -10.9359 -10.7858   1.8228   1.9780   3.2507   3.5223   3.7938   3.9446

     occupation numbers 
     1.0000   1.0000   1.0000   1.0000   1.0000   1.0000   1.0000   1.0000
     1.0000   1.0000   1.0000   1.0000   1.0000   1.0000   1.0000   1.0000

          k = 0.1250 0.3608-0.1500 (  3915 PWs)   bands (ev):

   -66.9656 -66.9644 -33.9699 -33.9663 -33.9527 -33.9479 -33.9431 -33.9277
   -10.9994 -10.7220   1.8560   2.1030   3.0013   3.5314   3.8285   3.9813

     occupation numbers 
     1.0000   1.0000   1.0000   1.0000   1.0000   1.0000   1.0000   1.0000
     1.0000   1.0000   1.0000   1.0000   1.0000   1.0000   1.0000   1.0000

          k = 0.1250 0.3608-0.0750 (  3911 PWs)   bands (ev):

   -66.9658 -66.9642 -33.9694 -33.9651 -33.9532 -33.9474 -33.9464 -33.9260
   -11.0418 -10.6795   1.9633   2.1745   2.7702   3.5592   3.8564   3.9655

     occupation numbers 
     1.0000   1.0000   1.0000   1.0000   1.0000   1.0000   1.0000   1.0000
     1.0000   1.0000   1.0000   1.0000   1.0000   1.0000   1.0000   1.0000

          k = 0.1250 0.5052-0.0000 (  3922 PWs)   bands (ev):

   -66.9649 -66.9640 -33.9761 -33.9714 -33.9568 -33.9489 -33.9426 -33.9294
   -10.8479 -10.6342   1.6327   2.3143   2.6781   3.3436   3.5718   3.8376

     occupation numbers 
     1.0000   1.0000   1.0000   1.0000   1.0000   1.0000   1.0000   1.0000
     1.0000   1.0000   1.0000   1.0000   1.0000   1.0000   1.0000   1.0000

          k = 0.1250 0.5052 0.0750 (  3919 PWs)   bands (ev):

   -66.9649 -66.9640 -33.9764 -33.9720 -33.9566 -33.9492 -33.9415 -33.9294
   -10.8392 -10.6418   1.6031   2.1906   2.7855   3.3657   3.6145   3.8380

     occupation numbers 
     1.0000   1.0000   1.0000   1.0000   1.0000   1.0000   1.0000   1.0000
     1.0000   1.0000   1.0000   1.0000   1.0000   1.0000   1.0000   1.0000

          k = 0.1250 0.5052 0.1500 (  3909 PWs)   bands (ev):

   -66.9648 -66.9641 -33.9769 -33.9735 -33.9559 -33.9502 -33.9389 -33.9298
   -10.8147 -10.6635   1.5525   1.9673   2.9671   3.4555   3.6204   3.8799

     occupation numbers 
     1.0000   1.0000   1.0000   1.0000   1.0000   1.0000   1.0000   1.0000
     1.0000   1.0000   1.0000   1.0000   1.0000   1.0000   1.0000   1.0000

          k = 0.1250 0.5052 0.2249 (  3904 PWs)   bands (ev):

   -66.9646 -66.9643 -33.9771 -33.9752 -33.9547 -33.9516 -33.9357 -33.9309
   -10.7787 -10.6968   1.5428   1.7572   3.1431   3.4486   3.6896   3.9057

     occupation numbers 
     1.0000   1.0000   1.0000   1.0000   1.0000   1.0000   1.0000   1.0000
     1.0000   1.0000   1.0000   1.0000   1.0000   1.0000   1.0000   1.0000

          k = 0.1250 0.5052-0.2999 (  3908 PWs)   bands (ev):

   -66.9645 -66.9645 -33.9766 -33.9765 -33.9531 -33.9531 -33.9329 -33.9329
   -10.7377 -10.7366   1.6088   1.6093   3.3078   3.3080   3.8353   3.8355

     occupation numbers 
     1.0000   1.0000   1.0000   1.0000   1.0000   1.0000   1.0000   1.0000
     1.0000   1.0000   1.0000   1.0000   1.0000   1.0000   1.0000   1.0000

          k = 0.1250 0.5052-0.2249 (  3904 PWs)   bands (ev):

   -66.9646 -66.9643 -33.9771 -33.9752 -33.9547 -33.9516 -33.9357 -33.9309
   -10.7787 -10.6968   1.5428   1.7572   3.1430   3.4486   3.6896   3.9057

     occupation numbers 
     1.0000   1.0000   1.0000   1.0000   1.0000   1.0000   1.0000   1.0000
     1.0000   1.0000   1.0000   1.0000   1.0000   1.0000   1.0000   1.0000

          k = 0.1250 0.5052-0.1500 (  3909 PWs)   bands (ev):

   -66.9648 -66.9641 -33.9769 -33.9735 -33.9559 -33.9502 -33.9389 -33.9298
   -10.8147 -10.6635   1.5525   1.9673   2.9671   3.4555   3.6204   3.8799

     occupation numbers 
     1.0000   1.0000   1.0000   1.0000   1.0000   1.0000   1.0000   1.0000
     1.0000   1.0000   1.0000   1.0000   1.0000   1.0000   1.0000   1.0000

          k = 0.1250 0.5052-0.0750 (  3919 PWs)   bands (ev):

   -66.9649 -66.9640 -33.9764 -33.9720 -33.9566 -33.9492 -33.9415 -33.9294
   -10.8392 -10.6418   1.6031   2.1906   2.7855   3.3657   3.6145   3.8380

     occupation numbers 
     1.0000   1.0000   1.0000   1.0000   1.0000   1.0000   1.0000   1.0000
     1.0000   1.0000   1.0000   1.0000   1.0000   1.0000   1.0000   1.0000

          k = 0.1250-0.5052 0.0000 (  3922 PWs)   bands (ev):

   -66.9649 -66.9640 -33.9761 -33.9714 -33.9568 -33.9489 -33.9426 -33.9294
   -10.8479 -10.6342   1.6327   2.3143   2.6781   3.3436   3.5718   3.8376

     occupation numbers 
     1.0000   1.0000   1.0000   1.0000   1.0000   1.0000   1.0000   1.0000
     1.0000   1.0000   1.0000   1.0000   1.0000   1.0000   1.0000   1.0000

          k = 0.1250-0.5052 0.0750 (  3919 PWs)   bands (ev):

   -66.9649 -66.9640 -33.9764 -33.9720 -33.9566 -33.9492 -33.9415 -33.9294
   -10.8392 -10.6418   1.6031   2.1906   2.7855   3.3657   3.6145   3.8380

     occupation numbers 
     1.0000   1.0000   1.0000   1.0000   1.0000   1.0000   1.0000   1.0000
     1.0000   1.0000   1.0000   1.0000   1.0000   1.0000   1.0000   1.0000

          k = 0.1250-0.5052 0.1500 (  3909 PWs)   bands (ev):

   -66.9648 -66.9641 -33.9769 -33.9735 -33.9559 -33.9502 -33.9389 -33.9298
   -10.8147 -10.6635   1.5525   1.9673   2.9671   3.4555   3.6204   3.8799

     occupation numbers 
     1.0000   1.0000   1.0000   1.0000   1.0000   1.0000   1.0000   1.0000
     1.0000   1.0000   1.0000   1.0000   1.0000   1.0000   1.0000   1.0000

          k = 0.1250-0.5052 0.2249 (  3904 PWs)   bands (ev):

   -66.9646 -66.9643 -33.9771 -33.9752 -33.9547 -33.9516 -33.9357 -33.9309
   -10.7787 -10.6968   1.5428   1.7572   3.1430   3.4486   3.6896   3.9057

     occupation numbers 
     1.0000   1.0000   1.0000   1.0000   1.0000   1.0000   1.0000   1.0000
     1.0000   1.0000   1.0000   1.0000   1.0000   1.0000   1.0000   1.0000

          k = 0.1250-0.5052-0.2999 (  3908 PWs)   bands (ev):

   -66.9645 -66.9645 -33.9766 -33.9765 -33.9531 -33.9531 -33.9329 -33.9329
   -10.7377 -10.7366   1.6088   1.6093   3.3078   3.3080   3.8353   3.8355

     occupation numbers 
     1.0000   1.0000   1.0000   1.0000   1.0000   1.0000   1.0000   1.0000
     1.0000   1.0000   1.0000   1.0000   1.0000   1.0000   1.0000   1.0000

          k = 0.1250-0.5052-0.2249 (  3904 PWs)   bands (ev):

   -66.9646 -66.9643 -33.9771 -33.9752 -33.9547 -33.9516 -33.9357 -33.9309
   -10.7787 -10.6968   1.5428   1.7572   3.1431   3.4486   3.6896   3.9057

     occupation numbers 
     1.0000   1.0000   1.0000   1.0000   1.0000   1.0000   1.0000   1.0000
     1.0000   1.0000   1.0000   1.0000   1.0000   1.0000   1.0000   1.0000

          k = 0.1250-0.5052-0.1500 (  3909 PWs)   bands (ev):

   -66.9648 -66.9641 -33.9769 -33.9735 -33.9559 -33.9502 -33.9389 -33.9298
   -10.8147 -10.6635   1.5525   1.9673   2.9671   3.4555   3.6204   3.8799

     occupation numbers 
     1.0000   1.0000   1.0000   1.0000   1.0000   1.0000   1.0000   1.0000
     1.0000   1.0000   1.0000   1.0000   1.0000   1.0000   1.0000   1.0000

          k = 0.1250-0.5052-0.0750 (  3919 PWs)   bands (ev):

   -66.9649 -66.9640 -33.9764 -33.9720 -33.9566 -33.9492 -33.9415 -33.9294
   -10.8392 -10.6418   1.6031   2.1906   2.7855   3.3657   3.6145   3.8380

     occupation numbers 
     1.0000   1.0000   1.0000   1.0000   1.0000   1.0000   1.0000   1.0000
     1.0000   1.0000   1.0000   1.0000   1.0000   1.0000   1.0000   1.0000

          k = 0.1250-0.3608 0.0000 (  3900 PWs)   bands (ev):

   -66.9658 -66.9642 -33.9690 -33.9647 -33.9534 -33.9483 -33.9466 -33.9255
   -11.0566 -10.6645   2.0731   2.1442   2.6739   3.5912   3.8391   3.9619

     occupation numbers 
     1.0000   1.0000   1.0000   1.0000   1.0000   1.0000   1.0000   1.0000
     1.0000   1.0000   1.0000   1.0000   1.0000   1.0000   1.0000   1.0000

          k = 0.1250-0.3608 0.0750 (  3911 PWs)   bands (ev):

   -66.9658 -66.9642 -33.9694 -33.9651 -33.9532 -33.9474 -33.9464 -33.9260
   -11.0418 -10.6795   1.9633   2.1745   2.7702   3.5592   3.8564   3.9655

     occupation numbers 
     1.0000   1.0000   1.0000   1.0000   1.0000   1.0000   1.0000   1.0000
     1.0000   1.0000   1.0000   1.0000   1.0000   1.0000   1.0000   1.0000

          k = 0.1250-0.3608 0.1500 (  3915 PWs)   bands (ev):

   -66.9656 -66.9644 -33.9699 -33.9663 -33.9526 -33.9479 -33.9431 -33.9277
   -10.9994 -10.7220   1.8560   2.1030   3.0013   3.5314   3.8285   3.9813

     occupation numbers 
     1.0000   1.0000   1.0000   1.0000   1.0000   1.0000   1.0000   1.0000
     1.0000   1.0000   1.0000   1.0000   1.0000   1.0000   1.0000   1.0000

          k = 0.1250-0.3608 0.2249 (  3914 PWs)   bands (ev):

   -66.9653 -66.9647 -33.9700 -33.9678 -33.9517 -33.9490 -33.9386 -33.9304
   -10.9359 -10.7858   1.8228   1.9780   3.2507   3.5223   3.7938   3.9446

     occupation numbers 
     1.0000   1.0000   1.0000   1.0000   1.0000   1.0000   1.0000   1.0000
     1.0000   1.0000   1.0000   1.0000   1.0000   1.0000   1.0000   1.0000

          k = 0.1250-0.3608-0.2999 (  3912 PWs)   bands (ev):

   -66.9650 -66.9650 -33.9692 -33.9692 -33.9504 -33.9504 -33.9342 -33.9341
   -10.8614 -10.8604   1.8699   1.8701   3.4369   3.4370   3.8509   3.8515

     occupation numbers 
     1.0000   1.0000   1.0000   1.0000   1.0000   1.0000   1.0000   1.0000
     1.0000   1.0000   1.0000   1.0000   1.0000   1.0000   1.0000   1.0000

          k = 0.1250-0.3608-0.2249 (  3914 PWs)   bands (ev):

[...]

          k =-0.4999-0.1443 0.0750 (  3922 PWs)   bands (ev):

   -66.9629 -66.9620 -33.9743 -33.9700 -33.9545 -33.9472 -33.9397 -33.9276
   -10.8431 -10.6457   1.6006   2.1877   2.7823   3.3619   3.6109   3.8341

     occupation numbers 
     1.0000   1.0000   1.0000   1.0000   1.0000   1.0000   1.0000   1.0000
     1.0000   1.0000   1.0000   1.0000   1.0000   1.0000   1.0000   1.0000

          k =-0.4999-0.1443 0.1500 (  3910 PWs)   bands (ev):

   -66.9628 -66.9621 -33.9749 -33.9714 -33.9538 -33.9481 -33.9370 -33.9280
   -10.8186 -10.6675   1.5499   1.9645   2.9638   3.4518   3.6167   3.8761

     occupation numbers 
     1.0000   1.0000   1.0000   1.0000   1.0000   1.0000   1.0000   1.0000
     1.0000   1.0000   1.0000   1.0000   1.0000   1.0000   1.0000   1.0000

          k =-0.4999-0.1443 0.2249 (  3907 PWs)   bands (ev):

   -66.9626 -66.9623 -33.9751 -33.9732 -33.9526 -33.9495 -33.9339 -33.9290
   -10.7826 -10.7007   1.5401   1.7544   3.1396   3.4450   3.6859   3.9020

     occupation numbers 
     1.0000   1.0000   1.0000   1.0000   1.0000   1.0000   1.0000   1.0000
     1.0000   1.0000   1.0000   1.0000   1.0000   1.0000   1.0000   1.0000

          k =-0.4999-0.1443-0.2999 (  3908 PWs)   bands (ev):

   -66.9624 -66.9624 -33.9745 -33.9745 -33.9511 -33.9511 -33.9310 -33.9310
   -10.7411 -10.7411   1.6064   1.6064   3.3044   3.3044   3.8317   3.8317

     occupation numbers 
     1.0000   1.0000   1.0000   1.0000   1.0000   1.0000   1.0000   1.0000
     1.0000   1.0000   1.0000   1.0000   1.0000   1.0000   1.0000   1.0000

          k =-0.4999-0.1443-0.2249 (  3907 PWs)   bands (ev):

   -66.9626 -66.9623 -33.9751 -33.9732 -33.9526 -33.9495 -33.9339 -33.9290
   -10.7826 -10.7007   1.5401   1.7544   3.1396   3.4450   3.6859   3.9020

     occupation numbers 
     1.0000   1.0000   1.0000   1.0000   1.0000   1.0000   1.0000   1.0000
     1.0000   1.0000   1.0000   1.0000   1.0000   1.0000   1.0000   1.0000

          k =-0.4999-0.1443-0.1500 (  3910 PWs)   bands (ev):

   -66.9628 -66.9621 -33.9749 -33.9714 -33.9538 -33.9481 -33.9370 -33.9280
   -10.8186 -10.6675   1.5499   1.9645   2.9638   3.4518   3.6167   3.8761

     occupation numbers 
     1.0000   1.0000   1.0000   1.0000   1.0000   1.0000   1.0000   1.0000
     1.0000   1.0000   1.0000   1.0000   1.0000   1.0000   1.0000   1.0000

          k =-0.4999-0.1443-0.0750 (  3922 PWs)   bands (ev):

   -66.9629 -66.9620 -33.9743 -33.9700 -33.9545 -33.9472 -33.9397 -33.9276
   -10.8431 -10.6457   1.6006   2.1877   2.7823   3.3619   3.6109   3.8341

     occupation numbers 
     1.0000   1.0000   1.0000   1.0000   1.0000   1.0000   1.0000   1.0000
     1.0000   1.0000   1.0000   1.0000   1.0000   1.0000   1.0000   1.0000

          k =-0.4999-0.0000-0.0000 (  3907 PWs)   bands (ev):

   -66.9629 -66.9620 -33.9693 -33.9683 -33.9573 -33.9503 -33.9406 -33.9275
   -10.8578 -10.6344   1.8854   2.4165   2.6702   3.1174   3.5016   3.6195

     occupation numbers 
     1.0000   1.0000   1.0000   1.0000   1.0000   1.0000   1.0000   1.0000
     1.0000   1.0000   1.0000   1.0000   1.0000   1.0000   1.0000   1.0000

          k =-0.4999-0.0000 0.0750 (  3903 PWs)   bands (ev):

   -66.9629 -66.9620 -33.9698 -33.9686 -33.9572 -33.9507 -33.9395 -33.9275
   -10.8488 -10.6423   1.8800   2.2216   2.8945   3.0393   3.4787   3.7121

     occupation numbers 
     1.0000   1.0000   1.0000   1.0000   1.0000   1.0000   1.0000   1.0000
     1.0000   1.0000   1.0000   1.0000   1.0000   1.0000   1.0000   1.0000

          k =-0.4999-0.0000 0.1500 (  3908 PWs)   bands (ev):

   -66.9628 -66.9621 -33.9708 -33.9695 -33.9568 -33.9516 -33.9368 -33.9278
   -10.8233 -10.6652   1.8590   2.0052   2.9413   3.1307   3.4773   3.8506

     occupation numbers 
     1.0000   1.0000   1.0000   1.0000   1.0000   1.0000   1.0000   1.0000
     1.0000   1.0000   1.0000   1.0000   1.0000   1.0000   1.0000   1.0000

          k =-0.4999-0.0000 0.2249 (  3898 PWs)   bands (ev):

   -66.9626 -66.9623 -33.9715 -33.9706 -33.9559 -33.9530 -33.9335 -33.9288
   -10.7858 -10.7001   1.8268   1.8688   2.9310   3.1148   3.6549   3.9065

     occupation numbers 
     1.0000   1.0000   1.0000   1.0000   1.0000   1.0000   1.0000   1.0000
     1.0000   1.0000   1.0000   1.0000   1.0000   1.0000   1.0000   1.0000

          k =-0.4999-0.0000-0.2999 (  3908 PWs)   bands (ev):

   -66.9624 -66.9624 -33.9714 -33.9714 -33.9545 -33.9545 -33.9307 -33.9307
   -10.7424 -10.7424   1.8165   1.8165   3.0064   3.0064   3.8365   3.8365

     occupation numbers 
     1.0000   1.0000   1.0000   1.0000   1.0000   1.0000   1.0000   1.0000
     1.0000   1.0000   1.0000   1.0000   1.0000   1.0000   1.0000   1.0000

          k =-0.4999-0.0000-0.2249 (  3898 PWs)   bands (ev):

   -66.9626 -66.9623 -33.9715 -33.9706 -33.9559 -33.9530 -33.9335 -33.9288
   -10.7858 -10.7001   1.8268   1.8688   2.9310   3.1148   3.6549   3.9065

     occupation numbers 
     1.0000   1.0000   1.0000   1.0000   1.0000   1.0000   1.0000   1.0000
     1.0000   1.0000   1.0000   1.0000   1.0000   1.0000   1.0000   1.0000

          k =-0.4999-0.0000-0.1500 (  3908 PWs)   bands (ev):

   -66.9628 -66.9621 -33.9708 -33.9695 -33.9568 -33.9516 -33.9368 -33.9278
   -10.8233 -10.6652   1.8590   2.0052   2.9413   3.1307   3.4773   3.8506

     occupation numbers 
     1.0000   1.0000   1.0000   1.0000   1.0000   1.0000   1.0000   1.0000
     1.0000   1.0000   1.0000   1.0000   1.0000   1.0000   1.0000   1.0000

          k =-0.4999-0.0000-0.0750 (  3903 PWs)   bands (ev):

   -66.9629 -66.9620 -33.9698 -33.9686 -33.9572 -33.9507 -33.9395 -33.9275
   -10.8488 -10.6423   1.8800   2.2216   2.8945   3.0393   3.4787   3.7121

     occupation numbers 
     1.0000   1.0000   1.0000   1.0000   1.0000   1.0000   1.0000   1.0000
     1.0000   1.0000   1.0000   1.0000   1.0000   1.0000   1.0000   1.0000

          k =-0.4999 0.1443-0.0000 (  3922 PWs)   bands (ev):

   -66.9629 -66.9620 -33.9740 -33.9694 -33.9548 -33.9469 -33.9407 -33.9275
   -10.8517 -10.6382   1.6302   2.3115   2.6750   3.3398   3.5682   3.8338

     occupation numbers 
     1.0000   1.0000   1.0000   1.0000   1.0000   1.0000   1.0000   1.0000
     1.0000   1.0000   1.0000   1.0000   1.0000   1.0000   1.0000   1.0000

          k =-0.4999 0.1443 0.0750 (  3922 PWs)   bands (ev):

   -66.9629 -66.9620 -33.9743 -33.9700 -33.9545 -33.9472 -33.9397 -33.9276
   -10.8431 -10.6457   1.6006   2.1877   2.7823   3.3619   3.6109   3.8341

     occupation numbers 
     1.0000   1.0000   1.0000   1.0000   1.0000   1.0000   1.0000   1.0000
     1.0000   1.0000   1.0000   1.0000   1.0000   1.0000   1.0000   1.0000

          k =-0.4999 0.1443 0.1500 (  3910 PWs)   bands (ev):

   -66.9628 -66.9621 -33.9749 -33.9714 -33.9538 -33.9481 -33.9370 -33.9280
   -10.8186 -10.6675   1.5499   1.9645   2.9638   3.4518   3.6167   3.8761

     occupation numbers 
     1.0000   1.0000   1.0000   1.0000   1.0000   1.0000   1.0000   1.0000
     1.0000   1.0000   1.0000   1.0000   1.0000   1.0000   1.0000   1.0000

          k =-0.4999 0.1443 0.2249 (  3907 PWs)   bands (ev):

   -66.9626 -66.9623 -33.9751 -33.9732 -33.9526 -33.9495 -33.9339 -33.9290
   -10.7826 -10.7007   1.5401   1.7544   3.1396   3.4450   3.6859   3.9020

     occupation numbers 
     1.0000   1.0000   1.0000   1.0000   1.0000   1.0000   1.0000   1.0000
     1.0000   1.0000   1.0000   1.0000   1.0000   1.0000   1.0000   1.0000

          k =-0.4999 0.1443-0.2999 (  3908 PWs)   bands (ev):

   -66.9624 -66.9624 -33.9745 -33.9745 -33.9511 -33.9511 -33.9310 -33.9310
   -10.7411 -10.7411   1.6064   1.6064   3.3044   3.3044   3.8317   3.8317

     occupation numbers 
     1.0000   1.0000   1.0000   1.0000   1.0000   1.0000   1.0000   1.0000
     1.0000   1.0000   1.0000   1.0000   1.0000   1.0000   1.0000   1.0000

          k =-0.4999 0.1443-0.2249 (  3907 PWs)   bands (ev):

   -66.9626 -66.9623 -33.9751 -33.9732 -33.9526 -33.9495 -33.9339 -33.9290
   -10.7826 -10.7007   1.5401   1.7544   3.1396   3.4450   3.6859   3.9020

     occupation numbers 
     1.0000   1.0000   1.0000   1.0000   1.0000   1.0000   1.0000   1.0000
     1.0000   1.0000   1.0000   1.0000   1.0000   1.0000   1.0000   1.0000

          k =-0.4999 0.1443-0.1500 (  3910 PWs)   bands (ev):

   -66.9628 -66.9621 -33.9749 -33.9714 -33.9538 -33.9481 -33.9370 -33.9280
   -10.8186 -10.6675   1.5499   1.9645   2.9638   3.4518   3.6167   3.8761

     occupation numbers 
     1.0000   1.0000   1.0000   1.0000   1.0000   1.0000   1.0000   1.0000
     1.0000   1.0000   1.0000   1.0000   1.0000   1.0000   1.0000   1.0000

          k =-0.4999 0.1443-0.0750 (  3922 PWs)   bands (ev):

   -66.9629 -66.9620 -33.9743 -33.9700 -33.9545 -33.9472 -33.9397 -33.9276
   -10.8431 -10.6457   1.6006   2.1877   2.7823   3.3619   3.6109   3.8342

     occupation numbers 
     1.0000   1.0000   1.0000   1.0000   1.0000   1.0000   1.0000   1.0000
     1.0000   1.0000   1.0000   1.0000   1.0000   1.0000   1.0000   1.0000

          k =-0.4999-0.8659-0.0000 (  3926 PWs)   bands (ev):

   -66.9629 -66.9620 -33.9767 -33.9715 -33.9524 -33.9443 -33.9409 -33.9275
   -10.8454 -10.6423   1.4562   2.1749   2.7165   3.5170   3.5717   4.0762

     occupation numbers 
     1.0000   1.0000   1.0000   1.0000   1.0000   1.0000   1.0000   1.0000
     1.0000   1.0000   1.0000   1.0000   1.0000   1.0000   1.0000   1.0000

          k =-0.4999-0.8659 0.0750 (  3922 PWs)   bands (ev):

   -66.9629 -66.9620 -33.9770 -33.9721 -33.9521 -33.9446 -33.9399 -33.9276
   -10.8371 -10.6494   1.4241   2.0709   2.8137   3.5821   3.5894   4.0553

     occupation numbers 
     1.0000   1.0000   1.0000   1.0000   1.0000   1.0000   1.0000   1.0000
     1.0000   1.0000   1.0000   1.0000   1.0000   1.0000   1.0000   1.0000

          k =-0.4999-0.8659 0.1500 (  3910 PWs)   bands (ev):

   -66.9628 -66.9621 -33.9775 -33.9736 -33.9512 -33.9455 -33.9374 -33.9281
   -10.8137 -10.6699   1.3729   1.8450   3.0505   3.6402   3.6835   3.9964

     occupation numbers 
     1.0000   1.0000   1.0000   1.0000   1.0000   1.0000   1.0000   1.0000
     1.0000   1.0000   1.0000   1.0000   1.0000   1.0000   1.0000   1.0000

          k =-0.4999-0.8659 0.2249 (  3910 PWs)   bands (ev):

   -66.9626 -66.9623 -33.9776 -33.9755 -33.9499 -33.9468 -33.9342 -33.9293
   -10.7793 -10.7014   1.3702   1.6168   3.3296   3.6931   3.7181   3.9107

     occupation numbers 
     1.0000   1.0000   1.0000   1.0000   1.0000   1.0000   1.0000   1.0000
     1.0000   1.0000   1.0000   1.0000   1.0000   1.0000   1.0000   1.0000

          k =-0.4999-0.8659-0.2999 (  3912 PWs)   bands (ev):

   -66.9624 -66.9624 -33.9769 -33.9769 -33.9483 -33.9483 -33.9314 -33.9314
   -10.7397 -10.7397   1.4504   1.4504   3.5659   3.5659   3.8127   3.8127

     occupation numbers 
     1.0000   1.0000   1.0000   1.0000   1.0000   1.0000   1.0000   1.0000
     1.0000   1.0000   1.0000   1.0000   1.0000   1.0000   1.0000   1.0000

     highest occupied level (ev):     4.3158

!    total energy              =    -315.17064372 Ry
     Harris-Foulkes estimate   =    -315.17064400 Ry
     estimated scf accuracy    <       0.00000058 Ry

     The total energy is the sum of the following terms:

     one-electron contribution =    -213.97864451 Ry
     hartree contribution      =     113.06625903 Ry
     xc contribution           =     -48.04026107 Ry
     ewald contribution        =    -166.21799716 Ry

     convergence has been achieved in   7 iterations

     Forces acting on atoms (cartesian axes, Ry/au):

     atom    1 type  2   force =    -0.00000040    0.00000041   -0.02994976
     atom    2 type  2   force =     0.00000002    0.00000056   -0.02994934
     atom    3 type  1   force =    -0.00000003   -0.00000038    0.02994898
     atom    4 type  1   force =     0.00000041   -0.00000060    0.02995012
     The non-local contrib.  to forces
     atom    1 type  2   force =     0.00000002   -0.00000078   -0.05960059
     atom    2 type  2   force =    -0.00000038    0.00000162   -0.05959905
     atom    3 type  1   force =    -0.00000049   -0.00000238    0.02521770
     atom    4 type  1   force =     0.00000147   -0.00000017    0.02521716
     The ionic contribution  to forces
     atom    1 type  2   force =    -0.00001115    0.00001677   -0.09994509
     atom    2 type  2   force =     0.00000476   -0.00000003   -0.09994262
     atom    3 type  1   force =    -0.00000468   -0.00001514    0.09994211
     atom    4 type  1   force =     0.00001107   -0.00000160    0.09994559
     The local contribution  to forces
     atom    1 type  2   force =     0.00001072   -0.00001560    0.12900783
     atom    2 type  2   force =    -0.00000434   -0.00000102    0.12900459
     atom    3 type  1   force =     0.00000515    0.00001716   -0.09522272
     atom    4 type  1   force =    -0.00001214    0.00000118   -0.09522699
     The core correction contribution to forces
     atom    1 type  2   force =     0.00000001   -0.00000000    0.00063865
     atom    2 type  2   force =     0.00000000   -0.00000001    0.00063864
     atom    3 type  1   force =     0.00000000    0.00000000    0.00000000
     atom    4 type  1   force =     0.00000000    0.00000000    0.00000000
     The Hubbard contrib.    to forces
     atom    1 type  2   force =     0.00000000    0.00000000    0.00000000
     atom    2 type  2   force =     0.00000000    0.00000000    0.00000000
     atom    3 type  1   force =     0.00000000    0.00000000    0.00000000
     atom    4 type  1   force =     0.00000000    0.00000000    0.00000000
     The SCF correction term to forces
     atom    1 type  2   force =     0.00000000    0.00000000    0.00000000
     atom    2 type  2   force =     0.00000000    0.00000000    0.00000000
     atom    3 type  1   force =     0.00000000    0.00000000    0.00000000
     atom    4 type  1   force =     0.00000000    0.00000000    0.00000000

     Total force =     0.000000     Total SCF correction =     0.000000


     Computing stress (Cartesian axis) and pressure

          total   stress  (Ry/bohr**3)                   (kbar)     P=   -3.25
  -0.00002089   0.00000000  -0.00000000         -3.07      0.00     -0.00
   0.00000000  -0.00002089   0.00000000          0.00     -3.07      0.00
  -0.00000000   0.00000000  -0.00002458         -0.00      0.00     -3.62

     kinetic stress (kbar)  18771.74      0.00     -0.00
                                0.00  18771.73      0.00
                               -0.00      0.00  18717.36

     local   stress (kbar)  -6795.62     -0.02      0.02
                               -0.02  -6795.63     -0.04
                                0.02     -0.04 -13241.10

     nonloc. stress (kbar)   5129.23      0.00     -0.00
                                0.00   5129.23      0.00
                               -0.00      0.00   5163.37

     hartree stress (kbar)  16265.13      0.01     -0.01
                                0.01  16265.13      0.02
                               -0.01      0.02  18806.02

     exc-cor stress (kbar)  -6664.69      0.00     -0.00
                                0.00  -6664.69      0.00
                               -0.00      0.00  -6660.85

     corecor stress (kbar)   -245.67     -0.00      0.00
                               -0.00   -245.67     -0.00
                                0.00     -0.00   -245.63

     ewald   stress (kbar) -26463.19      0.01     -0.01
                                0.01 -26463.18      0.03
                               -0.01      0.03 -22542.78

     hubbard stress (kbar)      0.00      0.00      0.00
                                0.00      0.00      0.00
                                0.00      0.00      0.00

     london  stress (kbar)      0.00      0.00      0.00
                                0.00      0.00      0.00
                                0.00      0.00      0.00

     DFT-D3  stress (kbar)      0.00      0.00      0.00
                                0.00      0.00      0.00
                                0.00      0.00      0.00

     XDM     stress (kbar)      0.00      0.00      0.00
                                0.00      0.00      0.00
                                0.00      0.00      0.00

     dft-nl  stress (kbar)      0.00      0.00      0.00
                                0.00      0.00      0.00
                                0.00      0.00      0.00

     TS-vdW  stress (kbar)      0.00      0.00      0.00
                                0.00      0.00      0.00
                                0.00      0.00      0.00



     Writing output data file ZnO.save/
 
     init_run     :      0.92s CPU      2.59s WALL (       2 calls)
     electrons    :     17.52s CPU     19.54s WALL (       5 calls)
     update_pot   :      0.41s CPU      0.42s WALL (       3 calls)
     forces       :      0.71s CPU      0.81s WALL (       5 calls)
     stress       :      1.34s CPU      1.39s WALL (       5 calls)

     Called by init_run:
     wfcinit      :      0.55s CPU      1.71s WALL (       2 calls)
     wfcinit:atom :      0.00s CPU      0.00s WALL (     130 calls)
     wfcinit:wfcr :      0.52s CPU      1.67s WALL (     130 calls)
     potinit      :      0.12s CPU      0.18s WALL (       2 calls)
     hinit0       :      0.22s CPU      0.45s WALL (       2 calls)

     Called by electrons:
     c_bands      :     14.69s CPU     16.25s WALL (      24 calls)
     sum_band     :      2.07s CPU      2.22s WALL (      24 calls)
     v_of_rho     :      0.72s CPU      0.75s WALL (      26 calls)
     v_h          :      0.01s CPU      0.01s WALL (      26 calls)
     v_xc         :      0.99s CPU      1.02s WALL (      36 calls)
     newd         :      0.12s CPU      0.15s WALL (      26 calls)
     mix_rho      :      0.02s CPU      0.07s WALL (      24 calls)

     Called by c_bands:
     init_us_2    :      0.31s CPU      0.33s WALL (    3900 calls)
     cegterg      :     13.26s CPU     14.23s WALL (    1560 calls)

     Called by sum_band:
     sum_band:bec :      0.01s CPU      0.02s WALL (    1560 calls)
     addusdens    :      0.11s CPU      0.13s WALL (      24 calls)

     Called by *egterg:
     h_psi        :      7.94s CPU      8.33s WALL (    5163 calls)
     s_psi        :      0.30s CPU      0.31s WALL (    5163 calls)
     g_psi        :      0.02s CPU      0.02s WALL (    3473 calls)
     cdiaghg      :      3.31s CPU      4.70s WALL (    4643 calls)
     cegterg:over :      1.00s CPU      1.20s WALL (    3473 calls)
     cegterg:upda :      0.47s CPU      0.49s WALL (    3473 calls)
     cegterg:last :      0.27s CPU      0.28s WALL (    1625 calls)
     cdiaghg:chol :      0.22s CPU      0.74s WALL (    4643 calls)
     cdiaghg:inve :      0.07s CPU      0.10s WALL (    4643 calls)
     cdiaghg:para :      0.31s CPU      0.35s WALL (    9286 calls)

     Called by h_psi:
     h_psi:pot    :      7.92s CPU      8.30s WALL (    5163 calls)
     h_psi:calbec :      0.50s CPU      0.55s WALL (    5163 calls)
     vloc_psi     :      7.09s CPU      7.41s WALL (    5163 calls)
     add_vuspsi   :      0.31s CPU      0.33s WALL (    5163 calls)

     General routines
     calbec       :      0.89s CPU      0.95s WALL (    8348 calls)
     fft          :      0.15s CPU      0.21s WALL (     459 calls)
     ffts         :      0.01s CPU      0.01s WALL (      50 calls)
     fftw         :      8.14s CPU      8.50s WALL (  157108 calls)
     interpolate  :      0.01s CPU      0.04s WALL (      26 calls)
 
     Parallel routines
     fft_scatt_xy :      1.19s CPU      1.24s WALL (  157617 calls)
     fft_scatt_yz :      4.14s CPU      4.34s WALL (  157617 calls)
 
     PWSCF        :     21.25s CPU     27.07s WALL

 
   This run was terminated on:  16: 1:25  16Jun2022            

=------------------------------------------------------------------------------=
   JOB DONE.
=------------------------------------------------------------------------------=
