
     Program PWSCF v.6.4.1 starts on 15Jul2022 at  2:10:38 

     This program is part of the open-source Quantum ESPRESSO suite
     for quantum simulation of materials; please cite
         "P. Giannozzi et al., J. Phys.:Condens. Matter 21 395502 (2009);
         "P. Giannozzi et al., J. Phys.:Condens. Matter 29 465901 (2017);
          URL http://www.quantum-espresso.org", 
     in publications or presentations arising from this work. More details at
     http://www.quantum-espresso.org/quote

     Parallel version (MPI), running on   128 processors

     MPI processes distributed on     2 nodes
     R & G space division:  proc/nbgrp/npool/nimage =     128
     Waiting for input...
     Reading input from standard input
Warning: card &IONS ignored
Warning: card   UPSCALE           = 100.D0, ignored
Warning: card / ignored
Warning: card &CELL ignored
Warning: card   CELL_DYNAMICS     = 'BFGS' ignored
Warning: card   PRESS_CONV_THR    = 0.5D0 ignored
Warning: card   CELL_DOFREE = 'ALL' ignored
Warning: card / ignored

     Current dimensions of program PWSCF are:
     Max number of different atomic species (ntypx) = 10
     Max number of k-points (npk) =  40000
     Max angular momentum in pseudopotentials (lmaxx) =  3

     Atomic positions and unit cell read from directory:
     ./temp/ZnO.save/
 

     Subspace diagonalization in iterative solution of the eigenvalue problem:
     one sub-group per band group will be used
     scalapack distributed-memory algorithm (size of sub-group:  8*  8 procs)

 
     Parallelization info
     --------------------
     sticks:   dense  smooth     PW     G-vecs:    dense   smooth      PW
     Min          91      43     12                 8533     2834     420
     Max          92      44     13                 8540     2843     427
     Sum       11705    5617   1573              1092587   363543   54069
 


     bravais-lattice index     =            0
     lattice parameter (alat)  =      18.4226  a.u.
     unit-cell volume          =    5786.4173 (a.u.)^3
     number of atoms/cell      =           72
     number of atomic types    =            3
     number of electrons       =       816.00
     number of Kohn-Sham states=          408
     kinetic-energy cutoff     =      60.0000  Ry
     charge density cutoff     =     500.0000  Ry
     Exchange-correlation      = SLA  PW   PSX  PSC ( 1  4 10  8 0 0)
     Using LIBXC version       =    4   3   4

     celldm(1)=  18.422634  celldm(2)=   0.000000  celldm(3)=   0.000000
     celldm(4)=   0.000000  celldm(5)=   0.000000  celldm(6)=   0.000000

     crystal axes: (cart. coord. in units of alat)
               a(1) = (   1.000000  -0.000928  -0.000030 )  
               a(2) = (  -0.500802   0.866030   0.000259 )  
               a(3) = (  -0.000032   0.000301   1.069190 )  

     reciprocal axes: (cart. coord. in units 2 pi/alat)
               b(1) = (  1.000537  0.578584 -0.000133 )  
               b(2) = (  0.001072  1.155315 -0.000326 )  
               b(3) = (  0.000027 -0.000263  0.935287 )  


     PseudoPot. # 1 for Zn read from file:
     ./GBRV_PBEsol/zn_pbesol_v1.uspp.F.UPF
     MD5 check sum: 7d8615e52efe7c1e2b1899de8658bae2
     Pseudo is Ultrasoft, Zval = 20.0
     Generated by new atomic code, or converted to UPF format
     Using radial grid of  943 points,  6 beta functions with: 
                l(1) =   0
                l(2) =   0
                l(3) =   1
                l(4) =   1
                l(5) =   2
                l(6) =   2
     Q(r) pseudized with  8 coefficients,  rinner =    1.100   1.100   1.100
                                                       1.100   1.100

     PseudoPot. # 2 for O  read from file:
     ./GBRV_PBEsol/o_pbesol_v1.2.uspp.F.UPF
     MD5 check sum: 501638753501ef6325af9037351f7734
     Pseudo is Ultrasoft + core correction, Zval =  6.0
     Generated by new atomic code, or converted to UPF format
     Using radial grid of  737 points,  5 beta functions with: 
                l(1) =   0
                l(2) =   0
                l(3) =   1
                l(4) =   1
                l(5) =   2
     Q(r) pseudized with  8 coefficients,  rinner =    0.900   0.900   0.900
                                                       0.900   0.900

     PseudoPot. # 3 for Mg read from file:
     ./GBRV_PBEsol/mg_pbesol_v1.4.uspp.F.UPF
     MD5 check sum: 4059f37963cf5867752dbf5ab2400678
     Pseudo is Ultrasoft, Zval = 10.0
     Generated by new atomic code, or converted to UPF format
     Using radial grid of  821 points,  7 beta functions with: 
                l(1) =   0
                l(2) =   0
                l(3) =   0
                l(4) =   1
                l(5) =   1
                l(6) =   2
                l(7) =   2
     Q(r) pseudized with  8 coefficients,  rinner =    1.200   1.200   1.200
                                                       1.200   1.200

     atomic species   valence    mass     pseudopotential
        Zn            20.00    65.38000     Zn( 1.00)
        O              6.00    15.99900     O ( 1.00)
        Mg            10.00    24.30500     Mg( 1.00)

     No symmetry found


                                    s                        frac. trans.

      isym =  1     identity                                     

 cryst.   s( 1) = (     1          0          0      )
                  (     0          1          0      )
                  (     0          0          1      )

 cart.    s( 1) = (  1.0000000  0.0000000 -0.0000000 )
                  (  0.0000000  1.0000000  0.0000000 )
                  (  0.0000000 -0.0000000  1.0000000 )


   Cartesian axes

     site n.     atom                  positions (alat units)
         1           Zn  tau(   1) = (   0.1666403   0.0964281   0.2076505  )
         2           Zn  tau(   2) = (   0.1669176   0.0959492   0.7417397  )
         3           Zn  tau(   3) = (   0.0008681   0.3842669   0.2068455  )
         4           Zn  tau(   4) = (  -0.0011449   0.3860578   0.7418256  )
         5           Zn  tau(   5) = (  -0.1667563   0.6765496   0.2064735  )
         6           Zn  tau(   6) = (  -0.1680258   0.6719488   0.7410929  )
         7           Zn  tau(   7) = (   0.4991140   0.0950037   0.2081655  )
         8           Zn  tau(   8) = (   0.5001259   0.0964592   0.7431604  )
         9           Zn  tau(   9) = (   0.3329116   0.3842076   0.2059322  )
        10           Mg  tau(  10) = (   0.3333239   0.3827721   0.7430019  )
        11           Mg  tau(  11) = (   0.1644980   0.6753805   0.2072170  )
        12           Zn  tau(  12) = (   0.1668868   0.6718719   0.7398326  )
        13           Zn  tau(  13) = (   0.8334529   0.0950778   0.2066949  )
        14           Mg  tau(  14) = (   0.8320031   0.0946700   0.7438315  )
        15           Zn  tau(  15) = (   0.6649075   0.3833340   0.2065722  )
        16           Mg  tau(  16) = (   0.6664020   0.3843995   0.7428959  )
        17           Mg  tau(  17) = (   0.4992385   0.6729939   0.2060759  )
        18           Mg  tau(  18) = (   0.4980461   0.6715202   0.7416593  )
        19           Zn  tau(  19) = (  -0.0014228   0.1926576   0.4758156  )
        20           Zn  tau(  20) = (   0.0010716   0.1943509   1.0094020  )
        21           Zn  tau(  21) = (  -0.1676524   0.4814991   0.4732784  )
        22           Mg  tau(  22) = (  -0.1659499   0.4812528   1.0118682  )
        23           Mg  tau(  23) = (  -0.3342549   0.7699370   0.4743448  )
        24           Mg  tau(  24) = (  -0.3327271   0.7719598   1.0081860  )
        25           Zn  tau(  25) = (   0.3338211   0.1937308   0.4756840  )
        26           Zn  tau(  26) = (   0.3337693   0.1920323   1.0103694  )
        27           Mg  tau(  27) = (   0.1672164   0.4789595   0.4736754  )
        28           Mg  tau(  28) = (   0.1663709   0.4813135   1.0086614  )
        29           Mg  tau(  29) = (  -0.0007920   0.7706583   0.4775790  )
        30           Zn  tau(  30) = (   0.0001703   0.7689680   1.0081483  )
        31           Zn  tau(  31) = (   0.6670201   0.1928314   0.4744058  )
        32           Zn  tau(  32) = (   0.6653712   0.1917133   1.0090666  )
        33           Zn  tau(  33) = (   0.4991368   0.4794114   0.4738748  )
        34           Zn  tau(  34) = (   0.4998922   0.4810605   1.0073560  )
        35           Zn  tau(  35) = (   0.3326959   0.7693579   0.4733489  )
        36           Zn  tau(  36) = (   0.3317270   0.7678761   1.0081676  )
        37           O   tau(  37) = (   0.1665973   0.0966219   0.0041329  )
        38           O   tau(  38) = (   0.1664681   0.0963411   0.5377132  )
        39           O   tau(  39) = (   0.0006045   0.3856576   0.0035011  )
        40           O   tau(  40) = (  -0.0007805   0.3855247   0.5377278  )
        41           O   tau(  41) = (  -0.1674431   0.6739660   0.0027307  )
        42           O   tau(  42) = (  -0.1678394   0.6740407   0.5375407  )
        43           O   tau(  43) = (   0.4998856   0.0945977   0.0044156  )
        44           O   tau(  44) = (   0.5000727   0.0968900   0.5390482  )
        45           O   tau(  45) = (   0.3330823   0.3849655   0.0018315  )
        46           O   tau(  46) = (   0.3327100   0.3848263   0.5401925  )
        47           O   tau(  47) = (   0.1656936   0.6723701   0.0045342  )
        48           O   tau(  48) = (   0.1656520   0.6719221   0.5355199  )
        49           O   tau(  49) = (   0.8335514   0.0952425   0.0021542  )
        50           O   tau(  50) = (   0.8325864   0.0951045   0.5402327  )
        51           O   tau(  51) = (   0.6663589   0.3842389   0.0025511  )
        52           O   tau(  52) = (   0.6665160   0.3847485   0.5393862  )
        53           O   tau(  53) = (   0.5007485   0.6736026   0.0025930  )
        54           O   tau(  54) = (   0.4995003   0.6729358   0.5378818  )
        55           O   tau(  55) = (  -0.0004012   0.1924369   0.2716901  )
        56           O   tau(  56) = (  -0.0005388   0.1923791   0.8051518  )
        57           O   tau(  57) = (  -0.1672216   0.4817036   0.2686695  )
        58           O   tau(  58) = (  -0.1676097   0.4806736   0.8083874  )
        59           O   tau(  59) = (  -0.3348829   0.7697152   0.2709325  )
        60           O   tau(  60) = (  -0.3352053   0.7689140   0.8048267  )
        61           O   tau(  61) = (   0.3331989   0.1926424   0.2714723  )
        62           O   tau(  62) = (   0.3331383   0.1911762   0.8066488  )
        63           O   tau(  63) = (   0.1668607   0.4823086   0.2702606  )
        64           O   tau(  64) = (   0.1671169   0.4799165   0.8053572  )
        65           O   tau(  65) = (  -0.0007199   0.7698625   0.2742967  )
        66           O   tau(  66) = (  -0.0002821   0.7685969   0.8037191  )
        67           O   tau(  67) = (   0.6667094   0.1913857   0.2707653  )
        68           O   tau(  68) = (   0.6668233   0.1924216   0.8055705  )
        69           O   tau(  69) = (   0.4992993   0.4808294   0.2702128  )
        70           O   tau(  70) = (   0.4994999   0.4798214   0.8037145  )
        71           O   tau(  71) = (   0.3327206   0.7686536   0.2694612  )
        72           O   tau(  72) = (   0.3326744   0.7684497   0.8046796  )

   Crystallographic axes

     site n.     atom                  positions (cryst. coord.)
         1           Zn  tau(   1) = (  0.2224940  0.1115159  0.1941921  )
         2           Zn  tau(   2) = (  0.2224234  0.1107889  0.6937190  )
         3           Zn  tau(   3) = (  0.2231718  0.4438827  0.1933587  )
         4           Zn  tau(   4) = (  0.2221227  0.4457753  0.6937183  )
         5           Zn  tau(   5) = (  0.2245673  0.7813815  0.1929293  )
         6           Zn  tau(   6) = (  0.2205641  0.7758907  0.6929531  )
         7           Zn  tau(   7) = (  0.5543222  0.1102265  0.1946832  )
         8           Zn  tau(   8) = (  0.5561056  0.1117349  0.6950568  )
         9           Zn  tau(   9) = (  0.5553595  0.4441706  0.1925137  )
        10           Mg  tau(  10) = (  0.5548701  0.4423376  0.6948285  )
        11           Mg  tau(  11) = (  0.5553231  0.7803858  0.1936340  )
        12           Zn  tau(  12) = (  0.5556124  0.7761613  0.6917836  )
        13           Zn  tau(  13) = (  0.8888838  0.1106711  0.1933170  )
        14           Mg  tau(  14) = (  0.8871259  0.1100234  0.6956940  )
        15           Zn  tau(  15) = (  0.8870283  0.4435170  0.1931217  )
        16           Mg  tau(  16) = (  0.8890688  0.4445749  0.6947381  )
        17           Mg  tau(  17) = (  0.8888628  0.7779879  0.1925766  )
        18           Mg  tau(  18) = (  0.8867459  0.7761095  0.6935013  )
        19           Zn  tau(  19) = (  0.1099818  0.2224237  0.4449734  )
        20           Zn  tau(  20) = (  0.1133862  0.2242087  0.9440297  )
        21           Zn  tau(  21) = (  0.1107822  0.5559490  0.4425198  )
        22           Mg  tau(  22) = (  0.1122716  0.5554909  0.9462561  )
        23           Mg  tau(  23) = (  0.1109755  0.8890065  0.4434366  )
        24           Mg  tau(  24) = (  0.1136036  0.8911712  0.9427311  )
        25           Zn  tau(  25) = (  0.4460268  0.2240230  0.4448593  )
        26           Zn  tau(  26) = (  0.4449212  0.2218865  0.9449442  )
        27           Mg  tau(  27) = (  0.4443615  0.5533738  0.4429010  )
        28           Mg  tau(  28) = (  0.4448065  0.5559184  0.9432659  )
        29           Mg  tau(  29) = (  0.4450345  0.8901963  0.4464706  )
        30           Zn  tau(  30) = (  0.4449489  0.8880718  0.9427056  )
        31           Zn  tau(  31) = (  0.7788847  0.2233416  0.4436733  )
        32           Zn  tau(  32) = (  0.7765169  0.2218739  0.9437349  )
        33           Zn  tau(  33) = (  0.7767218  0.5542518  0.4430964  )
        34           Zn  tau(  34) = (  0.7783608  0.5559840  0.9420542  )
        35           Zn  tau(  35) = (  0.7779498  0.8890529  0.4425236  )
        36           Zn  tau(  36) = (  0.7760520  0.8871657  0.9427331  )
        37           O   tau(  37) = (  0.2225901  0.1118060  0.0038446  )
        38           O   tau(  38) = (  0.2222275  0.1113076  0.5028955  )
        39           O   tau(  39) = (  0.2237396  0.4455553  0.0031729  )
        40           O   tau(  40) = (  0.2222060  0.4452264  0.5028284  )
        41           O   tau(  41) = (  0.2224125  0.7784624  0.0023719  )
        42           O   tau(  42) = (  0.2219881  0.7783740  0.5025728  )
        43           O   tau(  43) = (  0.5548864  0.1098246  0.0041187  )
        44           O   tau(  44) = (  0.5563287  0.1122990  0.5041531  )
        45           O   tau(  45) = (  0.5559958  0.4451127  0.0016207  )
        46           O   tau(  46) = (  0.5554713  0.4447762  0.5051429  )
        47           O   tau(  47) = (  0.5548046  0.7769751  0.0040682  )
        48           O   tau(  48) = (  0.5544331  0.7762846  0.5006925  )
        49           O   tau(  49) = (  0.8891048  0.1109281  0.0020126  )
        50           O   tau(  50) = (  0.8879880  0.1105923  0.5052706  )
        51           O   tau(  51) = (  0.8890311  0.4446305  0.0023031  )
        52           O   tau(  52) = (  0.8894118  0.4450445  0.5043980  )
        53           O   tau(  53) = (  0.8907529  0.7787590  0.0022615  )
        54           O   tau(  54) = (  0.8890471  0.7778129  0.5029105  )
        55           O   tau(  55) = (  0.1109034  0.2222362  0.2540576  )
        56           O   tau(  56) = (  0.1106613  0.2219956  0.7529975  )
        57           O   tau(  57) = (  0.1113588  0.5562524  0.2511516  )
        58           O   tau(  58) = (  0.1103028  0.5548862  0.7559432  )
        59           O   tau(  59) = (  0.1102460  0.8888158  0.2531878  )
        60           O   tau(  60) = (  0.1093888  0.8877160  0.7525324  )
        61           O   tau(  61) = (  0.4448016  0.2228314  0.2538630  )
        62           O   tau(  62) = (  0.4438216  0.2209631  0.7544071  )
        63           O   tau(  63) = (  0.4459705  0.5573091  0.2526488  )
        64           O   tau(  64) = (  0.4447716  0.5543714  0.7531185  )
        65           O   tau(  65) = (  0.4446734  0.8893433  0.2563434  )
        66           O   tau(  66) = (  0.4443088  0.8877091  0.7515058  )
        67           O   tau(  67) = (  0.7777644  0.2217374  0.2532113  )
        68           O   tau(  68) = (  0.7784067  0.2227601  0.7534075  )
        69           O   tau(  69) = (  0.7777318  0.5559565  0.2526137  )
        70           O   tau(  70) = (  0.7772784  0.5546184  0.7515912  )
        71           O   tau(  71) = (  0.7775942  0.8883056  0.2518302  )
        72           O   tau(  72) = (  0.7773589  0.8878958  0.7524133  )

     number of k points=    80
                       cart. coord. in units 2pi/alat
        k(    1) = (   0.0000000   0.0000000   0.0000000), wk =   0.0156250
        k(    2) = (   0.0000039  -0.0000376   0.1336125), wk =   0.0156250
        k(    3) = (   0.0000078  -0.0000753   0.2672249), wk =   0.0156250
        k(    4) = (   0.0000118  -0.0001129   0.4008374), wk =   0.0156250
        k(    5) = (   0.0000157  -0.0001505   0.5344499), wk =   0.0156250
        k(    6) = (   0.0000196  -0.0001882   0.6680623), wk =   0.0156250
        k(    7) = (   0.0000235  -0.0002258   0.8016748), wk =   0.0156250
        k(    8) = (   0.0000275  -0.0002634   0.9352872), wk =   0.0156250
        k(    9) = (   0.0002681   0.2888286  -0.0000814), wk =   0.0312500
        k(   10) = (   0.0002720   0.2887910   0.1335310), wk =   0.0312500
        k(   11) = (   0.0002759   0.2887534   0.2671435), wk =   0.0312500
        k(   12) = (   0.0002798   0.2887157   0.4007560), wk =   0.0312500
        k(   13) = (   0.0002838   0.2886781   0.5343684), wk =   0.0312500
        k(   14) = (   0.0002877   0.2886405   0.6679809), wk =   0.0312500
        k(   15) = (   0.0002916   0.2886028   0.8015933), wk =   0.0312500
        k(   16) = (   0.0002955   0.2885652   0.9352058), wk =   0.0312500
        k(   17) = (  -0.0005361  -0.5776573   0.0001629), wk =   0.0156250
        k(   18) = (  -0.0005322  -0.5776949   0.1337753), wk =   0.0156250
        k(   19) = (  -0.0005283  -0.5777326   0.2673878), wk =   0.0156250
        k(   20) = (  -0.0005244  -0.5777702   0.4010003), wk =   0.0156250
        k(   21) = (  -0.0005204  -0.5778078   0.5346127), wk =   0.0156250
        k(   22) = (  -0.0005165  -0.5778455   0.6682252), wk =   0.0156250
        k(   23) = (  -0.0005126  -0.5778831   0.8018377), wk =   0.0156250
        k(   24) = (  -0.0005087  -0.5779207   0.9354501), wk =   0.0156250
        k(   25) = (   0.2501344   0.1446460  -0.0000332), wk =   0.0312500
        k(   26) = (   0.2501383   0.1446083   0.1335792), wk =   0.0312500
        k(   27) = (   0.2501422   0.1445707   0.2671917), wk =   0.0312500
        k(   28) = (   0.2501461   0.1445331   0.4008042), wk =   0.0312500
        k(   29) = (   0.2501500   0.1444954   0.5344166), wk =   0.0312500
        k(   30) = (   0.2501540   0.1444578   0.6680291), wk =   0.0312500
        k(   31) = (   0.2501579   0.1444202   0.8016415), wk =   0.0312500
        k(   32) = (   0.2501618   0.1443825   0.9352540), wk =   0.0312500
        k(   33) = (   0.2504024   0.4334746  -0.0001147), wk =   0.0312500
        k(   34) = (   0.2504063   0.4334370   0.1334978), wk =   0.0312500
        k(   35) = (   0.2504103   0.4333994   0.2671103), wk =   0.0312500
        k(   36) = (   0.2504142   0.4333617   0.4007227), wk =   0.0312500
        k(   37) = (   0.2504181   0.4333241   0.5343352), wk =   0.0312500
        k(   38) = (   0.2504220   0.4332865   0.6679476), wk =   0.0312500
        k(   39) = (   0.2504260   0.4332488   0.8015601), wk =   0.0312500
        k(   40) = (   0.2504299   0.4332112   0.9351726), wk =   0.0312500
        k(   41) = (   0.2495982  -0.4330113   0.0001296), wk =   0.0312500
        k(   42) = (   0.2496022  -0.4330489   0.1337421), wk =   0.0312500
        k(   43) = (   0.2496061  -0.4330866   0.2673546), wk =   0.0312500
        k(   44) = (   0.2496100  -0.4331242   0.4009670), wk =   0.0312500
        k(   45) = (   0.2496139  -0.4331618   0.5345795), wk =   0.0312500
        k(   46) = (   0.2496178  -0.4331995   0.6681920), wk =   0.0312500
        k(   47) = (   0.2496218  -0.4332371   0.8018044), wk =   0.0312500
        k(   48) = (   0.2496257  -0.4332747   0.9354169), wk =   0.0312500
        k(   49) = (   0.2498663  -0.1441827   0.0000482), wk =   0.0312500
        k(   50) = (   0.2498702  -0.1442203   0.1336607), wk =   0.0312500
        k(   51) = (   0.2498741  -0.1442579   0.2672731), wk =   0.0312500
        k(   52) = (   0.2498781  -0.1442956   0.4008856), wk =   0.0312500
        k(   53) = (   0.2498820  -0.1443332   0.5344981), wk =   0.0312500
        k(   54) = (   0.2498859  -0.1443708   0.6681105), wk =   0.0312500
        k(   55) = (   0.2498898  -0.1444085   0.8017230), wk =   0.0312500
        k(   56) = (   0.2498938  -0.1444461   0.9353354), wk =   0.0312500
        k(   57) = (  -0.5002687  -0.2892920   0.0000665), wk =   0.0156250
        k(   58) = (  -0.5002648  -0.2893296   0.1336789), wk =   0.0156250
        k(   59) = (  -0.5002609  -0.2893672   0.2672914), wk =   0.0156250
        k(   60) = (  -0.5002569  -0.2894049   0.4009039), wk =   0.0156250
        k(   61) = (  -0.5002530  -0.2894425   0.5345163), wk =   0.0156250
        k(   62) = (  -0.5002491  -0.2894801   0.6681288), wk =   0.0156250
        k(   63) = (  -0.5002452  -0.2895178   0.8017413), wk =   0.0156250
        k(   64) = (  -0.5002412  -0.2895554   0.9353537), wk =   0.0156250
        k(   65) = (  -0.5000006  -0.0004633  -0.0000150), wk =   0.0312500
        k(   66) = (  -0.4999967  -0.0005010   0.1335975), wk =   0.0312500
        k(   67) = (  -0.4999928  -0.0005386   0.2672100), wk =   0.0312500
        k(   68) = (  -0.4999889  -0.0005762   0.4008224), wk =   0.0312500
        k(   69) = (  -0.4999850  -0.0006139   0.5344349), wk =   0.0312500
        k(   70) = (  -0.4999810  -0.0006515   0.6680474), wk =   0.0312500
        k(   71) = (  -0.4999771  -0.0006891   0.8016598), wk =   0.0312500
        k(   72) = (  -0.4999732  -0.0007268   0.9352723), wk =   0.0312500
        k(   73) = (  -0.5008048  -0.8669493   0.0002293), wk =   0.0156250
        k(   74) = (  -0.5008009  -0.8669869   0.1338418), wk =   0.0156250
        k(   75) = (  -0.5007970  -0.8670245   0.2674543), wk =   0.0156250
        k(   76) = (  -0.5007931  -0.8670622   0.4010667), wk =   0.0156250
        k(   77) = (  -0.5007891  -0.8670998   0.5346792), wk =   0.0156250
        k(   78) = (  -0.5007852  -0.8671374   0.6682917), wk =   0.0156250
        k(   79) = (  -0.5007813  -0.8671751   0.8019041), wk =   0.0156250
        k(   80) = (  -0.5007774  -0.8672127   0.9355166), wk =   0.0156250

                       cryst. coord.
        k(    1) = (   0.0000000   0.0000000   0.0000000), wk =   0.0156250
        k(    2) = (  -0.0000000   0.0000000   0.1428571), wk =   0.0156250
        k(    3) = (  -0.0000000   0.0000000   0.2857143), wk =   0.0156250
        k(    4) = (  -0.0000000   0.0000000   0.4285714), wk =   0.0156250
        k(    5) = (  -0.0000000   0.0000000   0.5714286), wk =   0.0156250
        k(    6) = (  -0.0000000  -0.0000000   0.7142857), wk =   0.0156250
        k(    7) = (  -0.0000000   0.0000000   0.8571429), wk =   0.0156250
        k(    8) = (  -0.0000000   0.0000000   1.0000000), wk =   0.0156250
        k(    9) = (   0.0000000   0.2500000  -0.0000000), wk =   0.0312500
        k(   10) = (   0.0000000   0.2500000   0.1428571), wk =   0.0312500
        k(   11) = (   0.0000000   0.2500000   0.2857143), wk =   0.0312500
        k(   12) = (   0.0000000   0.2500000   0.4285714), wk =   0.0312500
        k(   13) = (   0.0000000   0.2500000   0.5714286), wk =   0.0312500
        k(   14) = (   0.0000000   0.2500000   0.7142857), wk =   0.0312500
        k(   15) = (   0.0000000   0.2500000   0.8571429), wk =   0.0312500
        k(   16) = (   0.0000000   0.2500000   1.0000000), wk =   0.0312500
        k(   17) = (  -0.0000000  -0.5000000   0.0000000), wk =   0.0156250
        k(   18) = (  -0.0000000  -0.5000000   0.1428571), wk =   0.0156250
        k(   19) = (  -0.0000000  -0.5000000   0.2857143), wk =   0.0156250
        k(   20) = (  -0.0000000  -0.5000000   0.4285714), wk =   0.0156250
        k(   21) = (  -0.0000000  -0.5000000   0.5714286), wk =   0.0156250
        k(   22) = (  -0.0000000  -0.5000000   0.7142857), wk =   0.0156250
        k(   23) = (  -0.0000000  -0.5000000   0.8571429), wk =   0.0156250
        k(   24) = (  -0.0000000  -0.5000000   1.0000000), wk =   0.0156250
        k(   25) = (   0.2500000   0.0000000  -0.0000000), wk =   0.0312500
        k(   26) = (   0.2500000   0.0000000   0.1428571), wk =   0.0312500
        k(   27) = (   0.2500000   0.0000000   0.2857143), wk =   0.0312500
        k(   28) = (   0.2500000   0.0000000   0.4285714), wk =   0.0312500
        k(   29) = (   0.2500000   0.0000000   0.5714286), wk =   0.0312500
        k(   30) = (   0.2500000   0.0000000   0.7142857), wk =   0.0312500
        k(   31) = (   0.2500000   0.0000000   0.8571429), wk =   0.0312500
        k(   32) = (   0.2500000   0.0000000   1.0000000), wk =   0.0312500
        k(   33) = (   0.2500000   0.2500000   0.0000000), wk =   0.0312500
        k(   34) = (   0.2500000   0.2500000   0.1428571), wk =   0.0312500
        k(   35) = (   0.2500000   0.2500000   0.2857143), wk =   0.0312500
        k(   36) = (   0.2500000   0.2500000   0.4285714), wk =   0.0312500
        k(   37) = (   0.2500000   0.2500000   0.5714286), wk =   0.0312500
        k(   38) = (   0.2500000   0.2500000   0.7142857), wk =   0.0312500
        k(   39) = (   0.2500000   0.2500000   0.8571429), wk =   0.0312500
        k(   40) = (   0.2500000   0.2500000   1.0000000), wk =   0.0312500
        k(   41) = (   0.2500000  -0.5000000   0.0000000), wk =   0.0312500
        k(   42) = (   0.2500000  -0.5000000   0.1428571), wk =   0.0312500
        k(   43) = (   0.2500000  -0.5000000   0.2857143), wk =   0.0312500
        k(   44) = (   0.2500000  -0.5000000   0.4285714), wk =   0.0312500
        k(   45) = (   0.2500000  -0.5000000   0.5714286), wk =   0.0312500
        k(   46) = (   0.2500000  -0.5000000   0.7142857), wk =   0.0312500
        k(   47) = (   0.2500000  -0.5000000   0.8571429), wk =   0.0312500
        k(   48) = (   0.2500000  -0.5000000   1.0000000), wk =   0.0312500
        k(   49) = (   0.2500000  -0.2500000   0.0000000), wk =   0.0312500
        k(   50) = (   0.2500000  -0.2500000   0.1428571), wk =   0.0312500
        k(   51) = (   0.2500000  -0.2500000   0.2857143), wk =   0.0312500
        k(   52) = (   0.2500000  -0.2500000   0.4285714), wk =   0.0312500
        k(   53) = (   0.2500000  -0.2500000   0.5714286), wk =   0.0312500
        k(   54) = (   0.2500000  -0.2500000   0.7142857), wk =   0.0312500
        k(   55) = (   0.2500000  -0.2500000   0.8571429), wk =   0.0312500
        k(   56) = (   0.2500000  -0.2500000   1.0000000), wk =   0.0312500
        k(   57) = (  -0.5000000  -0.0000000   0.0000000), wk =   0.0156250
        k(   58) = (  -0.5000000  -0.0000000   0.1428571), wk =   0.0156250
        k(   59) = (  -0.5000000  -0.0000000   0.2857143), wk =   0.0156250
        k(   60) = (  -0.5000000  -0.0000000   0.4285714), wk =   0.0156250
        k(   61) = (  -0.5000000  -0.0000000   0.5714286), wk =   0.0156250
        k(   62) = (  -0.5000000  -0.0000000   0.7142857), wk =   0.0156250
        k(   63) = (  -0.5000000  -0.0000000   0.8571429), wk =   0.0156250
        k(   64) = (  -0.5000000  -0.0000000   1.0000000), wk =   0.0156250
        k(   65) = (  -0.5000000   0.2500000  -0.0000000), wk =   0.0312500
        k(   66) = (  -0.5000000   0.2500000   0.1428571), wk =   0.0312500
        k(   67) = (  -0.5000000   0.2500000   0.2857143), wk =   0.0312500
        k(   68) = (  -0.5000000   0.2500000   0.4285714), wk =   0.0312500
        k(   69) = (  -0.5000000   0.2500000   0.5714286), wk =   0.0312500
        k(   70) = (  -0.5000000   0.2500000   0.7142857), wk =   0.0312500
        k(   71) = (  -0.5000000   0.2500000   0.8571429), wk =   0.0312500
        k(   72) = (  -0.5000000   0.2500000   1.0000000), wk =   0.0312500
        k(   73) = (  -0.5000000  -0.5000000  -0.0000000), wk =   0.0156250
        k(   74) = (  -0.5000000  -0.5000000   0.1428571), wk =   0.0156250
        k(   75) = (  -0.5000000  -0.5000000   0.2857143), wk =   0.0156250
        k(   76) = (  -0.5000000  -0.5000000   0.4285714), wk =   0.0156250
        k(   77) = (  -0.5000000  -0.5000000   0.5714286), wk =   0.0156250
        k(   78) = (  -0.5000000  -0.5000000   0.7142857), wk =   0.0156250
        k(   79) = (  -0.5000000  -0.5000000   0.8571429), wk =   0.0156250
        k(   80) = (  -0.5000000  -0.5000000   1.0000000), wk =   0.0156250

     Dense  grid:  1092587 G-vectors     FFT dimensions: ( 135, 135, 144)

     Smooth grid:   363543 G-vectors     FFT dimensions: (  96,  96, 100)

     Dynamical RAM for                 wfc:       2.20 MB

     Dynamical RAM for     wfc (w. buffer):     178.51 MB

     Dynamical RAM for           str. fact:       0.39 MB

     Dynamical RAM for           local pot:       0.00 MB

     Dynamical RAM for          nlocal pot:       6.09 MB

     Dynamical RAM for                qrad:      21.02 MB

     Dynamical RAM for          rho,v,vnew:       1.23 MB

     Dynamical RAM for           G-vectors:       0.51 MB

     Dynamical RAM for          h,s,v(r/c):       1.91 MB

     Dynamical RAM for          <psi|beta>:       7.02 MB

     Dynamical RAM for                 psi:       8.82 MB

     Dynamical RAM for                hpsi:       8.82 MB

     Dynamical RAM for                spsi:       8.82 MB

     Dynamical RAM for      wfcinit/wfcrot:      11.67 MB

     Dynamical RAM for           addusdens:      31.39 MB

     Estimated static dynamical RAM per process >     209.66 MB

     Estimated max dynamical RAM per process >     245.04 MB

     Estimated total dynamical RAM >      30.63 GB

     Check: negative core charge=   -0.000002

     The potential is recalculated from file :
     ./temp/ZnO.save/charge-density

     Starting wfcs are  516 randomized atomic wfcs

     Band Structure Calculation
     Davidson diagonalization with overlap

     Computing kpt #:     1
     total cpu time spent up to now is       20.3 secs

     Computing kpt #:     2
     total cpu time spent up to now is       34.2 secs

     Computing kpt #:     3
     total cpu time spent up to now is       47.9 secs

     Computing kpt #:     4
     total cpu time spent up to now is       61.5 secs

     Computing kpt #:     5
     total cpu time spent up to now is       75.1 secs

     Computing kpt #:     6
     total cpu time spent up to now is       88.7 secs

     Computing kpt #:     7
     total cpu time spent up to now is      102.4 secs

     Computing kpt #:     8
     total cpu time spent up to now is      115.9 secs

     Computing kpt #:     9
     total cpu time spent up to now is      129.6 secs

     Computing kpt #:    10
     total cpu time spent up to now is      143.3 secs

     Computing kpt #:    11
     total cpu time spent up to now is      156.9 secs

     Computing kpt #:    12
     total cpu time spent up to now is      170.5 secs

     Computing kpt #:    13
     total cpu time spent up to now is      184.0 secs

     Computing kpt #:    14
     total cpu time spent up to now is      197.6 secs

     Computing kpt #:    15
     total cpu time spent up to now is      211.4 secs

     Computing kpt #:    16
     total cpu time spent up to now is      225.1 secs

     Computing kpt #:    17
     total cpu time spent up to now is      238.7 secs

     Computing kpt #:    18
     total cpu time spent up to now is      252.3 secs

     Computing kpt #:    19
     total cpu time spent up to now is      265.9 secs

     Computing kpt #:    20
     total cpu time spent up to now is      279.6 secs

     Computing kpt #:    21
     total cpu time spent up to now is      293.1 secs

     Computing kpt #:    22
     total cpu time spent up to now is      306.7 secs

     Computing kpt #:    23
     total cpu time spent up to now is      320.3 secs

     Computing kpt #:    24
     total cpu time spent up to now is      334.1 secs

     Computing kpt #:    25
     total cpu time spent up to now is      347.7 secs

     Computing kpt #:    26
     total cpu time spent up to now is      361.4 secs

     Computing kpt #:    27
     total cpu time spent up to now is      375.0 secs

     Computing kpt #:    28
     total cpu time spent up to now is      388.6 secs

     Computing kpt #:    29
     total cpu time spent up to now is      402.2 secs

     Computing kpt #:    30
     total cpu time spent up to now is      415.8 secs

     Computing kpt #:    31
     total cpu time spent up to now is      429.5 secs

     Computing kpt #:    32
     total cpu time spent up to now is      443.2 secs

     Computing kpt #:    33
     total cpu time spent up to now is      456.9 secs

     Computing kpt #:    34
     total cpu time spent up to now is      470.5 secs

     Computing kpt #:    35
     total cpu time spent up to now is      484.1 secs

     Computing kpt #:    36
     total cpu time spent up to now is      497.7 secs

     Computing kpt #:    37
     total cpu time spent up to now is      511.3 secs

     Computing kpt #:    38
     total cpu time spent up to now is      524.9 secs

     Computing kpt #:    39
     total cpu time spent up to now is      538.4 secs

     Computing kpt #:    40
     total cpu time spent up to now is      552.0 secs

     Computing kpt #:    41
     total cpu time spent up to now is      565.8 secs

     Computing kpt #:    42
     total cpu time spent up to now is      579.5 secs

     Computing kpt #:    43
     total cpu time spent up to now is      593.1 secs

     Computing kpt #:    44
     total cpu time spent up to now is      606.8 secs

     Computing kpt #:    45
     total cpu time spent up to now is      620.4 secs

     Computing kpt #:    46
     total cpu time spent up to now is      634.1 secs

     Computing kpt #:    47
     total cpu time spent up to now is      647.6 secs

     Computing kpt #:    48
     total cpu time spent up to now is      661.3 secs

     Computing kpt #:    49
     total cpu time spent up to now is      675.0 secs

     Computing kpt #:    50
     total cpu time spent up to now is      688.7 secs

     Computing kpt #:    51
     total cpu time spent up to now is      702.4 secs

     Computing kpt #:    52
     total cpu time spent up to now is      716.0 secs

     Computing kpt #:    53
     total cpu time spent up to now is      729.7 secs

     Computing kpt #:    54
     total cpu time spent up to now is      743.4 secs

     Computing kpt #:    55
     total cpu time spent up to now is      757.1 secs

     Computing kpt #:    56
     total cpu time spent up to now is      770.8 secs

     Computing kpt #:    57
     total cpu time spent up to now is      784.5 secs

     Computing kpt #:    58
     total cpu time spent up to now is      798.0 secs

     Computing kpt #:    59
     total cpu time spent up to now is      811.7 secs

     Computing kpt #:    60
     total cpu time spent up to now is      825.4 secs

     Computing kpt #:    61
     total cpu time spent up to now is      839.0 secs

     Computing kpt #:    62
     total cpu time spent up to now is      852.6 secs

     Computing kpt #:    63
     total cpu time spent up to now is      866.3 secs

     Computing kpt #:    64
     total cpu time spent up to now is      879.9 secs

     Computing kpt #:    65
     total cpu time spent up to now is      893.4 secs

     Computing kpt #:    66
     total cpu time spent up to now is      907.1 secs

     Computing kpt #:    67
     total cpu time spent up to now is      920.7 secs

     Computing kpt #:    68
     total cpu time spent up to now is      934.3 secs

     Computing kpt #:    69
     total cpu time spent up to now is      947.9 secs

     Computing kpt #:    70
     total cpu time spent up to now is      961.5 secs

     Computing kpt #:    71
     total cpu time spent up to now is      975.1 secs

     Computing kpt #:    72
     total cpu time spent up to now is      988.7 secs

     Computing kpt #:    73
     total cpu time spent up to now is     1002.3 secs

     Computing kpt #:    74
     total cpu time spent up to now is     1015.9 secs

     Computing kpt #:    75
     total cpu time spent up to now is     1029.5 secs

     Computing kpt #:    76
     total cpu time spent up to now is     1043.2 secs

     Computing kpt #:    77
     total cpu time spent up to now is     1056.8 secs

     Computing kpt #:    78
     total cpu time spent up to now is     1070.4 secs

     Computing kpt #:    79
     total cpu time spent up to now is     1084.0 secs

     Computing kpt #:    80
     total cpu time spent up to now is     1097.6 secs

     ethr =  1.23E-12,  avg # of iterations = 12.3

     total cpu time spent up to now is     1097.6 secs

     End of band structure calculation

          k = 0.0000 0.0000 0.0000 ( 45465 PWs)   bands (ev):

  -115.4679-115.4652-115.4601-115.4595-115.4575-115.4557-115.4549-115.4529
  -115.4511-115.4510-115.4470-115.4467-115.4446-115.4437-115.4422-115.4401
  -115.4398-115.4392-115.4391-115.4386-115.4376-115.4365-115.4332-115.4314
   -69.8273 -69.8240 -69.8239 -69.8236 -69.8200 -69.8192 -69.8187 -69.8181
   -69.8165 -69.8162 -69.8159 -69.8153 -69.8150 -69.8141 -69.8127 -69.8126
   -69.8114 -69.8114 -69.8108 -69.8103 -69.8097 -69.8095 -69.8076 -69.8073
   -69.8067 -69.8066 -69.8065 -69.8059 -69.8055 -69.8054 -69.8050 -69.8045
   -69.8043 -69.8042 -69.8038 -69.8031 -69.8029 -69.8026 -69.8004 -69.8001
   -69.7994 -69.7990 -69.7989 -69.7988 -69.7983 -69.7981 -69.7979 -69.7968
   -69.7965 -69.7964 -69.7962 -69.7958 -69.7956 -69.7950 -69.7948 -69.7946
   -69.7939 -69.7939 -69.7939 -69.7933 -69.7930 -69.7928 -69.7926 -69.7921
   -69.7921 -69.7919 -69.7912 -69.7899 -69.7892 -69.7869 -69.7866 -69.7841
   -64.9327 -64.9284 -64.9254 -64.9240 -64.9195 -64.9122 -64.9089 -64.9010
   -64.8978 -64.8966 -64.8949 -64.8921 -31.9252 -31.9191 -31.9189 -31.9173
   -31.9167 -31.9145 -31.9144 -31.9128 -31.9119 -31.9112 -31.9095 -31.9083
   -31.9074 -31.9043 -31.9033 -31.9022 -31.9002 -31.8973 -31.8953 -31.8943
   -31.8937 -31.8928 -31.8898 -31.8875 -31.8852 -31.8845 -31.8833 -31.8830
   -31.8821 -31.8812 -31.8808 -31.8803 -31.8791 -31.8755 -31.8726 -31.8706
   -10.1049  -9.7785  -9.7461  -9.6929  -9.6774  -9.6407  -9.5974  -9.5491
    -9.4974  -9.4866  -9.4714  -9.4442  -9.4302  -9.4152  -9.3994  -9.3649
    -9.3319  -9.3239  -9.3141  -9.2787  -9.2745  -9.2543  -9.2416  -9.2050
    -9.1767  -9.1717  -9.1635  -9.1405  -9.1263  -9.1152  -9.0920  -9.0853
    -9.0752  -9.0429  -9.0342  -8.9472   1.6749   1.7035   1.7146   1.7174
     1.7519   1.7589   1.7993   1.8263   1.8472   1.8591   1.8773   1.8853
     1.8927   1.9512   1.9569   1.9736   1.9956   2.0235   2.0467   2.0587
     2.0715   2.0967   2.1080   2.1145   2.1427   2.1567   2.1714   2.1762
     2.1999   2.2135   2.2226   2.2260   2.2444   2.2547   2.2696   2.2814
     2.2882   2.2897   2.3089   2.3179   2.3264   2.3313   2.3395   2.3535
     2.3582   2.3680   2.3788   2.3839   2.3937   2.4026   2.4081   2.4270
     2.4423   2.4522   2.4624   2.4806   2.5148   2.5354   2.5466   2.5701
     2.5904   2.6095   2.6126   2.6341   2.6531   2.6635   2.6750   2.6999
     2.7173   2.7338   2.7421   2.7703   2.7879   2.7994   2.8082   2.8366
     2.8512   2.8673   2.8797   2.8861   2.8940   2.9149   2.9445   2.9593
     2.9678   2.9767   2.9940   3.0212   3.0326   3.0355   3.0427   3.0717
     3.0815   3.0881   3.1034   3.1157   3.1348   3.1436   3.1566   3.1718
     3.1814   3.1937   3.2028   3.2060   3.2154   3.2251   3.2383   3.2390
     3.2432   3.2519   3.2631   3.2700   3.2967   3.3001   3.3123   3.3169
     3.3426   3.3680   3.3816   3.4258   3.4543   3.5511   3.5918   3.6113
     3.6416   3.6950   3.7036   3.7316   3.7871   3.7992   3.8240   3.8446
     3.8952   3.9101   3.9156   3.9501   3.9931   4.0338   4.0938   4.1824
     4.1870   4.2222   4.2442   4.2715   4.2977   4.3892   4.3986   4.4388
     4.4531   4.5020   4.5635   4.6012   4.6183   4.6726   4.6950   4.8060
     4.8449   4.8665   4.9001   4.9740   5.0026   5.0955   5.1215   5.1512
     5.2310   5.2816   5.4001   5.4801   5.5256   5.5361   5.5520   5.5663
     5.6248   5.6882   5.7073   5.7367   5.7614   5.7701   5.7767   5.7968
     5.8370   5.8572   5.9346   5.9710   5.9863   6.0078   6.0541   6.0769
     6.1365   6.1457   6.1836   6.2044   6.2202   6.2459   6.2774   6.2881
     6.3039   6.3140   6.3324   6.3460   6.3582   6.3838   6.3949   6.4004
     6.4280   6.4430   6.4538   6.4602   6.5576   6.5916   6.6363   6.6610
     6.6704   6.7008   6.7121   6.7359   6.7524   6.8246   6.8669   6.8932
     6.9565   7.0070   7.0163   7.0428   7.0623   7.3008   7.3304   7.3832

     occupation numbers 
     1.0000   1.0000   1.0000   1.0000   1.0000   1.0000   1.0000   1.0000
     1.0000   1.0000   1.0000   1.0000   1.0000   1.0000   1.0000   1.0000
     1.0000   1.0000   1.0000   1.0000   1.0000   1.0000   1.0000   1.0000
     1.0000   1.0000   1.0000   1.0000   1.0000   1.0000   1.0000   1.0000
     1.0000   1.0000   1.0000   1.0000   1.0000   1.0000   1.0000   1.0000
     1.0000   1.0000   1.0000   1.0000   1.0000   1.0000   1.0000   1.0000
     1.0000   1.0000   1.0000   1.0000   1.0000   1.0000   1.0000   1.0000
     1.0000   1.0000   1.0000   1.0000   1.0000   1.0000   1.0000   1.0000
     1.0000   1.0000   1.0000   1.0000   1.0000   1.0000   1.0000   1.0000
     1.0000   1.0000   1.0000   1.0000   1.0000   1.0000   1.0000   1.0000
     1.0000   1.0000   1.0000   1.0000   1.0000   1.0000   1.0000   1.0000
     1.0000   1.0000   1.0000   1.0000   1.0000   1.0000   1.0000   1.0000
     1.0000   1.0000   1.0000   1.0000   1.0000   1.0000   1.0000   1.0000
     1.0000   1.0000   1.0000   1.0000   1.0000   1.0000   1.0000   1.0000
     1.0000   1.0000   1.0000   1.0000   1.0000   1.0000   1.0000   1.0000
     1.0000   1.0000   1.0000   1.0000   1.0000   1.0000   1.0000   1.0000
     1.0000   1.0000   1.0000   1.0000   1.0000   1.0000   1.0000   1.0000
     1.0000   1.0000   1.0000   1.0000   1.0000   1.0000   1.0000   1.0000
     1.0000   1.0000   1.0000   1.0000   1.0000   1.0000   1.0000   1.0000
     1.0000   1.0000   1.0000   1.0000   1.0000   1.0000   1.0000   1.0000
     1.0000   1.0000   1.0000   1.0000   1.0000   1.0000   1.0000   1.0000
     1.0000   1.0000   1.0000   1.0000   1.0000   1.0000   1.0000   1.0000
     1.0000   1.0000   1.0000   1.0000   1.0000   1.0000   1.0000   1.0000
     1.0000   1.0000   1.0000   1.0000   1.0000   1.0000   1.0000   1.0000
     1.0000   1.0000   1.0000   1.0000   1.0000   1.0000   1.0000   1.0000
     1.0000   1.0000   1.0000   1.0000   1.0000   1.0000   1.0000   1.0000
     1.0000   1.0000   1.0000   1.0000   1.0000   1.0000   1.0000   1.0000
     1.0000   1.0000   1.0000   1.0000   1.0000   1.0000   1.0000   1.0000
     1.0000   1.0000   1.0000   1.0000   1.0000   1.0000   1.0000   1.0000
     1.0000   1.0000   1.0000   1.0000   1.0000   1.0000   1.0000   1.0000
     1.0000   1.0000   1.0000   1.0000   1.0000   1.0000   1.0000   1.0000
     1.0000   1.0000   1.0000   1.0000   1.0000   1.0000   1.0000   1.0000
     1.0000   1.0000   1.0000   1.0000   1.0000   1.0000   1.0000   1.0000
     1.0000   1.0000   1.0000   1.0000   1.0000   1.0000   1.0000   1.0000
     1.0000   1.0000   1.0000   1.0000   1.0000   1.0000   1.0000   1.0000
     1.0000   1.0000   1.0000   1.0000   1.0000   1.0000   1.0000   1.0000
     1.0000   1.0000   1.0000   1.0000   1.0000   1.0000   1.0000   1.0000
     1.0000   1.0000   1.0000   1.0000   1.0000   1.0000   1.0000   1.0000
     1.0000   1.0000   1.0000   1.0000   1.0000   1.0000   1.0000   1.0000
     1.0000   1.0000   1.0000   1.0000   1.0000   1.0000   1.0000   1.0000
     1.0000   1.0000   1.0000   1.0000   1.0000   1.0000   1.0000   1.0000
     1.0000   1.0000   1.0000   1.0000   1.0000   1.0000   1.0000   1.0000
     1.0000   1.0000   1.0000   1.0000   1.0000   1.0000   1.0000   1.0000
     1.0000   1.0000   1.0000   1.0000   1.0000   1.0000   1.0000   1.0000
     1.0000   1.0000   1.0000   1.0000   1.0000   1.0000   1.0000   1.0000
     1.0000   1.0000   1.0000   1.0000   1.0000   1.0000   1.0000   1.0000
     1.0000   1.0000   1.0000   1.0000   1.0000   1.0000   1.0000   1.0000
     1.0000   1.0000   1.0000   1.0000   1.0000   1.0000   1.0000   1.0000
     1.0000   1.0000   1.0000   1.0000   1.0000   1.0000   1.0000   1.0000
     1.0000   1.0000   1.0000   1.0000   1.0000   1.0000   1.0000   1.0000
     1.0000   1.0000   1.0000   1.0000   1.0000   1.0000   1.0000   1.0000

          k = 0.0000-0.0000 0.1336 ( 45401 PWs)   bands (ev):

  -115.4679-115.4652-115.4601-115.4595-115.4575-115.4557-115.4549-115.4529
  -115.4511-115.4510-115.4470-115.4467-115.4446-115.4437-115.4422-115.4401
  -115.4398-115.4392-115.4391-115.4386-115.4376-115.4365-115.4332-115.4314
   -69.8273 -69.8240 -69.8239 -69.8236 -69.8200 -69.8192 -69.8187 -69.8181
   -69.8165 -69.8162 -69.8159 -69.8153 -69.8150 -69.8141 -69.8127 -69.8126
   -69.8114 -69.8114 -69.8108 -69.8103 -69.8097 -69.8095 -69.8076 -69.8073
   -69.8067 -69.8066 -69.8065 -69.8059 -69.8055 -69.8054 -69.8050 -69.8045
   -69.8043 -69.8042 -69.8038 -69.8031 -69.8029 -69.8026 -69.8004 -69.8001
   -69.7994 -69.7990 -69.7989 -69.7988 -69.7983 -69.7981 -69.7979 -69.7968
   -69.7965 -69.7964 -69.7962 -69.7958 -69.7956 -69.7950 -69.7948 -69.7946
   -69.7939 -69.7939 -69.7939 -69.7933 -69.7930 -69.7928 -69.7926 -69.7921
   -69.7921 -69.7919 -69.7912 -69.7899 -69.7892 -69.7869 -69.7866 -69.7841
   -64.9327 -64.9284 -64.9254 -64.9240 -64.9195 -64.9122 -64.9089 -64.9010
   -64.8978 -64.8966 -64.8949 -64.8921 -31.9252 -31.9191 -31.9189 -31.9173
   -31.9167 -31.9146 -31.9143 -31.9128 -31.9119 -31.9113 -31.9095 -31.9083
   -31.9074 -31.9043 -31.9033 -31.9022 -31.9002 -31.8972 -31.8953 -31.8943
   -31.8937 -31.8928 -31.8898 -31.8875 -31.8852 -31.8845 -31.8833 -31.8830
   -31.8821 -31.8812 -31.8808 -31.8803 -31.8791 -31.8755 -31.8726 -31.8706
   -10.0970  -9.8318  -9.7117  -9.6811  -9.6707  -9.6358  -9.5946  -9.5480
    -9.5086  -9.4896  -9.4693  -9.4585  -9.4380  -9.4141  -9.3848  -9.3649
    -9.3452  -9.3275  -9.3128  -9.2901  -9.2616  -9.2485  -9.2263  -9.2035
    -9.1743  -9.1688  -9.1628  -9.1417  -9.1254  -9.1132  -9.0931  -9.0881
    -9.0761  -9.0466  -9.0385  -8.9484   1.6806   1.7095   1.7198   1.7266
     1.7553   1.7659   1.8040   1.8318   1.8493   1.8615   1.8811   1.8912
     1.8983   1.9516   1.9592   1.9769   1.9946   2.0302   2.0485   2.0599
     2.0739   2.0983   2.1079   2.1154   2.1399   2.1529   2.1687   2.1706
     2.1962   2.2111   2.2208   2.2267   2.2437   2.2524   2.2640   2.2812
     2.2841   2.2924   2.3068   2.3081   2.3224   2.3332   2.3422   2.3532
     2.3624   2.3677   2.3806   2.3872   2.3993   2.3999   2.4080   2.4289
     2.4389   2.4503   2.4663   2.4783   2.5080   2.5287   2.5481   2.5659
     2.5866   2.6027   2.6077   2.6292   2.6371   2.6579   2.6648   2.6940
     2.7064   2.7266   2.7388   2.7563   2.7771   2.7946   2.8050   2.8287
     2.8395   2.8537   2.8706   2.8741   2.8937   2.8979   2.9279   2.9435
     2.9582   2.9852   2.9938   3.0176   3.0268   3.0389   3.0406   3.0665
     3.0814   3.0896   3.1032   3.1262   3.1414   3.1460   3.1605   3.1665
     3.1769   3.1874   3.2050   3.2102   3.2195   3.2288   3.2359   3.2412
     3.2493   3.2524   3.2655   3.2759   3.2928   3.2988   3.3170   3.3253
     3.3432   3.3616   3.3754   3.4113   3.4746   3.5648   3.6026   3.6383
     3.6643   3.6975   3.7238   3.7542   3.7912   3.8171   3.8326   3.8661
     3.8997   3.9140   3.9360   3.9508   3.9982   4.0333   4.1021   4.1902
     4.1971   4.2283   4.2512   4.2845   4.3137   4.3897   4.4047   4.4452
     4.4565   4.5028   4.5561   4.5924   4.6109   4.6458   4.6881   4.7435
     4.7991   4.8573   4.9770   5.0006   5.0614   5.1025   5.1241   5.1792
     5.2528   5.2954   5.3954   5.4838   5.5258   5.5473   5.5572   5.5832
     5.6248   5.6792   5.6929   5.7268   5.7347   5.7550   5.7733   5.7900
     5.7955   5.8293   5.8497   5.8891   5.9339   5.9838   6.0272   6.0679
     6.0838   6.1377   6.1541   6.1669   6.1934   6.2095   6.2636   6.3054
     6.3114   6.3334   6.3515   6.3738   6.3973   6.4068   6.4291   6.4451
     6.4614   6.4812   6.5027   6.5149   6.5756   6.6020   6.6478   6.6645
     6.6786   6.7065   6.7189   6.7491   6.7645   6.8176   6.8587   6.8837
     6.9469   6.9605   6.9951   7.0729   7.1056   7.2138   7.3254   7.3771

     occupation numbers 
     1.0000   1.0000   1.0000   1.0000   1.0000   1.0000   1.0000   1.0000
     1.0000   1.0000   1.0000   1.0000   1.0000   1.0000   1.0000   1.0000
     1.0000   1.0000   1.0000   1.0000   1.0000   1.0000   1.0000   1.0000
     1.0000   1.0000   1.0000   1.0000   1.0000   1.0000   1.0000   1.0000
     1.0000   1.0000   1.0000   1.0000   1.0000   1.0000   1.0000   1.0000
     1.0000   1.0000   1.0000   1.0000   1.0000   1.0000   1.0000   1.0000
     1.0000   1.0000   1.0000   1.0000   1.0000   1.0000   1.0000   1.0000
     1.0000   1.0000   1.0000   1.0000   1.0000   1.0000   1.0000   1.0000
     1.0000   1.0000   1.0000   1.0000   1.0000   1.0000   1.0000   1.0000
     1.0000   1.0000   1.0000   1.0000   1.0000   1.0000   1.0000   1.0000
     1.0000   1.0000   1.0000   1.0000   1.0000   1.0000   1.0000   1.0000
     1.0000   1.0000   1.0000   1.0000   1.0000   1.0000   1.0000   1.0000
     1.0000   1.0000   1.0000   1.0000   1.0000   1.0000   1.0000   1.0000
     1.0000   1.0000   1.0000   1.0000   1.0000   1.0000   1.0000   1.0000
     1.0000   1.0000   1.0000   1.0000   1.0000   1.0000   1.0000   1.0000
     1.0000   1.0000   1.0000   1.0000   1.0000   1.0000   1.0000   1.0000
     1.0000   1.0000   1.0000   1.0000   1.0000   1.0000   1.0000   1.0000
     1.0000   1.0000   1.0000   1.0000   1.0000   1.0000   1.0000   1.0000
     1.0000   1.0000   1.0000   1.0000   1.0000   1.0000   1.0000   1.0000
     1.0000   1.0000   1.0000   1.0000   1.0000   1.0000   1.0000   1.0000
     1.0000   1.0000   1.0000   1.0000   1.0000   1.0000   1.0000   1.0000
     1.0000   1.0000   1.0000   1.0000   1.0000   1.0000   1.0000   1.0000
     1.0000   1.0000   1.0000   1.0000   1.0000   1.0000   1.0000   1.0000
     1.0000   1.0000   1.0000   1.0000   1.0000   1.0000   1.0000   1.0000
     1.0000   1.0000   1.0000   1.0000   1.0000   1.0000   1.0000   1.0000
     1.0000   1.0000   1.0000   1.0000   1.0000   1.0000   1.0000   1.0000
     1.0000   1.0000   1.0000   1.0000   1.0000   1.0000   1.0000   1.0000
     1.0000   1.0000   1.0000   1.0000   1.0000   1.0000   1.0000   1.0000
     1.0000   1.0000   1.0000   1.0000   1.0000   1.0000   1.0000   1.0000
     1.0000   1.0000   1.0000   1.0000   1.0000   1.0000   1.0000   1.0000
     1.0000   1.0000   1.0000   1.0000   1.0000   1.0000   1.0000   1.0000
     1.0000   1.0000   1.0000   1.0000   1.0000   1.0000   1.0000   1.0000
     1.0000   1.0000   1.0000   1.0000   1.0000   1.0000   1.0000   1.0000
     1.0000   1.0000   1.0000   1.0000   1.0000   1.0000   1.0000   1.0000
     1.0000   1.0000   1.0000   1.0000   1.0000   1.0000   1.0000   1.0000
     1.0000   1.0000   1.0000   1.0000   1.0000   1.0000   1.0000   1.0000
     1.0000   1.0000   1.0000   1.0000   1.0000   1.0000   1.0000   1.0000
     1.0000   1.0000   1.0000   1.0000   1.0000   1.0000   1.0000   1.0000
     1.0000   1.0000   1.0000   1.0000   1.0000   1.0000   1.0000   1.0000
     1.0000   1.0000   1.0000   1.0000   1.0000   1.0000   1.0000   1.0000
     1.0000   1.0000   1.0000   1.0000   1.0000   1.0000   1.0000   1.0000
     1.0000   1.0000   1.0000   1.0000   1.0000   1.0000   1.0000   1.0000
     1.0000   1.0000   1.0000   1.0000   1.0000   1.0000   1.0000   1.0000
     1.0000   1.0000   1.0000   1.0000   1.0000   1.0000   1.0000   1.0000
     1.0000   1.0000   1.0000   1.0000   1.0000   1.0000   1.0000   1.0000
     1.0000   1.0000   1.0000   1.0000   1.0000   1.0000   1.0000   1.0000
     1.0000   1.0000   1.0000   1.0000   1.0000   1.0000   1.0000   1.0000
     1.0000   1.0000   1.0000   1.0000   1.0000   1.0000   1.0000   1.0000
     1.0000   1.0000   1.0000   1.0000   1.0000   1.0000   1.0000   1.0000
     1.0000   1.0000   1.0000   1.0000   1.0000   1.0000   1.0000   1.0000
     1.0000   1.0000   1.0000   1.0000   1.0000   1.0000   1.0000   1.0000

          k = 0.0000-0.0001 0.2672 ( 45374 PWs)   bands (ev):

  -115.4679-115.4652-115.4601-115.4595-115.4575-115.4557-115.4549-115.4529
  -115.4511-115.4510-115.4470-115.4467-115.4446-115.4437-115.4422-115.4401
  -115.4398-115.4392-115.4391-115.4386-115.4376-115.4365-115.4332-115.4314
   -69.8273 -69.8240 -69.8239 -69.8236 -69.8200 -69.8192 -69.8187 -69.8181
   -69.8165 -69.8162 -69.8159 -69.8153 -69.8150 -69.8141 -69.8127 -69.8126
   -69.8114 -69.8114 -69.8108 -69.8103 -69.8097 -69.8095 -69.8076 -69.8073
   -69.8067 -69.8066 -69.8065 -69.8059 -69.8055 -69.8054 -69.8050 -69.8046
   -69.8043 -69.8042 -69.8038 -69.8031 -69.8029 -69.8026 -69.8004 -69.8001
   -69.7994 -69.7990 -69.7989 -69.7988 -69.7983 -69.7981 -69.7979 -69.7968
   -69.7965 -69.7964 -69.7962 -69.7958 -69.7956 -69.7950 -69.7948 -69.7946
   -69.7939 -69.7939 -69.7939 -69.7933 -69.7930 -69.7928 -69.7926 -69.7921
   -69.7921 -69.7919 -69.7912 -69.7899 -69.7892 -69.7869 -69.7866 -69.7841
   -64.9327 -64.9284 -64.9254 -64.9240 -64.9195 -64.9122 -64.9089 -64.9010
   -64.8978 -64.8966 -64.8949 -64.8921 -31.9252 -31.9191 -31.9189 -31.9173
   -31.9165 -31.9148 -31.9143 -31.9128 -31.9119 -31.9113 -31.9095 -31.9083
   -31.9074 -31.9043 -31.9033 -31.9022 -31.9002 -31.8972 -31.8953 -31.8943
   -31.8937 -31.8929 -31.8898 -31.8875 -31.8852 -31.8846 -31.8833 -31.8830
   -31.8821 -31.8812 -31.8808 -31.8803 -31.8791 -31.8755 -31.8726 -31.8706
   -10.0747  -9.8976  -9.6921  -9.6670  -9.6466  -9.6241  -9.5875  -9.5483
    -9.5250  -9.4991  -9.4710  -9.4620  -9.4575  -9.4097  -9.3845  -9.3720
    -9.3574  -9.3382  -9.3082  -9.2840  -9.2546  -9.2339  -9.2116  -9.1955
    -9.1712  -9.1625  -9.1560  -9.1424  -9.1232  -9.1065  -9.0987  -9.0923
    -9.0775  -9.0568  -9.0507  -8.9510   1.6937   1.7203   1.7356   1.7480
     1.7647   1.7827   1.8122   1.8338   1.8592   1.8736   1.8826   1.9038
     1.9268   1.9511   1.9677   1.9854   2.0006   2.0412   2.0500   2.0652
     2.0787   2.0913   2.1097   2.1189   2.1284   2.1409   2.1566   2.1597
     2.1834   2.2029   2.2145   2.2307   2.2406   2.2439   2.2522   2.2740
     2.2834   2.2917   2.3004   2.3086   2.3258   2.3323   2.3429   2.3523
     2.3667   2.3761   2.3808   2.3943   2.3972   2.4054   2.4212   2.4305
     2.4388   2.4511   2.4691   2.4727   2.4898   2.5140   2.5361   2.5610
     2.5720   2.5770   2.5856   2.6014   2.6193   2.6278   2.6446   2.6817
     2.6860   2.7041   2.7225   2.7392   2.7614   2.7779   2.7952   2.8029
     2.8206   2.8375   2.8476   2.8551   2.8825   2.8859   2.9118   2.9344
     2.9539   2.9735   2.9874   3.0115   3.0186   3.0361   3.0421   3.0638
     3.0777   3.0861   3.1150   3.1245   3.1411   3.1559   3.1611   3.1709
     3.1810   3.1986   3.2087   3.2158   3.2205   3.2267   3.2416   3.2438
     3.2499   3.2600   3.2672   3.2807   3.2922   3.3060   3.3196   3.3272
     3.3414   3.3534   3.3743   3.4010   3.5313   3.5694   3.6186   3.6730
     3.6956   3.7402   3.7575   3.7786   3.8131   3.8389   3.8712   3.9013
     3.9085   3.9305   3.9645   3.9836   4.0056   4.0388   4.1138   4.1836
     4.1923   4.2193   4.2567   4.3226   4.3385   4.3802   4.3955   4.4656
     4.4861   4.5108   4.5325   4.5847   4.6153   4.6634   4.7102   4.7399
     4.7740   4.8346   5.0254   5.0684   5.1047   5.1375   5.1651   5.2274
     5.2594   5.3159   5.3914   5.4244   5.4668   5.5086   5.5311   5.5669
     5.5972   5.6109   5.6303   5.6730   5.7180   5.7450   5.7511   5.7773
     5.7947   5.8262   5.8355   5.8490   5.8871   5.9353   5.9748   6.0012
     6.0285   6.0651   6.0849   6.1194   6.1411   6.1875   6.2149   6.3096
     6.3308   6.3660   6.3905   6.4041   6.4355   6.4571   6.4774   6.4900
     6.5271   6.5507   6.5750   6.5875   6.6198   6.6463   6.6670   6.6811
     6.7022   6.7345   6.7427   6.7761   6.7853   6.8083   6.8389   6.8617
     6.9112   6.9260   6.9538   7.0212   7.1251   7.1559   7.3122   7.3613

     occupation numbers 
     1.0000   1.0000   1.0000   1.0000   1.0000   1.0000   1.0000   1.0000
     1.0000   1.0000   1.0000   1.0000   1.0000   1.0000   1.0000   1.0000
     1.0000   1.0000   1.0000   1.0000   1.0000   1.0000   1.0000   1.0000
     1.0000   1.0000   1.0000   1.0000   1.0000   1.0000   1.0000   1.0000
     1.0000   1.0000   1.0000   1.0000   1.0000   1.0000   1.0000   1.0000
     1.0000   1.0000   1.0000   1.0000   1.0000   1.0000   1.0000   1.0000
     1.0000   1.0000   1.0000   1.0000   1.0000   1.0000   1.0000   1.0000
     1.0000   1.0000   1.0000   1.0000   1.0000   1.0000   1.0000   1.0000
     1.0000   1.0000   1.0000   1.0000   1.0000   1.0000   1.0000   1.0000
     1.0000   1.0000   1.0000   1.0000   1.0000   1.0000   1.0000   1.0000
     1.0000   1.0000   1.0000   1.0000   1.0000   1.0000   1.0000   1.0000
     1.0000   1.0000   1.0000   1.0000   1.0000   1.0000   1.0000   1.0000
     1.0000   1.0000   1.0000   1.0000   1.0000   1.0000   1.0000   1.0000
     1.0000   1.0000   1.0000   1.0000   1.0000   1.0000   1.0000   1.0000
     1.0000   1.0000   1.0000   1.0000   1.0000   1.0000   1.0000   1.0000
     1.0000   1.0000   1.0000   1.0000   1.0000   1.0000   1.0000   1.0000
     1.0000   1.0000   1.0000   1.0000   1.0000   1.0000   1.0000   1.0000
     1.0000   1.0000   1.0000   1.0000   1.0000   1.0000   1.0000   1.0000
     1.0000   1.0000   1.0000   1.0000   1.0000   1.0000   1.0000   1.0000
     1.0000   1.0000   1.0000   1.0000   1.0000   1.0000   1.0000   1.0000
     1.0000   1.0000   1.0000   1.0000   1.0000   1.0000   1.0000   1.0000
     1.0000   1.0000   1.0000   1.0000   1.0000   1.0000   1.0000   1.0000
     1.0000   1.0000   1.0000   1.0000   1.0000   1.0000   1.0000   1.0000
     1.0000   1.0000   1.0000   1.0000   1.0000   1.0000   1.0000   1.0000
     1.0000   1.0000   1.0000   1.0000   1.0000   1.0000   1.0000   1.0000
     1.0000   1.0000   1.0000   1.0000   1.0000   1.0000   1.0000   1.0000
     1.0000   1.0000   1.0000   1.0000   1.0000   1.0000   1.0000   1.0000
     1.0000   1.0000   1.0000   1.0000   1.0000   1.0000   1.0000   1.0000
     1.0000   1.0000   1.0000   1.0000   1.0000   1.0000   1.0000   1.0000
     1.0000   1.0000   1.0000   1.0000   1.0000   1.0000   1.0000   1.0000
     1.0000   1.0000   1.0000   1.0000   1.0000   1.0000   1.0000   1.0000
     1.0000   1.0000   1.0000   1.0000   1.0000   1.0000   1.0000   1.0000
     1.0000   1.0000   1.0000   1.0000   1.0000   1.0000   1.0000   1.0000
     1.0000   1.0000   1.0000   1.0000   1.0000   1.0000   1.0000   1.0000
     1.0000   1.0000   1.0000   1.0000   1.0000   1.0000   1.0000   1.0000
     1.0000   1.0000   1.0000   1.0000   1.0000   1.0000   1.0000   1.0000
     1.0000   1.0000   1.0000   1.0000   1.0000   1.0000   1.0000   1.0000
     1.0000   1.0000   1.0000   1.0000   1.0000   1.0000   1.0000   1.0000
     1.0000   1.0000   1.0000   1.0000   1.0000   1.0000   1.0000   1.0000
     1.0000   1.0000   1.0000   1.0000   1.0000   1.0000   1.0000   1.0000
     1.0000   1.0000   1.0000   1.0000   1.0000   1.0000   1.0000   1.0000
     1.0000   1.0000   1.0000   1.0000   1.0000   1.0000   1.0000   1.0000
     1.0000   1.0000   1.0000   1.0000   1.0000   1.0000   1.0000   1.0000
     1.0000   1.0000   1.0000   1.0000   1.0000   1.0000   1.0000   1.0000
     1.0000   1.0000   1.0000   1.0000   1.0000   1.0000   1.0000   1.0000
     1.0000   1.0000   1.0000   1.0000   1.0000   1.0000   1.0000   1.0000
     1.0000   1.0000   1.0000   1.0000   1.0000   1.0000   1.0000   1.0000
     1.0000   1.0000   1.0000   1.0000   1.0000   1.0000   1.0000   1.0000
     1.0000   1.0000   1.0000   1.0000   1.0000   1.0000   1.0000   1.0000
     1.0000   1.0000   1.0000   1.0000   1.0000   1.0000   1.0000   1.0000
     1.0000   1.0000   1.0000   1.0000   1.0000   1.0000   1.0000   1.0000

          k = 0.0000-0.0001 0.4008 ( 45444 PWs)   bands (ev):

  -115.4679-115.4652-115.4601-115.4595-115.4575-115.4557-115.4549-115.4529
  -115.4511-115.4510-115.4470-115.4467-115.4446-115.4437-115.4422-115.4401
  -115.4398-115.4392-115.4391-115.4386-115.4376-115.4365-115.4332-115.4314
   -69.8273 -69.8240 -69.8239 -69.8236 -69.8200 -69.8192 -69.8187 -69.8181
   -69.8165 -69.8162 -69.8159 -69.8153 -69.8150 -69.8141 -69.8127 -69.8126
   -69.8114 -69.8114 -69.8108 -69.8103 -69.8097 -69.8095 -69.8076 -69.8073
   -69.8067 -69.8066 -69.8065 -69.8059 -69.8055 -69.8054 -69.8050 -69.8046
   -69.8043 -69.8042 -69.8038 -69.8031 -69.8029 -69.8026 -69.8004 -69.8001
   -69.7994 -69.7990 -69.7988 -69.7988 -69.7983 -69.7981 -69.7979 -69.7968
   -69.7965 -69.7964 -69.7962 -69.7958 -69.7956 -69.7950 -69.7948 -69.7946
   -69.7939 -69.7939 -69.7939 -69.7933 -69.7930 -69.7928 -69.7926 -69.7921
   -69.7921 -69.7919 -69.7912 -69.7899 -69.7892 -69.7869 -69.7866 -69.7841
   -64.9327 -64.9284 -64.9254 -64.9240 -64.9195 -64.9122 -64.9089 -64.9010
   -64.8978 -64.8966 -64.8949 -64.8921 -31.9252 -31.9191 -31.9189 -31.9173
   -31.9164 -31.9149 -31.9143 -31.9128 -31.9119 -31.9113 -31.9095 -31.9083
   -31.9074 -31.9043 -31.9033 -31.9022 -31.9002 -31.8971 -31.8953 -31.8943
   -31.8937 -31.8929 -31.8898 -31.8875 -31.8852 -31.8846 -31.8833 -31.8830
   -31.8821 -31.8812 -31.8808 -31.8803 -31.8791 -31.8755 -31.8726 -31.8706
   -10.0454  -9.9501  -9.6784  -9.6558  -9.6352  -9.6233  -9.5782  -9.5503
    -9.5323  -9.5126  -9.4824  -9.4531  -9.4413  -9.4184  -9.4011  -9.3931
    -9.3578  -9.3397  -9.2937  -9.2834  -9.2445  -9.2313  -9.2087  -9.1835
    -9.1702  -9.1604  -9.1450  -9.1380  -9.1267  -9.1022  -9.0960  -9.0902
    -9.0785  -9.0699  -9.0671  -8.9531   1.7042   1.7284   1.7500   1.7646
     1.7787   1.7971   1.8184   1.8286   1.8556   1.8721   1.9115   1.9296
     1.9449   1.9557   1.9814   1.9971   2.0124   2.0422   2.0557   2.0642
     2.0693   2.0781   2.1003   2.1188   2.1242   2.1308   2.1386   2.1519
     2.1744   2.1908   2.2104   2.2228   2.2383   2.2469   2.2523   2.2675
     2.2817   2.2919   2.3024   2.3133   2.3242   2.3319   2.3413   2.3522
     2.3677   2.3788   2.3887   2.3988   2.4039   2.4147   2.4298   2.4397
     2.4479   2.4580   2.4629   2.4718   2.4751   2.5027   2.5157   2.5264
     2.5381   2.5533   2.5626   2.5742   2.5994   2.6135   2.6311   2.6700
     2.6796   2.6878   2.7064   2.7361   2.7525   2.7651   2.7858   2.7942
     2.8087   2.8187   2.8336   2.8568   2.8727   2.8840   2.9046   2.9341
     2.9493   2.9584   2.9843   2.9958   3.0169   3.0351   3.0409   3.0588
     3.0817   3.0896   3.1109   3.1347   3.1401   3.1597   3.1667   3.1771
     3.1822   3.2021   3.2094   3.2167   3.2232   3.2284   3.2420   3.2468
     3.2542   3.2633   3.2762   3.2796   3.2933   3.3072   3.3164   3.3283
     3.3361   3.3498   3.3789   3.3970   3.5620   3.6126   3.6316   3.6732
     3.7215   3.7638   3.7955   3.8064   3.8209   3.8470   3.8663   3.9136
     3.9357   3.9538   3.9980   4.0120   4.0384   4.0709   4.1011   4.1407
     4.1743   4.1918   4.2385   4.2772   4.2874   4.3929   4.4283   4.4459
     4.4874   4.5633   4.5894   4.6619   4.6985   4.7151   4.7376   4.7653
     4.7919   4.8320   5.0540   5.0974   5.1187   5.1462   5.1837   5.2448
     5.2688   5.2898   5.3401   5.3576   5.3968   5.4043   5.4274   5.4522
     5.5182   5.5533   5.6147   5.7222   5.7296   5.7601   5.7763   5.8111
     5.8364   5.8536   5.8737   5.8891   5.9154   5.9392   5.9416   5.9686
     5.9775   6.0017   6.0186   6.0504   6.0659   6.0821   6.2665   6.3219
     6.3380   6.3720   6.3910   6.4376   6.4668   6.4793   6.5015   6.5277
     6.5689   6.5760   6.5991   6.6211   6.6484   6.6867   6.6948   6.7082
     6.7305   6.7483   6.7668   6.7791   6.8058   6.8163   6.8279   6.8485
     6.8539   6.8828   6.8985   6.9342   7.1586   7.1901   7.2980   7.3451

     occupation numbers 
     1.0000   1.0000   1.0000   1.0000   1.0000   1.0000   1.0000   1.0000
     1.0000   1.0000   1.0000   1.0000   1.0000   1.0000   1.0000   1.0000
     1.0000   1.0000   1.0000   1.0000   1.0000   1.0000   1.0000   1.0000
     1.0000   1.0000   1.0000   1.0000   1.0000   1.0000   1.0000   1.0000
     1.0000   1.0000   1.0000   1.0000   1.0000   1.0000   1.0000   1.0000
     1.0000   1.0000   1.0000   1.0000   1.0000   1.0000   1.0000   1.0000
     1.0000   1.0000   1.0000   1.0000   1.0000   1.0000   1.0000   1.0000
     1.0000   1.0000   1.0000   1.0000   1.0000   1.0000   1.0000   1.0000
     1.0000   1.0000   1.0000   1.0000   1.0000   1.0000   1.0000   1.0000
     1.0000   1.0000   1.0000   1.0000   1.0000   1.0000   1.0000   1.0000
     1.0000   1.0000   1.0000   1.0000   1.0000   1.0000   1.0000   1.0000
     1.0000   1.0000   1.0000   1.0000   1.0000   1.0000   1.0000   1.0000
     1.0000   1.0000   1.0000   1.0000   1.0000   1.0000   1.0000   1.0000
     1.0000   1.0000   1.0000   1.0000   1.0000   1.0000   1.0000   1.0000
     1.0000   1.0000   1.0000   1.0000   1.0000   1.0000   1.0000   1.0000
     1.0000   1.0000   1.0000   1.0000   1.0000   1.0000   1.0000   1.0000
     1.0000   1.0000   1.0000   1.0000   1.0000   1.0000   1.0000   1.0000
     1.0000   1.0000   1.0000   1.0000   1.0000   1.0000   1.0000   1.0000
     1.0000   1.0000   1.0000   1.0000   1.0000   1.0000   1.0000   1.0000
     1.0000   1.0000   1.0000   1.0000   1.0000   1.0000   1.0000   1.0000
     1.0000   1.0000   1.0000   1.0000   1.0000   1.0000   1.0000   1.0000
     1.0000   1.0000   1.0000   1.0000   1.0000   1.0000   1.0000   1.0000
     1.0000   1.0000   1.0000   1.0000   1.0000   1.0000   1.0000   1.0000
     1.0000   1.0000   1.0000   1.0000   1.0000   1.0000   1.0000   1.0000
     1.0000   1.0000   1.0000   1.0000   1.0000   1.0000   1.0000   1.0000
     1.0000   1.0000   1.0000   1.0000   1.0000   1.0000   1.0000   1.0000
     1.0000   1.0000   1.0000   1.0000   1.0000   1.0000   1.0000   1.0000
     1.0000   1.0000   1.0000   1.0000   1.0000   1.0000   1.0000   1.0000
     1.0000   1.0000   1.0000   1.0000   1.0000   1.0000   1.0000   1.0000
     1.0000   1.0000   1.0000   1.0000   1.0000   1.0000   1.0000   1.0000
     1.0000   1.0000   1.0000   1.0000   1.0000   1.0000   1.0000   1.0000
     1.0000   1.0000   1.0000   1.0000   1.0000   1.0000   1.0000   1.0000
     1.0000   1.0000   1.0000   1.0000   1.0000   1.0000   1.0000   1.0000
     1.0000   1.0000   1.0000   1.0000   1.0000   1.0000   1.0000   1.0000
     1.0000   1.0000   1.0000   1.0000   1.0000   1.0000   1.0000   1.0000
     1.0000   1.0000   1.0000   1.0000   1.0000   1.0000   1.0000   1.0000
     1.0000   1.0000   1.0000   1.0000   1.0000   1.0000   1.0000   1.0000
     1.0000   1.0000   1.0000   1.0000   1.0000   1.0000   1.0000   1.0000
     1.0000   1.0000   1.0000   1.0000   1.0000   1.0000   1.0000   1.0000
     1.0000   1.0000   1.0000   1.0000   1.0000   1.0000   1.0000   1.0000
     1.0000   1.0000   1.0000   1.0000   1.0000   1.0000   1.0000   1.0000
     1.0000   1.0000   1.0000   1.0000   1.0000   1.0000   1.0000   1.0000
     1.0000   1.0000   1.0000   1.0000   1.0000   1.0000   1.0000   1.0000
     1.0000   1.0000   1.0000   1.0000   1.0000   1.0000   1.0000   1.0000
     1.0000   1.0000   1.0000   1.0000   1.0000   1.0000   1.0000   1.0000
     1.0000   1.0000   1.0000   1.0000   1.0000   1.0000   1.0000   1.0000
     1.0000   1.0000   1.0000   1.0000   1.0000   1.0000   1.0000   1.0000
     1.0000   1.0000   1.0000   1.0000   1.0000   1.0000   1.0000   1.0000
     1.0000   1.0000   1.0000   1.0000   1.0000   1.0000   1.0000   1.0000
     1.0000   1.0000   1.0000   1.0000   1.0000   1.0000   1.0000   1.0000
     1.0000   1.0000   1.0000   1.0000   1.0000   1.0000   1.0000   1.0000

          k = 0.0000-0.0002 0.5344 ( 45444 PWs)   bands (ev):

  -115.4679-115.4652-115.4601-115.4595-115.4575-115.4557-115.4549-115.4529
  -115.4511-115.4510-115.4470-115.4467-115.4446-115.4437-115.4422-115.4401
  -115.4398-115.4392-115.4391-115.4386-115.4376-115.4365-115.4332-115.4314
   -69.8273 -69.8240 -69.8239 -69.8236 -69.8200 -69.8192 -69.8187 -69.8181
   -69.8165 -69.8162 -69.8159 -69.8153 -69.8150 -69.8141 -69.8127 -69.8126
   -69.8114 -69.8114 -69.8108 -69.8103 -69.8097 -69.8095 -69.8076 -69.8073
   -69.8067 -69.8066 -69.8065 -69.8059 -69.8055 -69.8054 -69.8050 -69.8046
   -69.8043 -69.8042 -69.8038 -69.8031 -69.8029 -69.8026 -69.8004 -69.8001
   -69.7994 -69.7990 -69.7988 -69.7988 -69.7983 -69.7981 -69.7979 -69.7968
   -69.7965 -69.7964 -69.7962 -69.7958 -69.7956 -69.7950 -69.7948 -69.7946
   -69.7939 -69.7939 -69.7939 -69.7933 -69.7930 -69.7928 -69.7926 -69.7921
   -69.7921 -69.7919 -69.7912 -69.7899 -69.7892 -69.7869 -69.7866 -69.7841
   -64.9327 -64.9284 -64.9254 -64.9240 -64.9195 -64.9122 -64.9089 -64.9010
   -64.8978 -64.8966 -64.8949 -64.8921 -31.9252 -31.9191 -31.9189 -31.9173
   -31.9164 -31.9149 -31.9143 -31.9128 -31.9119 -31.9113 -31.9095 -31.9083
   -31.9074 -31.9043 -31.9033 -31.9022 -31.9002 -31.8971 -31.8953 -31.8943
   -31.8937 -31.8929 -31.8898 -31.8875 -31.8852 -31.8846 -31.8833 -31.8830
   -31.8821 -31.8812 -31.8808 -31.8803 -31.8791 -31.8755 -31.8726 -31.8706
   -10.0454  -9.9501  -9.6784  -9.6558  -9.6352  -9.6233  -9.5782  -9.5503
    -9.5323  -9.5126  -9.4824  -9.4531  -9.4413  -9.4184  -9.4011  -9.3931
    -9.3578  -9.3397  -9.2937  -9.2834  -9.2445  -9.2313  -9.2087  -9.1835
    -9.1702  -9.1604  -9.1450  -9.1380  -9.1267  -9.1022  -9.0960  -9.0902
    -9.0785  -9.0699  -9.0671  -8.9531   1.7042   1.7284   1.7500   1.7646
     1.7787   1.7971   1.8184   1.8286   1.8556   1.8721   1.9115   1.9296
     1.9449   1.9557   1.9814   1.9971   2.0124   2.0422   2.0557   2.0642
     2.0693   2.0781   2.1003   2.1188   2.1242   2.1308   2.1386   2.1519
     2.1744   2.1908   2.2104   2.2228   2.2383   2.2469   2.2523   2.2675
     2.2817   2.2919   2.3024   2.3133   2.3242   2.3319   2.3413   2.3522
     2.3677   2.3788   2.3887   2.3988   2.4039   2.4147   2.4298   2.4397
     2.4479   2.4580   2.4629   2.4718   2.4751   2.5027   2.5157   2.5264
     2.5381   2.5533   2.5626   2.5742   2.5994   2.6135   2.6311   2.6700
     2.6796   2.6878   2.7064   2.7361   2.7525   2.7651   2.7858   2.7942
     2.8087   2.8187   2.8336   2.8568   2.8727   2.8840   2.9046   2.9341
     2.9493   2.9584   2.9843   2.9958   3.0169   3.0351   3.0409   3.0588
     3.0817   3.0896   3.1109   3.1347   3.1401   3.1597   3.1667   3.1771
     3.1822   3.2021   3.2094   3.2167   3.2232   3.2284   3.2420   3.2468
     3.2542   3.2633   3.2762   3.2796   3.2933   3.3072   3.3164   3.3283
     3.3361   3.3498   3.3789   3.3970   3.5620   3.6126   3.6316   3.6732
     3.7215   3.7638   3.7955   3.8064   3.8209   3.8470   3.8663   3.9136
     3.9357   3.9538   3.9980   4.0120   4.0384   4.0709   4.1011   4.1407
     4.1743   4.1918   4.2385   4.2772   4.2874   4.3929   4.4283   4.4459
     4.4874   4.5633   4.5894   4.6619   4.6985   4.7151   4.7376   4.7653
     4.7919   4.8320   5.0540   5.0974   5.1187   5.1462   5.1837   5.2448
     5.2688   5.2898   5.3401   5.3576   5.3968   5.4043   5.4274   5.4522
     5.5182   5.5533   5.6147   5.7222   5.7296   5.7601   5.7763   5.8111
     5.8364   5.8536   5.8737   5.8891   5.9154   5.9392   5.9416   5.9686
     5.9775   6.0017   6.0186   6.0504   6.0659   6.0821   6.2665   6.3219
     6.3380   6.3720   6.3910   6.4376   6.4668   6.4793   6.5015   6.5277
     6.5689   6.5760   6.5991   6.6211   6.6484   6.6867   6.6948   6.7082
     6.7305   6.7483   6.7668   6.7791   6.8058   6.8163   6.8279   6.8485
     6.8539   6.8828   6.8985   6.9342   7.1586   7.1901   7.2980   7.3451

     occupation numbers 
     1.0000   1.0000   1.0000   1.0000   1.0000   1.0000   1.0000   1.0000
     1.0000   1.0000   1.0000   1.0000   1.0000   1.0000   1.0000   1.0000
     1.0000   1.0000   1.0000   1.0000   1.0000   1.0000   1.0000   1.0000
     1.0000   1.0000   1.0000   1.0000   1.0000   1.0000   1.0000   1.0000
     1.0000   1.0000   1.0000   1.0000   1.0000   1.0000   1.0000   1.0000
     1.0000   1.0000   1.0000   1.0000   1.0000   1.0000   1.0000   1.0000
     1.0000   1.0000   1.0000   1.0000   1.0000   1.0000   1.0000   1.0000
     1.0000   1.0000   1.0000   1.0000   1.0000   1.0000   1.0000   1.0000
     1.0000   1.0000   1.0000   1.0000   1.0000   1.0000   1.0000   1.0000
     1.0000   1.0000   1.0000   1.0000   1.0000   1.0000   1.0000   1.0000
     1.0000   1.0000   1.0000   1.0000   1.0000   1.0000   1.0000   1.0000
     1.0000   1.0000   1.0000   1.0000   1.0000   1.0000   1.0000   1.0000
     1.0000   1.0000   1.0000   1.0000   1.0000   1.0000   1.0000   1.0000
     1.0000   1.0000   1.0000   1.0000   1.0000   1.0000   1.0000   1.0000
     1.0000   1.0000   1.0000   1.0000   1.0000   1.0000   1.0000   1.0000
     1.0000   1.0000   1.0000   1.0000   1.0000   1.0000   1.0000   1.0000
     1.0000   1.0000   1.0000   1.0000   1.0000   1.0000   1.0000   1.0000
     1.0000   1.0000   1.0000   1.0000   1.0000   1.0000   1.0000   1.0000
     1.0000   1.0000   1.0000   1.0000   1.0000   1.0000   1.0000   1.0000
     1.0000   1.0000   1.0000   1.0000   1.0000   1.0000   1.0000   1.0000
     1.0000   1.0000   1.0000   1.0000   1.0000   1.0000   1.0000   1.0000
     1.0000   1.0000   1.0000   1.0000   1.0000   1.0000   1.0000   1.0000
     1.0000   1.0000   1.0000   1.0000   1.0000   1.0000   1.0000   1.0000
     1.0000   1.0000   1.0000   1.0000   1.0000   1.0000   1.0000   1.0000
     1.0000   1.0000   1.0000   1.0000   1.0000   1.0000   1.0000   1.0000
     1.0000   1.0000   1.0000   1.0000   1.0000   1.0000   1.0000   1.0000
     1.0000   1.0000   1.0000   1.0000   1.0000   1.0000   1.0000   1.0000
     1.0000   1.0000   1.0000   1.0000   1.0000   1.0000   1.0000   1.0000
     1.0000   1.0000   1.0000   1.0000   1.0000   1.0000   1.0000   1.0000
     1.0000   1.0000   1.0000   1.0000   1.0000   1.0000   1.0000   1.0000
     1.0000   1.0000   1.0000   1.0000   1.0000   1.0000   1.0000   1.0000
     1.0000   1.0000   1.0000   1.0000   1.0000   1.0000   1.0000   1.0000
     1.0000   1.0000   1.0000   1.0000   1.0000   1.0000   1.0000   1.0000
     1.0000   1.0000   1.0000   1.0000   1.0000   1.0000   1.0000   1.0000
     1.0000   1.0000   1.0000   1.0000   1.0000   1.0000   1.0000   1.0000
     1.0000   1.0000   1.0000   1.0000   1.0000   1.0000   1.0000   1.0000
     1.0000   1.0000   1.0000   1.0000   1.0000   1.0000   1.0000   1.0000
     1.0000   1.0000   1.0000   1.0000   1.0000   1.0000   1.0000   1.0000
     1.0000   1.0000   1.0000   1.0000   1.0000   1.0000   1.0000   1.0000
     1.0000   1.0000   1.0000   1.0000   1.0000   1.0000   1.0000   1.0000
     1.0000   1.0000   1.0000   1.0000   1.0000   1.0000   1.0000   1.0000
     1.0000   1.0000   1.0000   1.0000   1.0000   1.0000   1.0000   1.0000
     1.0000   1.0000   1.0000   1.0000   1.0000   1.0000   1.0000   1.0000
     1.0000   1.0000   1.0000   1.0000   1.0000   1.0000   1.0000   1.0000
     1.0000   1.0000   1.0000   1.0000   1.0000   1.0000   1.0000   1.0000
     1.0000   1.0000   1.0000   1.0000   1.0000   1.0000   1.0000   1.0000
     1.0000   1.0000   1.0000   1.0000   1.0000   1.0000   1.0000   1.0000
     1.0000   1.0000   1.0000   1.0000   1.0000   1.0000   1.0000   1.0000
     1.0000   1.0000   1.0000   1.0000   1.0000   1.0000   1.0000   1.0000
     1.0000   1.0000   1.0000   1.0000   1.0000   1.0000   1.0000   1.0000
     1.0000   1.0000   1.0000   1.0000   1.0000   1.0000   1.0000   1.0000

          k = 0.0000-0.0002 0.6681 ( 45374 PWs)   bands (ev):

  -115.4679-115.4652-115.4601-115.4595-115.4575-115.4557-115.4549-115.4529
  -115.4511-115.4510-115.4470-115.4467-115.4446-115.4437-115.4422-115.4401
  -115.4398-115.4392-115.4391-115.4386-115.4376-115.4365-115.4332-115.4314
   -69.8273 -69.8240 -69.8239 -69.8236 -69.8200 -69.8192 -69.8187 -69.8181
   -69.8165 -69.8162 -69.8159 -69.8153 -69.8150 -69.8141 -69.8127 -69.8126
   -69.8114 -69.8114 -69.8108 -69.8103 -69.8097 -69.8095 -69.8076 -69.8073
   -69.8067 -69.8066 -69.8065 -69.8059 -69.8055 -69.8054 -69.8050 -69.8046
   -69.8043 -69.8042 -69.8038 -69.8031 -69.8029 -69.8026 -69.8004 -69.8001
   -69.7994 -69.7990 -69.7989 -69.7988 -69.7983 -69.7981 -69.7979 -69.7968
   -69.7965 -69.7964 -69.7962 -69.7958 -69.7956 -69.7950 -69.7948 -69.7946
   -69.7939 -69.7939 -69.7939 -69.7933 -69.7930 -69.7928 -69.7926 -69.7921
   -69.7921 -69.7919 -69.7912 -69.7899 -69.7892 -69.7869 -69.7866 -69.7841
   -64.9327 -64.9284 -64.9254 -64.9240 -64.9195 -64.9122 -64.9089 -64.9010
   -64.8978 -64.8966 -64.8949 -64.8921 -31.9252 -31.9191 -31.9189 -31.9173
   -31.9165 -31.9148 -31.9143 -31.9128 -31.9119 -31.9113 -31.9095 -31.9083
   -31.9074 -31.9043 -31.9033 -31.9022 -31.9002 -31.8972 -31.8953 -31.8943
   -31.8937 -31.8929 -31.8898 -31.8875 -31.8852 -31.8846 -31.8833 -31.8830
   -31.8821 -31.8812 -31.8808 -31.8803 -31.8791 -31.8755 -31.8726 -31.8706
   -10.0747  -9.8976  -9.6921  -9.6670  -9.6466  -9.6241  -9.5875  -9.5483
    -9.5250  -9.4991  -9.4710  -9.4620  -9.4575  -9.4097  -9.3845  -9.3720
    -9.3574  -9.3382  -9.3082  -9.2840  -9.2546  -9.2339  -9.2116  -9.1955
    -9.1712  -9.1625  -9.1560  -9.1424  -9.1232  -9.1065  -9.0987  -9.0923
    -9.0775  -9.0568  -9.0507  -8.9510   1.6937   1.7203   1.7356   1.7480
     1.7647   1.7827   1.8122   1.8338   1.8592   1.8736   1.8826   1.9038
     1.9268   1.9511   1.9677   1.9854   2.0006   2.0412   2.0500   2.0652
     2.0787   2.0913   2.1097   2.1189   2.1284   2.1409   2.1566   2.1597
     2.1834   2.2029   2.2145   2.2307   2.2406   2.2439   2.2522   2.2740
     2.2834   2.2917   2.3004   2.3086   2.3258   2.3323   2.3429   2.3523
     2.3667   2.3761   2.3808   2.3943   2.3972   2.4054   2.4212   2.4305
     2.4388   2.4511   2.4691   2.4727   2.4898   2.5140   2.5361   2.5610
     2.5720   2.5770   2.5856   2.6014   2.6193   2.6278   2.6446   2.6817
     2.6860   2.7041   2.7225   2.7392   2.7614   2.7779   2.7952   2.8029
     2.8206   2.8375   2.8476   2.8551   2.8825   2.8859   2.9118   2.9344
     2.9539   2.9735   2.9874   3.0115   3.0186   3.0361   3.0421   3.0638
     3.0777   3.0861   3.1150   3.1245   3.1411   3.1559   3.1611   3.1709
     3.1810   3.1986   3.2087   3.2158   3.2205   3.2267   3.2416   3.2438
     3.2499   3.2600   3.2672   3.2807   3.2922   3.3060   3.3196   3.3272
     3.3414   3.3534   3.3743   3.4010   3.5313   3.5694   3.6186   3.6730
     3.6956   3.7402   3.7575   3.7786   3.8131   3.8389   3.8712   3.9013
     3.9085   3.9305   3.9645   3.9836   4.0056   4.0388   4.1138   4.1836
     4.1923   4.2193   4.2567   4.3226   4.3385   4.3802   4.3955   4.4656
     4.4861   4.5108   4.5325   4.5847   4.6153   4.6634   4.7102   4.7399
     4.7740   4.8346   5.0254   5.0684   5.1047   5.1375   5.1651   5.2274
     5.2594   5.3159   5.3914   5.4244   5.4668   5.5086   5.5311   5.5669
     5.5972   5.6109   5.6303   5.6730   5.7180   5.7450   5.7511   5.7773
     5.7947   5.8262   5.8355   5.8490   5.8871   5.9353   5.9748   6.0012
     6.0285   6.0651   6.0849   6.1194   6.1411   6.1875   6.2149   6.3096
     6.3308   6.3660   6.3905   6.4041   6.4355   6.4571   6.4774   6.4900
     6.5271   6.5507   6.5750   6.5875   6.6198   6.6463   6.6670   6.6811
     6.7022   6.7345   6.7427   6.7761   6.7853   6.8083   6.8389   6.8617
[...]
   -31.9073 -31.9044 -31.9033 -31.9024 -31.9015 -31.8972 -31.8953 -31.8942
   -31.8937 -31.8928 -31.8881 -31.8876 -31.8851 -31.8844 -31.8833 -31.8831
   -31.8816 -31.8811 -31.8803 -31.8797 -31.8789 -31.8760 -31.8728 -31.8719
    -9.9894  -9.9399  -9.7462  -9.7068  -9.6521  -9.6253  -9.6103  -9.5985
    -9.5115  -9.4971  -9.4708  -9.4376  -9.4187  -9.3936  -9.3634  -9.3499
    -9.3451  -9.3160  -9.3051  -9.2925  -9.2418  -9.2357  -9.2220  -9.2186
    -9.1903  -9.1764  -9.1603  -9.1461  -9.1332  -9.1115  -9.1007  -9.0909
    -9.0655  -9.0517  -9.0323  -8.9415   1.7096   1.7207   1.7677   1.7773
     1.8016   1.8141   1.8288   1.8436   1.8637   1.8861   1.9114   1.9262
     1.9353   1.9539   1.9663   1.9744   1.9927   2.0147   2.0306   2.0547
     2.0679   2.0916   2.1099   2.1268   2.1445   2.1507   2.1732   2.1786
     2.1863   2.1925   2.2066   2.2293   2.2321   2.2340   2.2402   2.2527
     2.2697   2.2746   2.2823   2.2956   2.3098   2.3230   2.3316   2.3362
     2.3502   2.3590   2.3676   2.3755   2.3806   2.3955   2.4014   2.4046
     2.4252   2.4345   2.4739   2.4809   2.4870   2.4946   2.4980   2.5121
     2.5255   2.5517   2.5700   2.5818   2.5967   2.6108   2.6387   2.6658
     2.6841   2.7037   2.7089   2.7356   2.7748   2.7989   2.8009   2.8103
     2.8312   2.8381   2.8429   2.8673   2.8801   2.9004   2.9158   2.9438
     2.9596   2.9775   2.9891   3.0099   3.0165   3.0412   3.0507   3.0656
     3.0724   3.0924   3.1194   3.1265   3.1511   3.1539   3.1656   3.1799
     3.1939   3.2073   3.2137   3.2196   3.2329   3.2406   3.2440   3.2628
     3.2716   3.2851   3.2890   3.2952   3.3048   3.3199   3.3257   3.3325
     3.3409   3.3701   3.3780   3.3806   3.4063   3.4153   3.5335   3.5449
     3.6001   3.6436   3.6559   3.6734   3.7139   3.7486   3.7806   3.8294
     3.8547   3.8929   3.9336   3.9673   4.0141   4.0853   4.1291   4.1626
     4.2299   4.2627   4.2982   4.3408   4.5160   4.5277   4.6081   4.6699
     4.6881   4.7377   4.7719   4.8477   4.8742   4.8791   4.9111   4.9519
     4.9713   4.9971   5.0373   5.0407   5.0903   5.1124   5.1714   5.2288
     5.2377   5.2686   5.3247   5.3815   5.4226   5.4331   5.4657   5.5272
     5.5423   5.5955   5.6144   5.7229   5.7676   5.7831   5.8109   5.8511
     5.9264   5.9602   5.9698   5.9809   6.0082   6.0157   6.0536   6.0898
     6.1052   6.1109   6.1422   6.1723   6.1966   6.2221   6.2390   6.2536
     6.2762   6.2813   6.3041   6.3161   6.3264   6.3580   6.3605   6.3764
     6.3961   6.4130   6.4208   6.4402   6.4462   6.4866   6.5176   6.5439
     6.5481   6.5807   6.5887   6.6424   6.7201   6.7439   6.7808   6.7903
     6.8051   6.8286   6.8608   6.8804   7.1009   7.1308   7.1919   7.2241

     occupation numbers 
     1.0000   1.0000   1.0000   1.0000   1.0000   1.0000   1.0000   1.0000
     1.0000   1.0000   1.0000   1.0000   1.0000   1.0000   1.0000   1.0000
     1.0000   1.0000   1.0000   1.0000   1.0000   1.0000   1.0000   1.0000
     1.0000   1.0000   1.0000   1.0000   1.0000   1.0000   1.0000   1.0000
     1.0000   1.0000   1.0000   1.0000   1.0000   1.0000   1.0000   1.0000
     1.0000   1.0000   1.0000   1.0000   1.0000   1.0000   1.0000   1.0000
     1.0000   1.0000   1.0000   1.0000   1.0000   1.0000   1.0000   1.0000
     1.0000   1.0000   1.0000   1.0000   1.0000   1.0000   1.0000   1.0000
     1.0000   1.0000   1.0000   1.0000   1.0000   1.0000   1.0000   1.0000
     1.0000   1.0000   1.0000   1.0000   1.0000   1.0000   1.0000   1.0000
     1.0000   1.0000   1.0000   1.0000   1.0000   1.0000   1.0000   1.0000
     1.0000   1.0000   1.0000   1.0000   1.0000   1.0000   1.0000   1.0000
     1.0000   1.0000   1.0000   1.0000   1.0000   1.0000   1.0000   1.0000
     1.0000   1.0000   1.0000   1.0000   1.0000   1.0000   1.0000   1.0000
     1.0000   1.0000   1.0000   1.0000   1.0000   1.0000   1.0000   1.0000
     1.0000   1.0000   1.0000   1.0000   1.0000   1.0000   1.0000   1.0000
     1.0000   1.0000   1.0000   1.0000   1.0000   1.0000   1.0000   1.0000
     1.0000   1.0000   1.0000   1.0000   1.0000   1.0000   1.0000   1.0000
     1.0000   1.0000   1.0000   1.0000   1.0000   1.0000   1.0000   1.0000
     1.0000   1.0000   1.0000   1.0000   1.0000   1.0000   1.0000   1.0000
     1.0000   1.0000   1.0000   1.0000   1.0000   1.0000   1.0000   1.0000
     1.0000   1.0000   1.0000   1.0000   1.0000   1.0000   1.0000   1.0000
     1.0000   1.0000   1.0000   1.0000   1.0000   1.0000   1.0000   1.0000
     1.0000   1.0000   1.0000   1.0000   1.0000   1.0000   1.0000   1.0000
     1.0000   1.0000   1.0000   1.0000   1.0000   1.0000   1.0000   1.0000
     1.0000   1.0000   1.0000   1.0000   1.0000   1.0000   1.0000   1.0000
     1.0000   1.0000   1.0000   1.0000   1.0000   1.0000   1.0000   1.0000
     1.0000   1.0000   1.0000   1.0000   1.0000   1.0000   1.0000   1.0000
     1.0000   1.0000   1.0000   1.0000   1.0000   1.0000   1.0000   1.0000
     1.0000   1.0000   1.0000   1.0000   1.0000   1.0000   1.0000   1.0000
     1.0000   1.0000   1.0000   1.0000   1.0000   1.0000   1.0000   1.0000
     1.0000   1.0000   1.0000   1.0000   1.0000   1.0000   1.0000   1.0000
     1.0000   1.0000   1.0000   1.0000   1.0000   1.0000   1.0000   1.0000
     1.0000   1.0000   1.0000   1.0000   1.0000   1.0000   1.0000   1.0000
     1.0000   1.0000   1.0000   1.0000   1.0000   1.0000   1.0000   1.0000
     1.0000   1.0000   1.0000   1.0000   1.0000   1.0000   1.0000   1.0000
     1.0000   1.0000   1.0000   1.0000   1.0000   1.0000   1.0000   1.0000
     1.0000   1.0000   1.0000   1.0000   1.0000   1.0000   1.0000   1.0000
     1.0000   1.0000   1.0000   1.0000   1.0000   1.0000   1.0000   1.0000
     1.0000   1.0000   1.0000   1.0000   1.0000   1.0000   1.0000   1.0000
     1.0000   1.0000   1.0000   1.0000   1.0000   1.0000   1.0000   1.0000
     1.0000   1.0000   1.0000   1.0000   1.0000   1.0000   1.0000   1.0000
     1.0000   1.0000   1.0000   1.0000   1.0000   1.0000   1.0000   1.0000
     1.0000   1.0000   1.0000   1.0000   1.0000   1.0000   1.0000   1.0000
     1.0000   1.0000   1.0000   1.0000   1.0000   1.0000   1.0000   1.0000
     1.0000   1.0000   1.0000   1.0000   1.0000   1.0000   1.0000   1.0000
     1.0000   1.0000   1.0000   1.0000   1.0000   1.0000   1.0000   1.0000
     1.0000   1.0000   1.0000   1.0000   1.0000   1.0000   1.0000   1.0000
     1.0000   1.0000   1.0000   1.0000   1.0000   1.0000   1.0000   1.0000
     1.0000   1.0000   1.0000   1.0000   1.0000   1.0000   1.0000   1.0000
     1.0000   1.0000   1.0000   1.0000   1.0000   1.0000   1.0000   1.0000

     highest occupied level (ev):     7.3832



               ==================================================
                            POLARIZATION CALCULATION
                         !!! NOT THOROUGHLY TESTED !!!
               --------------------------------------------------


                     K-POINTS STRINGS USED IN CALCULATIONS
                     ~~~~~~~~~~~~~~~~~~~~~~~~~~~~~~~~~~~~~

       G-vector along string (2 pi/a):  0.00003 -0.00026  0.93529
       Modulus of the vector (1/bohr):  0.31899
       Number of k-points per string:   8
       Number of different strings  :  10


                               IONIC POLARIZATION
                               ~~~~~~~~~~~~~~~~~~

        Note: (mod 1) means that the phases (angles ranging from
        -pi to pi) have been mapped to the interval [-1/2,+1/2) by
        dividing by 2*pi; (mod 2) refers to the interval [-1,+1)

  ============================================================================
    Ion    Species    Charge              Position                Phase
  ----------------------------------------------------------------------------
     1        Zn      20.000       0.1666  0.0964  0.2077    -0.11616 (mod 2)
     2        Zn      20.000       0.1669  0.0959  0.7417    -0.12562 (mod 2)
     3        Zn      20.000       0.0009  0.3843  0.2068    -0.13283 (mod 2)
     4        Zn      20.000      -0.0011  0.3861  0.7418    -0.12563 (mod 2)
     5        Zn      20.000      -0.1668  0.6765  0.2065    -0.14141 (mod 2)
     6        Zn      20.000      -0.1680  0.6719  0.7411    -0.14094 (mod 2)
     7        Zn      20.000       0.4991  0.0950  0.2082    -0.10634 (mod 2)
     8        Zn      20.000       0.5001  0.0965  0.7432    -0.09886 (mod 2)
     9        Zn      20.000       0.3329  0.3842  0.2059    -0.14973 (mod 2)
    10        Mg      10.000       0.3333  0.3828  0.7430     0.94829 (mod 2)
    11        Mg      10.000       0.1645  0.6754  0.2072    -0.06366 (mod 2)
    12        Zn      20.000       0.1669  0.6719  0.7398    -0.16433 (mod 2)
    13        Zn      20.000       0.8335  0.0951  0.2067    -0.13366 (mod 2)
    14        Mg      10.000       0.8320  0.0947  0.7438     0.95694 (mod 2)
    15        Zn      20.000       0.6649  0.3833  0.2066    -0.13757 (mod 2)
    16        Mg      10.000       0.6664  0.3844  0.7429     0.94738 (mod 2)
    17        Mg      10.000       0.4992  0.6730  0.2061    -0.07423 (mod 2)
    18        Mg      10.000       0.4980  0.6715  0.7417     0.93501 (mod 2)
    19        Zn      20.000      -0.0014  0.1927  0.4758     0.89947 (mod 2)
    20        Zn      20.000       0.0011  0.1944  1.0094     0.88059 (mod 2)
    21        Zn      20.000      -0.1677  0.4815  0.4733     0.85040 (mod 2)
    22        Mg      10.000      -0.1659  0.4813  1.0119    -0.53744 (mod 2)
    23        Mg      10.000      -0.3343  0.7699  0.4743     0.43437 (mod 2)
    24        Mg      10.000      -0.3327  0.7720  1.0082    -0.57269 (mod 2)
    25        Zn      20.000       0.3338  0.1937  0.4757     0.89719 (mod 2)
    26        Zn      20.000       0.3338  0.1920  1.0104     0.89888 (mod 2)
    27        Mg      10.000       0.1672  0.4790  0.4737     0.42901 (mod 2)
    28        Mg      10.000       0.1664  0.4813  1.0087    -0.56734 (mod 2)
    29        Mg      10.000      -0.0008  0.7707  0.4776     0.46471 (mod 2)
    30        Zn      20.000       0.0002  0.7690  1.0081     0.85411 (mod 2)
    31        Zn      20.000       0.6670  0.1928  0.4744     0.87347 (mod 2)
    32        Zn      20.000       0.6654  0.1917  1.0091     0.87470 (mod 2)
    33        Zn      20.000       0.4991  0.4794  0.4739     0.86193 (mod 2)
    34        Zn      20.000       0.4999  0.4811  1.0074     0.84108 (mod 2)
    35        Zn      20.000       0.3327  0.7694  0.4733     0.85047 (mod 2)
    36        Zn      20.000       0.3317  0.7679  1.0082     0.85466 (mod 2)
    37        O        6.000       0.1666  0.0966  0.0041     0.02307 (mod 2)
    38        O        6.000       0.1665  0.0963  0.5377    -0.98263 (mod 2)
    39        O        6.000       0.0006  0.3857  0.0035     0.01904 (mod 2)
    40        O        6.000      -0.0008  0.3855  0.5377    -0.98303 (mod 2)
    41        O        6.000      -0.1674  0.6740  0.0027     0.01423 (mod 2)
    42        O        6.000      -0.1678  0.6740  0.5375    -0.98456 (mod 2)
    43        O        6.000       0.4999  0.0946  0.0044     0.02471 (mod 2)
    44        O        6.000       0.5001  0.0969  0.5390    -0.97508 (mod 2)
    45        O        6.000       0.3331  0.3850  0.0018     0.00972 (mod 2)
    46        O        6.000       0.3327  0.3848  0.5402    -0.96914 (mod 2)
    47        O        6.000       0.1657  0.6724  0.0045     0.02441 (mod 2)
    48        O        6.000       0.1657  0.6719  0.5355    -0.99585 (mod 2)
    49        O        6.000       0.8336  0.0952  0.0022     0.01208 (mod 2)
    50        O        6.000       0.8326  0.0951  0.5402    -0.96838 (mod 2)
    51        O        6.000       0.6664  0.3842  0.0026     0.01382 (mod 2)
    52        O        6.000       0.6665  0.3847  0.5394    -0.97361 (mod 2)
    53        O        6.000       0.5007  0.6736  0.0026     0.01357 (mod 2)
    54        O        6.000       0.4995  0.6729  0.5379    -0.98254 (mod 2)
    55        O        6.000      -0.0004  0.1924  0.2717    -0.47565 (mod 2)
    56        O        6.000      -0.0005  0.1924  0.8052     0.51798 (mod 2)
    57        O        6.000      -0.1672  0.4817  0.2687    -0.49309 (mod 2)
    58        O        6.000      -0.1676  0.4807  0.8084     0.53566 (mod 2)
    59        O        6.000      -0.3349  0.7697  0.2709    -0.48087 (mod 2)
    60        O        6.000      -0.3352  0.7689  0.8048     0.51519 (mod 2)
    61        O        6.000       0.3332  0.1926  0.2715    -0.47682 (mod 2)
    62        O        6.000       0.3331  0.1912  0.8066     0.52644 (mod 2)
    63        O        6.000       0.1669  0.4823  0.2703    -0.48411 (mod 2)
    64        O        6.000       0.1671  0.4799  0.8054     0.51871 (mod 2)
    65        O        6.000      -0.0007  0.7699  0.2743    -0.46194 (mod 2)
    66        O        6.000      -0.0003  0.7686  0.8037     0.50903 (mod 2)
    67        O        6.000       0.6667  0.1914  0.2708    -0.48073 (mod 2)
    68        O        6.000       0.6668  0.1924  0.8056     0.52044 (mod 2)
    69        O        6.000       0.4993  0.4808  0.2702    -0.48432 (mod 2)
    70        O        6.000       0.4995  0.4798  0.8037     0.50955 (mod 2)
    71        O        6.000       0.3327  0.7687  0.2695    -0.48902 (mod 2)
    72        O        6.000       0.3327  0.7684  0.8047     0.51448 (mod 2)
  ----------------------------------------------------------------------------
                                               IONIC PHASE:  -0.15501 (mod 2)
  ============================================================================


                            ELECTRONIC POLARIZATION
                            ~~~~~~~~~~~~~~~~~~~~~~~

        Note: (mod 1) means that the phases (angles ranging from
        -pi to pi) have been mapped to the interval [-1/2,+1/2) by
        dividing by 2*pi; (mod 2) refers to the interval [-1,+1)

  ============================================================================
   Spin    String     Weight      First k-point in string         Phase
  ----------------------------------------------------------------------------
    up        1      0.062500      0.0000  0.0000  0.0000    -0.04640 (mod 1)
    up        2      0.125000      0.0003  0.2888 -0.0001    -0.05052 (mod 1)
    up        3      0.062500     -0.0005 -0.5777  0.0002    -0.05329 (mod 1)
    up        4      0.125000      0.2501  0.1446 -0.0000    -0.05061 (mod 1)
    up        5      0.125000      0.2504  0.4335 -0.0001    -0.05337 (mod 1)
    up        6      0.125000      0.2496 -0.4330  0.0001    -0.05341 (mod 1)
    up        7      0.125000      0.2499 -0.1442  0.0000    -0.05070 (mod 1)
    up        8      0.062500     -0.5003 -0.2893  0.0001    -0.05341 (mod 1)
    up        9      0.125000     -0.5000 -0.0005 -0.0000    -0.05347 (mod 1)
    up       10      0.062500     -0.5008 -0.8669  0.0002    -0.05349 (mod 1)
  ----------------------------------------------------------------------------
   down       1      0.062500      0.0000  0.0000  0.0000    -0.04640 (mod 1)
   down       2      0.125000      0.0003  0.2888 -0.0001    -0.05052 (mod 1)
   down       3      0.062500     -0.0005 -0.5777  0.0002    -0.05329 (mod 1)
   down       4      0.125000      0.2501  0.1446 -0.0000    -0.05061 (mod 1)
   down       5      0.125000      0.2504  0.4335 -0.0001    -0.05337 (mod 1)
   down       6      0.125000      0.2496 -0.4330  0.0001    -0.05341 (mod 1)
   down       7      0.125000      0.2499 -0.1442  0.0000    -0.05070 (mod 1)
   down       8      0.062500     -0.5003 -0.2893  0.0001    -0.05341 (mod 1)
   down       9      0.125000     -0.5000 -0.0005 -0.0000    -0.05347 (mod 1)
   down      10      0.062500     -0.5008 -0.8669  0.0002    -0.05349 (mod 1)
  ----------------------------------------------------------------------------
                                        Average phase (up):  -0.05192 (mod 1)
                                      Average phase (down):  -0.05192 (mod 1)
                                          ELECTRONIC PHASE:  -0.10384 (mod 2)
  ============================================================================


                               SUMMARY OF PHASES
                               ~~~~~~~~~~~~~~~~~

                          Ionic Phase: -0.15501 (mod 2)
                     Electronic Phase: -0.10384 (mod 2)
                          TOTAL PHASE: -0.25885 (mod 2)


                             VALUES OF POLARIZATION
                             ~~~~~~~~~~~~~~~~~~~~~~

        The calculation of phases done along the direction of vector 3
        of the reciprocal lattice gives the following contribution to
        the polarization vector (in different units, and being Omega
        the volume of the unit cell):

           P =  -5.0986853  (mod  39.3946057)  (e/Omega).bohr

           P =  -0.0008811  (mod   0.0068081)  e/bohr^2

           P =  -0.0503767  (mod   0.3892318)  C/m^2

        The polarization direction is:  (-0.00003 , 0.00028 , 1.00000 )


               ==================================================



     Writing output data file ZnO.save/
 
     init_run     :      2.35s CPU      5.48s WALL (       1 calls)
     electrons    :   1546.28s CPU   1578.54s WALL (       1 calls)

     Called by init_run:
     wfcinit      :      0.00s CPU      0.00s WALL (       1 calls)
     wfcinit:atom :      0.13s CPU      0.16s WALL (      80 calls)
     wfcinit:wfcr :     68.16s CPU     69.73s WALL (      80 calls)
     potinit      :      0.20s CPU      0.25s WALL (       1 calls)
     hinit0       :      1.38s CPU      4.23s WALL (       1 calls)

     Called by electrons:
     c_bands      :   1061.71s CPU   1091.29s WALL (       1 calls)
     v_of_rho     :      0.15s CPU      0.17s WALL (       1 calls)
     v_h          :      0.01s CPU      0.01s WALL (       1 calls)
     v_xc         :      0.14s CPU      0.15s WALL (       1 calls)
     newd         :      0.09s CPU      0.14s WALL (       1 calls)

     Called by c_bands:
     init_us_2    :      0.71s CPU      0.72s WALL (     220 calls)
     cegterg      :    990.82s CPU   1018.58s WALL (      80 calls)

     Called by sum_band:

     Called by *egterg:
     h_psi        :    432.63s CPU    443.19s WALL (    1148 calls)
     s_psi        :     41.32s CPU     41.45s WALL (    1148 calls)
     g_psi        :      0.31s CPU      0.31s WALL (     988 calls)
     cdiaghg      :    303.54s CPU    309.99s WALL (    1068 calls)
     cegterg:over :     79.84s CPU     91.05s WALL (     988 calls)
     cegterg:upda :     95.39s CPU     95.77s WALL (     988 calls)
     cegterg:last :     89.48s CPU     89.86s WALL (     320 calls)
     cdiaghg:chol :     17.13s CPU     17.45s WALL (    1068 calls)
     cdiaghg:inve :     13.45s CPU     13.51s WALL (    1068 calls)
     cdiaghg:para :     48.44s CPU     52.38s WALL (    2136 calls)

     Called by h_psi:
     h_psi:pot    :    431.59s CPU    442.12s WALL (    1148 calls)
     h_psi:calbec :     57.68s CPU     65.02s WALL (    1148 calls)
     vloc_psi     :    332.06s CPU    334.99s WALL (    1148 calls)
     add_vuspsi   :     41.83s CPU     42.09s WALL (    1148 calls)

     General routines
     calbec       :     68.31s CPU     76.77s WALL (    1288 calls)
     fft          :      1.31s CPU      4.08s WALL (      13 calls)
     ffts         :      0.01s CPU      0.01s WALL (       1 calls)
     fftw         :    328.10s CPU    330.99s WALL (  744456 calls)
     interpolate  :      0.02s CPU      0.02s WALL (       1 calls)
 
     Parallel routines
     fft_scatt_xy :     10.23s CPU     10.30s WALL (  744470 calls)
     fft_scatt_yz :    277.94s CPU    283.19s WALL (  744470 calls)
 
     PWSCF        :  26m57.02s CPU  27m51.03s WALL

 
   This run was terminated on:   2:38:29  15Jul2022            

=------------------------------------------------------------------------------=
   JOB DONE.
=------------------------------------------------------------------------------=
