
     Program PWSCF v.6.4.1 starts on 16Jun2022 at 16:24:39 

     This program is part of the open-source Quantum ESPRESSO suite
     for quantum simulation of materials; please cite
         "P. Giannozzi et al., J. Phys.:Condens. Matter 21 395502 (2009);
         "P. Giannozzi et al., J. Phys.:Condens. Matter 29 465901 (2017);
          URL http://www.quantum-espresso.org", 
     in publications or presentations arising from this work. More details at
     http://www.quantum-espresso.org/quote

     Parallel version (MPI), running on    64 processors

     MPI processes distributed on     1 nodes
     K-points division:     npool     =       4
     R & G space division:  proc/nbgrp/npool/nimage =      16
     Waiting for input...
     Reading input from standard input
Warning: card &IONS ignored
Warning: card   UPSCALE           = 100.D0, ignored
Warning: card / ignored
Warning: card &CELL ignored
Warning: card   CELL_DYNAMICS     = 'BFGS' ignored
Warning: card   PRESS_CONV_THR    = 0.5D0 ignored
Warning: card   CELL_DOFREE = 'ALL' ignored
Warning: card / ignored

     Current dimensions of program PWSCF are:
     Max number of different atomic species (ntypx) = 10
     Max number of k-points (npk) =  40000
     Max angular momentum in pseudopotentials (lmaxx) =  3

     Subspace diagonalization in iterative solution of the eigenvalue problem:
     one sub-group per band group will be used
     scalapack distributed-memory algorithm (size of sub-group:  2*  2 procs)

 
     Parallelization info
     --------------------
     sticks:   dense  smooth     PW     G-vecs:    dense   smooth      PW
     Min          98      52     15                 4988     1944     335
     Max          99      53     16                 4991     1949     344
     Sum        1573     847    253                79829    31165    5455
 


     bravais-lattice index     =            0
     lattice parameter (alat)  =       6.1682  a.u.
     unit-cell volume          =     321.9264 (a.u.)^3
     number of atoms/cell      =            4
     number of atomic types    =            2
     number of electrons       =        32.00
     number of Kohn-Sham states=           16
     kinetic-energy cutoff     =      80.0000  Ry
     charge density cutoff     =     600.0000  Ry
     convergence threshold     =      1.0E-06
     mixing beta               =       0.5000
     number of iterations used =            8  plain     mixing
     Exchange-correlation      = SLA  PW   PSX  PSC ( 1  4 10  8 0 0)
     Using LIBXC version       =    4   3   4

     celldm(1)=   6.168173  celldm(2)=   0.000000  celldm(3)=   0.000000
     celldm(4)=   0.000000  celldm(5)=   0.000000  celldm(6)=   0.000000

     crystal axes: (cart. coord. in units of alat)
               a(1) = (   1.000000   0.000000  -0.000000 )  
               a(2) = (  -0.500000   0.866026  -0.000000 )  
               a(3) = (  -0.000000  -0.000000   1.584004 )  

     reciprocal axes: (cart. coord. in units 2 pi/alat)
               b(1) = (  1.000000  0.577350  0.000000 )  
               b(2) = ( -0.000000  1.154700  0.000000 )  
               b(3) = (  0.000000  0.000000  0.631312 )  


     PseudoPot. # 1 for Mg read from file:
     ./GBRV_PBEsol/mg_pbesol_v1.4.uspp.F.UPF
     MD5 check sum: 4059f37963cf5867752dbf5ab2400678
     Pseudo is Ultrasoft, Zval = 10.0
     Generated by new atomic code, or converted to UPF format
     Using radial grid of  821 points,  7 beta functions with: 
                l(1) =   0
                l(2) =   0
                l(3) =   0
                l(4) =   1
                l(5) =   1
                l(6) =   2
                l(7) =   2
     Q(r) pseudized with  8 coefficients,  rinner =    1.200   1.200   1.200
                                                       1.200   1.200

     PseudoPot. # 2 for O  read from file:
     ./GBRV_PBEsol/o_pbesol_v1.2.uspp.F.UPF
     MD5 check sum: 501638753501ef6325af9037351f7734
     Pseudo is Ultrasoft + core correction, Zval =  6.0
     Generated by new atomic code, or converted to UPF format
     Using radial grid of  737 points,  5 beta functions with: 
                l(1) =   0
                l(2) =   0
                l(3) =   1
                l(4) =   1
                l(5) =   2
     Q(r) pseudized with  8 coefficients,  rinner =    0.900   0.900   0.900
                                                       0.900   0.900

     atomic species   valence    mass     pseudopotential
        Mg            10.00    24.30500     Mg( 1.00)
        O              6.00    15.99900     O ( 1.00)

     No symmetry found


                                    s                        frac. trans.

      isym =  1     identity                                     

 cryst.   s( 1) = (     1          0          0      )
                  (     0          1          0      )
                  (     0          0          1      )

 cart.    s( 1) = (  1.0000000 -0.0000000  0.0000000 )
                  ( -0.0000000  1.0000000 -0.0000000 )
                  (  0.0000000 -0.0000000  1.0000000 )


   Cartesian axes

     site n.     atom                  positions (alat units)
         1           O   tau(   1) = (   0.5000002   0.2886756   0.0116358  )
         2           O   tau(   2) = (   0.0000001   0.5773494   0.8036376  )
         3           Mg  tau(   3) = (   0.5000000   0.2886748   0.9921472  )
         4           Mg  tau(   4) = (  -0.0000002   0.5773511   1.7841491  )

   Crystallographic axes

     site n.     atom                  positions (cryst. coord.)
         1           O   tau(   1) = (  0.6666670  0.3333337  0.0073459  )
         2           O   tau(   2) = (  0.3333329  0.6666657  0.5073458  )
         3           Mg  tau(   3) = (  0.6666664  0.3333329  0.6263540  )
         4           Mg  tau(   4) = (  0.3333336  0.6666677  1.1263539  )

     number of k points=   260
                       cart. coord. in units 2pi/alat
        k(    1) = (   0.0000000   0.0000000   0.0000000), wk =   0.0039062
        k(    2) = (   0.0000000   0.0000000   0.0789139), wk =   0.0078125
        k(    3) = (   0.0000000   0.0000000   0.1578279), wk =   0.0078125
        k(    4) = (   0.0000000   0.0000000   0.2367418), wk =   0.0078125
        k(    5) = (  -0.0000000  -0.0000000  -0.3156558), wk =   0.0039062
        k(    6) = (  -0.0000000   0.1443375   0.0000000), wk =   0.0078125
        k(    7) = (  -0.0000000   0.1443375   0.0789140), wk =   0.0078125
        k(    8) = (  -0.0000000   0.1443376   0.1578279), wk =   0.0078125
        k(    9) = (  -0.0000000   0.1443376   0.2367418), wk =   0.0078125
        k(   10) = (  -0.0000000   0.1443375  -0.3156557), wk =   0.0078125
        k(   11) = (  -0.0000000   0.1443375  -0.2367418), wk =   0.0078125
        k(   12) = (  -0.0000000   0.1443375  -0.1578279), wk =   0.0078125
        k(   13) = (  -0.0000000   0.1443375  -0.0789139), wk =   0.0078125
        k(   14) = (  -0.0000000   0.2886751   0.0000000), wk =   0.0078125
        k(   15) = (  -0.0000000   0.2886751   0.0789140), wk =   0.0078125
        k(   16) = (  -0.0000000   0.2886751   0.1578279), wk =   0.0078125
        k(   17) = (  -0.0000000   0.2886751   0.2367419), wk =   0.0078125
        k(   18) = (  -0.0000001   0.2886750  -0.3156557), wk =   0.0078125
        k(   19) = (  -0.0000000   0.2886750  -0.2367418), wk =   0.0078125
        k(   20) = (  -0.0000000   0.2886750  -0.1578278), wk =   0.0078125
        k(   21) = (  -0.0000000   0.2886751  -0.0789139), wk =   0.0078125
        k(   22) = (  -0.0000001   0.4330126   0.0000001), wk =   0.0078125
        k(   23) = (  -0.0000001   0.4330126   0.0789140), wk =   0.0078125
        k(   24) = (  -0.0000000   0.4330126   0.1578279), wk =   0.0078125
        k(   25) = (  -0.0000000   0.4330126   0.2367419), wk =   0.0078125
        k(   26) = (  -0.0000001   0.4330126  -0.3156557), wk =   0.0078125
        k(   27) = (  -0.0000001   0.4330126  -0.2367418), wk =   0.0078125
        k(   28) = (  -0.0000001   0.4330126  -0.1578278), wk =   0.0078125
        k(   29) = (  -0.0000001   0.4330126  -0.0789139), wk =   0.0078125
        k(   30) = (   0.0000001  -0.5773501  -0.0000001), wk =   0.0039062
        k(   31) = (   0.0000001  -0.5773501   0.0789139), wk =   0.0078125
        k(   32) = (   0.0000001  -0.5773501   0.1578278), wk =   0.0078125
        k(   33) = (   0.0000001  -0.5773501   0.2367418), wk =   0.0078125
        k(   34) = (   0.0000001  -0.5773502  -0.3156558), wk =   0.0039062
        k(   35) = (   0.1250000   0.0721688   0.0000000), wk =   0.0078125
        k(   36) = (   0.1250000   0.0721688   0.0789140), wk =   0.0078125
        k(   37) = (   0.1250000   0.0721688   0.1578279), wk =   0.0078125
        k(   38) = (   0.1250000   0.0721688   0.2367418), wk =   0.0078125
        k(   39) = (   0.1250000   0.0721687  -0.3156558), wk =   0.0078125
        k(   40) = (   0.1250000   0.0721687  -0.2367418), wk =   0.0078125
        k(   41) = (   0.1250000   0.0721687  -0.1578279), wk =   0.0078125
        k(   42) = (   0.1250000   0.0721687  -0.0789139), wk =   0.0078125
        k(   43) = (   0.1250000   0.2165063   0.0000000), wk =   0.0078125
        k(   44) = (   0.1250000   0.2165063   0.0789140), wk =   0.0078125
        k(   45) = (   0.1250000   0.2165063   0.1578279), wk =   0.0078125
        k(   46) = (   0.1250000   0.2165063   0.2367419), wk =   0.0078125
        k(   47) = (   0.1250000   0.2165062  -0.3156557), wk =   0.0078125
        k(   48) = (   0.1250000   0.2165063  -0.2367418), wk =   0.0078125
        k(   49) = (   0.1250000   0.2165063  -0.1578279), wk =   0.0078125
        k(   50) = (   0.1250000   0.2165063  -0.0789139), wk =   0.0078125
        k(   51) = (   0.1250000   0.3608438   0.0000001), wk =   0.0078125
        k(   52) = (   0.1250000   0.3608438   0.0789140), wk =   0.0078125
        k(   53) = (   0.1250000   0.3608438   0.1578279), wk =   0.0078125
        k(   54) = (   0.1250000   0.3608439   0.2367419), wk =   0.0078125
        k(   55) = (   0.1249999   0.3608438  -0.3156557), wk =   0.0078125
        k(   56) = (   0.1249999   0.3608438  -0.2367418), wk =   0.0078125
        k(   57) = (   0.1249999   0.3608438  -0.1578278), wk =   0.0078125
        k(   58) = (   0.1249999   0.3608438  -0.0789139), wk =   0.0078125
        k(   59) = (   0.1249999   0.5051814   0.0000001), wk =   0.0078125
        k(   60) = (   0.1249999   0.5051814   0.0789140), wk =   0.0078125
        k(   61) = (   0.1249999   0.5051814   0.1578280), wk =   0.0078125
        k(   62) = (   0.1249999   0.5051814   0.2367419), wk =   0.0078125
        k(   63) = (   0.1249999   0.5051813  -0.3156557), wk =   0.0078125
        k(   64) = (   0.1249999   0.5051813  -0.2367418), wk =   0.0078125
        k(   65) = (   0.1249999   0.5051813  -0.1578278), wk =   0.0078125
        k(   66) = (   0.1249999   0.5051813  -0.0789139), wk =   0.0078125
        k(   67) = (   0.1250001  -0.5051814  -0.0000001), wk =   0.0078125
        k(   68) = (   0.1250001  -0.5051814   0.0789139), wk =   0.0078125
        k(   69) = (   0.1250001  -0.5051814   0.1578278), wk =   0.0078125
        k(   70) = (   0.1250001  -0.5051814   0.2367418), wk =   0.0078125
        k(   71) = (   0.1250000  -0.5051814  -0.3156558), wk =   0.0078125
        k(   72) = (   0.1250001  -0.5051814  -0.2367419), wk =   0.0078125
        k(   73) = (   0.1250001  -0.5051814  -0.1578279), wk =   0.0078125
        k(   74) = (   0.1250001  -0.5051814  -0.0789140), wk =   0.0078125
        k(   75) = (   0.1250000  -0.3608439  -0.0000000), wk =   0.0078125
        k(   76) = (   0.1250001  -0.3608438   0.0789139), wk =   0.0078125
        k(   77) = (   0.1250001  -0.3608438   0.1578278), wk =   0.0078125
        k(   78) = (   0.1250001  -0.3608438   0.2367418), wk =   0.0078125
        k(   79) = (   0.1250000  -0.3608439  -0.3156558), wk =   0.0078125
        k(   80) = (   0.1250000  -0.3608439  -0.2367419), wk =   0.0078125
        k(   81) = (   0.1250000  -0.3608439  -0.1578279), wk =   0.0078125
        k(   82) = (   0.1250000  -0.3608439  -0.0789140), wk =   0.0078125
        k(   83) = (   0.1250000  -0.2165063  -0.0000000), wk =   0.0078125
        k(   84) = (   0.1250000  -0.2165063   0.0789139), wk =   0.0078125
        k(   85) = (   0.1250000  -0.2165063   0.1578279), wk =   0.0078125
        k(   86) = (   0.1250000  -0.2165063   0.2367418), wk =   0.0078125
        k(   87) = (   0.1250000  -0.2165064  -0.3156558), wk =   0.0078125
        k(   88) = (   0.1250000  -0.2165064  -0.2367418), wk =   0.0078125
        k(   89) = (   0.1250000  -0.2165063  -0.1578279), wk =   0.0078125
        k(   90) = (   0.1250000  -0.2165063  -0.0789140), wk =   0.0078125
        k(   91) = (   0.1250000  -0.0721688  -0.0000000), wk =   0.0078125
        k(   92) = (   0.1250000  -0.0721688   0.0789139), wk =   0.0078125
        k(   93) = (   0.1250000  -0.0721688   0.1578279), wk =   0.0078125
        k(   94) = (   0.1250000  -0.0721688   0.2367418), wk =   0.0078125
        k(   95) = (   0.1250000  -0.0721688  -0.3156558), wk =   0.0078125
        k(   96) = (   0.1250000  -0.0721688  -0.2367418), wk =   0.0078125
        k(   97) = (   0.1250000  -0.0721688  -0.1578279), wk =   0.0078125
        k(   98) = (   0.1250000  -0.0721688  -0.0789139), wk =   0.0078125
        k(   99) = (   0.2500000   0.1443375   0.0000000), wk =   0.0078125
        k(  100) = (   0.2500000   0.1443375   0.0789140), wk =   0.0078125
        k(  101) = (   0.2500000   0.1443375   0.1578279), wk =   0.0078125
        k(  102) = (   0.2500000   0.1443375   0.2367419), wk =   0.0078125
        k(  103) = (   0.2500000   0.1443375  -0.3156557), wk =   0.0078125
        k(  104) = (   0.2500000   0.1443375  -0.2367418), wk =   0.0078125
        k(  105) = (   0.2500000   0.1443375  -0.1578279), wk =   0.0078125
        k(  106) = (   0.2500000   0.1443375  -0.0789139), wk =   0.0078125
        k(  107) = (   0.2500000   0.2886750   0.0000000), wk =   0.0078125
        k(  108) = (   0.2500000   0.2886751   0.0789140), wk =   0.0078125
        k(  109) = (   0.2500000   0.2886751   0.1578279), wk =   0.0078125
        k(  110) = (   0.2500000   0.2886751   0.2367419), wk =   0.0078125
        k(  111) = (   0.2499999   0.2886750  -0.3156557), wk =   0.0078125
        k(  112) = (   0.2500000   0.2886750  -0.2367418), wk =   0.0078125
        k(  113) = (   0.2500000   0.2886750  -0.1578278), wk =   0.0078125
        k(  114) = (   0.2500000   0.2886750  -0.0789139), wk =   0.0078125
        k(  115) = (   0.2499999   0.4330126   0.0000001), wk =   0.0078125
        k(  116) = (   0.2499999   0.4330126   0.0789140), wk =   0.0078125
        k(  117) = (   0.2500000   0.4330126   0.1578280), wk =   0.0078125
        k(  118) = (   0.2500000   0.4330126   0.2367419), wk =   0.0078125
        k(  119) = (   0.2499999   0.4330125  -0.3156557), wk =   0.0078125
        k(  120) = (   0.2499999   0.4330125  -0.2367418), wk =   0.0078125
        k(  121) = (   0.2499999   0.4330126  -0.1578278), wk =   0.0078125
        k(  122) = (   0.2499999   0.4330126  -0.0789139), wk =   0.0078125
        k(  123) = (   0.2499999   0.5773501   0.0000001), wk =   0.0078125
        k(  124) = (   0.2499999   0.5773501   0.0789140), wk =   0.0078125
        k(  125) = (   0.2499999   0.5773501   0.1578280), wk =   0.0078125
        k(  126) = (   0.2499999   0.5773501   0.2367419), wk =   0.0078125
        k(  127) = (   0.2499999   0.5773501  -0.3156557), wk =   0.0078125
        k(  128) = (   0.2499999   0.5773501  -0.2367417), wk =   0.0078125
        k(  129) = (   0.2499999   0.5773501  -0.1578278), wk =   0.0078125
        k(  130) = (   0.2499999   0.5773501  -0.0789139), wk =   0.0078125
        k(  131) = (   0.2500001  -0.4330126  -0.0000000), wk =   0.0078125
        k(  132) = (   0.2500001  -0.4330126   0.0789139), wk =   0.0078125
        k(  133) = (   0.2500001  -0.4330126   0.1578278), wk =   0.0078125
        k(  134) = (   0.2500001  -0.4330126   0.2367418), wk =   0.0078125
        k(  135) = (   0.2500000  -0.4330127  -0.3156558), wk =   0.0078125
        k(  136) = (   0.2500000  -0.4330127  -0.2367419), wk =   0.0078125
        k(  137) = (   0.2500000  -0.4330127  -0.1578279), wk =   0.0078125
        k(  138) = (   0.2500001  -0.4330127  -0.0789140), wk =   0.0078125
        k(  139) = (   0.2500000  -0.2886751  -0.0000000), wk =   0.0078125
        k(  140) = (   0.2500000  -0.2886751   0.0789139), wk =   0.0078125
        k(  141) = (   0.2500000  -0.2886751   0.1578279), wk =   0.0078125
        k(  142) = (   0.2500000  -0.2886751   0.2367418), wk =   0.0078125
        k(  143) = (   0.2500000  -0.2886751  -0.3156558), wk =   0.0078125
        k(  144) = (   0.2500000  -0.2886751  -0.2367419), wk =   0.0078125
        k(  145) = (   0.2500000  -0.2886751  -0.1578279), wk =   0.0078125
        k(  146) = (   0.2500000  -0.2886751  -0.0789140), wk =   0.0078125
        k(  147) = (   0.2500000  -0.1443376  -0.0000000), wk =   0.0078125
        k(  148) = (   0.2500000  -0.1443376   0.0789139), wk =   0.0078125
        k(  149) = (   0.2500000  -0.1443375   0.1578279), wk =   0.0078125
        k(  150) = (   0.2500000  -0.1443375   0.2367418), wk =   0.0078125
        k(  151) = (   0.2500000  -0.1443376  -0.3156558), wk =   0.0078125
        k(  152) = (   0.2500000  -0.1443376  -0.2367418), wk =   0.0078125
        k(  153) = (   0.2500000  -0.1443376  -0.1578279), wk =   0.0078125
        k(  154) = (   0.2500000  -0.1443376  -0.0789139), wk =   0.0078125
        k(  155) = (   0.2500000  -0.0000000   0.0000000), wk =   0.0078125
        k(  156) = (   0.2500000  -0.0000000   0.0789140), wk =   0.0078125
        k(  157) = (   0.2500000  -0.0000000   0.1578279), wk =   0.0078125
        k(  158) = (   0.2500000   0.0000000   0.2367418), wk =   0.0078125
        k(  159) = (   0.2500000  -0.0000001  -0.3156558), wk =   0.0078125
        k(  160) = (   0.2500000  -0.0000001  -0.2367418), wk =   0.0078125
        k(  161) = (   0.2500000  -0.0000001  -0.1578279), wk =   0.0078125
        k(  162) = (   0.2500000  -0.0000000  -0.0789139), wk =   0.0078125
        k(  163) = (   0.3750000   0.2165063   0.0000000), wk =   0.0078125
        k(  164) = (   0.3750000   0.2165063   0.0789140), wk =   0.0078125
        k(  165) = (   0.3750000   0.2165063   0.1578279), wk =   0.0078125
        k(  166) = (   0.3750000   0.2165063   0.2367419), wk =   0.0078125
        k(  167) = (   0.3750000   0.2165062  -0.3156557), wk =   0.0078125
        k(  168) = (   0.3750000   0.2165062  -0.2367418), wk =   0.0078125
        k(  169) = (   0.3750000   0.2165062  -0.1578278), wk =   0.0078125
        k(  170) = (   0.3750000   0.2165062  -0.0789139), wk =   0.0078125
        k(  171) = (   0.3750000   0.3608438   0.0000001), wk =   0.0078125
        k(  172) = (   0.3750000   0.3608438   0.0789140), wk =   0.0078125
        k(  173) = (   0.3750000   0.3608438   0.1578279), wk =   0.0078125
        k(  174) = (   0.3750000   0.3608438   0.2367419), wk =   0.0078125
        k(  175) = (   0.3749999   0.3608437  -0.3156557), wk =   0.0078125
        k(  176) = (   0.3749999   0.3608438  -0.2367418), wk =   0.0078125
        k(  177) = (   0.3749999   0.3608438  -0.1578278), wk =   0.0078125
        k(  178) = (   0.3749999   0.3608438  -0.0789139), wk =   0.0078125
        k(  179) = (   0.3749999   0.5051813   0.0000001), wk =   0.0078125
        k(  180) = (   0.3749999   0.5051813   0.0789140), wk =   0.0078125
        k(  181) = (   0.3749999   0.5051813   0.1578280), wk =   0.0078125
        k(  182) = (   0.3749999   0.5051814   0.2367419), wk =   0.0078125
        k(  183) = (   0.3749999   0.5051813  -0.3156557), wk =   0.0078125
        k(  184) = (   0.3749999   0.5051813  -0.2367417), wk =   0.0078125
        k(  185) = (   0.3749999   0.5051813  -0.1578278), wk =   0.0078125
        k(  186) = (   0.3749999   0.5051813  -0.0789139), wk =   0.0078125
        k(  187) = (   0.3749999   0.6495189   0.0000001), wk =   0.0078125
        k(  188) = (   0.3749999   0.6495189   0.0789140), wk =   0.0078125
        k(  189) = (   0.3749999   0.6495189   0.1578280), wk =   0.0078125
        k(  190) = (   0.3749999   0.6495189   0.2367419), wk =   0.0078125
        k(  191) = (   0.3749999   0.6495188  -0.3156557), wk =   0.0078125
        k(  192) = (   0.3749999   0.6495188  -0.2367417), wk =   0.0078125
        k(  193) = (   0.3749999   0.6495188  -0.1578278), wk =   0.0078125
        k(  194) = (   0.3749999   0.6495189  -0.0789138), wk =   0.0078125
        k(  195) = (   0.3750000  -0.3608439  -0.0000000), wk =   0.0078125
        k(  196) = (   0.3750001  -0.3608439   0.0789139), wk =   0.0078125
        k(  197) = (   0.3750001  -0.3608439   0.1578279), wk =   0.0078125
        k(  198) = (   0.3750001  -0.3608439   0.2367418), wk =   0.0078125
        k(  199) = (   0.3750000  -0.3608439  -0.3156558), wk =   0.0078125
        k(  200) = (   0.3750000  -0.3608439  -0.2367419), wk =   0.0078125
        k(  201) = (   0.3750000  -0.3608439  -0.1578279), wk =   0.0078125
        k(  202) = (   0.3750000  -0.3608439  -0.0789140), wk =   0.0078125
        k(  203) = (   0.3750000  -0.2165064  -0.0000000), wk =   0.0078125
        k(  204) = (   0.3750000  -0.2165063   0.0789139), wk =   0.0078125
        k(  205) = (   0.3750000  -0.2165063   0.1578279), wk =   0.0078125
        k(  206) = (   0.3750000  -0.2165063   0.2367418), wk =   0.0078125
        k(  207) = (   0.3750000  -0.2165064  -0.3156558), wk =   0.0078125
        k(  208) = (   0.3750000  -0.2165064  -0.2367418), wk =   0.0078125
        k(  209) = (   0.3750000  -0.2165064  -0.1578279), wk =   0.0078125
        k(  210) = (   0.3750000  -0.2165064  -0.0789140), wk =   0.0078125
        k(  211) = (   0.3750000  -0.0721688   0.0000000), wk =   0.0078125
        k(  212) = (   0.3750000  -0.0721688   0.0789140), wk =   0.0078125
        k(  213) = (   0.3750000  -0.0721688   0.1578279), wk =   0.0078125
        k(  214) = (   0.3750000  -0.0721688   0.2367418), wk =   0.0078125
        k(  215) = (   0.3750000  -0.0721689  -0.3156558), wk =   0.0078125
        k(  216) = (   0.3750000  -0.0721688  -0.2367418), wk =   0.0078125
        k(  217) = (   0.3750000  -0.0721688  -0.1578279), wk =   0.0078125
        k(  218) = (   0.3750000  -0.0721688  -0.0789139), wk =   0.0078125
        k(  219) = (   0.3750000   0.0721687   0.0000000), wk =   0.0078125
        k(  220) = (   0.3750000   0.0721687   0.0789140), wk =   0.0078125
        k(  221) = (   0.3750000   0.0721687   0.1578279), wk =   0.0078125
        k(  222) = (   0.3750000   0.0721688   0.2367419), wk =   0.0078125
        k(  223) = (   0.3750000   0.0721687  -0.3156557), wk =   0.0078125
        k(  224) = (   0.3750000   0.0721687  -0.2367418), wk =   0.0078125
        k(  225) = (   0.3750000   0.0721687  -0.1578279), wk =   0.0078125
        k(  226) = (   0.3750000   0.0721687  -0.0789139), wk =   0.0078125
        k(  227) = (  -0.5000000  -0.2886750  -0.0000001), wk =   0.0039062
        k(  228) = (  -0.5000000  -0.2886750   0.0789139), wk =   0.0078125
        k(  229) = (  -0.5000000  -0.2886750   0.1578278), wk =   0.0078125
        k(  230) = (  -0.5000000  -0.2886750   0.2367418), wk =   0.0078125
        k(  231) = (  -0.5000000  -0.2886751  -0.3156558), wk =   0.0039062
        k(  232) = (  -0.5000000  -0.1443375  -0.0000000), wk =   0.0078125
        k(  233) = (  -0.5000000  -0.1443375   0.0789139), wk =   0.0078125
        k(  234) = (  -0.5000000  -0.1443374   0.1578278), wk =   0.0078125
        k(  235) = (  -0.5000000  -0.1443374   0.2367418), wk =   0.0078125
        k(  236) = (  -0.5000000  -0.1443375  -0.3156558), wk =   0.0078125
        k(  237) = (  -0.5000000  -0.1443375  -0.2367419), wk =   0.0078125
        k(  238) = (  -0.5000000  -0.1443375  -0.1578279), wk =   0.0078125
        k(  239) = (  -0.5000000  -0.1443375  -0.0789140), wk =   0.0078125
        k(  240) = (  -0.5000000   0.0000001  -0.0000000), wk =   0.0078125
        k(  241) = (  -0.5000000   0.0000001   0.0789139), wk =   0.0078125
        k(  242) = (  -0.5000000   0.0000001   0.1578279), wk =   0.0078125
        k(  243) = (  -0.5000000   0.0000001   0.2367418), wk =   0.0078125
        k(  244) = (  -0.5000000   0.0000000  -0.3156558), wk =   0.0078125
        k(  245) = (  -0.5000000   0.0000000  -0.2367418), wk =   0.0078125
        k(  246) = (  -0.5000000   0.0000000  -0.1578279), wk =   0.0078125
        k(  247) = (  -0.5000000   0.0000001  -0.0789140), wk =   0.0078125
        k(  248) = (  -0.5000000   0.1443376  -0.0000000), wk =   0.0078125
        k(  249) = (  -0.5000000   0.1443376   0.0789139), wk =   0.0078125
        k(  250) = (  -0.5000000   0.1443376   0.1578279), wk =   0.0078125
        k(  251) = (  -0.5000000   0.1443376   0.2367418), wk =   0.0078125
        k(  252) = (  -0.5000000   0.1443376  -0.3156558), wk =   0.0078125
        k(  253) = (  -0.5000000   0.1443376  -0.2367418), wk =   0.0078125
        k(  254) = (  -0.5000000   0.1443376  -0.1578279), wk =   0.0078125
        k(  255) = (  -0.5000000   0.1443376  -0.0789139), wk =   0.0078125
        k(  256) = (  -0.4999999  -0.8660252  -0.0000001), wk =   0.0039062
        k(  257) = (  -0.4999999  -0.8660251   0.0789138), wk =   0.0078125
        k(  258) = (  -0.4999999  -0.8660251   0.1578278), wk =   0.0078125
        k(  259) = (  -0.4999999  -0.8660251   0.2367417), wk =   0.0078125
        k(  260) = (  -0.4999999  -0.8660252  -0.3156559), wk =   0.0039062

                       cryst. coord.
        k(    1) = (   0.0000000   0.0000000   0.0000000), wk =   0.0039062
        k(    2) = (   0.0000000  -0.0000000   0.1250000), wk =   0.0078125
        k(    3) = (   0.0000000  -0.0000000   0.2500000), wk =   0.0078125
        k(    4) = (   0.0000000   0.0000000   0.3750000), wk =   0.0078125
        k(    5) = (  -0.0000000   0.0000000  -0.5000000), wk =   0.0039062
        k(    6) = (   0.0000000   0.1250000  -0.0000000), wk =   0.0078125
        k(    7) = (   0.0000000   0.1250000   0.1250000), wk =   0.0078125
        k(    8) = (   0.0000000   0.1250000   0.2500000), wk =   0.0078125
        k(    9) = (   0.0000000   0.1250000   0.3750000), wk =   0.0078125
        k(   10) = (  -0.0000000   0.1250000  -0.5000000), wk =   0.0078125
        k(   11) = (  -0.0000000   0.1250000  -0.3750000), wk =   0.0078125
        k(   12) = (  -0.0000000   0.1250000  -0.2500000), wk =   0.0078125
        k(   13) = (   0.0000000   0.1250000  -0.1250000), wk =   0.0078125
        k(   14) = (   0.0000000   0.2500000  -0.0000000), wk =   0.0078125
        k(   15) = (   0.0000000   0.2500000   0.1250000), wk =   0.0078125
        k(   16) = (   0.0000000   0.2500000   0.2500000), wk =   0.0078125
        k(   17) = (   0.0000000   0.2500000   0.3750000), wk =   0.0078125
        k(   18) = (  -0.0000000   0.2500000  -0.5000000), wk =   0.0078125
        k(   19) = (  -0.0000000   0.2500000  -0.3750000), wk =   0.0078125
        k(   20) = (   0.0000000   0.2500000  -0.2500000), wk =   0.0078125
        k(   21) = (   0.0000000   0.2500000  -0.1250000), wk =   0.0078125
        k(   22) = (   0.0000000   0.3750000  -0.0000000), wk =   0.0078125
        k(   23) = (   0.0000000   0.3750000   0.1250000), wk =   0.0078125
        k(   24) = (   0.0000000   0.3750000   0.2500000), wk =   0.0078125
        k(   25) = (   0.0000000   0.3750000   0.3750000), wk =   0.0078125
        k(   26) = (   0.0000000   0.3750000  -0.5000000), wk =   0.0078125
        k(   27) = (   0.0000000   0.3750000  -0.3750000), wk =   0.0078125
        k(   28) = (   0.0000000   0.3750000  -0.2500000), wk =   0.0078125
        k(   29) = (   0.0000000   0.3750000  -0.1250000), wk =   0.0078125
        k(   30) = (  -0.0000000  -0.5000000   0.0000000), wk =   0.0039062
        k(   31) = (  -0.0000000  -0.5000000   0.1250000), wk =   0.0078125
        k(   32) = (  -0.0000000  -0.5000000   0.2500000), wk =   0.0078125
        k(   33) = (  -0.0000000  -0.5000000   0.3750000), wk =   0.0078125
        k(   34) = (  -0.0000000  -0.5000000  -0.5000000), wk =   0.0039062
        k(   35) = (   0.1250000   0.0000000   0.0000000), wk =   0.0078125
        k(   36) = (   0.1250000   0.0000000   0.1250000), wk =   0.0078125
        k(   37) = (   0.1250000  -0.0000000   0.2500000), wk =   0.0078125
        k(   38) = (   0.1250000  -0.0000000   0.3750000), wk =   0.0078125
        k(   39) = (   0.1250000   0.0000000  -0.5000000), wk =   0.0078125
        k(   40) = (   0.1250000   0.0000000  -0.3750000), wk =   0.0078125
        k(   41) = (   0.1250000   0.0000000  -0.2500000), wk =   0.0078125
        k(   42) = (   0.1250000   0.0000000  -0.1250000), wk =   0.0078125
        k(   43) = (   0.1250000   0.1250000   0.0000000), wk =   0.0078125
        k(   44) = (   0.1250000   0.1250000   0.1250000), wk =   0.0078125
        k(   45) = (   0.1250000   0.1250000   0.2500000), wk =   0.0078125
        k(   46) = (   0.1250000   0.1250000   0.3750000), wk =   0.0078125
        k(   47) = (   0.1250000   0.1250000  -0.5000000), wk =   0.0078125
        k(   48) = (   0.1250000   0.1250000  -0.3750000), wk =   0.0078125
        k(   49) = (   0.1250000   0.1250000  -0.2500000), wk =   0.0078125
        k(   50) = (   0.1250000   0.1250000  -0.1250000), wk =   0.0078125
        k(   51) = (   0.1250000   0.2500000   0.0000000), wk =   0.0078125
        k(   52) = (   0.1250000   0.2500000   0.1250000), wk =   0.0078125
        k(   53) = (   0.1250000   0.2500000   0.2500000), wk =   0.0078125
        k(   54) = (   0.1250000   0.2500000   0.3750000), wk =   0.0078125
        k(   55) = (   0.1250000   0.2500000  -0.5000000), wk =   0.0078125
        k(   56) = (   0.1250000   0.2500000  -0.3750000), wk =   0.0078125
        k(   57) = (   0.1250000   0.2500000  -0.2500000), wk =   0.0078125
        k(   58) = (   0.1250000   0.2500000  -0.1250000), wk =   0.0078125
        k(   59) = (   0.1250000   0.3750000  -0.0000000), wk =   0.0078125
        k(   60) = (   0.1250000   0.3750000   0.1250000), wk =   0.0078125
        k(   61) = (   0.1250000   0.3750000   0.2500000), wk =   0.0078125
        k(   62) = (   0.1250000   0.3750000   0.3750000), wk =   0.0078125
        k(   63) = (   0.1250000   0.3750000  -0.5000000), wk =   0.0078125
        k(   64) = (   0.1250000   0.3750000  -0.3750000), wk =   0.0078125
        k(   65) = (   0.1250000   0.3750000  -0.2500000), wk =   0.0078125
        k(   66) = (   0.1250000   0.3750000  -0.1250000), wk =   0.0078125
        k(   67) = (   0.1250000  -0.5000000   0.0000000), wk =   0.0078125
        k(   68) = (   0.1250000  -0.5000000   0.1250000), wk =   0.0078125
        k(   69) = (   0.1250000  -0.5000000   0.2500000), wk =   0.0078125
        k(   70) = (   0.1250000  -0.5000000   0.3750000), wk =   0.0078125
        k(   71) = (   0.1250000  -0.5000000  -0.5000000), wk =   0.0078125
        k(   72) = (   0.1250000  -0.5000000  -0.3750000), wk =   0.0078125
        k(   73) = (   0.1250000  -0.5000000  -0.2500000), wk =   0.0078125
        k(   74) = (   0.1250000  -0.5000000  -0.1250000), wk =   0.0078125
        k(   75) = (   0.1250000  -0.3750000   0.0000000), wk =   0.0078125
        k(   76) = (   0.1250000  -0.3750000   0.1250000), wk =   0.0078125
        k(   77) = (   0.1250000  -0.3750000   0.2500000), wk =   0.0078125
        k(   78) = (   0.1250000  -0.3750000   0.3750000), wk =   0.0078125
        k(   79) = (   0.1250000  -0.3750000  -0.5000000), wk =   0.0078125
        k(   80) = (   0.1250000  -0.3750000  -0.3750000), wk =   0.0078125
        k(   81) = (   0.1250000  -0.3750000  -0.2500000), wk =   0.0078125
        k(   82) = (   0.1250000  -0.3750000  -0.1250000), wk =   0.0078125
        k(   83) = (   0.1250000  -0.2500000   0.0000000), wk =   0.0078125
        k(   84) = (   0.1250000  -0.2500000   0.1250000), wk =   0.0078125
        k(   85) = (   0.1250000  -0.2500000   0.2500000), wk =   0.0078125
        k(   86) = (   0.1250000  -0.2500000   0.3750000), wk =   0.0078125
        k(   87) = (   0.1250000  -0.2500000  -0.5000000), wk =   0.0078125
        k(   88) = (   0.1250000  -0.2500000  -0.3750000), wk =   0.0078125
        k(   89) = (   0.1250000  -0.2500000  -0.2500000), wk =   0.0078125
        k(   90) = (   0.1250000  -0.2500000  -0.1250000), wk =   0.0078125
        k(   91) = (   0.1250000  -0.1250000   0.0000000), wk =   0.0078125
        k(   92) = (   0.1250000  -0.1250000   0.1250000), wk =   0.0078125
        k(   93) = (   0.1250000  -0.1250000   0.2500000), wk =   0.0078125
        k(   94) = (   0.1250000  -0.1250000   0.3750000), wk =   0.0078125
        k(   95) = (   0.1250000  -0.1250000  -0.5000000), wk =   0.0078125
        k(   96) = (   0.1250000  -0.1250000  -0.3750000), wk =   0.0078125
        k(   97) = (   0.1250000  -0.1250000  -0.2500000), wk =   0.0078125
        k(   98) = (   0.1250000  -0.1250000  -0.1250000), wk =   0.0078125
        k(   99) = (   0.2500000   0.0000000   0.0000000), wk =   0.0078125
        k(  100) = (   0.2500000   0.0000000   0.1250000), wk =   0.0078125
        k(  101) = (   0.2500000   0.0000000   0.2500000), wk =   0.0078125
        k(  102) = (   0.2500000   0.0000000   0.3750000), wk =   0.0078125
        k(  103) = (   0.2500000   0.0000000  -0.5000000), wk =   0.0078125
        k(  104) = (   0.2500000   0.0000000  -0.3750000), wk =   0.0078125
        k(  105) = (   0.2500000   0.0000000  -0.2500000), wk =   0.0078125
        k(  106) = (   0.2500000   0.0000000  -0.1250000), wk =   0.0078125
        k(  107) = (   0.2500000   0.1250000   0.0000000), wk =   0.0078125
        k(  108) = (   0.2500000   0.1250000   0.1250000), wk =   0.0078125
        k(  109) = (   0.2500000   0.1250000   0.2500000), wk =   0.0078125
        k(  110) = (   0.2500000   0.1250000   0.3750000), wk =   0.0078125
        k(  111) = (   0.2500000   0.1250000  -0.5000000), wk =   0.0078125
        k(  112) = (   0.2500000   0.1250000  -0.3750000), wk =   0.0078125
        k(  113) = (   0.2500000   0.1250000  -0.2500000), wk =   0.0078125
        k(  114) = (   0.2500000   0.1250000  -0.1250000), wk =   0.0078125
        k(  115) = (   0.2500000   0.2500000   0.0000000), wk =   0.0078125
        k(  116) = (   0.2500000   0.2500000   0.1250000), wk =   0.0078125
        k(  117) = (   0.2500000   0.2500000   0.2500000), wk =   0.0078125
        k(  118) = (   0.2500000   0.2500000   0.3750000), wk =   0.0078125
        k(  119) = (   0.2500000   0.2500000  -0.5000000), wk =   0.0078125
        k(  120) = (   0.2500000   0.2500000  -0.3750000), wk =   0.0078125
        k(  121) = (   0.2500000   0.2500000  -0.2500000), wk =   0.0078125
        k(  122) = (   0.2500000   0.2500000  -0.1250000), wk =   0.0078125
        k(  123) = (   0.2500000   0.3750000   0.0000000), wk =   0.0078125
        k(  124) = (   0.2500000   0.3750000   0.1250000), wk =   0.0078125
        k(  125) = (   0.2500000   0.3750000   0.2500000), wk =   0.0078125
        k(  126) = (   0.2500000   0.3750000   0.3750000), wk =   0.0078125
        k(  127) = (   0.2500000   0.3750000  -0.5000000), wk =   0.0078125
        k(  128) = (   0.2500000   0.3750000  -0.3750000), wk =   0.0078125
        k(  129) = (   0.2500000   0.3750000  -0.2500000), wk =   0.0078125
        k(  130) = (   0.2500000   0.3750000  -0.1250000), wk =   0.0078125
        k(  131) = (   0.2500000  -0.5000000   0.0000000), wk =   0.0078125
        k(  132) = (   0.2500000  -0.5000000   0.1250000), wk =   0.0078125
        k(  133) = (   0.2500000  -0.5000000   0.2500000), wk =   0.0078125
        k(  134) = (   0.2500000  -0.5000000   0.3750000), wk =   0.0078125
        k(  135) = (   0.2500000  -0.5000000  -0.5000000), wk =   0.0078125
        k(  136) = (   0.2500000  -0.5000000  -0.3750000), wk =   0.0078125
        k(  137) = (   0.2500000  -0.5000000  -0.2500000), wk =   0.0078125
        k(  138) = (   0.2500000  -0.5000000  -0.1250000), wk =   0.0078125
        k(  139) = (   0.2500000  -0.3750000   0.0000000), wk =   0.0078125
        k(  140) = (   0.2500000  -0.3750000   0.1250000), wk =   0.0078125
        k(  141) = (   0.2500000  -0.3750000   0.2500000), wk =   0.0078125
        k(  142) = (   0.2500000  -0.3750000   0.3750000), wk =   0.0078125
        k(  143) = (   0.2500000  -0.3750000  -0.5000000), wk =   0.0078125
        k(  144) = (   0.2500000  -0.3750000  -0.3750000), wk =   0.0078125
        k(  145) = (   0.2500000  -0.3750000  -0.2500000), wk =   0.0078125
        k(  146) = (   0.2500000  -0.3750000  -0.1250000), wk =   0.0078125
        k(  147) = (   0.2500000  -0.2500000   0.0000000), wk =   0.0078125
        k(  148) = (   0.2500000  -0.2500000   0.1250000), wk =   0.0078125
        k(  149) = (   0.2500000  -0.2500000   0.2500000), wk =   0.0078125
        k(  150) = (   0.2500000  -0.2500000   0.3750000), wk =   0.0078125
        k(  151) = (   0.2500000  -0.2500000  -0.5000000), wk =   0.0078125
        k(  152) = (   0.2500000  -0.2500000  -0.3750000), wk =   0.0078125
        k(  153) = (   0.2500000  -0.2500000  -0.2500000), wk =   0.0078125
        k(  154) = (   0.2500000  -0.2500000  -0.1250000), wk =   0.0078125
        k(  155) = (   0.2500000  -0.1250000   0.0000000), wk =   0.0078125
        k(  156) = (   0.2500000  -0.1250000   0.1250000), wk =   0.0078125
        k(  157) = (   0.2500000  -0.1250000   0.2500000), wk =   0.0078125
        k(  158) = (   0.2500000  -0.1250000   0.3750000), wk =   0.0078125
        k(  159) = (   0.2500000  -0.1250000  -0.5000000), wk =   0.0078125
        k(  160) = (   0.2500000  -0.1250000  -0.3750000), wk =   0.0078125
        k(  161) = (   0.2500000  -0.1250000  -0.2500000), wk =   0.0078125
        k(  162) = (   0.2500000  -0.1250000  -0.1250000), wk =   0.0078125
        k(  163) = (   0.3750000   0.0000000   0.0000000), wk =   0.0078125
        k(  164) = (   0.3750000   0.0000000   0.1250000), wk =   0.0078125
        k(  165) = (   0.3750000   0.0000000   0.2500000), wk =   0.0078125
        k(  166) = (   0.3750000  -0.0000000   0.3750000), wk =   0.0078125
        k(  167) = (   0.3750000   0.0000000  -0.5000000), wk =   0.0078125
        k(  168) = (   0.3750000   0.0000000  -0.3750000), wk =   0.0078125
        k(  169) = (   0.3750000   0.0000000  -0.2500000), wk =   0.0078125
        k(  170) = (   0.3750000   0.0000000  -0.1250000), wk =   0.0078125
        k(  171) = (   0.3750000   0.1250000   0.0000000), wk =   0.0078125
        k(  172) = (   0.3750000   0.1250000   0.1250000), wk =   0.0078125
        k(  173) = (   0.3750000   0.1250000   0.2500000), wk =   0.0078125
        k(  174) = (   0.3750000   0.1250000   0.3750000), wk =   0.0078125
        k(  175) = (   0.3750000   0.1250000  -0.5000000), wk =   0.0078125
        k(  176) = (   0.3750000   0.1250000  -0.3750000), wk =   0.0078125
        k(  177) = (   0.3750000   0.1250000  -0.2500000), wk =   0.0078125
        k(  178) = (   0.3750000   0.1250000  -0.1250000), wk =   0.0078125
        k(  179) = (   0.3750000   0.2500000  -0.0000000), wk =   0.0078125
        k(  180) = (   0.3750000   0.2500000   0.1250000), wk =   0.0078125
        k(  181) = (   0.3750000   0.2500000   0.2500000), wk =   0.0078125
        k(  182) = (   0.3750000   0.2500000   0.3750000), wk =   0.0078125
        k(  183) = (   0.3750000   0.2500000  -0.5000000), wk =   0.0078125
        k(  184) = (   0.3750000   0.2500000  -0.3750000), wk =   0.0078125
        k(  185) = (   0.3750000   0.2500000  -0.2500000), wk =   0.0078125
        k(  186) = (   0.3750000   0.2500000  -0.1250000), wk =   0.0078125
        k(  187) = (   0.3750000   0.3750000  -0.0000000), wk =   0.0078125
        k(  188) = (   0.3750000   0.3750000   0.1250000), wk =   0.0078125
        k(  189) = (   0.3750000   0.3750000   0.2500000), wk =   0.0078125
        k(  190) = (   0.3750000   0.3750000   0.3750000), wk =   0.0078125
        k(  191) = (   0.3750000   0.3750000  -0.5000000), wk =   0.0078125
        k(  192) = (   0.3750000   0.3750000  -0.3750000), wk =   0.0078125
        k(  193) = (   0.3750000   0.3750000  -0.2500000), wk =   0.0078125
        k(  194) = (   0.3750000   0.3750000  -0.1250000), wk =   0.0078125
        k(  195) = (   0.3750000  -0.5000000   0.0000000), wk =   0.0078125
        k(  196) = (   0.3750000  -0.5000000   0.1250000), wk =   0.0078125
        k(  197) = (   0.3750000  -0.5000000   0.2500000), wk =   0.0078125
        k(  198) = (   0.3750000  -0.5000000   0.3750000), wk =   0.0078125
        k(  199) = (   0.3750000  -0.5000000  -0.5000000), wk =   0.0078125
        k(  200) = (   0.3750000  -0.5000000  -0.3750000), wk =   0.0078125
        k(  201) = (   0.3750000  -0.5000000  -0.2500000), wk =   0.0078125
        k(  202) = (   0.3750000  -0.5000000  -0.1250000), wk =   0.0078125
        k(  203) = (   0.3750000  -0.3750000   0.0000000), wk =   0.0078125
        k(  204) = (   0.3750000  -0.3750000   0.1250000), wk =   0.0078125
        k(  205) = (   0.3750000  -0.3750000   0.2500000), wk =   0.0078125
        k(  206) = (   0.3750000  -0.3750000   0.3750000), wk =   0.0078125
        k(  207) = (   0.3750000  -0.3750000  -0.5000000), wk =   0.0078125
        k(  208) = (   0.3750000  -0.3750000  -0.3750000), wk =   0.0078125
        k(  209) = (   0.3750000  -0.3750000  -0.2500000), wk =   0.0078125
        k(  210) = (   0.3750000  -0.3750000  -0.1250000), wk =   0.0078125
        k(  211) = (   0.3750000  -0.2500000   0.0000000), wk =   0.0078125
        k(  212) = (   0.3750000  -0.2500000   0.1250000), wk =   0.0078125
        k(  213) = (   0.3750000  -0.2500000   0.2500000), wk =   0.0078125
        k(  214) = (   0.3750000  -0.2500000   0.3750000), wk =   0.0078125
        k(  215) = (   0.3750000  -0.2500000  -0.5000000), wk =   0.0078125
        k(  216) = (   0.3750000  -0.2500000  -0.3750000), wk =   0.0078125
        k(  217) = (   0.3750000  -0.2500000  -0.2500000), wk =   0.0078125
        k(  218) = (   0.3750000  -0.2500000  -0.1250000), wk =   0.0078125
        k(  219) = (   0.3750000  -0.1250000   0.0000000), wk =   0.0078125
        k(  220) = (   0.3750000  -0.1250000   0.1250000), wk =   0.0078125
        k(  221) = (   0.3750000  -0.1250000   0.2500000), wk =   0.0078125
        k(  222) = (   0.3750000  -0.1250000   0.3750000), wk =   0.0078125
        k(  223) = (   0.3750000  -0.1250000  -0.5000000), wk =   0.0078125
        k(  224) = (   0.3750000  -0.1250000  -0.3750000), wk =   0.0078125
        k(  225) = (   0.3750000  -0.1250000  -0.2500000), wk =   0.0078125
        k(  226) = (   0.3750000  -0.1250000  -0.1250000), wk =   0.0078125
        k(  227) = (  -0.5000000  -0.0000000  -0.0000000), wk =   0.0039062
        k(  228) = (  -0.5000000  -0.0000000   0.1250000), wk =   0.0078125
        k(  229) = (  -0.5000000  -0.0000000   0.2500000), wk =   0.0078125
        k(  230) = (  -0.5000000  -0.0000000   0.3750000), wk =   0.0078125
        k(  231) = (  -0.5000000  -0.0000000  -0.5000000), wk =   0.0039062
        k(  232) = (  -0.5000000   0.1250000  -0.0000000), wk =   0.0078125
        k(  233) = (  -0.5000000   0.1250000   0.1250000), wk =   0.0078125
        k(  234) = (  -0.5000000   0.1250000   0.2500000), wk =   0.0078125
        k(  235) = (  -0.5000000   0.1250000   0.3750000), wk =   0.0078125
        k(  236) = (  -0.5000000   0.1250000  -0.5000000), wk =   0.0078125
        k(  237) = (  -0.5000000   0.1250000  -0.3750000), wk =   0.0078125
        k(  238) = (  -0.5000000   0.1250000  -0.2500000), wk =   0.0078125
        k(  239) = (  -0.5000000   0.1250000  -0.1250000), wk =   0.0078125
        k(  240) = (  -0.5000000   0.2500000  -0.0000000), wk =   0.0078125
        k(  241) = (  -0.5000000   0.2500000   0.1250000), wk =   0.0078125
        k(  242) = (  -0.5000000   0.2500000   0.2500000), wk =   0.0078125
        k(  243) = (  -0.5000000   0.2500000   0.3750000), wk =   0.0078125
        k(  244) = (  -0.5000000   0.2500000  -0.5000000), wk =   0.0078125
        k(  245) = (  -0.5000000   0.2500000  -0.3750000), wk =   0.0078125
        k(  246) = (  -0.5000000   0.2500000  -0.2500000), wk =   0.0078125
        k(  247) = (  -0.5000000   0.2500000  -0.1250000), wk =   0.0078125
        k(  248) = (  -0.5000000   0.3750000  -0.0000000), wk =   0.0078125
        k(  249) = (  -0.5000000   0.3750000   0.1250000), wk =   0.0078125
        k(  250) = (  -0.5000000   0.3750000   0.2500000), wk =   0.0078125
        k(  251) = (  -0.5000000   0.3750000   0.3750000), wk =   0.0078125
        k(  252) = (  -0.5000000   0.3750000  -0.5000000), wk =   0.0078125
        k(  253) = (  -0.5000000   0.3750000  -0.3750000), wk =   0.0078125
        k(  254) = (  -0.5000000   0.3750000  -0.2500000), wk =   0.0078125
        k(  255) = (  -0.5000000   0.3750000  -0.1250000), wk =   0.0078125
        k(  256) = (  -0.5000000  -0.5000000  -0.0000000), wk =   0.0039062
        k(  257) = (  -0.5000000  -0.5000000   0.1250000), wk =   0.0078125
        k(  258) = (  -0.5000000  -0.5000000   0.2500000), wk =   0.0078125
        k(  259) = (  -0.5000000  -0.5000000   0.3750000), wk =   0.0078125
        k(  260) = (  -0.5000000  -0.5000000  -0.5000000), wk =   0.0039062

     Dense  grid:    79829 G-vectors     FFT dimensions: (  50,  50,  80)

     Smooth grid:    31165 G-vectors     FFT dimensions: (  36,  36,  60)

     Dynamical RAM for                 wfc:       0.06 MB

     Dynamical RAM for     wfc (w. buffer):       3.92 MB

     Dynamical RAM for           str. fact:       0.15 MB

     Dynamical RAM for           local pot:       0.00 MB

     Dynamical RAM for          nlocal pot:       0.24 MB

     Dynamical RAM for                qrad:       5.14 MB

     Dynamical RAM for          rho,v,vnew:       0.51 MB

     Dynamical RAM for               rhoin:       0.17 MB

     Dynamical RAM for            rho*nmix:       1.22 MB

     Dynamical RAM for           G-vectors:       0.30 MB

     Dynamical RAM for          h,s,v(r/c):       0.05 MB

     Dynamical RAM for          <psi|beta>:       0.02 MB

     Dynamical RAM for                 psi:       0.24 MB

     Dynamical RAM for                hpsi:       0.24 MB

     Dynamical RAM for                spsi:       0.24 MB

     Dynamical RAM for      wfcinit/wfcrot:       0.14 MB

     Dynamical RAM for           addusdens:       4.00 MB

     Dynamical RAM for          addusforce:       4.15 MB

     Dynamical RAM for         addusstress:       4.21 MB

     Estimated static dynamical RAM per process >      12.36 MB

     Estimated max dynamical RAM per process >      16.57 MB

     Estimated total dynamical RAM >       1.04 GB

     Check: negative core charge=   -0.000003

     Initial potential from superposition of free atoms

     starting charge   31.39954, renormalised to   32.00000
     Starting wfcs are   18 randomized atomic wfcs

     total cpu time spent up to now is        2.4 secs

     Self-consistent Calculation

     iteration #  1     ecut=    80.00 Ry     beta= 0.50
     Davidson diagonalization with overlap
     ethr =  1.00E-02,  avg # of iterations =  2.0

     total cpu time spent up to now is        3.1 secs

     total energy              =    -314.88996259 Ry
     Harris-Foulkes estimate   =    -315.46027462 Ry
     estimated scf accuracy    <       0.90254936 Ry

     iteration #  2     ecut=    80.00 Ry     beta= 0.50
     Davidson diagonalization with overlap
     ethr =  2.82E-03,  avg # of iterations =  2.9

     total cpu time spent up to now is        3.9 secs

     total energy              =    -315.13172861 Ry
     Harris-Foulkes estimate   =    -315.24749522 Ry
     estimated scf accuracy    <       0.26776106 Ry

     iteration #  3     ecut=    80.00 Ry     beta= 0.50
     Davidson diagonalization with overlap
     ethr =  8.37E-04,  avg # of iterations =  2.0

     total cpu time spent up to now is        4.6 secs

     total energy              =    -315.17762617 Ry
     Harris-Foulkes estimate   =    -315.18051512 Ry
     estimated scf accuracy    <       0.00971720 Ry

     iteration #  4     ecut=    80.00 Ry     beta= 0.50
     Davidson diagonalization with overlap
     ethr =  3.04E-05,  avg # of iterations =  1.9

     total cpu time spent up to now is        5.2 secs

     total energy              =    -315.17824496 Ry
     Harris-Foulkes estimate   =    -315.17827074 Ry
     estimated scf accuracy    <       0.00051537 Ry

     iteration #  5     ecut=    80.00 Ry     beta= 0.50
     Davidson diagonalization with overlap
     ethr =  1.61E-06,  avg # of iterations =  2.0

     total cpu time spent up to now is        5.9 secs

     total energy              =    -315.17830235 Ry
     Harris-Foulkes estimate   =    -315.17830332 Ry
     estimated scf accuracy    <       0.00002241 Ry

     iteration #  6     ecut=    80.00 Ry     beta= 0.50
     Davidson diagonalization with overlap
     ethr =  7.00E-08,  avg # of iterations =  2.2

     total cpu time spent up to now is        6.6 secs

     End of self-consistent calculation

          k = 0.0000 0.0000 0.0000 (  3909 PWs)   bands (ev):

   -66.8788 -66.8752 -33.8899 -33.8508 -33.8508 -33.8446 -33.8438 -33.8438
   -11.5210 -10.7669   1.2164   3.9751   3.9751   4.2294   4.2294   4.3715

     occupation numbers 
     1.0000   1.0000   1.0000   1.0000   1.0000   1.0000   1.0000   1.0000
     1.0000   1.0000   1.0000   1.0000   1.0000   1.0000   1.0000   1.0000

          k = 0.0000 0.0000 0.0789 (  3898 PWs)   bands (ev):

   -66.8786 -66.8753 -33.8882 -33.8506 -33.8506 -33.8463 -33.8441 -33.8441
   -11.4941 -10.7978   1.2997   3.9845   3.9845   4.1542   4.2194   4.2194

     occupation numbers 
     1.0000   1.0000   1.0000   1.0000   1.0000   1.0000   1.0000   1.0000
     1.0000   1.0000   1.0000   1.0000   1.0000   1.0000   1.0000   1.0000

          k = 0.0000 0.0000 0.1578 (  3898 PWs)   bands (ev):

   -66.8783 -66.8757 -33.8834 -33.8513 -33.8498 -33.8498 -33.8449 -33.8449
   -11.4170 -10.8845   1.5443   3.6410   4.0112   4.0112   4.1910   4.1910

     occupation numbers 
     1.0000   1.0000   1.0000   1.0000   1.0000   1.0000   1.0000   1.0000
     1.0000   1.0000   1.0000   1.0000   1.0000   1.0000   1.0000   1.0000

          k = 0.0000 0.0000 0.2367 (  3904 PWs)   bands (ev):

   -66.8777 -66.8763 -33.8760 -33.8587 -33.8487 -33.8487 -33.8460 -33.8460
   -11.2995 -11.0116   1.9339   3.0323   4.0516   4.0516   4.1489   4.1489

     occupation numbers 
     1.0000   1.0000   1.0000   1.0000   1.0000   1.0000   1.0000   1.0000
     1.0000   1.0000   1.0000   1.0000   1.0000   1.0000   1.0000   1.0000

          k =-0.0000-0.0000-0.3157 (  3844 PWs)   bands (ev):

   -66.8770 -66.8770 -33.8674 -33.8673 -33.8473 -33.8473 -33.8473 -33.8473
   -11.1577 -11.1574   2.4426   2.4429   4.0997   4.0997   4.1001   4.1001

     occupation numbers 
     1.0000   1.0000   1.0000   1.0000   1.0000   1.0000   1.0000   1.0000
     1.0000   1.0000   1.0000   1.0000   1.0000   1.0000   1.0000   1.0000

          k =-0.0000 0.1443 0.0000 (  3887 PWs)   bands (ev):

   -66.8784 -66.8750 -33.8881 -33.8549 -33.8521 -33.8485 -33.8455 -33.8446
   -11.4375 -10.7326   1.3759   3.5367   3.7664   3.8735   4.2244   4.3343

     occupation numbers 
     1.0000   1.0000   1.0000   1.0000   1.0000   1.0000   1.0000   1.0000
     1.0000   1.0000   1.0000   1.0000   1.0000   1.0000   1.0000   1.0000

          k =-0.0000 0.1443 0.0789 (  3895 PWs)   bands (ev):

   -66.8783 -66.8751 -33.8866 -33.8545 -33.8518 -33.8501 -33.8457 -33.8449
   -11.4121 -10.7611   1.4449   3.5026   3.7161   3.8861   4.2103   4.2733

     occupation numbers 
     1.0000   1.0000   1.0000   1.0000   1.0000   1.0000   1.0000   1.0000
     1.0000   1.0000   1.0000   1.0000   1.0000   1.0000   1.0000   1.0000

          k =-0.0000 0.1443 0.1578 (  3888 PWs)   bands (ev):

   -66.8779 -66.8755 -33.8824 -33.8547 -33.8534 -33.8510 -33.8466 -33.8457
   -11.3394 -10.8414   1.6471   3.2567   3.7145   3.9225   4.1518   4.1705

     occupation numbers 
     1.0000   1.0000   1.0000   1.0000   1.0000   1.0000   1.0000   1.0000
     1.0000   1.0000   1.0000   1.0000   1.0000   1.0000   1.0000   1.0000

          k =-0.0000 0.1443 0.2367 (  3877 PWs)   bands (ev):

   -66.8773 -66.8761 -33.8761 -33.8611 -33.8518 -33.8498 -33.8481 -33.8469
   -11.2289 -10.9595   1.9672   2.8339   3.7946   3.9777   4.0263   4.1118

     occupation numbers 
     1.0000   1.0000   1.0000   1.0000   1.0000   1.0000   1.0000   1.0000
     1.0000   1.0000   1.0000   1.0000   1.0000   1.0000   1.0000   1.0000

          k =-0.0000 0.1443-0.3157 (  3878 PWs)   bands (ev):

   -66.8767 -66.8767 -33.8686 -33.8686 -33.8500 -33.8500 -33.8483 -33.8483
   -11.0960 -11.0956   2.3777   2.3779   3.9046   3.9048   4.0439   4.0442

     occupation numbers 
     1.0000   1.0000   1.0000   1.0000   1.0000   1.0000   1.0000   1.0000
     1.0000   1.0000   1.0000   1.0000   1.0000   1.0000   1.0000   1.0000

          k =-0.0000 0.1443-0.2367 (  3877 PWs)   bands (ev):

   -66.8773 -66.8761 -33.8761 -33.8611 -33.8518 -33.8498 -33.8481 -33.8469
   -11.2289 -10.9595   1.9672   2.8339   3.7946   3.9777   4.0263   4.1118

     occupation numbers 
     1.0000   1.0000   1.0000   1.0000   1.0000   1.0000   1.0000   1.0000
     1.0000   1.0000   1.0000   1.0000   1.0000   1.0000   1.0000   1.0000

          k =-0.0000 0.1443-0.1578 (  3888 PWs)   bands (ev):

   -66.8779 -66.8755 -33.8824 -33.8547 -33.8534 -33.8510 -33.8466 -33.8457
   -11.3394 -10.8414   1.6471   3.2567   3.7145   3.9225   4.1518   4.1705

     occupation numbers 
     1.0000   1.0000   1.0000   1.0000   1.0000   1.0000   1.0000   1.0000
     1.0000   1.0000   1.0000   1.0000   1.0000   1.0000   1.0000   1.0000

          k =-0.0000 0.1443-0.0789 (  3895 PWs)   bands (ev):

   -66.8783 -66.8751 -33.8866 -33.8545 -33.8518 -33.8501 -33.8457 -33.8449
   -11.4121 -10.7611   1.4449   3.5026   3.7160   3.8861   4.2103   4.2734

     occupation numbers 
     1.0000   1.0000   1.0000   1.0000   1.0000   1.0000   1.0000   1.0000
     1.0000   1.0000   1.0000   1.0000   1.0000   1.0000   1.0000   1.0000

          k =-0.0000 0.2887 0.0000 (  3873 PWs)   bands (ev):

   -66.8774 -66.8747 -33.8833 -33.8645 -33.8595 -33.8551 -33.8484 -33.8464
   -11.2212 -10.6568   1.8151   2.5485   3.0835   3.6724   4.1754   4.1969

     occupation numbers 
     1.0000   1.0000   1.0000   1.0000   1.0000   1.0000   1.0000   1.0000
     1.0000   1.0000   1.0000   1.0000   1.0000   1.0000   1.0000   1.0000

          k =-0.0000 0.2887 0.0789 (  3887 PWs)   bands (ev):

   -66.8773 -66.8748 -33.8828 -33.8637 -33.8608 -33.8548 -33.8485 -33.8467
   -11.2003 -10.6789   1.8131   2.5558   3.0823   3.6901   4.1547   4.1775

     occupation numbers 
     1.0000   1.0000   1.0000   1.0000   1.0000   1.0000   1.0000   1.0000
     1.0000   1.0000   1.0000   1.0000   1.0000   1.0000   1.0000   1.0000

          k =-0.0000 0.2887 0.1578 (  3898 PWs)   bands (ev):

   -66.8770 -66.8751 -33.8811 -33.8649 -33.8607 -33.8538 -33.8492 -33.8476
   -11.1405 -10.7414   1.8351   2.4741   3.1842   3.7411   4.0963   4.0978

     occupation numbers 
     1.0000   1.0000   1.0000   1.0000   1.0000   1.0000   1.0000   1.0000
     1.0000   1.0000   1.0000   1.0000   1.0000   1.0000   1.0000   1.0000

          k =-0.0000 0.2887 0.2367 (  3890 PWs)   bands (ev):

   -66.8766 -66.8755 -33.8781 -33.8694 -33.8574 -33.8524 -33.8510 -33.8490
   -11.0503 -10.8342   1.9193   2.2801   3.4201   3.8190   3.9329   4.0111

     occupation numbers 
     1.0000   1.0000   1.0000   1.0000   1.0000   1.0000   1.0000   1.0000
     1.0000   1.0000   1.0000   1.0000   1.0000   1.0000   1.0000   1.0000

          k =-0.0000 0.2887-0.3157 (  3886 PWs)   bands (ev):

   -66.8761 -66.8760 -33.8741 -33.8741 -33.8539 -33.8539 -33.8507 -33.8507
   -10.9430 -10.9426   2.0750   2.0751   3.6930   3.6930   3.9134   3.9137

     occupation numbers 
     1.0000   1.0000   1.0000   1.0000   1.0000   1.0000   1.0000   1.0000
     1.0000   1.0000   1.0000   1.0000   1.0000   1.0000   1.0000   1.0000

          k =-0.0000 0.2887-0.2367 (  3890 PWs)   bands (ev):

   -66.8766 -66.8755 -33.8781 -33.8694 -33.8574 -33.8524 -33.8510 -33.8490
   -11.0503 -10.8342   1.9193   2.2801   3.4201   3.8190   3.9329   4.0111

     occupation numbers 
     1.0000   1.0000   1.0000   1.0000   1.0000   1.0000   1.0000   1.0000
     1.0000   1.0000   1.0000   1.0000   1.0000   1.0000   1.0000   1.0000

          k =-0.0000 0.2887-0.1578 (  3898 PWs)   bands (ev):

   -66.8770 -66.8751 -33.8811 -33.8649 -33.8607 -33.8538 -33.8492 -33.8476
   -11.1405 -10.7414   1.8351   2.4741   3.1842   3.7411   4.0963   4.0978

     occupation numbers 
     1.0000   1.0000   1.0000   1.0000   1.0000   1.0000   1.0000   1.0000
     1.0000   1.0000   1.0000   1.0000   1.0000   1.0000   1.0000   1.0000

          k =-0.0000 0.2887-0.0789 (  3887 PWs)   bands (ev):

   -66.8773 -66.8748 -33.8828 -33.8637 -33.8608 -33.8548 -33.8485 -33.8467
   -11.2003 -10.6789   1.8131   2.5558   3.0823   3.6901   4.1547   4.1775

     occupation numbers 
     1.0000   1.0000   1.0000   1.0000   1.0000   1.0000   1.0000   1.0000
     1.0000   1.0000   1.0000   1.0000   1.0000   1.0000   1.0000   1.0000

          k =-0.0000 0.4330 0.0000 (  3891 PWs)   bands (ev):

   -66.8763 -66.8745 -33.8805 -33.8718 -33.8695 -33.8580 -33.8526 -33.8482
   -10.9690 -10.6057   1.7606   2.3912   2.5424   3.5001   3.9246   4.1076

     occupation numbers 
     1.0000   1.0000   1.0000   1.0000   1.0000   1.0000   1.0000   1.0000
     1.0000   1.0000   1.0000   1.0000   1.0000   1.0000   1.0000   1.0000

          k =-0.0000 0.4330 0.0789 (  3894 PWs)   bands (ev):

   -66.8762 -66.8746 -33.8818 -33.8725 -33.8679 -33.8576 -33.8522 -33.8486
   -10.9547 -10.6190   1.6959   2.2622   2.7208   3.5211   3.9567   4.0821

     occupation numbers 
     1.0000   1.0000   1.0000   1.0000   1.0000   1.0000   1.0000   1.0000
     1.0000   1.0000   1.0000   1.0000   1.0000   1.0000   1.0000   1.0000

          k =-0.0000 0.4330 0.1578 (  3885 PWs)   bands (ev):

   -66.8760 -66.8748 -33.8835 -33.8756 -33.8635 -33.8566 -33.8519 -33.8496
   -10.9141 -10.6570   1.6005   2.0388   3.0468   3.5818   3.9871   4.0106

     occupation numbers 
     1.0000   1.0000   1.0000   1.0000   1.0000   1.0000   1.0000   1.0000
     1.0000   1.0000   1.0000   1.0000   1.0000   1.0000   1.0000   1.0000

          k =-0.0000 0.4330 0.2367 (  3897 PWs)   bands (ev):

   -66.8757 -66.8751 -33.8837 -33.8793 -33.8588 -33.8550 -33.8527 -33.8512
   -10.8539 -10.7147   1.5745   1.8133   3.4018   3.6749   3.9066   3.9168

     occupation numbers 
     1.0000   1.0000   1.0000   1.0000   1.0000   1.0000   1.0000   1.0000
     1.0000   1.0000   1.0000   1.0000   1.0000   1.0000   1.0000   1.0000

          k =-0.0000 0.4330-0.3157 (  3914 PWs)   bands (ev):

   -66.8754 -66.8754 -33.8823 -33.8823 -33.8550 -33.8550 -33.8531 -33.8531
   -10.7839 -10.7836   1.6474   1.6475   3.7118   3.7119   3.7884   3.7887

     occupation numbers 
     1.0000   1.0000   1.0000   1.0000   1.0000   1.0000   1.0000   1.0000
     1.0000   1.0000   1.0000   1.0000   1.0000   1.0000   1.0000   1.0000

          k =-0.0000 0.4330-0.2367 (  3897 PWs)   bands (ev):

   -66.8757 -66.8751 -33.8837 -33.8793 -33.8588 -33.8550 -33.8527 -33.8512
   -10.8539 -10.7147   1.5745   1.8133   3.4018   3.6749   3.9066   3.9168

     occupation numbers 
     1.0000   1.0000   1.0000   1.0000   1.0000   1.0000   1.0000   1.0000
     1.0000   1.0000   1.0000   1.0000   1.0000   1.0000   1.0000   1.0000

          k =-0.0000 0.4330-0.1578 (  3885 PWs)   bands (ev):

   -66.8760 -66.8748 -33.8835 -33.8756 -33.8635 -33.8566 -33.8519 -33.8496
   -10.9141 -10.6570   1.6005   2.0388   3.0468   3.5818   3.9871   4.0106

     occupation numbers 
     1.0000   1.0000   1.0000   1.0000   1.0000   1.0000   1.0000   1.0000
     1.0000   1.0000   1.0000   1.0000   1.0000   1.0000   1.0000   1.0000

          k =-0.0000 0.4330-0.0789 (  3894 PWs)   bands (ev):

   -66.8762 -66.8746 -33.8818 -33.8725 -33.8679 -33.8576 -33.8522 -33.8486
   -10.9547 -10.6190   1.6959   2.2622   2.7208   3.5211   3.9567   4.0821

     occupation numbers 
     1.0000   1.0000   1.0000   1.0000   1.0000   1.0000   1.0000   1.0000
     1.0000   1.0000   1.0000   1.0000   1.0000   1.0000   1.0000   1.0000

          k = 0.0000-0.5774-0.0000 (  3912 PWs)   bands (ev):

   -66.8757 -66.8745 -33.8825 -33.8752 -33.8690 -33.8592 -33.8554 -33.8490
   -10.8367 -10.6087   1.4742   2.2890   2.8104   3.4340   3.6814   4.0770

     occupation numbers 
     1.0000   1.0000   1.0000   1.0000   1.0000   1.0000   1.0000   1.0000
     1.0000   1.0000   1.0000   1.0000   1.0000   1.0000   1.0000   1.0000

          k = 0.0000-0.5774 0.0789 (  3896 PWs)   bands (ev):

   -66.8757 -66.8746 -33.8839 -33.8767 -33.8669 -33.8588 -33.8547 -33.8494
   -10.8271 -10.6163   1.4364   2.1662   2.9188   3.4561   3.7608   4.0498

     occupation numbers 
     1.0000   1.0000   1.0000   1.0000   1.0000   1.0000   1.0000   1.0000
     1.0000   1.0000   1.0000   1.0000   1.0000   1.0000   1.0000   1.0000

          k = 0.0000-0.5774 0.1578 (  3900 PWs)   bands (ev):

   -66.8756 -66.8747 -33.8860 -33.8801 -33.8625 -33.8577 -33.8537 -33.8505
   -10.8001 -10.6386   1.3758   1.9047   3.1815   3.5200   3.8824   3.9737

     occupation numbers 
     1.0000   1.0000   1.0000   1.0000   1.0000   1.0000   1.0000   1.0000
     1.0000   1.0000   1.0000   1.0000   1.0000   1.0000   1.0000   1.0000

          k = 0.0000-0.5774 0.2367 (  3894 PWs)   bands (ev):

   -66.8754 -66.8749 -33.8869 -33.8836 -33.8582 -33.8561 -33.8535 -33.8521
   -10.7607 -10.6732   1.3700   1.6451   3.4909   3.6182   3.8634   3.8961

     occupation numbers 
     1.0000   1.0000   1.0000   1.0000   1.0000   1.0000   1.0000   1.0000
     1.0000   1.0000   1.0000   1.0000   1.0000   1.0000   1.0000   1.0000

          k = 0.0000-0.5774-0.3157 (  3892 PWs)   bands (ev):

   -66.8751 -66.8751 -33.8861 -33.8861 -33.8551 -33.8551 -33.8541 -33.8541
   -10.7161 -10.7158   1.4581   1.4582   3.7381   3.7385   3.7539   3.7541

     occupation numbers 
     1.0000   1.0000   1.0000   1.0000   1.0000   1.0000   1.0000   1.0000
     1.0000   1.0000   1.0000   1.0000   1.0000   1.0000   1.0000   1.0000

          k = 0.1250 0.0722 0.0000 (  3887 PWs)   bands (ev):

   -66.8784 -66.8750 -33.8881 -33.8549 -33.8521 -33.8485 -33.8455 -33.8446
   -11.4375 -10.7326   1.3759   3.5367   3.7664   3.8735   4.2244   4.3343

     occupation numbers 
     1.0000   1.0000   1.0000   1.0000   1.0000   1.0000   1.0000   1.0000
     1.0000   1.0000   1.0000   1.0000   1.0000   1.0000   1.0000   1.0000

          k = 0.1250 0.0722 0.0789 (  3895 PWs)   bands (ev):

   -66.8783 -66.8751 -33.8866 -33.8545 -33.8518 -33.8501 -33.8457 -33.8449
   -11.4121 -10.7611   1.4449   3.5026   3.7160   3.8861   4.2103   4.2734

     occupation numbers 
     1.0000   1.0000   1.0000   1.0000   1.0000   1.0000   1.0000   1.0000
     1.0000   1.0000   1.0000   1.0000   1.0000   1.0000   1.0000   1.0000

          k = 0.1250 0.0722 0.1578 (  3888 PWs)   bands (ev):

   -66.8779 -66.8755 -33.8824 -33.8547 -33.8534 -33.8510 -33.8466 -33.8457
   -11.3394 -10.8414   1.6471   3.2567   3.7145   3.9225   4.1518   4.1705

     occupation numbers 
     1.0000   1.0000   1.0000   1.0000   1.0000   1.0000   1.0000   1.0000
     1.0000   1.0000   1.0000   1.0000   1.0000   1.0000   1.0000   1.0000

          k = 0.1250 0.0722 0.2367 (  3877 PWs)   bands (ev):

   -66.8773 -66.8761 -33.8761 -33.8611 -33.8518 -33.8498 -33.8481 -33.8469
   -11.2289 -10.9595   1.9672   2.8339   3.7946   3.9777   4.0263   4.1118

     occupation numbers 
     1.0000   1.0000   1.0000   1.0000   1.0000   1.0000   1.0000   1.0000
     1.0000   1.0000   1.0000   1.0000   1.0000   1.0000   1.0000   1.0000

          k = 0.1250 0.0722-0.3157 (  3878 PWs)   bands (ev):

   -66.8767 -66.8767 -33.8686 -33.8686 -33.8500 -33.8500 -33.8483 -33.8483
   -11.0960 -11.0956   2.3777   2.3779   3.9046   3.9048   4.0439   4.0442

     occupation numbers 
     1.0000   1.0000   1.0000   1.0000   1.0000   1.0000   1.0000   1.0000
     1.0000   1.0000   1.0000   1.0000   1.0000   1.0000   1.0000   1.0000

          k = 0.1250 0.0722-0.2367 (  3877 PWs)   bands (ev):

   -66.8773 -66.8761 -33.8761 -33.8611 -33.8518 -33.8498 -33.8481 -33.8469
   -11.2289 -10.9595   1.9672   2.8339   3.7946   3.9777   4.0263   4.1118

     occupation numbers 
     1.0000   1.0000   1.0000   1.0000   1.0000   1.0000   1.0000   1.0000
     1.0000   1.0000   1.0000   1.0000   1.0000   1.0000   1.0000   1.0000

          k = 0.1250 0.0722-0.1578 (  3888 PWs)   bands (ev):

   -66.8779 -66.8755 -33.8824 -33.8547 -33.8534 -33.8510 -33.8466 -33.8457
   -11.3394 -10.8414   1.6471   3.2567   3.7145   3.9225   4.1518   4.1705

     occupation numbers 
     1.0000   1.0000   1.0000   1.0000   1.0000   1.0000   1.0000   1.0000
     1.0000   1.0000   1.0000   1.0000   1.0000   1.0000   1.0000   1.0000

          k = 0.1250 0.0722-0.0789 (  3895 PWs)   bands (ev):

   -66.8783 -66.8751 -33.8866 -33.8545 -33.8518 -33.8501 -33.8457 -33.8449
   -11.4121 -10.7611   1.4449   3.5026   3.7161   3.8861   4.2103   4.2733

     occupation numbers 
     1.0000   1.0000   1.0000   1.0000   1.0000   1.0000   1.0000   1.0000
     1.0000   1.0000   1.0000   1.0000   1.0000   1.0000   1.0000   1.0000

          k = 0.1250 0.2165 0.0000 (  3901 PWs)   bands (ev):

   -66.8777 -66.8748 -33.8847 -33.8609 -33.8577 -33.8531 -33.8474 -33.8465
   -11.2874 -10.6775   1.6761   2.9017   3.1705   3.8041   4.0988   4.2477

     occupation numbers 
     1.0000   1.0000   1.0000   1.0000   1.0000   1.0000   1.0000   1.0000
     1.0000   1.0000   1.0000   1.0000   1.0000   1.0000   1.0000   1.0000

          k = 0.1250 0.2165 0.0789 (  3888 PWs)   bands (ev):

   -66.8776 -66.8749 -33.8838 -33.8602 -33.8585 -33.8536 -33.8474 -33.8468
   -11.2650 -10.7016   1.7080   2.8503   3.2209   3.7761   4.0800   4.2328

     occupation numbers 
     1.0000   1.0000   1.0000   1.0000   1.0000   1.0000   1.0000   1.0000
     1.0000   1.0000   1.0000   1.0000   1.0000   1.0000   1.0000   1.0000

          k = 0.1250 0.2165 0.1578 (  3895 PWs)   bands (ev):

   -66.8773 -66.8752 -33.8812 -33.8616 -33.8583 -33.8536 -33.8480 -33.8477
   -11.2009 -10.7698   1.8063   2.6935   3.3586   3.7398   4.0290   4.1677

     occupation numbers 
     1.0000   1.0000   1.0000   1.0000   1.0000   1.0000   1.0000   1.0000
     1.0000   1.0000   1.0000   1.0000   1.0000   1.0000   1.0000   1.0000

          k = 0.1250 0.2165 0.2367 (  3886 PWs)   bands (ev):

   -66.8768 -66.8757 -33.8770 -33.8665 -33.8557 -33.8527 -33.8495 -33.8490
   -11.1041 -10.8708   1.9731   2.4569   3.5462   3.7389   3.9641   4.0446

     occupation numbers 
     1.0000   1.0000   1.0000   1.0000   1.0000   1.0000   1.0000   1.0000
     1.0000   1.0000   1.0000   1.0000   1.0000   1.0000   1.0000   1.0000

          k = 0.1250 0.2165-0.3157 (  3882 PWs)   bands (ev):

   -66.8763 -66.8762 -33.8719 -33.8719 -33.8531 -33.8531 -33.8502 -33.8502
   -10.9885 -10.9881   2.1995   2.1995   3.7088   3.7089   3.9390   3.9393

     occupation numbers 
     1.0000   1.0000   1.0000   1.0000   1.0000   1.0000   1.0000   1.0000
     1.0000   1.0000   1.0000   1.0000   1.0000   1.0000   1.0000   1.0000

          k = 0.1250 0.2165-0.2367 (  3886 PWs)   bands (ev):

   -66.8768 -66.8757 -33.8770 -33.8665 -33.8557 -33.8527 -33.8495 -33.8490
   -11.1041 -10.8708   1.9731   2.4569   3.5462   3.7389   3.9641   4.0446

     occupation numbers 
     1.0000   1.0000   1.0000   1.0000   1.0000   1.0000   1.0000   1.0000
     1.0000   1.0000   1.0000   1.0000   1.0000   1.0000   1.0000   1.0000

          k = 0.1250 0.2165-0.1578 (  3895 PWs)   bands (ev):

   -66.8773 -66.8752 -33.8812 -33.8616 -33.8583 -33.8536 -33.8480 -33.8477
   -11.2009 -10.7698   1.8063   2.6935   3.3586   3.7398   4.0290   4.1677

     occupation numbers 
     1.0000   1.0000   1.0000   1.0000   1.0000   1.0000   1.0000   1.0000
     1.0000   1.0000   1.0000   1.0000   1.0000   1.0000   1.0000   1.0000

          k = 0.1250 0.2165-0.0789 (  3888 PWs)   bands (ev):

   -66.8776 -66.8749 -33.8838 -33.8602 -33.8585 -33.8536 -33.8474 -33.8468
   -11.2650 -10.7016   1.7080   2.8503   3.2209   3.7761   4.0800   4.2328

     occupation numbers 
     1.0000   1.0000   1.0000   1.0000   1.0000   1.0000   1.0000   1.0000
     1.0000   1.0000   1.0000   1.0000   1.0000   1.0000   1.0000   1.0000

          k = 0.1250 0.3608 0.0000 (  3883 PWs)   bands (ev):

   -66.8766 -66.8745 -33.8801 -33.8688 -33.8666 -33.8579 -33.8511 -33.8493
   -11.0507 -10.6150   2.1043   2.2073   2.7011   3.4884   3.9487   4.0450

     occupation numbers 
     1.0000   1.0000   1.0000   1.0000   1.0000   1.0000   1.0000   1.0000
     1.0000   1.0000   1.0000   1.0000   1.0000   1.0000   1.0000   1.0000

          k = 0.1250 0.3608 0.0789 (  3884 PWs)   bands (ev):

   -66.8766 -66.8746 -33.8807 -33.8689 -33.8660 -33.8579 -33.8508 -33.8495
   -11.0340 -10.6314   1.9887   2.2149   2.8301   3.4677   3.9090   4.0874

     occupation numbers 
     1.0000   1.0000   1.0000   1.0000   1.0000   1.0000   1.0000   1.0000
     1.0000   1.0000   1.0000   1.0000   1.0000   1.0000   1.0000   1.0000

          k = 0.1250 0.3608 0.1578 (  3885 PWs)   bands (ev):

   -66.8763 -66.8748 -33.8814 -33.8716 -33.8625 -33.8574 -33.8512 -33.8498
   -10.9864 -10.6781   1.8628   2.1239   3.1001   3.4688   3.8270   4.1205

     occupation numbers 
     1.0000   1.0000   1.0000   1.0000   1.0000   1.0000   1.0000   1.0000
     1.0000   1.0000   1.0000   1.0000   1.0000   1.0000   1.0000   1.0000

          k = 0.1250 0.3608 0.2367 (  3894 PWs)   bands (ev):

   -66.8760 -66.8752 -33.8808 -33.8754 -33.8586 -33.8561 -33.8524 -33.8507
   -10.9152 -10.7483   1.8187   1.9840   3.3386   3.5377   3.7670   4.0602

     occupation numbers 
     1.0000   1.0000   1.0000   1.0000   1.0000   1.0000   1.0000   1.0000
     1.0000   1.0000   1.0000   1.0000   1.0000   1.0000   1.0000   1.0000

          k = 0.1250 0.3608-0.3157 (  3900 PWs)   bands (ev):

   -66.8756 -66.8756 -33.8787 -33.8787 -33.8560 -33.8560 -33.8523 -33.8523
   -10.8318 -10.8314   1.8661   1.8662   3.4861   3.4862   3.9010   3.9011

     occupation numbers 
     1.0000   1.0000   1.0000   1.0000   1.0000   1.0000   1.0000   1.0000
     1.0000   1.0000   1.0000   1.0000   1.0000   1.0000   1.0000   1.0000

          k = 0.1250 0.3608-0.2367 (  3894 PWs)   bands (ev):

   -66.8760 -66.8752 -33.8808 -33.8754 -33.8586 -33.8561 -33.8524 -33.8507
   -10.9152 -10.7483   1.8187   1.9840   3.3385   3.5377   3.7670   4.0602

     occupation numbers 
     1.0000   1.0000   1.0000   1.0000   1.0000   1.0000   1.0000   1.0000
     1.0000   1.0000   1.0000   1.0000   1.0000   1.0000   1.0000   1.0000

          k = 0.1250 0.3608-0.1578 (  3885 PWs)   bands (ev):

   -66.8763 -66.8748 -33.8814 -33.8716 -33.8625 -33.8574 -33.8512 -33.8498
   -10.9864 -10.6781   1.8628   2.1239   3.1001   3.4689   3.8270   4.1205

     occupation numbers 
     1.0000   1.0000   1.0000   1.0000   1.0000   1.0000   1.0000   1.0000
     1.0000   1.0000   1.0000   1.0000   1.0000   1.0000   1.0000   1.0000

          k = 0.1250 0.3608-0.0789 (  3884 PWs)   bands (ev):

   -66.8766 -66.8746 -33.8807 -33.8689 -33.8660 -33.8579 -33.8508 -33.8495
   -11.0340 -10.6314   1.9887   2.2149   2.8301   3.4677   3.9090   4.0874

     occupation numbers 
     1.0000   1.0000   1.0000   1.0000   1.0000   1.0000   1.0000   1.0000
     1.0000   1.0000   1.0000   1.0000   1.0000   1.0000   1.0000   1.0000

          k = 0.1250 0.5052 0.0000 (  3883 PWs)   bands (ev):

   -66.8757 -66.8745 -33.8803 -33.8737 -33.8686 -33.8611 -33.8554 -33.8512
   -10.8430 -10.6043   1.6364   2.4038   2.7730   3.2406   3.7290   3.8556

     occupation numbers 
     1.0000   1.0000   1.0000   1.0000   1.0000   1.0000   1.0000   1.0000
     1.0000   1.0000   1.0000   1.0000   1.0000   1.0000   1.0000   1.0000

          k = 0.1250 0.5052 0.0789 (  3891 PWs)   bands (ev):

   -66.8757 -66.8746 -33.8818 -33.8751 -33.8667 -33.8606 -33.8548 -33.8514
   -10.8331 -10.6124   1.6037   2.2618   2.8715   3.2911   3.7382   3.8901

     occupation numbers 
     1.0000   1.0000   1.0000   1.0000   1.0000   1.0000   1.0000   1.0000
     1.0000   1.0000   1.0000   1.0000   1.0000   1.0000   1.0000   1.0000

          k = 0.1250 0.5052 0.1578 (  3898 PWs)   bands (ev):

   -66.8756 -66.8747 -33.8840 -33.8785 -33.8632 -33.8588 -33.8544 -33.8516
   -10.8050 -10.6359   1.5468   2.0092   3.0075   3.4691   3.6624   4.0038

     occupation numbers 
     1.0000   1.0000   1.0000   1.0000   1.0000   1.0000   1.0000   1.0000
     1.0000   1.0000   1.0000   1.0000   1.0000   1.0000   1.0000   1.0000

          k = 0.1250 0.5052 0.2367 (  3898 PWs)   bands (ev):

   -66.8754 -66.8749 -33.8850 -33.8819 -33.8604 -33.8566 -33.8549 -33.8517
   -10.7639 -10.6723   1.5345   1.7727   3.1498   3.4791   3.7560   4.0472

     occupation numbers 
     1.0000   1.0000   1.0000   1.0000   1.0000   1.0000   1.0000   1.0000
     1.0000   1.0000   1.0000   1.0000   1.0000   1.0000   1.0000   1.0000

          k = 0.1250 0.5052-0.3157 (  3890 PWs)   bands (ev):

   -66.8751 -66.8751 -33.8843 -33.8843 -33.8580 -33.8580 -33.8529 -33.8529
   -10.7174 -10.7170   1.6072   1.6073   3.3138   3.3140   3.9567   3.9567

     occupation numbers 
     1.0000   1.0000   1.0000   1.0000   1.0000   1.0000   1.0000   1.0000
     1.0000   1.0000   1.0000   1.0000   1.0000   1.0000   1.0000   1.0000

          k = 0.1250 0.5052-0.2367 (  3898 PWs)   bands (ev):

   -66.8754 -66.8749 -33.8850 -33.8819 -33.8604 -33.8566 -33.8549 -33.8517
   -10.7639 -10.6723   1.5345   1.7727   3.1498   3.4791   3.7560   4.0472

     occupation numbers 
     1.0000   1.0000   1.0000   1.0000   1.0000   1.0000   1.0000   1.0000
     1.0000   1.0000   1.0000   1.0000   1.0000   1.0000   1.0000   1.0000

          k = 0.1250 0.5052-0.1578 (  3898 PWs)   bands (ev):

   -66.8756 -66.8747 -33.8840 -33.8785 -33.8632 -33.8588 -33.8544 -33.8516
   -10.8050 -10.6359   1.5468   2.0092   3.0075   3.4691   3.6624   4.0038

     occupation numbers 
     1.0000   1.0000   1.0000   1.0000   1.0000   1.0000   1.0000   1.0000
     1.0000   1.0000   1.0000   1.0000   1.0000   1.0000   1.0000   1.0000

          k = 0.1250 0.5052-0.0789 (  3891 PWs)   bands (ev):

   -66.8757 -66.8746 -33.8818 -33.8751 -33.8667 -33.8606 -33.8548 -33.8514
   -10.8331 -10.6124   1.6037   2.2618   2.8715   3.2911   3.7382   3.8901

     occupation numbers 
     1.0000   1.0000   1.0000   1.0000   1.0000   1.0000   1.0000   1.0000
     1.0000   1.0000   1.0000   1.0000   1.0000   1.0000   1.0000   1.0000

          k = 0.1250-0.5052-0.0000 (  3883 PWs)   bands (ev):

   -66.8757 -66.8745 -33.8803 -33.8737 -33.8686 -33.8611 -33.8554 -33.8512
   -10.8430 -10.6043   1.6364   2.4038   2.7730   3.2406   3.7290   3.8556

     occupation numbers 
     1.0000   1.0000   1.0000   1.0000   1.0000   1.0000   1.0000   1.0000
     1.0000   1.0000   1.0000   1.0000   1.0000   1.0000   1.0000   1.0000

          k = 0.1250-0.5052 0.0789 (  3891 PWs)   bands (ev):

   -66.8757 -66.8746 -33.8818 -33.8751 -33.8667 -33.8606 -33.8548 -33.8514
   -10.8331 -10.6124   1.6037   2.2618   2.8715   3.2911   3.7382   3.8901

     occupation numbers 
     1.0000   1.0000   1.0000   1.0000   1.0000   1.0000   1.0000   1.0000
     1.0000   1.0000   1.0000   1.0000   1.0000   1.0000   1.0000   1.0000

          k = 0.1250-0.5052 0.1578 (  3898 PWs)   bands (ev):

   -66.8756 -66.8747 -33.8840 -33.8785 -33.8632 -33.8588 -33.8544 -33.8516
   -10.8050 -10.6359   1.5468   2.0092   3.0075   3.4691   3.6624   4.0038

     occupation numbers 
     1.0000   1.0000   1.0000   1.0000   1.0000   1.0000   1.0000   1.0000
     1.0000   1.0000   1.0000   1.0000   1.0000   1.0000   1.0000   1.0000

          k = 0.1250-0.5052 0.2367 (  3898 PWs)   bands (ev):

   -66.8754 -66.8749 -33.8850 -33.8819 -33.8604 -33.8566 -33.8549 -33.8517
   -10.7639 -10.6723   1.5345   1.7727   3.1498   3.4791   3.7560   4.0472

     occupation numbers 
     1.0000   1.0000   1.0000   1.0000   1.0000   1.0000   1.0000   1.0000
     1.0000   1.0000   1.0000   1.0000   1.0000   1.0000   1.0000   1.0000

          k = 0.1250-0.5052-0.3157 (  3890 PWs)   bands (ev):

   -66.8751 -66.8751 -33.8843 -33.8843 -33.8580 -33.8580 -33.8529 -33.8529
   -10.7174 -10.7170   1.6072   1.6073   3.3138   3.3140   3.9567   3.9567

     occupation numbers 
     1.0000   1.0000   1.0000   1.0000   1.0000   1.0000   1.0000   1.0000
     1.0000   1.0000   1.0000   1.0000   1.0000   1.0000   1.0000   1.0000

          k = 0.1250-0.5052-0.2367 (  3898 PWs)   bands (ev):

   -66.8754 -66.8749 -33.8850 -33.8819 -33.8604 -33.8566 -33.8549 -33.8517
   -10.7639 -10.6723   1.5345   1.7727   3.1498   3.4791   3.7560   4.0472

     occupation numbers 
     1.0000   1.0000   1.0000   1.0000   1.0000   1.0000   1.0000   1.0000
     1.0000   1.0000   1.0000   1.0000   1.0000   1.0000   1.0000   1.0000

          k = 0.1250-0.5052-0.1578 (  3898 PWs)   bands (ev):

   -66.8756 -66.8747 -33.8840 -33.8785 -33.8632 -33.8588 -33.8544 -33.8516
   -10.8050 -10.6359   1.5468   2.0092   3.0075   3.4691   3.6624   4.0038

     occupation numbers 
     1.0000   1.0000   1.0000   1.0000   1.0000   1.0000   1.0000   1.0000
     1.0000   1.0000   1.0000   1.0000   1.0000   1.0000   1.0000   1.0000

          k = 0.1250-0.5052-0.0789 (  3891 PWs)   bands (ev):

   -66.8757 -66.8746 -33.8818 -33.8751 -33.8667 -33.8606 -33.8548 -33.8514
   -10.8331 -10.6124   1.6037   2.2618   2.8715   3.2911   3.7382   3.8901

     occupation numbers 
     1.0000   1.0000   1.0000   1.0000   1.0000   1.0000   1.0000   1.0000
     1.0000   1.0000   1.0000   1.0000   1.0000   1.0000   1.0000   1.0000

          k = 0.1250-0.3608-0.0000 (  3883 PWs)   bands (ev):

   -66.8766 -66.8745 -33.8801 -33.8688 -33.8666 -33.8579 -33.8511 -33.8493
   -11.0507 -10.6150   2.1043   2.2073   2.7011   3.4884   3.9487   4.0450

     occupation numbers 
     1.0000   1.0000   1.0000   1.0000   1.0000   1.0000   1.0000   1.0000
     1.0000   1.0000   1.0000   1.0000   1.0000   1.0000   1.0000   1.0000

          k = 0.1250-0.3608 0.0789 (  3884 PWs)   bands (ev):

   -66.8766 -66.8746 -33.8807 -33.8689 -33.8660 -33.8579 -33.8508 -33.8495
   -11.0340 -10.6314   1.9887   2.2149   2.8301   3.4677   3.9090   4.0874

     occupation numbers 
     1.0000   1.0000   1.0000   1.0000   1.0000   1.0000   1.0000   1.0000
     1.0000   1.0000   1.0000   1.0000   1.0000   1.0000   1.0000   1.0000

          k = 0.1250-0.3608 0.1578 (  3885 PWs)   bands (ev):

   -66.8763 -66.8748 -33.8814 -33.8716 -33.8625 -33.8574 -33.8512 -33.8498
   -10.9864 -10.6781   1.8628   2.1239   3.1001   3.4689   3.8270   4.1205

     occupation numbers 
     1.0000   1.0000   1.0000   1.0000   1.0000   1.0000   1.0000   1.0000
     1.0000   1.0000   1.0000   1.0000   1.0000   1.0000   1.0000   1.0000

          k = 0.1250-0.3608 0.2367 (  3894 PWs)   bands (ev):

   -66.8760 -66.8752 -33.8808 -33.8754 -33.8586 -33.8561 -33.8524 -33.8507
   -10.9152 -10.7483   1.8187   1.9840   3.3385   3.5377   3.7670   4.0602

     occupation numbers 
     1.0000   1.0000   1.0000   1.0000   1.0000   1.0000   1.0000   1.0000
     1.0000   1.0000   1.0000   1.0000   1.0000   1.0000   1.0000   1.0000

          k = 0.1250-0.3608-0.3157 (  3900 PWs)   bands (ev):

   -66.8756 -66.8756 -33.8787 -33.8787 -33.8560 -33.8560 -33.8523 -33.8523
   -10.8318 -10.8314   1.8661   1.8662   3.4861   3.4862   3.9010   3.9011

[...]
     1.0000   1.0000   1.0000   1.0000   1.0000   1.0000   1.0000   1.0000

          k =-0.5000-0.1443 0.0789 (  3891 PWs)   bands (ev):

   -66.8757 -66.8746 -33.8818 -33.8751 -33.8667 -33.8606 -33.8548 -33.8514
   -10.8331 -10.6124   1.6037   2.2618   2.8715   3.2911   3.7382   3.8901

     occupation numbers 
     1.0000   1.0000   1.0000   1.0000   1.0000   1.0000   1.0000   1.0000
     1.0000   1.0000   1.0000   1.0000   1.0000   1.0000   1.0000   1.0000

          k =-0.5000-0.1443 0.1578 (  3898 PWs)   bands (ev):

   -66.8756 -66.8747 -33.8840 -33.8785 -33.8632 -33.8588 -33.8544 -33.8516
   -10.8050 -10.6359   1.5468   2.0092   3.0075   3.4691   3.6624   4.0038

     occupation numbers 
     1.0000   1.0000   1.0000   1.0000   1.0000   1.0000   1.0000   1.0000
     1.0000   1.0000   1.0000   1.0000   1.0000   1.0000   1.0000   1.0000

          k =-0.5000-0.1443 0.2367 (  3898 PWs)   bands (ev):

   -66.8754 -66.8749 -33.8850 -33.8819 -33.8604 -33.8566 -33.8549 -33.8517
   -10.7639 -10.6723   1.5345   1.7727   3.1498   3.4791   3.7560   4.0472

     occupation numbers 
     1.0000   1.0000   1.0000   1.0000   1.0000   1.0000   1.0000   1.0000
     1.0000   1.0000   1.0000   1.0000   1.0000   1.0000   1.0000   1.0000

          k =-0.5000-0.1443-0.3157 (  3890 PWs)   bands (ev):

   -66.8751 -66.8751 -33.8843 -33.8843 -33.8580 -33.8580 -33.8529 -33.8529
   -10.7174 -10.7170   1.6072   1.6073   3.3138   3.3140   3.9567   3.9567

     occupation numbers 
     1.0000   1.0000   1.0000   1.0000   1.0000   1.0000   1.0000   1.0000
     1.0000   1.0000   1.0000   1.0000   1.0000   1.0000   1.0000   1.0000

          k =-0.5000-0.1443-0.2367 (  3898 PWs)   bands (ev):

   -66.8754 -66.8749 -33.8850 -33.8819 -33.8604 -33.8566 -33.8549 -33.8517
   -10.7639 -10.6723   1.5345   1.7727   3.1498   3.4791   3.7560   4.0472

     occupation numbers 
     1.0000   1.0000   1.0000   1.0000   1.0000   1.0000   1.0000   1.0000
     1.0000   1.0000   1.0000   1.0000   1.0000   1.0000   1.0000   1.0000

          k =-0.5000-0.1443-0.1578 (  3898 PWs)   bands (ev):

   -66.8756 -66.8747 -33.8840 -33.8785 -33.8632 -33.8588 -33.8544 -33.8516
   -10.8050 -10.6359   1.5468   2.0092   3.0075   3.4691   3.6624   4.0038

     occupation numbers 
     1.0000   1.0000   1.0000   1.0000   1.0000   1.0000   1.0000   1.0000
     1.0000   1.0000   1.0000   1.0000   1.0000   1.0000   1.0000   1.0000

          k =-0.5000-0.1443-0.0789 (  3891 PWs)   bands (ev):

   -66.8757 -66.8746 -33.8818 -33.8751 -33.8667 -33.8606 -33.8548 -33.8514
   -10.8331 -10.6124   1.6037   2.2618   2.8715   3.2911   3.7382   3.8901

     occupation numbers 
     1.0000   1.0000   1.0000   1.0000   1.0000   1.0000   1.0000   1.0000
     1.0000   1.0000   1.0000   1.0000   1.0000   1.0000   1.0000   1.0000

          k =-0.5000 0.0000-0.0000 (  3879 PWs)   bands (ev):

   -66.8757 -66.8745 -33.8773 -33.8731 -33.8670 -33.8635 -33.8552 -33.8542
   -10.8491 -10.6001   1.8740   2.4527   2.7705   3.0908   3.5459   3.7813

     occupation numbers 
     1.0000   1.0000   1.0000   1.0000   1.0000   1.0000   1.0000   1.0000
     1.0000   1.0000   1.0000   1.0000   1.0000   1.0000   1.0000   1.0000

          k =-0.5000 0.0000 0.0789 (  3881 PWs)   bands (ev):

   -66.8757 -66.8746 -33.8790 -33.8742 -33.8647 -33.8639 -33.8545 -33.8541
   -10.8388 -10.6086   1.8726   2.2457   3.0074   3.0124   3.5139   3.8773

     occupation numbers 
     1.0000   1.0000   1.0000   1.0000   1.0000   1.0000   1.0000   1.0000
     1.0000   1.0000   1.0000   1.0000   1.0000   1.0000   1.0000   1.0000

          k =-0.5000 0.0000 0.1578 (  3878 PWs)   bands (ev):

   -66.8756 -66.8747 -33.8815 -33.8770 -33.8636 -33.8607 -33.8553 -33.8523
   -10.8097 -10.6334   1.8577   2.0086   2.8976   3.2406   3.5324   4.0276

     occupation numbers 
     1.0000   1.0000   1.0000   1.0000   1.0000   1.0000   1.0000   1.0000
     1.0000   1.0000   1.0000   1.0000   1.0000   1.0000   1.0000   1.0000

          k =-0.5000 0.0000 0.2367 (  3885 PWs)   bands (ev):

   -66.8754 -66.8749 -33.8827 -33.8801 -33.8623 -33.8591 -33.8547 -33.8516
   -10.7671 -10.6716   1.8237   1.8605   2.8916   3.1444   3.7914   4.0887

     occupation numbers 
     1.0000   1.0000   1.0000   1.0000   1.0000   1.0000   1.0000   1.0000
     1.0000   1.0000   1.0000   1.0000   1.0000   1.0000   1.0000   1.0000

          k =-0.5000 0.0000-0.3157 (  3896 PWs)   bands (ev):

   -66.8751 -66.8751 -33.8822 -33.8822 -33.8605 -33.8605 -33.8526 -33.8526
   -10.7186 -10.7182   1.8076   1.8078   2.9925   2.9928   4.0073   4.0073

     occupation numbers 
     1.0000   1.0000   1.0000   1.0000   1.0000   1.0000   1.0000   1.0000
     1.0000   1.0000   1.0000   1.0000   1.0000   1.0000   1.0000   1.0000

          k =-0.5000 0.0000-0.2367 (  3885 PWs)   bands (ev):

   -66.8754 -66.8749 -33.8827 -33.8801 -33.8623 -33.8591 -33.8547 -33.8516
   -10.7671 -10.6716   1.8237   1.8605   2.8916   3.1444   3.7914   4.0887

     occupation numbers 
     1.0000   1.0000   1.0000   1.0000   1.0000   1.0000   1.0000   1.0000
     1.0000   1.0000   1.0000   1.0000   1.0000   1.0000   1.0000   1.0000

          k =-0.5000 0.0000-0.1578 (  3878 PWs)   bands (ev):

   -66.8756 -66.8747 -33.8815 -33.8770 -33.8636 -33.8607 -33.8553 -33.8523
   -10.8097 -10.6334   1.8577   2.0086   2.8976   3.2406   3.5324   4.0276

     occupation numbers 
     1.0000   1.0000   1.0000   1.0000   1.0000   1.0000   1.0000   1.0000
     1.0000   1.0000   1.0000   1.0000   1.0000   1.0000   1.0000   1.0000

          k =-0.5000 0.0000-0.0789 (  3881 PWs)   bands (ev):

   -66.8757 -66.8746 -33.8790 -33.8742 -33.8647 -33.8639 -33.8545 -33.8541
   -10.8388 -10.6086   1.8726   2.2457   3.0074   3.0124   3.5139   3.8773

     occupation numbers 
     1.0000   1.0000   1.0000   1.0000   1.0000   1.0000   1.0000   1.0000
     1.0000   1.0000   1.0000   1.0000   1.0000   1.0000   1.0000   1.0000

          k =-0.5000 0.1443-0.0000 (  3883 PWs)   bands (ev):

   -66.8757 -66.8745 -33.8803 -33.8737 -33.8686 -33.8611 -33.8554 -33.8512
   -10.8430 -10.6043   1.6364   2.4038   2.7730   3.2406   3.7290   3.8556

     occupation numbers 
     1.0000   1.0000   1.0000   1.0000   1.0000   1.0000   1.0000   1.0000
     1.0000   1.0000   1.0000   1.0000   1.0000   1.0000   1.0000   1.0000

          k =-0.5000 0.1443 0.0789 (  3891 PWs)   bands (ev):

   -66.8757 -66.8746 -33.8818 -33.8751 -33.8667 -33.8606 -33.8548 -33.8514
   -10.8331 -10.6124   1.6037   2.2618   2.8715   3.2911   3.7382   3.8901

     occupation numbers 
     1.0000   1.0000   1.0000   1.0000   1.0000   1.0000   1.0000   1.0000
     1.0000   1.0000   1.0000   1.0000   1.0000   1.0000   1.0000   1.0000

          k =-0.5000 0.1443 0.1578 (  3898 PWs)   bands (ev):

   -66.8756 -66.8747 -33.8840 -33.8785 -33.8632 -33.8588 -33.8544 -33.8516
   -10.8050 -10.6359   1.5468   2.0092   3.0075   3.4691   3.6624   4.0038

     occupation numbers 
     1.0000   1.0000   1.0000   1.0000   1.0000   1.0000   1.0000   1.0000
     1.0000   1.0000   1.0000   1.0000   1.0000   1.0000   1.0000   1.0000

          k =-0.5000 0.1443 0.2367 (  3898 PWs)   bands (ev):

   -66.8754 -66.8749 -33.8850 -33.8819 -33.8604 -33.8566 -33.8549 -33.8517
   -10.7639 -10.6723   1.5345   1.7727   3.1498   3.4791   3.7560   4.0472

     occupation numbers 
     1.0000   1.0000   1.0000   1.0000   1.0000   1.0000   1.0000   1.0000
     1.0000   1.0000   1.0000   1.0000   1.0000   1.0000   1.0000   1.0000

          k =-0.5000 0.1443-0.3157 (  3890 PWs)   bands (ev):

   -66.8751 -66.8751 -33.8843 -33.8843 -33.8580 -33.8580 -33.8529 -33.8529
   -10.7174 -10.7170   1.6072   1.6073   3.3138   3.3140   3.9567   3.9567

     occupation numbers 
     1.0000   1.0000   1.0000   1.0000   1.0000   1.0000   1.0000   1.0000
     1.0000   1.0000   1.0000   1.0000   1.0000   1.0000   1.0000   1.0000

          k =-0.5000 0.1443-0.2367 (  3898 PWs)   bands (ev):

   -66.8754 -66.8749 -33.8850 -33.8819 -33.8604 -33.8566 -33.8549 -33.8517
   -10.7639 -10.6723   1.5345   1.7727   3.1498   3.4791   3.7560   4.0472

     occupation numbers 
     1.0000   1.0000   1.0000   1.0000   1.0000   1.0000   1.0000   1.0000
     1.0000   1.0000   1.0000   1.0000   1.0000   1.0000   1.0000   1.0000

          k =-0.5000 0.1443-0.1578 (  3898 PWs)   bands (ev):

   -66.8756 -66.8747 -33.8840 -33.8785 -33.8632 -33.8588 -33.8544 -33.8516
   -10.8050 -10.6359   1.5468   2.0092   3.0075   3.4691   3.6624   4.0038

     occupation numbers 
     1.0000   1.0000   1.0000   1.0000   1.0000   1.0000   1.0000   1.0000
     1.0000   1.0000   1.0000   1.0000   1.0000   1.0000   1.0000   1.0000

          k =-0.5000 0.1443-0.0789 (  3891 PWs)   bands (ev):

   -66.8757 -66.8746 -33.8818 -33.8751 -33.8667 -33.8606 -33.8548 -33.8514
   -10.8331 -10.6124   1.6037   2.2618   2.8715   3.2911   3.7382   3.8901

     occupation numbers 
     1.0000   1.0000   1.0000   1.0000   1.0000   1.0000   1.0000   1.0000
     1.0000   1.0000   1.0000   1.0000   1.0000   1.0000   1.0000   1.0000

          k =-0.5000-0.8660-0.0000 (  3912 PWs)   bands (ev):

   -66.8757 -66.8745 -33.8825 -33.8752 -33.8690 -33.8592 -33.8554 -33.8490
   -10.8367 -10.6087   1.4742   2.2890   2.8104   3.4339   3.6814   4.0770

     occupation numbers 
     1.0000   1.0000   1.0000   1.0000   1.0000   1.0000   1.0000   1.0000
     1.0000   1.0000   1.0000   1.0000   1.0000   1.0000   1.0000   1.0000

          k =-0.5000-0.8660 0.0789 (  3896 PWs)   bands (ev):

   -66.8757 -66.8746 -33.8839 -33.8767 -33.8669 -33.8588 -33.8547 -33.8494
   -10.8271 -10.6163   1.4364   2.1661   2.9188   3.4561   3.7608   4.0498

     occupation numbers 
     1.0000   1.0000   1.0000   1.0000   1.0000   1.0000   1.0000   1.0000
     1.0000   1.0000   1.0000   1.0000   1.0000   1.0000   1.0000   1.0000

          k =-0.5000-0.8660 0.1578 (  3900 PWs)   bands (ev):

   -66.8756 -66.8747 -33.8860 -33.8801 -33.8625 -33.8577 -33.8537 -33.8505
   -10.8001 -10.6386   1.3758   1.9047   3.1816   3.5200   3.8824   3.9737

     occupation numbers 
     1.0000   1.0000   1.0000   1.0000   1.0000   1.0000   1.0000   1.0000
     1.0000   1.0000   1.0000   1.0000   1.0000   1.0000   1.0000   1.0000

          k =-0.5000-0.8660 0.2367 (  3894 PWs)   bands (ev):

   -66.8754 -66.8749 -33.8869 -33.8836 -33.8582 -33.8561 -33.8535 -33.8521
   -10.7607 -10.6732   1.3700   1.6451   3.4909   3.6182   3.8634   3.8961

     occupation numbers 
     1.0000   1.0000   1.0000   1.0000   1.0000   1.0000   1.0000   1.0000
     1.0000   1.0000   1.0000   1.0000   1.0000   1.0000   1.0000   1.0000

          k =-0.5000-0.8660-0.3157 (  3892 PWs)   bands (ev):

   -66.8751 -66.8751 -33.8861 -33.8861 -33.8551 -33.8551 -33.8541 -33.8541
   -10.7161 -10.7158   1.4581   1.4582   3.7381   3.7385   3.7539   3.7541

     occupation numbers 
     1.0000   1.0000   1.0000   1.0000   1.0000   1.0000   1.0000   1.0000
     1.0000   1.0000   1.0000   1.0000   1.0000   1.0000   1.0000   1.0000

     highest occupied level (ev):     4.3715

!    total energy              =    -315.17830747 Ry
     Harris-Foulkes estimate   =    -315.17830668 Ry
     estimated scf accuracy    <       0.00000073 Ry

     The total energy is the sum of the following terms:

     one-electron contribution =    -213.69378238 Ry
     hartree contribution      =     113.00585543 Ry
     xc contribution           =     -48.05294377 Ry
     ewald contribution        =    -166.43743675 Ry

     convergence has been achieved in   6 iterations

     Forces acting on atoms (cartesian axes, Ry/au):

     atom    1 type  2   force =     0.00000113   -0.00000034    0.00728410
     atom    2 type  2   force =     0.00000086   -0.00000028    0.00728358
     atom    3 type  1   force =    -0.00000108    0.00000116   -0.00730834
     atom    4 type  1   force =    -0.00000091   -0.00000053   -0.00725934
     The non-local contrib.  to forces
     atom    1 type  2   force =     0.00000001   -0.00000055   -0.00069659
     atom    2 type  2   force =    -0.00000049    0.00000216   -0.00068579
     atom    3 type  1   force =     0.00000122   -0.00000246   -0.03895682
     atom    4 type  1   force =     0.00000084    0.00000007   -0.03894213
     The ionic contribution  to forces
     atom    1 type  2   force =    -0.00000502    0.00001324    0.21593090
     atom    2 type  2   force =    -0.00000481    0.00000253    0.21593138
     atom    3 type  1   force =     0.00000550   -0.00001623   -0.21593185
     atom    4 type  1   force =     0.00000433    0.00000046   -0.21593044
     The local contribution  to forces
     atom    1 type  2   force =     0.00000504   -0.00001249   -0.20770683
     atom    2 type  2   force =     0.00000662   -0.00000397   -0.20767148
     atom    3 type  1   force =    -0.00000516    0.00001687    0.24748073
     atom    4 type  1   force =    -0.00000370   -0.00000136    0.24737273
     The core correction contribution to forces
     atom    1 type  2   force =     0.00000000   -0.00000001   -0.00012731
     atom    2 type  2   force =     0.00000001   -0.00000003   -0.00012736
     atom    3 type  1   force =     0.00000000    0.00000000    0.00000000
     atom    4 type  1   force =     0.00000000    0.00000000    0.00000000
     The Hubbard contrib.    to forces
     atom    1 type  2   force =     0.00000000    0.00000000    0.00000000
     atom    2 type  2   force =     0.00000000    0.00000000    0.00000000
     atom    3 type  1   force =     0.00000000    0.00000000    0.00000000
     atom    4 type  1   force =     0.00000000    0.00000000    0.00000000
     The SCF correction term to forces
     atom    1 type  2   force =     0.00000000    0.00000000    0.00000000
     atom    2 type  2   force =     0.00000000    0.00000000    0.00000000
     atom    3 type  1   force =     0.00000000    0.00000000    0.00000000
     atom    4 type  1   force =     0.00000000    0.00000000    0.00000000

     Total force =     0.000000     Total SCF correction =     0.000000


     Computing stress (Cartesian axis) and pressure

          total   stress  (Ry/bohr**3)                   (kbar)     P=    4.19
   0.00002744  -0.00000000   0.00000000          4.04     -0.00      0.00
  -0.00000000   0.00002745   0.00000001         -0.00      4.04      0.00
   0.00000000   0.00000001   0.00003049          0.00      0.00      4.48

     kinetic stress (kbar)  18880.74     -0.00      0.00
                               -0.00  18880.74      0.00
                                0.00      0.00  18883.09

     local   stress (kbar)  -8025.54     -0.01     -0.02
                               -0.01  -8025.55      0.05
                               -0.02      0.05 -10827.73

     nonloc. stress (kbar)   5177.12     -0.00     -0.00
                               -0.00   5177.12     -0.00
                               -0.00     -0.00   5173.86

     hartree stress (kbar)  16797.78      0.00      0.01
                                0.00  16797.79     -0.02
                                0.01     -0.02  18042.73

     exc-cor stress (kbar)  -6708.03      0.00      0.00
                                0.00  -6708.03     -0.00
                                0.00     -0.00  -6707.79

     corecor stress (kbar)   -247.25      0.00     -0.00
                                0.00   -247.25      0.00
                               -0.00      0.00   -247.25

     ewald   stress (kbar) -25870.78      0.01      0.01
                                0.01 -25870.77     -0.03
                                0.01     -0.03 -24312.43

     hubbard stress (kbar)      0.00      0.00      0.00
                                0.00      0.00      0.00
                                0.00      0.00      0.00

     london  stress (kbar)      0.00      0.00      0.00
                                0.00      0.00      0.00
                                0.00      0.00      0.00

     DFT-D3  stress (kbar)      0.00      0.00      0.00
                                0.00      0.00      0.00
                                0.00      0.00      0.00

     XDM     stress (kbar)      0.00      0.00      0.00
                                0.00      0.00      0.00
                                0.00      0.00      0.00

     dft-nl  stress (kbar)      0.00      0.00      0.00
                                0.00      0.00      0.00
                                0.00      0.00      0.00

     TS-vdW  stress (kbar)      0.00      0.00      0.00
                                0.00      0.00      0.00
                                0.00      0.00      0.00



     Writing output data file ZnO.save/
 
     init_run     :      0.48s CPU      1.52s WALL (       1 calls)
     electrons    :      3.82s CPU      4.28s WALL (       1 calls)
     forces       :      0.13s CPU      0.20s WALL (       1 calls)
     stress       :      0.24s CPU      0.30s WALL (       1 calls)

     Called by init_run:
     wfcinit      :      0.34s CPU      1.05s WALL (       1 calls)
     wfcinit:atom :      0.00s CPU      0.00s WALL (      65 calls)
     wfcinit:wfcr :      0.33s CPU      1.03s WALL (      65 calls)
     potinit      :      0.05s CPU      0.11s WALL (       1 calls)
     hinit0       :      0.07s CPU      0.22s WALL (       1 calls)

     Called by electrons:
     c_bands      :      3.14s CPU      3.42s WALL (       6 calls)
     sum_band     :      0.46s CPU      0.54s WALL (       6 calls)
     v_of_rho     :      0.19s CPU      0.23s WALL (       7 calls)
     v_h          :      0.00s CPU      0.01s WALL (       7 calls)
     v_xc         :      0.24s CPU      0.26s WALL (       9 calls)
     newd         :      0.03s CPU      0.05s WALL (       7 calls)
     mix_rho      :      0.00s CPU      0.02s WALL (       6 calls)

     Called by c_bands:
     init_us_2    :      0.07s CPU      0.07s WALL (     975 calls)
     cegterg      :      2.85s CPU      3.01s WALL (     390 calls)

     Called by sum_band:
     sum_band:bec :      0.00s CPU      0.01s WALL (     390 calls)
     addusdens    :      0.03s CPU      0.03s WALL (       6 calls)

     Called by *egterg:
     h_psi        :      1.80s CPU      1.87s WALL (    1297 calls)
     s_psi        :      0.07s CPU      0.07s WALL (    1297 calls)
     g_psi        :      0.00s CPU      0.00s WALL (     842 calls)
     cdiaghg      :      0.76s CPU      1.46s WALL (    1232 calls)
     cegterg:over :      0.23s CPU      0.26s WALL (     842 calls)
     cegterg:upda :      0.10s CPU      0.10s WALL (     842 calls)
     cegterg:last :      0.05s CPU      0.05s WALL (     390 calls)
     cdiaghg:chol :      0.06s CPU      0.40s WALL (    1232 calls)
     cdiaghg:inve :      0.02s CPU      0.05s WALL (    1232 calls)
     cdiaghg:para :      0.08s CPU      0.09s WALL (    2464 calls)

     Called by h_psi:
     h_psi:pot    :      1.79s CPU      1.86s WALL (    1297 calls)
     h_psi:calbec :      0.12s CPU      0.13s WALL (    1297 calls)
     vloc_psi     :      1.60s CPU      1.66s WALL (    1297 calls)
     add_vuspsi   :      0.07s CPU      0.07s WALL (    1297 calls)

     General routines
     calbec       :      0.20s CPU      0.21s WALL (    2012 calls)
     fft          :      0.03s CPU      0.07s WALL (     114 calls)
     ffts         :      0.00s CPU      0.00s WALL (      13 calls)
     fftw         :      1.83s CPU      1.89s WALL (   38522 calls)
     interpolate  :      0.00s CPU      0.01s WALL (       7 calls)
 
     Parallel routines
     fft_scatt_xy :      0.26s CPU      0.27s WALL (   38649 calls)
     fft_scatt_yz :      0.95s CPU      1.00s WALL (   38649 calls)
 
     PWSCF        :      5.27s CPU      8.18s WALL

 
   This run was terminated on:  16:24:47  16Jun2022            

=------------------------------------------------------------------------------=
   JOB DONE.
=------------------------------------------------------------------------------=
