
     Program PWSCF v.6.4.1 starts on 15Jun2022 at 20:44:22 

     This program is part of the open-source Quantum ESPRESSO suite
     for quantum simulation of materials; please cite
         "P. Giannozzi et al., J. Phys.:Condens. Matter 21 395502 (2009);
         "P. Giannozzi et al., J. Phys.:Condens. Matter 29 465901 (2017);
          URL http://www.quantum-espresso.org", 
     in publications or presentations arising from this work. More details at
     http://www.quantum-espresso.org/quote

     Parallel version (MPI), running on    64 processors

     MPI processes distributed on     1 nodes
     K-points division:     npool     =       4
     R & G space division:  proc/nbgrp/npool/nimage =      16
     Waiting for input...
     Reading input from standard input
Warning: card &IONS ignored
Warning: card   UPSCALE           = 100.D0, ignored
Warning: card / ignored
Warning: card &CELL ignored
Warning: card   CELL_DYNAMICS     = 'BFGS' ignored
Warning: card   PRESS_CONV_THR    = 0.5D0 ignored
Warning: card   CELL_DOFREE = 'ALL' ignored
Warning: card / ignored

     Current dimensions of program PWSCF are:
     Max number of different atomic species (ntypx) = 10
     Max number of k-points (npk) =  40000
     Max angular momentum in pseudopotentials (lmaxx) =  3

     Subspace diagonalization in iterative solution of the eigenvalue problem:
     one sub-group per band group will be used
     scalapack distributed-memory algorithm (size of sub-group:  2*  2 procs)

 
     Parallelization info
     --------------------
     sticks:   dense  smooth     PW     G-vecs:    dense   smooth      PW
     Min         102      53     16                 4902     1903     328
     Max         103      54     17                 4907     1910     333
     Sum        1639     859    271                78461    30527    5291
 


     bravais-lattice index     =            0
     lattice parameter (alat)  =       6.2852  a.u.
     unit-cell volume          =     315.6630 (a.u.)^3
     number of atoms/cell      =            4
     number of atomic types    =            2
     number of electrons       =        52.00
     number of Kohn-Sham states=           26
     kinetic-energy cutoff     =      80.0000  Ry
     charge density cutoff     =     600.0000  Ry
     convergence threshold     =      1.0E-06
     mixing beta               =       0.5000
     number of iterations used =            8  plain     mixing
     Exchange-correlation      = SLA  PW   PSX  PSC ( 1  4 10  8 0 0)
     Using LIBXC version       =    4   3   4

     celldm(1)=   6.285189  celldm(2)=   0.000000  celldm(3)=   0.000000
     celldm(4)=   0.000000  celldm(5)=   0.000000  celldm(6)=   0.000000

     crystal axes: (cart. coord. in units of alat)
               a(1) = (   1.000000   0.000000  -0.000000 )  
               a(2) = (  -0.500000   0.866025  -0.000000 )  
               a(3) = (  -0.000000  -0.000000   1.468041 )  

     reciprocal axes: (cart. coord. in units 2 pi/alat)
               b(1) = (  1.000000  0.577350  0.000000 )  
               b(2) = ( -0.000000  1.154701  0.000000 )  
               b(3) = (  0.000000  0.000000  0.681180 )  


     PseudoPot. # 1 for Zn read from file:
     ./GBRV_PBEsol/zn_pbesol_v1.uspp.F.UPF
     MD5 check sum: 7d8615e52efe7c1e2b1899de8658bae2
     Pseudo is Ultrasoft, Zval = 20.0
     Generated by new atomic code, or converted to UPF format
     Using radial grid of  943 points,  6 beta functions with: 
                l(1) =   0
                l(2) =   0
                l(3) =   1
                l(4) =   1
                l(5) =   2
                l(6) =   2
     Q(r) pseudized with  8 coefficients,  rinner =    1.100   1.100   1.100
                                                       1.100   1.100

     PseudoPot. # 2 for O  read from file:
     ./GBRV_PBEsol/o_pbesol_v1.2.uspp.F.UPF
     MD5 check sum: 501638753501ef6325af9037351f7734
     Pseudo is Ultrasoft + core correction, Zval =  6.0
     Generated by new atomic code, or converted to UPF format
     Using radial grid of  737 points,  5 beta functions with: 
                l(1) =   0
                l(2) =   0
                l(3) =   1
                l(4) =   1
                l(5) =   2
     Q(r) pseudized with  8 coefficients,  rinner =    0.900   0.900   0.900
                                                       0.900   0.900

     atomic species   valence    mass     pseudopotential
        Zn            20.00    65.38000     Zn( 1.00)
        O              6.00    15.99900     O ( 1.00)

     No symmetry found


                                    s                        frac. trans.

      isym =  1     identity                                     

 cryst.   s( 1) = (     1          0          0      )
                  (     0          1          0      )
                  (     0          0          1      )

 cart.    s( 1) = (  1.0000000 -0.0000000  0.0000000 )
                  (  0.0000000  1.0000000  0.0000000 )
                  ( -0.0000000 -0.0000000  1.0000000 )


   Cartesian axes

     site n.     atom                  positions (alat units)
         1           O   tau(   1) = (   0.5000002   0.2886754   0.0107840  )
         2           O   tau(   2) = (   0.0000001   0.5773491   0.7448041  )
         3           Zn  tau(   3) = (   0.5000000   0.2886746   0.6405856  )
         4           Zn  tau(   4) = (  -0.0000003   0.5773507   1.3746058  )

   Crystallographic axes

     site n.     atom                  positions (cryst. coord.)
         1           O   tau(   1) = (  0.6666670  0.3333337  0.0073459  )
         2           O   tau(   2) = (  0.3333329  0.6666657  0.5073458  )
         3           Zn  tau(   3) = (  0.6666664  0.3333329  0.4363542  )
         4           Zn  tau(   4) = (  0.3333336  0.6666677  0.9363542  )

     number of k points=   260
                       cart. coord. in units 2pi/alat
        k(    1) = (   0.0000000   0.0000000   0.0000000), wk =   0.0039062
        k(    2) = (   0.0000000   0.0000000   0.0851475), wk =   0.0078125
        k(    3) = (   0.0000000   0.0000000   0.1702950), wk =   0.0078125
        k(    4) = (   0.0000000   0.0000000   0.2554425), wk =   0.0078125
        k(    5) = (  -0.0000000  -0.0000000  -0.3405900), wk =   0.0039062
        k(    6) = (  -0.0000000   0.1443376   0.0000000), wk =   0.0078125
        k(    7) = (  -0.0000000   0.1443376   0.0851475), wk =   0.0078125
        k(    8) = (  -0.0000000   0.1443376   0.1702951), wk =   0.0078125
        k(    9) = (  -0.0000000   0.1443376   0.2554426), wk =   0.0078125
        k(   10) = (  -0.0000000   0.1443376  -0.3405900), wk =   0.0078125
        k(   11) = (  -0.0000000   0.1443376  -0.2554425), wk =   0.0078125
        k(   12) = (  -0.0000000   0.1443376  -0.1702950), wk =   0.0078125
        k(   13) = (  -0.0000000   0.1443376  -0.0851475), wk =   0.0078125
        k(   14) = (  -0.0000000   0.2886752   0.0000001), wk =   0.0078125
        k(   15) = (  -0.0000000   0.2886752   0.0851476), wk =   0.0078125
        k(   16) = (  -0.0000000   0.2886752   0.1702951), wk =   0.0078125
        k(   17) = (  -0.0000000   0.2886752   0.2554426), wk =   0.0078125
        k(   18) = (  -0.0000001   0.2886752  -0.3405900), wk =   0.0078125
        k(   19) = (  -0.0000001   0.2886752  -0.2554425), wk =   0.0078125
        k(   20) = (  -0.0000001   0.2886752  -0.1702950), wk =   0.0078125
        k(   21) = (  -0.0000000   0.2886752  -0.0851474), wk =   0.0078125
        k(   22) = (  -0.0000001   0.4330128   0.0000001), wk =   0.0078125
        k(   23) = (  -0.0000001   0.4330128   0.0851476), wk =   0.0078125
        k(   24) = (  -0.0000000   0.4330128   0.1702951), wk =   0.0078125
        k(   25) = (  -0.0000000   0.4330128   0.2554426), wk =   0.0078125
        k(   26) = (  -0.0000001   0.4330128  -0.3405899), wk =   0.0078125
        k(   27) = (  -0.0000001   0.4330128  -0.2554424), wk =   0.0078125
        k(   28) = (  -0.0000001   0.4330128  -0.1702949), wk =   0.0078125
        k(   29) = (  -0.0000001   0.4330128  -0.0851474), wk =   0.0078125
        k(   30) = (   0.0000001  -0.5773504  -0.0000001), wk =   0.0039062
        k(   31) = (   0.0000001  -0.5773504   0.0851474), wk =   0.0078125
        k(   32) = (   0.0000001  -0.5773504   0.1702949), wk =   0.0078125
        k(   33) = (   0.0000001  -0.5773504   0.2554424), wk =   0.0078125
        k(   34) = (   0.0000001  -0.5773505  -0.3405902), wk =   0.0039062
        k(   35) = (   0.1250000   0.0721688   0.0000000), wk =   0.0078125
        k(   36) = (   0.1250000   0.0721688   0.0851475), wk =   0.0078125
        k(   37) = (   0.1250000   0.0721688   0.1702951), wk =   0.0078125
        k(   38) = (   0.1250000   0.0721688   0.2554426), wk =   0.0078125
        k(   39) = (   0.1250000   0.0721688  -0.3405900), wk =   0.0078125
        k(   40) = (   0.1250000   0.0721688  -0.2554425), wk =   0.0078125
        k(   41) = (   0.1250000   0.0721688  -0.1702950), wk =   0.0078125
        k(   42) = (   0.1250000   0.0721688  -0.0851475), wk =   0.0078125
        k(   43) = (   0.1250000   0.2165064   0.0000001), wk =   0.0078125
        k(   44) = (   0.1250000   0.2165064   0.0851476), wk =   0.0078125
        k(   45) = (   0.1250000   0.2165064   0.1702951), wk =   0.0078125
        k(   46) = (   0.1250000   0.2165064   0.2554426), wk =   0.0078125
        k(   47) = (   0.1249999   0.2165064  -0.3405900), wk =   0.0078125
        k(   48) = (   0.1250000   0.2165064  -0.2554425), wk =   0.0078125
        k(   49) = (   0.1250000   0.2165064  -0.1702950), wk =   0.0078125
        k(   50) = (   0.1250000   0.2165064  -0.0851474), wk =   0.0078125
        k(   51) = (   0.1249999   0.3608440   0.0000001), wk =   0.0078125
        k(   52) = (   0.1250000   0.3608440   0.0851476), wk =   0.0078125
        k(   53) = (   0.1250000   0.3608440   0.1702951), wk =   0.0078125
        k(   54) = (   0.1250000   0.3608440   0.2554426), wk =   0.0078125
        k(   55) = (   0.1249999   0.3608440  -0.3405899), wk =   0.0078125
        k(   56) = (   0.1249999   0.3608440  -0.2554424), wk =   0.0078125
        k(   57) = (   0.1249999   0.3608440  -0.1702949), wk =   0.0078125
        k(   58) = (   0.1249999   0.3608440  -0.0851474), wk =   0.0078125
        k(   59) = (   0.1249999   0.5051816   0.0000001), wk =   0.0078125
        k(   60) = (   0.1249999   0.5051816   0.0851476), wk =   0.0078125
        k(   61) = (   0.1249999   0.5051816   0.1702952), wk =   0.0078125
        k(   62) = (   0.1249999   0.5051816   0.2554427), wk =   0.0078125
        k(   63) = (   0.1249999   0.5051816  -0.3405899), wk =   0.0078125
        k(   64) = (   0.1249999   0.5051816  -0.2554424), wk =   0.0078125
        k(   65) = (   0.1249999   0.5051816  -0.1702949), wk =   0.0078125
        k(   66) = (   0.1249999   0.5051816  -0.0851474), wk =   0.0078125
        k(   67) = (   0.1250001  -0.5051816  -0.0000001), wk =   0.0078125
        k(   68) = (   0.1250001  -0.5051816   0.0851474), wk =   0.0078125
        k(   69) = (   0.1250001  -0.5051816   0.1702949), wk =   0.0078125
        k(   70) = (   0.1250001  -0.5051816   0.2554424), wk =   0.0078125
        k(   71) = (   0.1250000  -0.5051817  -0.3405902), wk =   0.0078125
        k(   72) = (   0.1250001  -0.5051817  -0.2554426), wk =   0.0078125
        k(   73) = (   0.1250001  -0.5051817  -0.1702951), wk =   0.0078125
        k(   74) = (   0.1250001  -0.5051817  -0.0851476), wk =   0.0078125
        k(   75) = (   0.1250001  -0.3608440  -0.0000001), wk =   0.0078125
        k(   76) = (   0.1250001  -0.3608440   0.0851474), wk =   0.0078125
        k(   77) = (   0.1250001  -0.3608440   0.1702949), wk =   0.0078125
        k(   78) = (   0.1250001  -0.3608440   0.2554425), wk =   0.0078125
        k(   79) = (   0.1250000  -0.3608441  -0.3405901), wk =   0.0078125
        k(   80) = (   0.1250000  -0.3608441  -0.2554426), wk =   0.0078125
        k(   81) = (   0.1250000  -0.3608441  -0.1702951), wk =   0.0078125
        k(   82) = (   0.1250000  -0.3608440  -0.0851476), wk =   0.0078125
        k(   83) = (   0.1250000  -0.2165064  -0.0000000), wk =   0.0078125
        k(   84) = (   0.1250000  -0.2165064   0.0851475), wk =   0.0078125
        k(   85) = (   0.1250000  -0.2165064   0.1702950), wk =   0.0078125
        k(   86) = (   0.1250000  -0.2165064   0.2554425), wk =   0.0078125
        k(   87) = (   0.1250000  -0.2165065  -0.3405901), wk =   0.0078125
        k(   88) = (   0.1250000  -0.2165065  -0.2554426), wk =   0.0078125
        k(   89) = (   0.1250000  -0.2165064  -0.1702951), wk =   0.0078125
        k(   90) = (   0.1250000  -0.2165064  -0.0851475), wk =   0.0078125
        k(   91) = (   0.1250000  -0.0721688  -0.0000000), wk =   0.0078125
        k(   92) = (   0.1250000  -0.0721688   0.0851475), wk =   0.0078125
        k(   93) = (   0.1250000  -0.0721688   0.1702950), wk =   0.0078125
        k(   94) = (   0.1250000  -0.0721688   0.2554425), wk =   0.0078125
        k(   95) = (   0.1250000  -0.0721689  -0.3405900), wk =   0.0078125
        k(   96) = (   0.1250000  -0.0721688  -0.2554425), wk =   0.0078125
        k(   97) = (   0.1250000  -0.0721688  -0.1702950), wk =   0.0078125
        k(   98) = (   0.1250000  -0.0721688  -0.0851475), wk =   0.0078125
        k(   99) = (   0.2500000   0.1443376   0.0000001), wk =   0.0078125
        k(  100) = (   0.2500000   0.1443376   0.0851476), wk =   0.0078125
        k(  101) = (   0.2500000   0.1443376   0.1702951), wk =   0.0078125
        k(  102) = (   0.2500000   0.1443376   0.2554426), wk =   0.0078125
        k(  103) = (   0.2500000   0.1443375  -0.3405900), wk =   0.0078125
        k(  104) = (   0.2500000   0.1443375  -0.2554425), wk =   0.0078125
        k(  105) = (   0.2500000   0.1443376  -0.1702950), wk =   0.0078125
        k(  106) = (   0.2500000   0.1443376  -0.0851474), wk =   0.0078125
        k(  107) = (   0.2500000   0.2886752   0.0000001), wk =   0.0078125
        k(  108) = (   0.2500000   0.2886752   0.0851476), wk =   0.0078125
        k(  109) = (   0.2500000   0.2886752   0.1702951), wk =   0.0078125
        k(  110) = (   0.2500000   0.2886752   0.2554426), wk =   0.0078125
        k(  111) = (   0.2499999   0.2886751  -0.3405899), wk =   0.0078125
        k(  112) = (   0.2499999   0.2886752  -0.2554424), wk =   0.0078125
        k(  113) = (   0.2499999   0.2886752  -0.1702949), wk =   0.0078125
        k(  114) = (   0.2500000   0.2886752  -0.0851474), wk =   0.0078125
        k(  115) = (   0.2499999   0.4330128   0.0000001), wk =   0.0078125
        k(  116) = (   0.2499999   0.4330128   0.0851476), wk =   0.0078125
        k(  117) = (   0.2500000   0.4330128   0.1702952), wk =   0.0078125
        k(  118) = (   0.2500000   0.4330128   0.2554427), wk =   0.0078125
        k(  119) = (   0.2499999   0.4330128  -0.3405899), wk =   0.0078125
        k(  120) = (   0.2499999   0.4330128  -0.2554424), wk =   0.0078125
        k(  121) = (   0.2499999   0.4330128  -0.1702949), wk =   0.0078125
        k(  122) = (   0.2499999   0.4330128  -0.0851474), wk =   0.0078125
        k(  123) = (   0.2499999   0.5773504   0.0000002), wk =   0.0078125
        k(  124) = (   0.2499999   0.5773504   0.0851477), wk =   0.0078125
        k(  125) = (   0.2499999   0.5773504   0.1702952), wk =   0.0078125
        k(  126) = (   0.2499999   0.5773504   0.2554427), wk =   0.0078125
        k(  127) = (   0.2499999   0.5773504  -0.3405899), wk =   0.0078125
        k(  128) = (   0.2499999   0.5773504  -0.2554424), wk =   0.0078125
        k(  129) = (   0.2499999   0.5773504  -0.1702949), wk =   0.0078125
        k(  130) = (   0.2499999   0.5773504  -0.0851473), wk =   0.0078125
        k(  131) = (   0.2500001  -0.4330129  -0.0000001), wk =   0.0078125
        k(  132) = (   0.2500001  -0.4330128   0.0851474), wk =   0.0078125
        k(  133) = (   0.2500001  -0.4330128   0.1702949), wk =   0.0078125
        k(  134) = (   0.2500001  -0.4330128   0.2554425), wk =   0.0078125
        k(  135) = (   0.2500000  -0.4330129  -0.3405901), wk =   0.0078125
        k(  136) = (   0.2500000  -0.4330129  -0.2554426), wk =   0.0078125
        k(  137) = (   0.2500000  -0.4330129  -0.1702951), wk =   0.0078125
        k(  138) = (   0.2500001  -0.4330129  -0.0851476), wk =   0.0078125
        k(  139) = (   0.2500000  -0.2886753  -0.0000000), wk =   0.0078125
        k(  140) = (   0.2500000  -0.2886752   0.0851475), wk =   0.0078125
        k(  141) = (   0.2500001  -0.2886752   0.1702950), wk =   0.0078125
        k(  142) = (   0.2500001  -0.2886752   0.2554425), wk =   0.0078125
        k(  143) = (   0.2500000  -0.2886753  -0.3405901), wk =   0.0078125
        k(  144) = (   0.2500000  -0.2886753  -0.2554426), wk =   0.0078125
        k(  145) = (   0.2500000  -0.2886753  -0.1702951), wk =   0.0078125
        k(  146) = (   0.2500000  -0.2886753  -0.0851476), wk =   0.0078125
        k(  147) = (   0.2500000  -0.1443376  -0.0000000), wk =   0.0078125
        k(  148) = (   0.2500000  -0.1443376   0.0851475), wk =   0.0078125
        k(  149) = (   0.2500000  -0.1443376   0.1702950), wk =   0.0078125
        k(  150) = (   0.2500000  -0.1443376   0.2554425), wk =   0.0078125
        k(  151) = (   0.2500000  -0.1443377  -0.3405901), wk =   0.0078125
        k(  152) = (   0.2500000  -0.1443377  -0.2554425), wk =   0.0078125
        k(  153) = (   0.2500000  -0.1443377  -0.1702950), wk =   0.0078125
        k(  154) = (   0.2500000  -0.1443377  -0.0851475), wk =   0.0078125
        k(  155) = (   0.2500000  -0.0000000   0.0000000), wk =   0.0078125
        k(  156) = (   0.2500000  -0.0000000   0.0851475), wk =   0.0078125
        k(  157) = (   0.2500000  -0.0000000   0.1702951), wk =   0.0078125
        k(  158) = (   0.2500000  -0.0000000   0.2554426), wk =   0.0078125
        k(  159) = (   0.2500000  -0.0000001  -0.3405900), wk =   0.0078125
        k(  160) = (   0.2500000  -0.0000001  -0.2554425), wk =   0.0078125
        k(  161) = (   0.2500000  -0.0000001  -0.1702950), wk =   0.0078125
        k(  162) = (   0.2500000  -0.0000000  -0.0851475), wk =   0.0078125
        k(  163) = (   0.3750000   0.2165064   0.0000001), wk =   0.0078125
        k(  164) = (   0.3750000   0.2165064   0.0851476), wk =   0.0078125
        k(  165) = (   0.3750000   0.2165064   0.1702951), wk =   0.0078125
        k(  166) = (   0.3750000   0.2165064   0.2554426), wk =   0.0078125
        k(  167) = (   0.3749999   0.2165063  -0.3405900), wk =   0.0078125
        k(  168) = (   0.3750000   0.2165063  -0.2554424), wk =   0.0078125
        k(  169) = (   0.3750000   0.2165063  -0.1702949), wk =   0.0078125
        k(  170) = (   0.3750000   0.2165064  -0.0851474), wk =   0.0078125
        k(  171) = (   0.3749999   0.3608440   0.0000001), wk =   0.0078125
        k(  172) = (   0.3750000   0.3608440   0.0851476), wk =   0.0078125
        k(  173) = (   0.3750000   0.3608440   0.1702952), wk =   0.0078125
        k(  174) = (   0.3750000   0.3608440   0.2554427), wk =   0.0078125
        k(  175) = (   0.3749999   0.3608439  -0.3405899), wk =   0.0078125
        k(  176) = (   0.3749999   0.3608439  -0.2554424), wk =   0.0078125
        k(  177) = (   0.3749999   0.3608440  -0.1702949), wk =   0.0078125
        k(  178) = (   0.3749999   0.3608440  -0.0851474), wk =   0.0078125
        k(  179) = (   0.3749999   0.5051816   0.0000002), wk =   0.0078125
        k(  180) = (   0.3749999   0.5051816   0.0851477), wk =   0.0078125
        k(  181) = (   0.3749999   0.5051816   0.1702952), wk =   0.0078125
        k(  182) = (   0.3749999   0.5051816   0.2554427), wk =   0.0078125
        k(  183) = (   0.3749999   0.5051815  -0.3405899), wk =   0.0078125
        k(  184) = (   0.3749999   0.5051815  -0.2554424), wk =   0.0078125
        k(  185) = (   0.3749999   0.5051816  -0.1702949), wk =   0.0078125
        k(  186) = (   0.3749999   0.5051816  -0.0851473), wk =   0.0078125
        k(  187) = (   0.3749999   0.6495192   0.0000002), wk =   0.0078125
        k(  188) = (   0.3749999   0.6495192   0.0851477), wk =   0.0078125
        k(  189) = (   0.3749999   0.6495192   0.1702952), wk =   0.0078125
        k(  190) = (   0.3749999   0.6495192   0.2554427), wk =   0.0078125
        k(  191) = (   0.3749999   0.6495191  -0.3405898), wk =   0.0078125
        k(  192) = (   0.3749999   0.6495192  -0.2554423), wk =   0.0078125
        k(  193) = (   0.3749999   0.6495192  -0.1702948), wk =   0.0078125
        k(  194) = (   0.3749999   0.6495192  -0.0851473), wk =   0.0078125
        k(  195) = (   0.3750001  -0.3608441  -0.0000000), wk =   0.0078125
        k(  196) = (   0.3750001  -0.3608441   0.0851475), wk =   0.0078125
        k(  197) = (   0.3750001  -0.3608441   0.1702950), wk =   0.0078125
        k(  198) = (   0.3750001  -0.3608440   0.2554425), wk =   0.0078125
        k(  199) = (   0.3750000  -0.3608441  -0.3405901), wk =   0.0078125
        k(  200) = (   0.3750000  -0.3608441  -0.2554426), wk =   0.0078125
        k(  201) = (   0.3750000  -0.3608441  -0.1702951), wk =   0.0078125
        k(  202) = (   0.3750000  -0.3608441  -0.0851476), wk =   0.0078125
        k(  203) = (   0.3750000  -0.2165065  -0.0000000), wk =   0.0078125
        k(  204) = (   0.3750000  -0.2165065   0.0851475), wk =   0.0078125
        k(  205) = (   0.3750000  -0.2165064   0.1702950), wk =   0.0078125
        k(  206) = (   0.3750000  -0.2165064   0.2554425), wk =   0.0078125
        k(  207) = (   0.3750000  -0.2165065  -0.3405901), wk =   0.0078125
        k(  208) = (   0.3750000  -0.2165065  -0.2554425), wk =   0.0078125
        k(  209) = (   0.3750000  -0.2165065  -0.1702950), wk =   0.0078125
        k(  210) = (   0.3750000  -0.2165065  -0.0851475), wk =   0.0078125
        k(  211) = (   0.3750000  -0.0721689   0.0000000), wk =   0.0078125
        k(  212) = (   0.3750000  -0.0721688   0.0851475), wk =   0.0078125
        k(  213) = (   0.3750000  -0.0721688   0.1702950), wk =   0.0078125
        k(  214) = (   0.3750000  -0.0721688   0.2554426), wk =   0.0078125
        k(  215) = (   0.3750000  -0.0721689  -0.3405900), wk =   0.0078125
        k(  216) = (   0.3750000  -0.0721689  -0.2554425), wk =   0.0078125
        k(  217) = (   0.3750000  -0.0721689  -0.1702950), wk =   0.0078125
        k(  218) = (   0.3750000  -0.0721689  -0.0851475), wk =   0.0078125
        k(  219) = (   0.3750000   0.0721688   0.0000001), wk =   0.0078125
        k(  220) = (   0.3750000   0.0721688   0.0851476), wk =   0.0078125
        k(  221) = (   0.3750000   0.0721688   0.1702951), wk =   0.0078125
        k(  222) = (   0.3750000   0.0721688   0.2554426), wk =   0.0078125
        k(  223) = (   0.3750000   0.0721687  -0.3405900), wk =   0.0078125
        k(  224) = (   0.3750000   0.0721687  -0.2554425), wk =   0.0078125
        k(  225) = (   0.3750000   0.0721687  -0.1702950), wk =   0.0078125
        k(  226) = (   0.3750000   0.0721687  -0.0851475), wk =   0.0078125
        k(  227) = (  -0.5000000  -0.2886751  -0.0000001), wk =   0.0039062
        k(  228) = (  -0.5000000  -0.2886751   0.0851474), wk =   0.0078125
        k(  229) = (  -0.4999999  -0.2886751   0.1702949), wk =   0.0078125
        k(  230) = (  -0.4999999  -0.2886751   0.2554424), wk =   0.0078125
        k(  231) = (  -0.5000000  -0.2886752  -0.3405902), wk =   0.0039062
        k(  232) = (  -0.5000000  -0.1443375  -0.0000001), wk =   0.0078125
        k(  233) = (  -0.5000000  -0.1443375   0.0851474), wk =   0.0078125
        k(  234) = (  -0.5000000  -0.1443375   0.1702949), wk =   0.0078125
        k(  235) = (  -0.5000000  -0.1443375   0.2554424), wk =   0.0078125
        k(  236) = (  -0.5000000  -0.1443376  -0.3405901), wk =   0.0078125
        k(  237) = (  -0.5000000  -0.1443376  -0.2554426), wk =   0.0078125
        k(  238) = (  -0.5000000  -0.1443376  -0.1702951), wk =   0.0078125
        k(  239) = (  -0.5000000  -0.1443375  -0.0851476), wk =   0.0078125
        k(  240) = (  -0.5000000   0.0000001  -0.0000001), wk =   0.0078125
        k(  241) = (  -0.5000000   0.0000001   0.0851475), wk =   0.0078125
        k(  242) = (  -0.5000000   0.0000001   0.1702950), wk =   0.0078125
        k(  243) = (  -0.5000000   0.0000001   0.2554425), wk =   0.0078125
        k(  244) = (  -0.5000000   0.0000000  -0.3405901), wk =   0.0078125
        k(  245) = (  -0.5000000   0.0000000  -0.2554426), wk =   0.0078125
        k(  246) = (  -0.5000000   0.0000001  -0.1702951), wk =   0.0078125
        k(  247) = (  -0.5000000   0.0000001  -0.0851476), wk =   0.0078125
        k(  248) = (  -0.5000000   0.1443377  -0.0000000), wk =   0.0078125
        k(  249) = (  -0.5000000   0.1443377   0.0851475), wk =   0.0078125
        k(  250) = (  -0.5000000   0.1443377   0.1702950), wk =   0.0078125
        k(  251) = (  -0.5000000   0.1443377   0.2554425), wk =   0.0078125
        k(  252) = (  -0.5000000   0.1443376  -0.3405901), wk =   0.0078125
        k(  253) = (  -0.5000000   0.1443377  -0.2554426), wk =   0.0078125
        k(  254) = (  -0.5000000   0.1443377  -0.1702950), wk =   0.0078125
        k(  255) = (  -0.5000000   0.1443377  -0.0851475), wk =   0.0078125
        k(  256) = (  -0.4999999  -0.8660256  -0.0000003), wk =   0.0039062
        k(  257) = (  -0.4999999  -0.8660256   0.0851472), wk =   0.0078125
        k(  258) = (  -0.4999999  -0.8660256   0.1702948), wk =   0.0078125
        k(  259) = (  -0.4999999  -0.8660256   0.2554423), wk =   0.0078125
        k(  260) = (  -0.4999999  -0.8660256  -0.3405903), wk =   0.0039062

                       cryst. coord.
        k(    1) = (   0.0000000   0.0000000   0.0000000), wk =   0.0039062
        k(    2) = (  -0.0000000  -0.0000000   0.1250000), wk =   0.0078125
        k(    3) = (  -0.0000000  -0.0000000   0.2500000), wk =   0.0078125
        k(    4) = (  -0.0000000  -0.0000000   0.3750000), wk =   0.0078125
        k(    5) = (   0.0000000   0.0000000  -0.5000000), wk =   0.0039062
        k(    6) = (   0.0000000   0.1250000   0.0000000), wk =   0.0078125
        k(    7) = (  -0.0000000   0.1250000   0.1250000), wk =   0.0078125
        k(    8) = (  -0.0000000   0.1250000   0.2500000), wk =   0.0078125
        k(    9) = (  -0.0000000   0.1250000   0.3750000), wk =   0.0078125
        k(   10) = (   0.0000000   0.1250000  -0.5000000), wk =   0.0078125
        k(   11) = (   0.0000000   0.1250000  -0.3750000), wk =   0.0078125
        k(   12) = (   0.0000000   0.1250000  -0.2500000), wk =   0.0078125
        k(   13) = (   0.0000000   0.1250000  -0.1250000), wk =   0.0078125
        k(   14) = (   0.0000000   0.2500000   0.0000000), wk =   0.0078125
        k(   15) = (   0.0000000   0.2500000   0.1250000), wk =   0.0078125
        k(   16) = (  -0.0000000   0.2500000   0.2500000), wk =   0.0078125
        k(   17) = (  -0.0000000   0.2500000   0.3750000), wk =   0.0078125
        k(   18) = (   0.0000000   0.2500000  -0.5000000), wk =   0.0078125
        k(   19) = (   0.0000000   0.2500000  -0.3750000), wk =   0.0078125
        k(   20) = (   0.0000000   0.2500000  -0.2500000), wk =   0.0078125
        k(   21) = (  -0.0000000   0.2500000  -0.1250000), wk =   0.0078125
        k(   22) = (   0.0000000   0.3750000   0.0000000), wk =   0.0078125
        k(   23) = (   0.0000000   0.3750000   0.1250000), wk =   0.0078125
        k(   24) = (   0.0000000   0.3750000   0.2500000), wk =   0.0078125
        k(   25) = (   0.0000000   0.3750000   0.3750000), wk =   0.0078125
        k(   26) = (   0.0000000   0.3750000  -0.5000000), wk =   0.0078125
        k(   27) = (   0.0000000   0.3750000  -0.3750000), wk =   0.0078125
        k(   28) = (   0.0000000   0.3750000  -0.2500000), wk =   0.0078125
        k(   29) = (   0.0000000   0.3750000  -0.1250000), wk =   0.0078125
        k(   30) = (  -0.0000000  -0.5000000  -0.0000000), wk =   0.0039062
        k(   31) = (  -0.0000000  -0.5000000   0.1250000), wk =   0.0078125
        k(   32) = (   0.0000000  -0.5000000   0.2500000), wk =   0.0078125
        k(   33) = (  -0.0000000  -0.5000000   0.3750000), wk =   0.0078125
        k(   34) = (   0.0000000  -0.5000000  -0.5000000), wk =   0.0039062
        k(   35) = (   0.1250000   0.0000000  -0.0000000), wk =   0.0078125
        k(   36) = (   0.1250000  -0.0000000   0.1250000), wk =   0.0078125
        k(   37) = (   0.1250000   0.0000000   0.2500000), wk =   0.0078125
        k(   38) = (   0.1250000  -0.0000000   0.3750000), wk =   0.0078125
        k(   39) = (   0.1250000   0.0000000  -0.5000000), wk =   0.0078125
        k(   40) = (   0.1250000  -0.0000000  -0.3750000), wk =   0.0078125
        k(   41) = (   0.1250000  -0.0000000  -0.2500000), wk =   0.0078125
        k(   42) = (   0.1250000   0.0000000  -0.1250000), wk =   0.0078125
        k(   43) = (   0.1250000   0.1250000   0.0000000), wk =   0.0078125
        k(   44) = (   0.1250000   0.1250000   0.1250000), wk =   0.0078125
        k(   45) = (   0.1250000   0.1250000   0.2500000), wk =   0.0078125
        k(   46) = (   0.1250000   0.1250000   0.3750000), wk =   0.0078125
        k(   47) = (   0.1250000   0.1250000  -0.5000000), wk =   0.0078125
        k(   48) = (   0.1250000   0.1250000  -0.3750000), wk =   0.0078125
        k(   49) = (   0.1250000   0.1250000  -0.2500000), wk =   0.0078125
        k(   50) = (   0.1250000   0.1250000  -0.1250000), wk =   0.0078125
        k(   51) = (   0.1250000   0.2500000   0.0000000), wk =   0.0078125
        k(   52) = (   0.1250000   0.2500000   0.1250000), wk =   0.0078125
        k(   53) = (   0.1250000   0.2500000   0.2500000), wk =   0.0078125
        k(   54) = (   0.1250000   0.2500000   0.3750000), wk =   0.0078125
        k(   55) = (   0.1250000   0.2500000  -0.5000000), wk =   0.0078125
        k(   56) = (   0.1250000   0.2500000  -0.3750000), wk =   0.0078125
        k(   57) = (   0.1250000   0.2500000  -0.2500000), wk =   0.0078125
        k(   58) = (   0.1250000   0.2500000  -0.1250000), wk =   0.0078125
        k(   59) = (   0.1250000   0.3750000   0.0000000), wk =   0.0078125
        k(   60) = (   0.1250000   0.3750000   0.1250000), wk =   0.0078125
        k(   61) = (   0.1250000   0.3750000   0.2500000), wk =   0.0078125
        k(   62) = (   0.1250000   0.3750000   0.3750000), wk =   0.0078125
        k(   63) = (   0.1250000   0.3750000  -0.5000000), wk =   0.0078125
        k(   64) = (   0.1250000   0.3750000  -0.3750000), wk =   0.0078125
        k(   65) = (   0.1250000   0.3750000  -0.2500000), wk =   0.0078125
        k(   66) = (   0.1250000   0.3750000  -0.1250000), wk =   0.0078125
        k(   67) = (   0.1250000  -0.5000000   0.0000000), wk =   0.0078125
        k(   68) = (   0.1250000  -0.5000000   0.1250000), wk =   0.0078125
        k(   69) = (   0.1250000  -0.5000000   0.2500000), wk =   0.0078125
        k(   70) = (   0.1250000  -0.5000000   0.3750000), wk =   0.0078125
        k(   71) = (   0.1250000  -0.5000000  -0.5000000), wk =   0.0078125
        k(   72) = (   0.1250000  -0.5000000  -0.3750000), wk =   0.0078125
        k(   73) = (   0.1250000  -0.5000000  -0.2500000), wk =   0.0078125
        k(   74) = (   0.1250000  -0.5000000  -0.1250000), wk =   0.0078125
        k(   75) = (   0.1250000  -0.3750000  -0.0000000), wk =   0.0078125
        k(   76) = (   0.1250000  -0.3750000   0.1250000), wk =   0.0078125
        k(   77) = (   0.1250000  -0.3750000   0.2500000), wk =   0.0078125
        k(   78) = (   0.1250000  -0.3750000   0.3750000), wk =   0.0078125
        k(   79) = (   0.1250000  -0.3750000  -0.5000000), wk =   0.0078125
        k(   80) = (   0.1250000  -0.3750000  -0.3750000), wk =   0.0078125
        k(   81) = (   0.1250000  -0.3750000  -0.2500000), wk =   0.0078125
        k(   82) = (   0.1250000  -0.3750000  -0.1250000), wk =   0.0078125
        k(   83) = (   0.1250000  -0.2500000  -0.0000000), wk =   0.0078125
        k(   84) = (   0.1250000  -0.2500000   0.1250000), wk =   0.0078125
        k(   85) = (   0.1250000  -0.2500000   0.2500000), wk =   0.0078125
        k(   86) = (   0.1250000  -0.2500000   0.3750000), wk =   0.0078125
        k(   87) = (   0.1250000  -0.2500000  -0.5000000), wk =   0.0078125
        k(   88) = (   0.1250000  -0.2500000  -0.3750000), wk =   0.0078125
        k(   89) = (   0.1250000  -0.2500000  -0.2500000), wk =   0.0078125
        k(   90) = (   0.1250000  -0.2500000  -0.1250000), wk =   0.0078125
        k(   91) = (   0.1250000  -0.1250000  -0.0000000), wk =   0.0078125
        k(   92) = (   0.1250000  -0.1250000   0.1250000), wk =   0.0078125
        k(   93) = (   0.1250000  -0.1250000   0.2500000), wk =   0.0078125
        k(   94) = (   0.1250000  -0.1250000   0.3750000), wk =   0.0078125
        k(   95) = (   0.1250000  -0.1250000  -0.5000000), wk =   0.0078125
        k(   96) = (   0.1250000  -0.1250000  -0.3750000), wk =   0.0078125
        k(   97) = (   0.1250000  -0.1250000  -0.2500000), wk =   0.0078125
        k(   98) = (   0.1250000  -0.1250000  -0.1250000), wk =   0.0078125
        k(   99) = (   0.2500000   0.0000000  -0.0000000), wk =   0.0078125
        k(  100) = (   0.2500000  -0.0000000   0.1250000), wk =   0.0078125
        k(  101) = (   0.2500000  -0.0000000   0.2500000), wk =   0.0078125
        k(  102) = (   0.2500000  -0.0000000   0.3750000), wk =   0.0078125
        k(  103) = (   0.2500000  -0.0000000  -0.5000000), wk =   0.0078125
        k(  104) = (   0.2500000   0.0000000  -0.3750000), wk =   0.0078125
        k(  105) = (   0.2500000   0.0000000  -0.2500000), wk =   0.0078125
        k(  106) = (   0.2500000   0.0000000  -0.1250000), wk =   0.0078125
        k(  107) = (   0.2500000   0.1250000  -0.0000000), wk =   0.0078125
        k(  108) = (   0.2500000   0.1250000   0.1250000), wk =   0.0078125
        k(  109) = (   0.2500000   0.1250000   0.2500000), wk =   0.0078125
        k(  110) = (   0.2500000   0.1250000   0.3750000), wk =   0.0078125
        k(  111) = (   0.2500000   0.1250000  -0.5000000), wk =   0.0078125
        k(  112) = (   0.2500000   0.1250000  -0.3750000), wk =   0.0078125
        k(  113) = (   0.2500000   0.1250000  -0.2500000), wk =   0.0078125
        k(  114) = (   0.2500000   0.1250000  -0.1250000), wk =   0.0078125
        k(  115) = (   0.2500000   0.2500000   0.0000000), wk =   0.0078125
        k(  116) = (   0.2500000   0.2500000   0.1250000), wk =   0.0078125
        k(  117) = (   0.2500000   0.2500000   0.2500000), wk =   0.0078125
        k(  118) = (   0.2500000   0.2500000   0.3750000), wk =   0.0078125
        k(  119) = (   0.2500000   0.2500000  -0.5000000), wk =   0.0078125
        k(  120) = (   0.2500000   0.2500000  -0.3750000), wk =   0.0078125
        k(  121) = (   0.2500000   0.2500000  -0.2500000), wk =   0.0078125
        k(  122) = (   0.2500000   0.2500000  -0.1250000), wk =   0.0078125
        k(  123) = (   0.2500000   0.3750000  -0.0000000), wk =   0.0078125
        k(  124) = (   0.2500000   0.3750000   0.1250000), wk =   0.0078125
        k(  125) = (   0.2500000   0.3750000   0.2500000), wk =   0.0078125
        k(  126) = (   0.2500000   0.3750000   0.3750000), wk =   0.0078125
        k(  127) = (   0.2500000   0.3750000  -0.5000000), wk =   0.0078125
        k(  128) = (   0.2500000   0.3750000  -0.3750000), wk =   0.0078125
        k(  129) = (   0.2500000   0.3750000  -0.2500000), wk =   0.0078125
        k(  130) = (   0.2500000   0.3750000  -0.1250000), wk =   0.0078125
        k(  131) = (   0.2500000  -0.5000000  -0.0000000), wk =   0.0078125
        k(  132) = (   0.2500000  -0.5000000   0.1250000), wk =   0.0078125
        k(  133) = (   0.2500000  -0.5000000   0.2500000), wk =   0.0078125
        k(  134) = (   0.2500000  -0.5000000   0.3750000), wk =   0.0078125
        k(  135) = (   0.2500000  -0.5000000  -0.5000000), wk =   0.0078125
        k(  136) = (   0.2500000  -0.5000000  -0.3750000), wk =   0.0078125
        k(  137) = (   0.2500000  -0.5000000  -0.2500000), wk =   0.0078125
        k(  138) = (   0.2500000  -0.5000000  -0.1250000), wk =   0.0078125
        k(  139) = (   0.2500000  -0.3750000  -0.0000000), wk =   0.0078125
        k(  140) = (   0.2500000  -0.3750000   0.1250000), wk =   0.0078125
        k(  141) = (   0.2500000  -0.3750000   0.2500000), wk =   0.0078125
        k(  142) = (   0.2500000  -0.3750000   0.3750000), wk =   0.0078125
        k(  143) = (   0.2500000  -0.3750000  -0.5000000), wk =   0.0078125
        k(  144) = (   0.2500000  -0.3750000  -0.3750000), wk =   0.0078125
        k(  145) = (   0.2500000  -0.3750000  -0.2500000), wk =   0.0078125
        k(  146) = (   0.2500000  -0.3750000  -0.1250000), wk =   0.0078125
        k(  147) = (   0.2500000  -0.2500000  -0.0000000), wk =   0.0078125
        k(  148) = (   0.2500000  -0.2500000   0.1250000), wk =   0.0078125
        k(  149) = (   0.2500000  -0.2500000   0.2500000), wk =   0.0078125
        k(  150) = (   0.2500000  -0.2500000   0.3750000), wk =   0.0078125
        k(  151) = (   0.2500000  -0.2500000  -0.5000000), wk =   0.0078125
        k(  152) = (   0.2500000  -0.2500000  -0.3750000), wk =   0.0078125
        k(  153) = (   0.2500000  -0.2500000  -0.2500000), wk =   0.0078125
        k(  154) = (   0.2500000  -0.2500000  -0.1250000), wk =   0.0078125
        k(  155) = (   0.2500000  -0.1250000  -0.0000000), wk =   0.0078125
        k(  156) = (   0.2500000  -0.1250000   0.1250000), wk =   0.0078125
        k(  157) = (   0.2500000  -0.1250000   0.2500000), wk =   0.0078125
        k(  158) = (   0.2500000  -0.1250000   0.3750000), wk =   0.0078125
        k(  159) = (   0.2500000  -0.1250000  -0.5000000), wk =   0.0078125
        k(  160) = (   0.2500000  -0.1250000  -0.3750000), wk =   0.0078125
        k(  161) = (   0.2500000  -0.1250000  -0.2500000), wk =   0.0078125
        k(  162) = (   0.2500000  -0.1250000  -0.1250000), wk =   0.0078125
        k(  163) = (   0.3750000  -0.0000000  -0.0000000), wk =   0.0078125
        k(  164) = (   0.3750000  -0.0000000   0.1250000), wk =   0.0078125
        k(  165) = (   0.3750000  -0.0000000   0.2500000), wk =   0.0078125
        k(  166) = (   0.3750000   0.0000000   0.3750000), wk =   0.0078125
        k(  167) = (   0.3750000  -0.0000000  -0.5000000), wk =   0.0078125
        k(  168) = (   0.3750000   0.0000000  -0.3750000), wk =   0.0078125
        k(  169) = (   0.3750000   0.0000000  -0.2500000), wk =   0.0078125
        k(  170) = (   0.3750000   0.0000000  -0.1250000), wk =   0.0078125
        k(  171) = (   0.3750000   0.1250000  -0.0000000), wk =   0.0078125
        k(  172) = (   0.3750000   0.1250000   0.1250000), wk =   0.0078125
        k(  173) = (   0.3750000   0.1250000   0.2500000), wk =   0.0078125
        k(  174) = (   0.3750000   0.1250000   0.3750000), wk =   0.0078125
        k(  175) = (   0.3750000   0.1250000  -0.5000000), wk =   0.0078125
        k(  176) = (   0.3750000   0.1250000  -0.3750000), wk =   0.0078125
        k(  177) = (   0.3750000   0.1250000  -0.2500000), wk =   0.0078125
        k(  178) = (   0.3750000   0.1250000  -0.1250000), wk =   0.0078125
        k(  179) = (   0.3750000   0.2500000   0.0000000), wk =   0.0078125
        k(  180) = (   0.3750000   0.2500000   0.1250000), wk =   0.0078125
        k(  181) = (   0.3750000   0.2500000   0.2500000), wk =   0.0078125
        k(  182) = (   0.3750000   0.2500000   0.3750000), wk =   0.0078125
        k(  183) = (   0.3750000   0.2500000  -0.5000000), wk =   0.0078125
        k(  184) = (   0.3750000   0.2500000  -0.3750000), wk =   0.0078125
        k(  185) = (   0.3750000   0.2500000  -0.2500000), wk =   0.0078125
        k(  186) = (   0.3750000   0.2500000  -0.1250000), wk =   0.0078125
        k(  187) = (   0.3750000   0.3750000   0.0000000), wk =   0.0078125
        k(  188) = (   0.3750000   0.3750000   0.1250000), wk =   0.0078125
        k(  189) = (   0.3750000   0.3750000   0.2500000), wk =   0.0078125
        k(  190) = (   0.3750000   0.3750000   0.3750000), wk =   0.0078125
        k(  191) = (   0.3750000   0.3750000  -0.5000000), wk =   0.0078125
        k(  192) = (   0.3750000   0.3750000  -0.3750000), wk =   0.0078125
        k(  193) = (   0.3750000   0.3750000  -0.2500000), wk =   0.0078125
        k(  194) = (   0.3750000   0.3750000  -0.1250000), wk =   0.0078125
        k(  195) = (   0.3750000  -0.5000000  -0.0000000), wk =   0.0078125
        k(  196) = (   0.3750000  -0.5000000   0.1250000), wk =   0.0078125
        k(  197) = (   0.3750000  -0.5000000   0.2500000), wk =   0.0078125
        k(  198) = (   0.3750000  -0.5000000   0.3750000), wk =   0.0078125
        k(  199) = (   0.3750000  -0.5000000  -0.5000000), wk =   0.0078125
        k(  200) = (   0.3750000  -0.5000000  -0.3750000), wk =   0.0078125
        k(  201) = (   0.3750000  -0.5000000  -0.2500000), wk =   0.0078125
        k(  202) = (   0.3750000  -0.5000000  -0.1250000), wk =   0.0078125
        k(  203) = (   0.3750000  -0.3750000  -0.0000000), wk =   0.0078125
        k(  204) = (   0.3750000  -0.3750000   0.1250000), wk =   0.0078125
        k(  205) = (   0.3750000  -0.3750000   0.2500000), wk =   0.0078125
        k(  206) = (   0.3750000  -0.3750000   0.3750000), wk =   0.0078125
        k(  207) = (   0.3750000  -0.3750000  -0.5000000), wk =   0.0078125
        k(  208) = (   0.3750000  -0.3750000  -0.3750000), wk =   0.0078125
        k(  209) = (   0.3750000  -0.3750000  -0.2500000), wk =   0.0078125
        k(  210) = (   0.3750000  -0.3750000  -0.1250000), wk =   0.0078125
        k(  211) = (   0.3750000  -0.2500000  -0.0000000), wk =   0.0078125
        k(  212) = (   0.3750000  -0.2500000   0.1250000), wk =   0.0078125
        k(  213) = (   0.3750000  -0.2500000   0.2500000), wk =   0.0078125
        k(  214) = (   0.3750000  -0.2500000   0.3750000), wk =   0.0078125
        k(  215) = (   0.3750000  -0.2500000  -0.5000000), wk =   0.0078125
        k(  216) = (   0.3750000  -0.2500000  -0.3750000), wk =   0.0078125
        k(  217) = (   0.3750000  -0.2500000  -0.2500000), wk =   0.0078125
        k(  218) = (   0.3750000  -0.2500000  -0.1250000), wk =   0.0078125
        k(  219) = (   0.3750000  -0.1250000  -0.0000000), wk =   0.0078125
        k(  220) = (   0.3750000  -0.1250000   0.1250000), wk =   0.0078125
        k(  221) = (   0.3750000  -0.1250000   0.2500000), wk =   0.0078125
        k(  222) = (   0.3750000  -0.1250000   0.3750000), wk =   0.0078125
        k(  223) = (   0.3750000  -0.1250000  -0.5000000), wk =   0.0078125
        k(  224) = (   0.3750000  -0.1250000  -0.3750000), wk =   0.0078125
        k(  225) = (   0.3750000  -0.1250000  -0.2500000), wk =   0.0078125
        k(  226) = (   0.3750000  -0.1250000  -0.1250000), wk =   0.0078125
        k(  227) = (  -0.5000000  -0.0000000   0.0000000), wk =   0.0039062
        k(  228) = (  -0.5000000  -0.0000000   0.1250000), wk =   0.0078125
        k(  229) = (  -0.5000000  -0.0000000   0.2500000), wk =   0.0078125
        k(  230) = (  -0.5000000  -0.0000000   0.3750000), wk =   0.0078125
        k(  231) = (  -0.5000000   0.0000000  -0.5000000), wk =   0.0039062
        k(  232) = (  -0.5000000   0.1250000   0.0000000), wk =   0.0078125
        k(  233) = (  -0.5000000   0.1250000   0.1250000), wk =   0.0078125
        k(  234) = (  -0.5000000   0.1250000   0.2500000), wk =   0.0078125
        k(  235) = (  -0.5000000   0.1250000   0.3750000), wk =   0.0078125
        k(  236) = (  -0.5000000   0.1250000  -0.5000000), wk =   0.0078125
        k(  237) = (  -0.5000000   0.1250000  -0.3750000), wk =   0.0078125
        k(  238) = (  -0.5000000   0.1250000  -0.2500000), wk =   0.0078125
        k(  239) = (  -0.5000000   0.1250000  -0.1250000), wk =   0.0078125
        k(  240) = (  -0.5000000   0.2500000   0.0000000), wk =   0.0078125
        k(  241) = (  -0.5000000   0.2500000   0.1250000), wk =   0.0078125
        k(  242) = (  -0.5000000   0.2500000   0.2500000), wk =   0.0078125
        k(  243) = (  -0.5000000   0.2500000   0.3750000), wk =   0.0078125
        k(  244) = (  -0.5000000   0.2500000  -0.5000000), wk =   0.0078125
        k(  245) = (  -0.5000000   0.2500000  -0.3750000), wk =   0.0078125
        k(  246) = (  -0.5000000   0.2500000  -0.2500000), wk =   0.0078125
        k(  247) = (  -0.5000000   0.2500000  -0.1250000), wk =   0.0078125
        k(  248) = (  -0.5000000   0.3750000   0.0000000), wk =   0.0078125
        k(  249) = (  -0.5000000   0.3750000   0.1250000), wk =   0.0078125
        k(  250) = (  -0.5000000   0.3750000   0.2500000), wk =   0.0078125
        k(  251) = (  -0.5000000   0.3750000   0.3750000), wk =   0.0078125
        k(  252) = (  -0.5000000   0.3750000  -0.5000000), wk =   0.0078125
        k(  253) = (  -0.5000000   0.3750000  -0.3750000), wk =   0.0078125
        k(  254) = (  -0.5000000   0.3750000  -0.2500000), wk =   0.0078125
        k(  255) = (  -0.5000000   0.3750000  -0.1250000), wk =   0.0078125
        k(  256) = (  -0.5000000  -0.5000000  -0.0000000), wk =   0.0039062
        k(  257) = (  -0.5000000  -0.5000000   0.1250000), wk =   0.0078125
        k(  258) = (  -0.5000000  -0.5000000   0.2500000), wk =   0.0078125
        k(  259) = (  -0.5000000  -0.5000000   0.3750000), wk =   0.0078125
        k(  260) = (  -0.5000000  -0.5000000  -0.5000000), wk =   0.0039062

     Dense  grid:    78461 G-vectors     FFT dimensions: (  50,  50,  72)

     Smooth grid:    30527 G-vectors     FFT dimensions: (  36,  36,  54)

     Dynamical RAM for                 wfc:       0.09 MB

     Dynamical RAM for     wfc (w. buffer):       6.23 MB

     Dynamical RAM for           str. fact:       0.15 MB

     Dynamical RAM for           local pot:       0.00 MB

     Dynamical RAM for          nlocal pot:       0.23 MB

     Dynamical RAM for                qrad:       3.93 MB

     Dynamical RAM for          rho,v,vnew:       0.51 MB

     Dynamical RAM for               rhoin:       0.17 MB

     Dynamical RAM for            rho*nmix:       1.20 MB

     Dynamical RAM for           G-vectors:       0.30 MB

     Dynamical RAM for          h,s,v(r/c):       0.12 MB

     Dynamical RAM for          <psi|beta>:       0.02 MB

     Dynamical RAM for                 psi:       0.38 MB

     Dynamical RAM for                hpsi:       0.38 MB

     Dynamical RAM for                spsi:       0.38 MB

     Dynamical RAM for      wfcinit/wfcrot:       0.27 MB

     Dynamical RAM for           addusdens:       3.57 MB

     Dynamical RAM for          addusforce:       3.72 MB

     Dynamical RAM for         addusstress:       3.79 MB

     Estimated static dynamical RAM per process >      13.41 MB

     Estimated max dynamical RAM per process >      17.20 MB

     Estimated total dynamical RAM >       1.08 GB

     Check: negative core charge=   -0.000003

     Initial potential from superposition of free atoms

     starting charge   51.99974, renormalised to   52.00000
     Starting wfcs are   34 randomized atomic wfcs

     total cpu time spent up to now is        1.2 secs

     Self-consistent Calculation

     iteration #  1     ecut=    80.00 Ry     beta= 0.50
     Davidson diagonalization with overlap
     ethr =  1.00E-02,  avg # of iterations =  1.0

     total cpu time spent up to now is        2.1 secs

     total energy              =    -986.75853724 Ry
     Harris-Foulkes estimate   =    -987.28145643 Ry
     estimated scf accuracy    <       0.82213797 Ry

     iteration #  2     ecut=    80.00 Ry     beta= 0.50
     Davidson diagonalization with overlap
     ethr =  1.58E-03,  avg # of iterations =  3.0

     total cpu time spent up to now is        3.4 secs

     total energy              =    -987.00069259 Ry
     Harris-Foulkes estimate   =    -987.16918677 Ry
     estimated scf accuracy    <       0.38902023 Ry

     iteration #  3     ecut=    80.00 Ry     beta= 0.50
     Davidson diagonalization with overlap
     ethr =  7.48E-04,  avg # of iterations =  2.1

     total cpu time spent up to now is        4.6 secs

     total energy              =    -987.07065195 Ry
     Harris-Foulkes estimate   =    -987.07294640 Ry
     estimated scf accuracy    <       0.00686918 Ry

     iteration #  4     ecut=    80.00 Ry     beta= 0.50
     Davidson diagonalization with overlap
     ethr =  1.32E-05,  avg # of iterations =  2.0

     total cpu time spent up to now is        5.7 secs

     total energy              =    -987.07123898 Ry
     Harris-Foulkes estimate   =    -987.07168974 Ry
     estimated scf accuracy    <       0.00153311 Ry

     iteration #  5     ecut=    80.00 Ry     beta= 0.50
     Davidson diagonalization with overlap
     ethr =  2.95E-06,  avg # of iterations =  2.0

     total cpu time spent up to now is        6.7 secs

     total energy              =    -987.07139908 Ry
     Harris-Foulkes estimate   =    -987.07140838 Ry
     estimated scf accuracy    <       0.00001822 Ry

     iteration #  6     ecut=    80.00 Ry     beta= 0.50
     Davidson diagonalization with overlap
     ethr =  3.50E-08,  avg # of iterations =  2.0

     total cpu time spent up to now is        7.8 secs

     total energy              =    -987.07140217 Ry
     Harris-Foulkes estimate   =    -987.07140137 Ry
     estimated scf accuracy    <       0.00000346 Ry

     iteration #  7     ecut=    80.00 Ry     beta= 0.50
     Davidson diagonalization with overlap
     ethr =  6.65E-09,  avg # of iterations =  2.0

     total cpu time spent up to now is        8.8 secs

     End of self-consistent calculation

          k = 0.0000 0.0000 0.0000 (  3765 PWs)   bands (ev):

  -114.2140-114.2137 -68.6055 -68.6009 -68.5570 -68.5570 -68.5560 -68.5560
    -9.1273  -8.2053   3.0374   3.0374   3.0661   3.0661   3.6324   3.7801
     4.3010   4.3010   4.5821   4.5821   4.9667   8.2086   8.2086   8.4641
     8.8878   8.8878

     occupation numbers 
     1.0000   1.0000   1.0000   1.0000   1.0000   1.0000   1.0000   1.0000
     1.0000   1.0000   1.0000   1.0000   1.0000   1.0000   1.0000   1.0000
     1.0000   1.0000   1.0000   1.0000   1.0000   1.0000   1.0000   1.0000
     1.0000   1.0000

          k = 0.0000 0.0000 0.0851 (  3777 PWs)   bands (ev):

  -114.2140-114.2137 -68.6053 -68.6011 -68.5570 -68.5570 -68.5560 -68.5560
    -9.0937  -8.2416   3.0326   3.0326   3.0596   3.0596   3.5195   3.7261
     4.3177   4.3177   4.5771   4.5771   5.1813   8.1612   8.2366   8.2366
     8.8647   8.8648

     occupation numbers 
     1.0000   1.0000   1.0000   1.0000   1.0000   1.0000   1.0000   1.0000
     1.0000   1.0000   1.0000   1.0000   1.0000   1.0000   1.0000   1.0000
     1.0000   1.0000   1.0000   1.0000   1.0000   1.0000   1.0000   1.0000
     1.0000   1.0000

          k = 0.0000 0.0000 0.1703 (  3788 PWs)   bands (ev):

  -114.2140-114.2137 -68.6048 -68.6016 -68.5569 -68.5569 -68.5562 -68.5562
    -8.9971  -8.3446   3.0219   3.0219   3.0434   3.0434   3.3423   3.5862
     4.3623   4.3623   4.5602   4.5602   5.6481   7.6626   8.3158   8.3158
     8.7977   8.7977

     occupation numbers 
     1.0000   1.0000   1.0000   1.0000   1.0000   1.0000   1.0000   1.0000
     1.0000   1.0000   1.0000   1.0000   1.0000   1.0000   1.0000   1.0000
     1.0000   1.0000   1.0000   1.0000   1.0000   1.0000   1.0000   1.0000
     1.0000   1.0000

          k = 0.0000 0.0000 0.2554 (  3818 PWs)   bands (ev):

  -114.2139-114.2138 -68.6041 -68.6024 -68.5568 -68.5568 -68.5564 -68.5564
    -8.8508  -8.4975   3.0136   3.0136   3.0255   3.0255   3.2543   3.4171
     4.4213   4.4213   4.5282   4.5282   6.1751   7.1739   8.4321   8.4321
     8.6935   8.6935

     occupation numbers 
     1.0000   1.0000   1.0000   1.0000   1.0000   1.0000   1.0000   1.0000
     1.0000   1.0000   1.0000   1.0000   1.0000   1.0000   1.0000   1.0000
     1.0000   1.0000   1.0000   1.0000   1.0000   1.0000   1.0000   1.0000
     1.0000   1.0000

          k =-0.0000-0.0000-0.3406 (  3842 PWs)   bands (ev):

  -114.2139-114.2138 -68.6033 -68.6033 -68.5566 -68.5566 -68.5566 -68.5566
    -8.6756  -8.6754   3.0142   3.0142   3.0142   3.0142   3.2877   3.2877
     4.4802   4.4802   4.4802   4.4802   6.6867   6.6867   8.5653   8.5653
     8.5654   8.5654

     occupation numbers 
     1.0000   1.0000   1.0000   1.0000   1.0000   1.0000   1.0000   1.0000
     1.0000   1.0000   1.0000   1.0000   1.0000   1.0000   1.0000   1.0000
     1.0000   1.0000   1.0000   1.0000   1.0000   1.0000   1.0000   1.0000
     1.0000   1.0000

          k =-0.0000 0.1443 0.0000 (  3795 PWs)   bands (ev):

  -114.2140-114.2137 -68.6053 -68.6011 -68.5573 -68.5572 -68.5563 -68.5560
    -9.0401  -8.1762   2.9597   3.0682   3.1099   3.1544   3.6186   3.8052
     4.2708   4.2864   4.5928   4.7609   4.9688   7.6438   7.9562   8.0595
     8.4071   8.7239

     occupation numbers 
     1.0000   1.0000   1.0000   1.0000   1.0000   1.0000   1.0000   1.0000
     1.0000   1.0000   1.0000   1.0000   1.0000   1.0000   1.0000   1.0000
     1.0000   1.0000   1.0000   1.0000   1.0000   1.0000   1.0000   1.0000
     1.0000   1.0000

          k =-0.0000 0.1443 0.0851 (  3797 PWs)   bands (ev):

  -114.2140-114.2137 -68.6052 -68.6012 -68.5573 -68.5571 -68.5563 -68.5561
    -9.0081  -8.2096   2.9517   3.0456   3.1058   3.1469   3.5270   3.7457
     4.2977   4.3038   4.5863   4.6804   5.2423   7.6556   7.8351   7.9878
     8.5486   8.6975

     occupation numbers 
     1.0000   1.0000   1.0000   1.0000   1.0000   1.0000   1.0000   1.0000
     1.0000   1.0000   1.0000   1.0000   1.0000   1.0000   1.0000   1.0000
     1.0000   1.0000   1.0000   1.0000   1.0000   1.0000   1.0000   1.0000
     1.0000   1.0000

          k =-0.0000 0.1443 0.1703 (  3800 PWs)   bands (ev):

  -114.2139-114.2137 -68.6047 -68.6017 -68.5572 -68.5570 -68.5564 -68.5562
    -8.9164  -8.3047   2.9297   2.9838   3.0969   3.1283   3.3895   3.6052
     4.3503   4.3607   4.5655   4.6205   5.7195   7.3892   7.8499   8.0769
     8.6023   8.6209

     occupation numbers 
     1.0000   1.0000   1.0000   1.0000   1.0000   1.0000   1.0000   1.0000
     1.0000   1.0000   1.0000   1.0000   1.0000   1.0000   1.0000   1.0000
     1.0000   1.0000   1.0000   1.0000   1.0000   1.0000   1.0000   1.0000
     1.0000   1.0000

          k =-0.0000 0.1443 0.2554 (  3809 PWs)   bands (ev):

  -114.2139-114.2138 -68.6040 -68.6024 -68.5570 -68.5568 -68.5566 -68.5564
    -8.7780  -8.4466   2.9008   2.9219   3.0907   3.1077   3.3293   3.4544
     4.4124   4.4355   4.5284   4.5690   6.2087   7.0242   8.0441   8.2077
     8.4907   8.5026

     occupation numbers 
     1.0000   1.0000   1.0000   1.0000   1.0000   1.0000   1.0000   1.0000
     1.0000   1.0000   1.0000   1.0000   1.0000   1.0000   1.0000   1.0000
     1.0000   1.0000   1.0000   1.0000   1.0000   1.0000   1.0000   1.0000
     1.0000   1.0000

          k =-0.0000 0.1443-0.3406 (  3802 PWs)   bands (ev):

  -114.2139-114.2138 -68.6033 -68.6032 -68.5568 -68.5567 -68.5566 -68.5566
    -8.6132  -8.6130   2.8928   2.8928   3.0937   3.0938   3.3535   3.3535
     4.4754   4.4754   4.5077   4.5077   6.6422   6.6423   8.2799   8.2800
     8.3577   8.3578

     occupation numbers 
     1.0000   1.0000   1.0000   1.0000   1.0000   1.0000   1.0000   1.0000
     1.0000   1.0000   1.0000   1.0000   1.0000   1.0000   1.0000   1.0000
     1.0000   1.0000   1.0000   1.0000   1.0000   1.0000   1.0000   1.0000
     1.0000   1.0000

          k =-0.0000 0.1443-0.2554 (  3809 PWs)   bands (ev):

  -114.2139-114.2138 -68.6040 -68.6024 -68.5570 -68.5568 -68.5566 -68.5564
    -8.7780  -8.4466   2.9008   2.9219   3.0907   3.1077   3.3293   3.4544
     4.4124   4.4355   4.5284   4.5690   6.2087   7.0242   8.0441   8.2077
     8.4907   8.5026

     occupation numbers 
     1.0000   1.0000   1.0000   1.0000   1.0000   1.0000   1.0000   1.0000
     1.0000   1.0000   1.0000   1.0000   1.0000   1.0000   1.0000   1.0000
     1.0000   1.0000   1.0000   1.0000   1.0000   1.0000   1.0000   1.0000
     1.0000   1.0000

          k =-0.0000 0.1443-0.1703 (  3800 PWs)   bands (ev):

  -114.2139-114.2137 -68.6047 -68.6017 -68.5572 -68.5570 -68.5564 -68.5562
    -8.9164  -8.3047   2.9297   2.9838   3.0969   3.1283   3.3895   3.6052
     4.3503   4.3607   4.5655   4.6205   5.7195   7.3892   7.8499   8.0769
     8.6023   8.6209

     occupation numbers 
     1.0000   1.0000   1.0000   1.0000   1.0000   1.0000   1.0000   1.0000
     1.0000   1.0000   1.0000   1.0000   1.0000   1.0000   1.0000   1.0000
     1.0000   1.0000   1.0000   1.0000   1.0000   1.0000   1.0000   1.0000
     1.0000   1.0000

          k =-0.0000 0.1443-0.0851 (  3797 PWs)   bands (ev):

  -114.2140-114.2137 -68.6052 -68.6012 -68.5573 -68.5571 -68.5563 -68.5561
    -9.0081  -8.2096   2.9517   3.0456   3.1058   3.1469   3.5270   3.7457
     4.2977   4.3038   4.5863   4.6804   5.2423   7.6556   7.8351   7.9878
     8.5486   8.6975

     occupation numbers 
     1.0000   1.0000   1.0000   1.0000   1.0000   1.0000   1.0000   1.0000
     1.0000   1.0000   1.0000   1.0000   1.0000   1.0000   1.0000   1.0000
     1.0000   1.0000   1.0000   1.0000   1.0000   1.0000   1.0000   1.0000
     1.0000   1.0000

          k =-0.0000 0.2887 0.0000 (  3799 PWs)   bands (ev):

  -114.2139-114.2137 -68.6048 -68.6015 -68.5578 -68.5574 -68.5569 -68.5561
    -8.8126  -8.1164   2.8326   3.0846   3.3161   3.3707   3.6603   3.8547
     4.2266   4.2742   4.6131   4.8964   5.2366   6.5034   7.0270   7.3540
     8.2266   8.3069

     occupation numbers 
     1.0000   1.0000   1.0000   1.0000   1.0000   1.0000   1.0000   1.0000
     1.0000   1.0000   1.0000   1.0000   1.0000   1.0000   1.0000   1.0000
     1.0000   1.0000   1.0000   1.0000   1.0000   1.0000   1.0000   1.0000
     1.0000   1.0000

          k =-0.0000 0.2887 0.0851 (  3799 PWs)   bands (ev):

  -114.2139-114.2137 -68.6047 -68.6016 -68.5578 -68.5573 -68.5570 -68.5562
    -8.7855  -8.1418   2.8181   3.0369   3.3123   3.3626   3.5876   3.7806
     4.2786   4.2915   4.6033   4.8094   5.4664   6.5721   6.9525   7.3938
     8.2740   8.3088

     occupation numbers 
     1.0000   1.0000   1.0000   1.0000   1.0000   1.0000   1.0000   1.0000
     1.0000   1.0000   1.0000   1.0000   1.0000   1.0000   1.0000   1.0000
     1.0000   1.0000   1.0000   1.0000   1.0000   1.0000   1.0000   1.0000
     1.0000   1.0000

          k =-0.0000 0.2887 0.1703 (  3799 PWs)   bands (ev):

  -114.2139-114.2137 -68.6044 -68.6020 -68.5577 -68.5572 -68.5570 -68.5563
    -8.7084  -8.2148   2.7781   2.9153   3.3042   3.3427   3.4780   3.6368
     4.3379   4.3772   4.5744   4.7237   5.8066   6.5997   7.0341   7.5054
     8.1788   8.3965

     occupation numbers 
     1.0000   1.0000   1.0000   1.0000   1.0000   1.0000   1.0000   1.0000
     1.0000   1.0000   1.0000   1.0000   1.0000   1.0000   1.0000   1.0000
     1.0000   1.0000   1.0000   1.0000   1.0000   1.0000   1.0000   1.0000
     1.0000   1.0000

          k =-0.0000 0.2887 0.2554 (  3810 PWs)   bands (ev):

  -114.2139-114.2138 -68.6038 -68.6025 -68.5575 -68.5572 -68.5570 -68.5565
    -8.5935  -8.3258   2.7335   2.7940   3.2994   3.3203   3.4253   3.5091
     4.4010   4.4787   4.5279   4.6514   6.0594   6.4351   7.4798   7.6680
     8.0324   8.2924

     occupation numbers 
     1.0000   1.0000   1.0000   1.0000   1.0000   1.0000   1.0000   1.0000
     1.0000   1.0000   1.0000   1.0000   1.0000   1.0000   1.0000   1.0000
     1.0000   1.0000   1.0000   1.0000   1.0000   1.0000   1.0000   1.0000
     1.0000   1.0000

          k =-0.0000 0.2887-0.3406 (  3810 PWs)   bands (ev):

  -114.2138-114.2138 -68.6032 -68.6032 -68.5574 -68.5574 -68.5568 -68.5567
    -8.4589  -8.4587   2.7296   2.7296   3.3043   3.3044   3.4360   3.4361
     4.4678   4.4679   4.5714   4.5714   6.2538   6.2539   7.8535   7.8536
     7.9587   7.9587

     occupation numbers 
     1.0000   1.0000   1.0000   1.0000   1.0000   1.0000   1.0000   1.0000
     1.0000   1.0000   1.0000   1.0000   1.0000   1.0000   1.0000   1.0000
     1.0000   1.0000   1.0000   1.0000   1.0000   1.0000   1.0000   1.0000
     1.0000   1.0000

          k =-0.0000 0.2887-0.2554 (  3810 PWs)   bands (ev):

  -114.2139-114.2138 -68.6038 -68.6025 -68.5575 -68.5572 -68.5570 -68.5565
    -8.5935  -8.3258   2.7334   2.7940   3.2994   3.3203   3.4253   3.5091
     4.4010   4.4787   4.5279   4.6514   6.0594   6.4351   7.4798   7.6680
     8.0324   8.2924

     occupation numbers 
     1.0000   1.0000   1.0000   1.0000   1.0000   1.0000   1.0000   1.0000
     1.0000   1.0000   1.0000   1.0000   1.0000   1.0000   1.0000   1.0000
     1.0000   1.0000   1.0000   1.0000   1.0000   1.0000   1.0000   1.0000
     1.0000   1.0000

          k =-0.0000 0.2887-0.1703 (  3799 PWs)   bands (ev):

  -114.2139-114.2137 -68.6044 -68.6020 -68.5577 -68.5572 -68.5570 -68.5563
    -8.7084  -8.2148   2.7781   2.9153   3.3042   3.3427   3.4780   3.6368
     4.3379   4.3772   4.5744   4.7237   5.8066   6.5997   7.0342   7.5054
     8.1788   8.3965

     occupation numbers 
     1.0000   1.0000   1.0000   1.0000   1.0000   1.0000   1.0000   1.0000
     1.0000   1.0000   1.0000   1.0000   1.0000   1.0000   1.0000   1.0000
     1.0000   1.0000   1.0000   1.0000   1.0000   1.0000   1.0000   1.0000
     1.0000   1.0000

          k =-0.0000 0.2887-0.0851 (  3799 PWs)   bands (ev):

  -114.2139-114.2137 -68.6047 -68.6016 -68.5578 -68.5573 -68.5570 -68.5562
    -8.7855  -8.1418   2.8181   3.0369   3.3123   3.3626   3.5876   3.7806
     4.2786   4.2915   4.6033   4.8094   5.4664   6.5720   6.9525   7.3938
     8.2740   8.3088

     occupation numbers 
     1.0000   1.0000   1.0000   1.0000   1.0000   1.0000   1.0000   1.0000
     1.0000   1.0000   1.0000   1.0000   1.0000   1.0000   1.0000   1.0000
     1.0000   1.0000   1.0000   1.0000   1.0000   1.0000   1.0000   1.0000
     1.0000   1.0000

          k =-0.0000 0.4330 0.0000 (  3810 PWs)   bands (ev):

  -114.2139-114.2137 -68.6042 -68.6020 -68.5584 -68.5576 -68.5576 -68.5562
    -8.5430  -8.0894   2.8242   3.0922   3.5290   3.6357   3.7346   4.0218
     4.2491   4.3210   4.6287   4.8177   5.3073   5.7792   6.2103   6.7191
     7.8569   7.9301

     occupation numbers 
     1.0000   1.0000   1.0000   1.0000   1.0000   1.0000   1.0000   1.0000
     1.0000   1.0000   1.0000   1.0000   1.0000   1.0000   1.0000   1.0000
     1.0000   1.0000   1.0000   1.0000   1.0000   1.0000   1.0000   1.0000
     1.0000   1.0000

          k =-0.0000 0.4330 0.0851 (  3807 PWs)   bands (ev):

  -114.2139-114.2137 -68.6041 -68.6021 -68.5583 -68.5577 -68.5575 -68.5563
    -8.5235  -8.1039   2.7994   3.0378   3.5279   3.6266   3.6661   3.9199
     4.3223   4.3333   4.6154   4.7932   5.3271   5.7901   6.3843   6.7694
     7.8186   8.0302

     occupation numbers 
     1.0000   1.0000   1.0000   1.0000   1.0000   1.0000   1.0000   1.0000
     1.0000   1.0000   1.0000   1.0000   1.0000   1.0000   1.0000   1.0000
     1.0000   1.0000   1.0000   1.0000   1.0000   1.0000   1.0000   1.0000
     1.0000   1.0000

          k =-0.0000 0.4330 0.1703 (  3817 PWs)   bands (ev):

  -114.2138-114.2137 -68.6039 -68.6023 -68.5582 -68.5577 -68.5574 -68.5565
    -8.4687  -8.1467   2.7336   2.8976   3.5274   3.5627   3.6030   3.7543
     4.3674   4.4329   4.5793   4.7462   5.3789   5.7224   6.8857   6.9082
     7.7077   8.2043

     occupation numbers 
     1.0000   1.0000   1.0000   1.0000   1.0000   1.0000   1.0000   1.0000
     1.0000   1.0000   1.0000   1.0000   1.0000   1.0000   1.0000   1.0000
     1.0000   1.0000   1.0000   1.0000   1.0000   1.0000   1.0000   1.0000
     1.0000   1.0000

          k =-0.0000 0.4330 0.2554 (  3811 PWs)   bands (ev):

  -114.2138-114.2138 -68.6036 -68.6027 -68.5581 -68.5578 -68.5572 -68.5567
    -8.3891  -8.2143   2.6674   2.7485   3.5184   3.5329   3.5739   3.6201
     4.4163   4.5290   4.5331   4.6889   5.4507   5.6253   7.1060   7.4803
     7.5368   8.2257

     occupation numbers 
     1.0000   1.0000   1.0000   1.0000   1.0000   1.0000   1.0000   1.0000
     1.0000   1.0000   1.0000   1.0000   1.0000   1.0000   1.0000   1.0000
     1.0000   1.0000   1.0000   1.0000   1.0000   1.0000   1.0000   1.0000
     1.0000   1.0000

          k =-0.0000 0.4330-0.3406 (  3810 PWs)   bands (ev):

  -114.2138-114.2138 -68.6032 -68.6031 -68.5580 -68.5579 -68.5569 -68.5569
    -8.2993  -8.2991   2.6631   2.6631   3.5399   3.5400   3.5485   3.5485
     4.4724   4.4724   4.6184   4.6184   5.5338   5.5338   7.3267   7.3269
     7.9715   7.9716

     occupation numbers 
     1.0000   1.0000   1.0000   1.0000   1.0000   1.0000   1.0000   1.0000
     1.0000   1.0000   1.0000   1.0000   1.0000   1.0000   1.0000   1.0000
     1.0000   1.0000   1.0000   1.0000   1.0000   1.0000   1.0000   1.0000
     1.0000   1.0000

          k =-0.0000 0.4330-0.2554 (  3811 PWs)   bands (ev):

  -114.2138-114.2138 -68.6036 -68.6027 -68.5581 -68.5578 -68.5572 -68.5567
    -8.3891  -8.2143   2.6674   2.7485   3.5184   3.5329   3.5739   3.6201
     4.4163   4.5290   4.5331   4.6889   5.4507   5.6253   7.1060   7.4803
     7.5368   8.2257

     occupation numbers 
     1.0000   1.0000   1.0000   1.0000   1.0000   1.0000   1.0000   1.0000
     1.0000   1.0000   1.0000   1.0000   1.0000   1.0000   1.0000   1.0000
     1.0000   1.0000   1.0000   1.0000   1.0000   1.0000   1.0000   1.0000
     1.0000   1.0000

          k =-0.0000 0.4330-0.1703 (  3817 PWs)   bands (ev):

  -114.2138-114.2137 -68.6039 -68.6023 -68.5582 -68.5577 -68.5574 -68.5565
    -8.4687  -8.1467   2.7336   2.8976   3.5274   3.5627   3.6030   3.7543
     4.3674   4.4329   4.5793   4.7462   5.3789   5.7224   6.8857   6.9082
     7.7077   8.2043

     occupation numbers 
     1.0000   1.0000   1.0000   1.0000   1.0000   1.0000   1.0000   1.0000
     1.0000   1.0000   1.0000   1.0000   1.0000   1.0000   1.0000   1.0000
     1.0000   1.0000   1.0000   1.0000   1.0000   1.0000   1.0000   1.0000
     1.0000   1.0000

          k =-0.0000 0.4330-0.0851 (  3807 PWs)   bands (ev):

  -114.2139-114.2137 -68.6041 -68.6021 -68.5583 -68.5577 -68.5575 -68.5563
    -8.5235  -8.1039   2.7994   3.0378   3.5279   3.6266   3.6661   3.9199
     4.3223   4.3333   4.6154   4.7932   5.3271   5.7901   6.3843   6.7694
     7.8186   8.0302

     occupation numbers 
     1.0000   1.0000   1.0000   1.0000   1.0000   1.0000   1.0000   1.0000
     1.0000   1.0000   1.0000   1.0000   1.0000   1.0000   1.0000   1.0000
     1.0000   1.0000   1.0000   1.0000   1.0000   1.0000   1.0000   1.0000
     1.0000   1.0000

          k = 0.0000-0.5774-0.0000 (  3824 PWs)   bands (ev):

  -114.2138-114.2137 -68.6039 -68.6023 -68.5586 -68.5579 -68.5577 -68.5563
    -8.3990  -8.1076   2.9195   3.0363   3.6048   3.7415   3.7756   4.1831
     4.3783   4.4300   4.6340   4.6586   5.0051   5.3532   6.3140   6.4264
     7.6569   7.7294

     occupation numbers 
     1.0000   1.0000   1.0000   1.0000   1.0000   1.0000   1.0000   1.0000
     1.0000   1.0000   1.0000   1.0000   1.0000   1.0000   1.0000   1.0000
     1.0000   1.0000   1.0000   1.0000   1.0000   1.0000   1.0000   1.0000
     1.0000   1.0000

          k = 0.0000-0.5774 0.0851 (  3816 PWs)   bands (ev):

  -114.2138-114.2137 -68.6038 -68.6024 -68.5586 -68.5579 -68.5576 -68.5563
    -8.3849  -8.1153   2.8788   2.9925   3.6072   3.6842   3.7649   4.0867
     4.3860   4.4624   4.6181   4.6593   5.0353   5.3033   6.4835   6.5412
     7.6164   7.8438

     occupation numbers 
     1.0000   1.0000   1.0000   1.0000   1.0000   1.0000   1.0000   1.0000
     1.0000   1.0000   1.0000   1.0000   1.0000   1.0000   1.0000   1.0000
     1.0000   1.0000   1.0000   1.0000   1.0000   1.0000   1.0000   1.0000
     1.0000   1.0000

          k = 0.0000-0.5774 0.1703 (  3824 PWs)   bands (ev):

  -114.2138-114.2137 -68.6037 -68.6026 -68.5585 -68.5580 -68.5575 -68.5565
    -8.3459  -8.1388   2.7755   2.8766   3.6031   3.6157   3.7362   3.8975
     4.4079   4.5203   4.5786   4.6536   5.0897   5.2374   6.6389   7.0463
     7.4992   8.0723

     occupation numbers 
     1.0000   1.0000   1.0000   1.0000   1.0000   1.0000   1.0000   1.0000
     1.0000   1.0000   1.0000   1.0000   1.0000   1.0000   1.0000   1.0000
     1.0000   1.0000   1.0000   1.0000   1.0000   1.0000   1.0000   1.0000
     1.0000   1.0000

          k = 0.0000-0.5774 0.2554 (  3810 PWs)   bands (ev):

  -114.2138-114.2137 -68.6034 -68.6028 -68.5583 -68.5581 -68.5573 -68.5567
    -8.2909  -8.1784   2.6786   2.7419   3.5829   3.6334   3.6985   3.7337
     4.4411   4.5301   4.5706   4.6370   5.1360   5.1982   6.8557   7.3180
     7.5965   8.1827

     occupation numbers 
     1.0000   1.0000   1.0000   1.0000   1.0000   1.0000   1.0000   1.0000
     1.0000   1.0000   1.0000   1.0000   1.0000   1.0000   1.0000   1.0000
     1.0000   1.0000   1.0000   1.0000   1.0000   1.0000   1.0000   1.0000
     1.0000   1.0000

          k = 0.0000-0.5774-0.3406 (  3816 PWs)   bands (ev):

  -114.2138-114.2138 -68.6032 -68.6031 -68.5582 -68.5582 -68.5570 -68.5570
    -8.2315  -8.2314   2.6616   2.6616   3.6283   3.6283   3.6618   3.6618
     4.4827   4.4827   4.6093   4.6093   5.1698   5.1698   7.0938   7.0939
     8.0185   8.0186

     occupation numbers 
     1.0000   1.0000   1.0000   1.0000   1.0000   1.0000   1.0000   1.0000
     1.0000   1.0000   1.0000   1.0000   1.0000   1.0000   1.0000   1.0000
     1.0000   1.0000   1.0000   1.0000   1.0000   1.0000   1.0000   1.0000
     1.0000   1.0000

          k = 0.1250 0.0722 0.0000 (  3795 PWs)   bands (ev):

  -114.2140-114.2137 -68.6053 -68.6011 -68.5573 -68.5572 -68.5563 -68.5560
    -9.0401  -8.1762   2.9597   3.0682   3.1099   3.1544   3.6186   3.8052
     4.2708   4.2864   4.5928   4.7609   4.9688   7.6438   7.9562   8.0595
     8.4071   8.7239

     occupation numbers 
     1.0000   1.0000   1.0000   1.0000   1.0000   1.0000   1.0000   1.0000
     1.0000   1.0000   1.0000   1.0000   1.0000   1.0000   1.0000   1.0000
     1.0000   1.0000   1.0000   1.0000   1.0000   1.0000   1.0000   1.0000
     1.0000   1.0000

          k = 0.1250 0.0722 0.0851 (  3797 PWs)   bands (ev):

  -114.2140-114.2137 -68.6052 -68.6012 -68.5573 -68.5571 -68.5563 -68.5561
    -9.0081  -8.2096   2.9517   3.0456   3.1058   3.1469   3.5270   3.7457
     4.2977   4.3038   4.5863   4.6804   5.2423   7.6556   7.8351   7.9878
     8.5486   8.6975

     occupation numbers 
     1.0000   1.0000   1.0000   1.0000   1.0000   1.0000   1.0000   1.0000
     1.0000   1.0000   1.0000   1.0000   1.0000   1.0000   1.0000   1.0000
     1.0000   1.0000   1.0000   1.0000   1.0000   1.0000   1.0000   1.0000
     1.0000   1.0000

          k = 0.1250 0.0722 0.1703 (  3800 PWs)   bands (ev):

  -114.2139-114.2137 -68.6047 -68.6017 -68.5572 -68.5570 -68.5564 -68.5562
    -8.9164  -8.3047   2.9297   2.9838   3.0969   3.1283   3.3895   3.6052
     4.3503   4.3607   4.5655   4.6205   5.7195   7.3892   7.8499   8.0769
     8.6023   8.6209

     occupation numbers 
     1.0000   1.0000   1.0000   1.0000   1.0000   1.0000   1.0000   1.0000
     1.0000   1.0000   1.0000   1.0000   1.0000   1.0000   1.0000   1.0000
     1.0000   1.0000   1.0000   1.0000   1.0000   1.0000   1.0000   1.0000
     1.0000   1.0000

          k = 0.1250 0.0722 0.2554 (  3809 PWs)   bands (ev):

  -114.2139-114.2138 -68.6040 -68.6024 -68.5570 -68.5568 -68.5566 -68.5564
    -8.7780  -8.4466   2.9008   2.9219   3.0907   3.1077   3.3293   3.4544
     4.4124   4.4355   4.5284   4.5690   6.2087   7.0242   8.0441   8.2077
     8.4907   8.5026

     occupation numbers 
     1.0000   1.0000   1.0000   1.0000   1.0000   1.0000   1.0000   1.0000
     1.0000   1.0000   1.0000   1.0000   1.0000   1.0000   1.0000   1.0000
     1.0000   1.0000   1.0000   1.0000   1.0000   1.0000   1.0000   1.0000
     1.0000   1.0000

          k = 0.1250 0.0722-0.3406 (  3802 PWs)   bands (ev):

  -114.2139-114.2138 -68.6033 -68.6032 -68.5568 -68.5567 -68.5566 -68.5566
    -8.6132  -8.6130   2.8928   2.8928   3.0937   3.0938   3.3535   3.3535
     4.4754   4.4754   4.5076   4.5077   6.6422   6.6422   8.2799   8.2800
     8.3577   8.3578

     occupation numbers 
     1.0000   1.0000   1.0000   1.0000   1.0000   1.0000   1.0000   1.0000
     1.0000   1.0000   1.0000   1.0000   1.0000   1.0000   1.0000   1.0000
     1.0000   1.0000   1.0000   1.0000   1.0000   1.0000   1.0000   1.0000
     1.0000   1.0000

          k = 0.1250 0.0722-0.2554 (  3809 PWs)   bands (ev):

  -114.2139-114.2138 -68.6040 -68.6024 -68.5570 -68.5568 -68.5566 -68.5564
    -8.7780  -8.4466   2.9008   2.9219   3.0907   3.1077   3.3293   3.4544
     4.4124   4.4355   4.5284   4.5690   6.2087   7.0242   8.0441   8.2077
     8.4907   8.5026

     occupation numbers 
     1.0000   1.0000   1.0000   1.0000   1.0000   1.0000   1.0000   1.0000
     1.0000   1.0000   1.0000   1.0000   1.0000   1.0000   1.0000   1.0000
     1.0000   1.0000   1.0000   1.0000   1.0000   1.0000   1.0000   1.0000
     1.0000   1.0000

          k = 0.1250 0.0722-0.1703 (  3800 PWs)   bands (ev):

  -114.2139-114.2137 -68.6047 -68.6017 -68.5572 -68.5570 -68.5564 -68.5562
    -8.9164  -8.3047   2.9297   2.9838   3.0969   3.1283   3.3895   3.6052
     4.3503   4.3607   4.5655   4.6205   5.7195   7.3892   7.8499   8.0769
     8.6023   8.6209

     occupation numbers 
     1.0000   1.0000   1.0000   1.0000   1.0000   1.0000   1.0000   1.0000
     1.0000   1.0000   1.0000   1.0000   1.0000   1.0000   1.0000   1.0000
     1.0000   1.0000   1.0000   1.0000   1.0000   1.0000   1.0000   1.0000
     1.0000   1.0000

          k = 0.1250 0.0722-0.0851 (  3797 PWs)   bands (ev):

  -114.2140-114.2137 -68.6052 -68.6012 -68.5573 -68.5571 -68.5563 -68.5561
    -9.0081  -8.2096   2.9517   3.0455   3.1058   3.1469   3.5270   3.7457
     4.2977   4.3038   4.5863   4.6804   5.2423   7.6556   7.8351   7.9878
     8.5486   8.6975

     occupation numbers 
     1.0000   1.0000   1.0000   1.0000   1.0000   1.0000   1.0000   1.0000
     1.0000   1.0000   1.0000   1.0000   1.0000   1.0000   1.0000   1.0000
     1.0000   1.0000   1.0000   1.0000   1.0000   1.0000   1.0000   1.0000
     1.0000   1.0000

          k = 0.1250 0.2165 0.0000 (  3811 PWs)   bands (ev):

  -114.2139-114.2137 -68.6050 -68.6013 -68.5576 -68.5574 -68.5567 -68.5562
    -8.8824  -8.1318   2.8840   3.0808   3.2353   3.2889   3.6519   3.8377
     4.2385   4.2691   4.6067   4.9016   5.1221   6.9529   7.1394   7.5603
     8.3000   8.3591

     occupation numbers 
     1.0000   1.0000   1.0000   1.0000   1.0000   1.0000   1.0000   1.0000
     1.0000   1.0000   1.0000   1.0000   1.0000   1.0000   1.0000   1.0000
     1.0000   1.0000   1.0000   1.0000   1.0000   1.0000   1.0000   1.0000
     1.0000   1.0000

          k = 0.1250 0.2165 0.0851 (  3797 PWs)   bands (ev):

  -114.2139-114.2137 -68.6049 -68.6015 -68.5576 -68.5574 -68.5567 -68.5562
    -8.8537  -8.1598   2.8726   3.0346   3.2343   3.2806   3.5766   3.7683
     4.2830   4.2872   4.5981   4.7893   5.3989   7.0270   7.0702   7.5375
     8.3262   8.3919

     occupation numbers 
     1.0000   1.0000   1.0000   1.0000   1.0000   1.0000   1.0000   1.0000
     1.0000   1.0000   1.0000   1.0000   1.0000   1.0000   1.0000   1.0000
     1.0000   1.0000   1.0000   1.0000   1.0000   1.0000   1.0000   1.0000
     1.0000   1.0000

          k = 0.1250 0.2165 0.1703 (  3810 PWs)   bands (ev):

  -114.2139-114.2137 -68.6045 -68.6019 -68.5575 -68.5572 -68.5568 -68.5563
    -8.7718  -8.2398   2.8407   2.9206   3.2295   3.2602   3.4631   3.6258
     4.3352   4.3719   4.5719   4.7012   5.8160   6.8803   7.2606   7.5904
     8.2316   8.4762

     occupation numbers 
     1.0000   1.0000   1.0000   1.0000   1.0000   1.0000   1.0000   1.0000
     1.0000   1.0000   1.0000   1.0000   1.0000   1.0000   1.0000   1.0000
     1.0000   1.0000   1.0000   1.0000   1.0000   1.0000   1.0000   1.0000
     1.0000   1.0000

          k = 0.1250 0.2165 0.2554 (  3809 PWs)   bands (ev):

  -114.2139-114.2138 -68.6039 -68.6025 -68.5573 -68.5571 -68.5569 -68.5565
    -8.6492  -8.3608   2.7988   2.8153   3.2240   3.2382   3.4084   3.4948
     4.3998   4.4649   4.5296   4.6319   6.1661   6.6581   7.6368   7.7284
     8.0893   8.3695

     occupation numbers 
     1.0000   1.0000   1.0000   1.0000   1.0000   1.0000   1.0000   1.0000
     1.0000   1.0000   1.0000   1.0000   1.0000   1.0000   1.0000   1.0000
     1.0000   1.0000   1.0000   1.0000   1.0000   1.0000   1.0000   1.0000
     1.0000   1.0000

          k = 0.1250 0.2165-0.3406 (  3804 PWs)   bands (ev):

  -114.2138-114.2138 -68.6032 -68.6032 -68.5572 -68.5571 -68.5568 -68.5567
    -8.5047  -8.5045   2.7770   2.7771   3.2250   3.2251   3.4193   3.4193
     4.4661   4.4662   4.5569   4.5569   6.4305   6.4305   7.8920   7.8921
     8.0737   8.0737

     occupation numbers 
     1.0000   1.0000   1.0000   1.0000   1.0000   1.0000   1.0000   1.0000
     1.0000   1.0000   1.0000   1.0000   1.0000   1.0000   1.0000   1.0000
     1.0000   1.0000   1.0000   1.0000   1.0000   1.0000   1.0000   1.0000
     1.0000   1.0000

          k = 0.1250 0.2165-0.2554 (  3809 PWs)   bands (ev):

  -114.2139-114.2138 -68.6039 -68.6025 -68.5573 -68.5571 -68.5569 -68.5565
    -8.6492  -8.3608   2.7988   2.8153   3.2240   3.2382   3.4084   3.4948
     4.3998   4.4649   4.5296   4.6319   6.1661   6.6581   7.6368   7.7284
     8.0893   8.3695

     occupation numbers 
     1.0000   1.0000   1.0000   1.0000   1.0000   1.0000   1.0000   1.0000
     1.0000   1.0000   1.0000   1.0000   1.0000   1.0000   1.0000   1.0000
     1.0000   1.0000   1.0000   1.0000   1.0000   1.0000   1.0000   1.0000
     1.0000   1.0000

          k = 0.1250 0.2165-0.1703 (  3810 PWs)   bands (ev):

  -114.2139-114.2137 -68.6045 -68.6019 -68.5575 -68.5572 -68.5568 -68.5563
    -8.7718  -8.2398   2.8407   2.9206   3.2295   3.2602   3.4631   3.6258
     4.3352   4.3719   4.5719   4.7012   5.8160   6.8803   7.2606   7.5904
     8.2316   8.4762

     occupation numbers 
     1.0000   1.0000   1.0000   1.0000   1.0000   1.0000   1.0000   1.0000
     1.0000   1.0000   1.0000   1.0000   1.0000   1.0000   1.0000   1.0000
     1.0000   1.0000   1.0000   1.0000   1.0000   1.0000   1.0000   1.0000
     1.0000   1.0000

          k = 0.1250 0.2165-0.0851 (  3797 PWs)   bands (ev):

  -114.2139-114.2137 -68.6049 -68.6015 -68.5576 -68.5574 -68.5567 -68.5562
    -8.8537  -8.1598   2.8726   3.0346   3.2343   3.2806   3.5766   3.7683
     4.2830   4.2872   4.5981   4.7893   5.3989   7.0270   7.0702   7.5375
     8.3262   8.3919

     occupation numbers 
     1.0000   1.0000   1.0000   1.0000   1.0000   1.0000   1.0000   1.0000
     1.0000   1.0000   1.0000   1.0000   1.0000   1.0000   1.0000   1.0000
     1.0000   1.0000   1.0000   1.0000   1.0000   1.0000   1.0000   1.0000
     1.0000   1.0000

          k = 0.1250 0.3608 0.0000 (  3813 PWs)   bands (ev):

  -114.2139-114.2137 -68.6044 -68.6018 -68.5581 -68.5577 -68.5572 -68.5563
    -8.6308  -8.0905   2.8671   3.1465   3.3999   3.5116   3.7677   3.8989
     4.2411   4.2884   4.6238   4.8672   5.4592   6.0570   6.4065   6.7027
     7.8127   8.0469

     occupation numbers 
     1.0000   1.0000   1.0000   1.0000   1.0000   1.0000   1.0000   1.0000
     1.0000   1.0000   1.0000   1.0000   1.0000   1.0000   1.0000   1.0000
     1.0000   1.0000   1.0000   1.0000   1.0000   1.0000   1.0000   1.0000
     1.0000   1.0000

          k = 0.1250 0.3608 0.0851 (  3808 PWs)   bands (ev):

  -114.2139-114.2137 -68.6043 -68.6019 -68.5581 -68.5577 -68.5572 -68.5564
    -8.6085  -8.1088   2.8481   3.0842   3.4036   3.4987   3.6937   3.8206
     4.2947   4.3136   4.6121   4.8273   5.5353   6.1489   6.4556   6.7379
     7.7693   8.1482

     occupation numbers 
     1.0000   1.0000   1.0000   1.0000   1.0000   1.0000   1.0000   1.0000
     1.0000   1.0000   1.0000   1.0000   1.0000   1.0000   1.0000   1.0000
     1.0000   1.0000   1.0000   1.0000   1.0000   1.0000   1.0000   1.0000
     1.0000   1.0000

[...]

  -114.2138-114.2137 -68.6036 -68.6026 -68.5581 -68.5580 -68.5575 -68.5569
    -8.3554  -8.1345   2.9833   3.0721   3.5296   3.5428   3.6496   3.8029
     4.4031   4.4180   4.6156   4.7899   5.3329   5.5937   5.8935   6.8252
     7.2462   8.0992

     occupation numbers 
     1.0000   1.0000   1.0000   1.0000   1.0000   1.0000   1.0000   1.0000
     1.0000   1.0000   1.0000   1.0000   1.0000   1.0000   1.0000   1.0000
     1.0000   1.0000   1.0000   1.0000   1.0000   1.0000   1.0000   1.0000
     1.0000   1.0000

          k =-0.5000 0.0000 0.2554 (  3819 PWs)   bands (ev):

  -114.2138-114.2138 -68.6034 -68.6028 -68.5580 -68.5579 -68.5575 -68.5571
    -8.2974  -8.1774   2.8844   2.9123   3.4979   3.5175   3.6125   3.7169
     4.4221   4.4426   4.6445   4.7462   5.3956   5.5293   6.1128   6.6375
     7.7623   8.2587

     occupation numbers 
     1.0000   1.0000   1.0000   1.0000   1.0000   1.0000   1.0000   1.0000
     1.0000   1.0000   1.0000   1.0000   1.0000   1.0000   1.0000   1.0000
     1.0000   1.0000   1.0000   1.0000   1.0000   1.0000   1.0000   1.0000
     1.0000   1.0000

          k =-0.5000 0.0000-0.3406 (  3816 PWs)   bands (ev):

  -114.2138-114.2138 -68.6032 -68.6031 -68.5579 -68.5579 -68.5573 -68.5573
    -8.2344  -8.2342   2.8442   2.8443   3.4922   3.4922   3.6510   3.6510
     4.4372   4.4373   4.6956   4.6956   5.4613   5.4613   6.3780   6.3781
     8.1498   8.1498

     occupation numbers 
     1.0000   1.0000   1.0000   1.0000   1.0000   1.0000   1.0000   1.0000
     1.0000   1.0000   1.0000   1.0000   1.0000   1.0000   1.0000   1.0000
     1.0000   1.0000   1.0000   1.0000   1.0000   1.0000   1.0000   1.0000
     1.0000   1.0000

          k =-0.5000 0.0000-0.2554 (  3819 PWs)   bands (ev):

  -114.2138-114.2138 -68.6034 -68.6028 -68.5580 -68.5579 -68.5575 -68.5571
    -8.2974  -8.1774   2.8844   2.9123   3.4979   3.5175   3.6125   3.7169
     4.4221   4.4426   4.6445   4.7462   5.3956   5.5293   6.1128   6.6375
     7.7623   8.2587

     occupation numbers 
     1.0000   1.0000   1.0000   1.0000   1.0000   1.0000   1.0000   1.0000
     1.0000   1.0000   1.0000   1.0000   1.0000   1.0000   1.0000   1.0000
     1.0000   1.0000   1.0000   1.0000   1.0000   1.0000   1.0000   1.0000
     1.0000   1.0000

          k =-0.5000 0.0000-0.1703 (  3823 PWs)   bands (ev):

  -114.2138-114.2137 -68.6036 -68.6026 -68.5581 -68.5580 -68.5575 -68.5569
    -8.3554  -8.1345   2.9833   3.0721   3.5296   3.5428   3.6496   3.8029
     4.4031   4.4180   4.6156   4.7899   5.3329   5.5937   5.8935   6.8252
     7.2462   8.0992

     occupation numbers 
     1.0000   1.0000   1.0000   1.0000   1.0000   1.0000   1.0000   1.0000
     1.0000   1.0000   1.0000   1.0000   1.0000   1.0000   1.0000   1.0000
     1.0000   1.0000   1.0000   1.0000   1.0000   1.0000   1.0000   1.0000
     1.0000   1.0000

          k =-0.5000 0.0000-0.0851 (  3824 PWs)   bands (ev):

  -114.2138-114.2137 -68.6038 -68.6024 -68.5582 -68.5581 -68.5575 -68.5567
    -8.3962  -8.1086   3.0662   3.2297   3.5118   3.6078   3.7824   3.9008
     4.3535   4.3811   4.6237   4.8237   5.2807   5.5951   5.8109   6.6232
     7.0865   7.8362

     occupation numbers 
     1.0000   1.0000   1.0000   1.0000   1.0000   1.0000   1.0000   1.0000
     1.0000   1.0000   1.0000   1.0000   1.0000   1.0000   1.0000   1.0000
     1.0000   1.0000   1.0000   1.0000   1.0000   1.0000   1.0000   1.0000
     1.0000   1.0000

          k =-0.5000 0.1443-0.0000 (  3820 PWs)   bands (ev):

  -114.2138-114.2137 -68.6039 -68.6023 -68.5585 -68.5579 -68.5577 -68.5565
    -8.4050  -8.1037   2.9988   3.1509   3.5518   3.6751   3.8333   4.1328
     4.3006   4.3858   4.6350   4.7353   5.1245   5.5099   6.0043   6.4619
     7.3942   7.7223

     occupation numbers 
     1.0000   1.0000   1.0000   1.0000   1.0000   1.0000   1.0000   1.0000
     1.0000   1.0000   1.0000   1.0000   1.0000   1.0000   1.0000   1.0000
     1.0000   1.0000   1.0000   1.0000   1.0000   1.0000   1.0000   1.0000
     1.0000   1.0000

          k =-0.5000 0.1443 0.0851 (  3818 PWs)   bands (ev):

  -114.2138-114.2137 -68.6038 -68.6024 -68.5584 -68.5579 -68.5577 -68.5565
    -8.3906  -8.1119   2.9641   3.0988   3.5533   3.6415   3.7954   4.0138
     4.3576   4.4053   4.6224   4.7324   5.1423   5.4653   6.0846   6.6632
     7.3469   7.8448

     occupation numbers 
     1.0000   1.0000   1.0000   1.0000   1.0000   1.0000   1.0000   1.0000
     1.0000   1.0000   1.0000   1.0000   1.0000   1.0000   1.0000   1.0000
     1.0000   1.0000   1.0000   1.0000   1.0000   1.0000   1.0000   1.0000
     1.0000   1.0000

          k =-0.5000 0.1443 0.1703 (  3821 PWs)   bands (ev):

  -114.2138-114.2137 -68.6037 -68.6026 -68.5583 -68.5579 -68.5576 -68.5567
    -8.3507  -8.1366   2.8700   2.9639   3.5452   3.6010   3.7292   3.8343
     4.4025   4.4547   4.6045   4.7184   5.1839   5.3935   6.2625   7.1175
     7.2438   8.0916

     occupation numbers 
     1.0000   1.0000   1.0000   1.0000   1.0000   1.0000   1.0000   1.0000
     1.0000   1.0000   1.0000   1.0000   1.0000   1.0000   1.0000   1.0000
     1.0000   1.0000   1.0000   1.0000   1.0000   1.0000   1.0000   1.0000
     1.0000   1.0000

          k =-0.5000 0.1443 0.2554 (  3820 PWs)   bands (ev):

  -114.2138-114.2138 -68.6034 -68.6028 -68.5582 -68.5580 -68.5574 -68.5569
    -8.2942  -8.1779   2.7706   2.8204   3.5376   3.6134   3.6482   3.7149
     4.4311   4.4736   4.6173   4.6915   5.2337   5.3342   6.4945   6.9950
     7.7017   8.2303

     occupation numbers 
     1.0000   1.0000   1.0000   1.0000   1.0000   1.0000   1.0000   1.0000
     1.0000   1.0000   1.0000   1.0000   1.0000   1.0000   1.0000   1.0000
     1.0000   1.0000   1.0000   1.0000   1.0000   1.0000   1.0000   1.0000
     1.0000   1.0000

          k =-0.5000 0.1443-0.3406 (  3824 PWs)   bands (ev):

  -114.2138-114.2138 -68.6032 -68.6031 -68.5581 -68.5581 -68.5571 -68.5571
    -8.2330  -8.2328   2.7447   2.7447   3.5714   3.5714   3.6534   3.6534
     4.4570   4.4570   4.6549   4.6549   5.2835   5.2836   6.7502   6.7503
     8.0996   8.0997

     occupation numbers 
     1.0000   1.0000   1.0000   1.0000   1.0000   1.0000   1.0000   1.0000
     1.0000   1.0000   1.0000   1.0000   1.0000   1.0000   1.0000   1.0000
     1.0000   1.0000   1.0000   1.0000   1.0000   1.0000   1.0000   1.0000
     1.0000   1.0000

          k =-0.5000 0.1443-0.2554 (  3820 PWs)   bands (ev):

  -114.2138-114.2138 -68.6034 -68.6028 -68.5582 -68.5580 -68.5574 -68.5569
    -8.2942  -8.1779   2.7707   2.8204   3.5376   3.6134   3.6482   3.7149
     4.4311   4.4736   4.6173   4.6915   5.2336   5.3342   6.4945   6.9950
     7.7017   8.2303

     occupation numbers 
     1.0000   1.0000   1.0000   1.0000   1.0000   1.0000   1.0000   1.0000
     1.0000   1.0000   1.0000   1.0000   1.0000   1.0000   1.0000   1.0000
     1.0000   1.0000   1.0000   1.0000   1.0000   1.0000   1.0000   1.0000
     1.0000   1.0000

          k =-0.5000 0.1443-0.1703 (  3821 PWs)   bands (ev):

  -114.2138-114.2137 -68.6037 -68.6026 -68.5583 -68.5579 -68.5576 -68.5567
    -8.3507  -8.1366   2.8700   2.9639   3.5452   3.6010   3.7292   3.8343
     4.4025   4.4547   4.6045   4.7184   5.1839   5.3935   6.2625   7.1174
     7.2439   8.0916

     occupation numbers 
     1.0000   1.0000   1.0000   1.0000   1.0000   1.0000   1.0000   1.0000
     1.0000   1.0000   1.0000   1.0000   1.0000   1.0000   1.0000   1.0000
     1.0000   1.0000   1.0000   1.0000   1.0000   1.0000   1.0000   1.0000
     1.0000   1.0000

          k =-0.5000 0.1443-0.0851 (  3818 PWs)   bands (ev):

  -114.2138-114.2137 -68.6038 -68.6024 -68.5584 -68.5579 -68.5577 -68.5565
    -8.3906  -8.1119   2.9641   3.0988   3.5533   3.6415   3.7954   4.0138
     4.3576   4.4053   4.6224   4.7324   5.1423   5.4654   6.0846   6.6632
     7.3469   7.8448

     occupation numbers 
     1.0000   1.0000   1.0000   1.0000   1.0000   1.0000   1.0000   1.0000
     1.0000   1.0000   1.0000   1.0000   1.0000   1.0000   1.0000   1.0000
     1.0000   1.0000   1.0000   1.0000   1.0000   1.0000   1.0000   1.0000
     1.0000   1.0000

          k =-0.5000-0.8660-0.0000 (  3824 PWs)   bands (ev):

  -114.2138-114.2137 -68.6039 -68.6023 -68.5586 -68.5579 -68.5577 -68.5563
    -8.3990  -8.1076   2.9195   3.0363   3.6048   3.7415   3.7756   4.1831
     4.3783   4.4300   4.6340   4.6586   5.0051   5.3532   6.3140   6.4264
     7.6569   7.7294

     occupation numbers 
     1.0000   1.0000   1.0000   1.0000   1.0000   1.0000   1.0000   1.0000
     1.0000   1.0000   1.0000   1.0000   1.0000   1.0000   1.0000   1.0000
     1.0000   1.0000   1.0000   1.0000   1.0000   1.0000   1.0000   1.0000
     1.0000   1.0000

          k =-0.5000-0.8660 0.0851 (  3816 PWs)   bands (ev):

  -114.2138-114.2137 -68.6038 -68.6024 -68.5586 -68.5579 -68.5576 -68.5563
    -8.3849  -8.1153   2.8789   2.9925   3.6072   3.6842   3.7649   4.0867
     4.3860   4.4624   4.6181   4.6593   5.0352   5.3033   6.4835   6.5412
     7.6164   7.8438

     occupation numbers 
     1.0000   1.0000   1.0000   1.0000   1.0000   1.0000   1.0000   1.0000
     1.0000   1.0000   1.0000   1.0000   1.0000   1.0000   1.0000   1.0000
     1.0000   1.0000   1.0000   1.0000   1.0000   1.0000   1.0000   1.0000
     1.0000   1.0000

          k =-0.5000-0.8660 0.1703 (  3824 PWs)   bands (ev):

  -114.2138-114.2137 -68.6037 -68.6026 -68.5585 -68.5580 -68.5575 -68.5565
    -8.3459  -8.1388   2.7755   2.8766   3.6031   3.6157   3.7362   3.8975
     4.4079   4.5203   4.5786   4.6536   5.0897   5.2374   6.6389   7.0463
     7.4992   8.0723

     occupation numbers 
     1.0000   1.0000   1.0000   1.0000   1.0000   1.0000   1.0000   1.0000
     1.0000   1.0000   1.0000   1.0000   1.0000   1.0000   1.0000   1.0000
     1.0000   1.0000   1.0000   1.0000   1.0000   1.0000   1.0000   1.0000
     1.0000   1.0000

          k =-0.5000-0.8660 0.2554 (  3810 PWs)   bands (ev):

  -114.2138-114.2137 -68.6034 -68.6028 -68.5583 -68.5581 -68.5573 -68.5567
    -8.2909  -8.1784   2.6786   2.7419   3.5829   3.6334   3.6985   3.7337
     4.4411   4.5301   4.5706   4.6370   5.1360   5.1982   6.8557   7.3180
     7.5965   8.1827

     occupation numbers 
     1.0000   1.0000   1.0000   1.0000   1.0000   1.0000   1.0000   1.0000
     1.0000   1.0000   1.0000   1.0000   1.0000   1.0000   1.0000   1.0000
     1.0000   1.0000   1.0000   1.0000   1.0000   1.0000   1.0000   1.0000
     1.0000   1.0000

          k =-0.5000-0.8660-0.3406 (  3816 PWs)   bands (ev):

  -114.2138-114.2138 -68.6032 -68.6031 -68.5582 -68.5582 -68.5570 -68.5570
    -8.2315  -8.2314   2.6616   2.6616   3.6283   3.6283   3.6618   3.6618
     4.4827   4.4827   4.6093   4.6093   5.1698   5.1698   7.0938   7.0940
     8.0185   8.0186

     occupation numbers 
     1.0000   1.0000   1.0000   1.0000   1.0000   1.0000   1.0000   1.0000
     1.0000   1.0000   1.0000   1.0000   1.0000   1.0000   1.0000   1.0000
     1.0000   1.0000   1.0000   1.0000   1.0000   1.0000   1.0000   1.0000
     1.0000   1.0000

     highest occupied level (ev):     8.8878

!    total energy              =    -987.07140236 Ry
     Harris-Foulkes estimate   =    -987.07140240 Ry
     estimated scf accuracy    <       0.00000008 Ry

     The total energy is the sum of the following terms:

     one-electron contribution =    -799.99396354 Ry
     hartree contribution      =     421.67396924 Ry
     xc contribution           =     -98.07910906 Ry
     ewald contribution        =    -510.67229900 Ry

     convergence has been achieved in   7 iterations

     Forces acting on atoms (cartesian axes, Ry/au):

     atom    1 type  2   force =     0.00000127    0.00000131    0.01367547
     atom    2 type  2   force =     0.00000124    0.00000024    0.01367042
     atom    3 type  1   force =    -0.00000059    0.00000194   -0.01369441
     atom    4 type  1   force =    -0.00000192   -0.00000349   -0.01365148
     The non-local contrib.  to forces
     atom    1 type  2   force =     0.00000091   -0.00000408    0.03855775
     atom    2 type  2   force =     0.00000078   -0.00000013    0.03855381
     atom    3 type  1   force =     0.00000204   -0.00000343    0.10733977
     atom    4 type  1   force =     0.00000099   -0.00000430    0.10735239
     The ionic contribution  to forces
     atom    1 type  2   force =    -0.00000843    0.00005623   -0.59997087
     atom    2 type  2   force =    -0.00000904    0.00000539   -0.59996969
     atom    3 type  1   force =     0.00001078   -0.00001428    0.59997447
     atom    4 type  1   force =     0.00000670   -0.00004734    0.59996610
     The local contribution  to forces
     atom    1 type  2   force =     0.00000521   -0.00005300    0.57541246
     atom    2 type  2   force =     0.00000725   -0.00000360    0.57542213
     atom    3 type  1   force =    -0.00001158    0.00001791   -0.72111220
     atom    4 type  1   force =    -0.00000527    0.00005337   -0.72115704
     The core correction contribution to forces
     atom    1 type  2   force =    -0.00000001    0.00000001   -0.00021114
     atom    2 type  2   force =    -0.00000001   -0.00000001   -0.00021109
     atom    3 type  1   force =     0.00000000    0.00000000    0.00000000
     atom    4 type  1   force =     0.00000000    0.00000000    0.00000000
     The Hubbard contrib.    to forces
     atom    1 type  2   force =     0.00000000    0.00000000    0.00000000
     atom    2 type  2   force =     0.00000000    0.00000000    0.00000000
     atom    3 type  1   force =     0.00000000    0.00000000    0.00000000
     atom    4 type  1   force =     0.00000000    0.00000000    0.00000000
     The SCF correction term to forces
     atom    1 type  2   force =     0.00000000    0.00000000    0.00000000
     atom    2 type  2   force =     0.00000000    0.00000000    0.00000000
     atom    3 type  1   force =     0.00000000    0.00000000    0.00000000
     atom    4 type  1   force =     0.00000000    0.00000000    0.00000000

     Total force =     0.000000     Total SCF correction =     0.000000


     Computing stress (Cartesian axis) and pressure

          total   stress  (Ry/bohr**3)                   (kbar)     P=   -3.89
  -0.00002272   0.00000001   0.00000001         -3.34      0.00      0.00
   0.00000001  -0.00002272   0.00000002          0.00     -3.34      0.00
   0.00000001   0.00000002  -0.00003388          0.00      0.00     -4.98

     kinetic stress (kbar)  34111.06     -0.00      0.00
                               -0.00  34111.06     -0.00
                                0.00     -0.00  34478.52

     local   stress (kbar)  -4037.82     -0.03      0.03
                               -0.03  -4038.01     -0.04
                                0.03     -0.04  -4384.35

     nonloc. stress (kbar)  -1662.29     -0.00     -0.00
                               -0.00  -1662.29     -0.00
                               -0.00     -0.00  -1812.11

     hartree stress (kbar)  65063.05      0.01     -0.01
                                0.01  65063.13      0.02
                               -0.01      0.02  66382.05

     exc-cor stress (kbar) -14293.24     -0.00     -0.00
                               -0.00 -14293.24     -0.00
                               -0.00     -0.00 -14299.19

     corecor stress (kbar)   -251.37      0.00     -0.00
                                0.00   -251.37      0.00
                               -0.00      0.00   -252.08

     ewald   stress (kbar) -78932.73      0.02     -0.02
                                0.02 -78932.62      0.03
                               -0.02      0.03 -80117.81

     hubbard stress (kbar)      0.00      0.00      0.00
                                0.00      0.00      0.00
                                0.00      0.00      0.00

     london  stress (kbar)      0.00      0.00      0.00
                                0.00      0.00      0.00
                                0.00      0.00      0.00

     DFT-D3  stress (kbar)      0.00      0.00      0.00
                                0.00      0.00      0.00
                                0.00      0.00      0.00

     XDM     stress (kbar)      0.00      0.00      0.00
                                0.00      0.00      0.00
                                0.00      0.00      0.00

     dft-nl  stress (kbar)      0.00      0.00      0.00
                                0.00      0.00      0.00
                                0.00      0.00      0.00

     TS-vdW  stress (kbar)      0.00      0.00      0.00
                                0.00      0.00      0.00
                                0.00      0.00      0.00



     Writing output data file ZnO.save/
 
     init_run     :      0.52s CPU      0.90s WALL (       1 calls)
     electrons    :      7.03s CPU      7.60s WALL (       1 calls)
     forces       :      0.15s CPU      0.16s WALL (       1 calls)
     stress       :      0.27s CPU      0.28s WALL (       1 calls)

     Called by init_run:
     wfcinit      :      0.38s CPU      0.53s WALL (       1 calls)
     wfcinit:atom :      0.00s CPU      0.00s WALL (      65 calls)
     wfcinit:wfcr :      0.36s CPU      0.50s WALL (      65 calls)
     potinit      :      0.06s CPU      0.10s WALL (       1 calls)
     hinit0       :      0.07s CPU      0.18s WALL (       1 calls)

     Called by electrons:
     c_bands      :      5.97s CPU      6.42s WALL (       7 calls)
     sum_band     :      0.82s CPU      0.88s WALL (       7 calls)
     v_of_rho     :      0.22s CPU      0.26s WALL (       8 calls)
     v_h          :      0.00s CPU      0.00s WALL (       8 calls)
     v_xc         :      0.26s CPU      0.30s WALL (      10 calls)
     newd         :      0.04s CPU      0.09s WALL (       8 calls)
     mix_rho      :      0.01s CPU      0.02s WALL (       7 calls)

     Called by c_bands:
     init_us_2    :      0.07s CPU      0.08s WALL (    1105 calls)
     cegterg      :      5.51s CPU      5.77s WALL (     455 calls)

     Called by sum_band:
     sum_band:bec :      0.01s CPU      0.02s WALL (     455 calls)
     addusdens    :      0.03s CPU      0.04s WALL (       7 calls)

     Called by *egterg:
     h_psi        :      3.44s CPU      3.62s WALL (    1455 calls)
     s_psi        :      0.11s CPU      0.12s WALL (    1455 calls)
     g_psi        :      0.01s CPU      0.01s WALL (     935 calls)
     cdiaghg      :      1.45s CPU      1.60s WALL (    1390 calls)
     cegterg:over :      0.35s CPU      0.41s WALL (     935 calls)
     cegterg:upda :      0.19s CPU      0.20s WALL (     935 calls)
     cegterg:last :      0.13s CPU      0.13s WALL (     455 calls)
     cdiaghg:chol :      0.09s CPU      0.12s WALL (    1390 calls)
     cdiaghg:inve :      0.02s CPU      0.03s WALL (    1390 calls)
     cdiaghg:para :      0.14s CPU      0.16s WALL (    2780 calls)

     Called by h_psi:
     h_psi:pot    :      3.43s CPU      3.61s WALL (    1455 calls)
     h_psi:calbec :      0.20s CPU      0.25s WALL (    1455 calls)
     vloc_psi     :      3.12s CPU      3.23s WALL (    1455 calls)
     add_vuspsi   :      0.12s CPU      0.13s WALL (    1455 calls)

     General routines
     calbec       :      0.31s CPU      0.37s WALL (    2235 calls)
     fft          :      0.03s CPU      0.12s WALL (     127 calls)
     ffts         :      0.00s CPU      0.01s WALL (      15 calls)
     fftw         :      3.56s CPU      3.69s WALL (   73878 calls)
     interpolate  :      0.00s CPU      0.01s WALL (       8 calls)
 
     Parallel routines
     fft_scatt_xy :      0.50s CPU      0.52s WALL (   74020 calls)
     fft_scatt_yz :      1.82s CPU      1.89s WALL (   74020 calls)
 
     PWSCF        :      8.35s CPU     10.40s WALL

 
   This run was terminated on:  20:44:32  15Jun2022            

=------------------------------------------------------------------------------=
   JOB DONE.
=------------------------------------------------------------------------------=
