
     Program PWSCF v.6.4.1 starts on 15Jun2022 at 23:38: 4 

     This program is part of the open-source Quantum ESPRESSO suite
     for quantum simulation of materials; please cite
         "P. Giannozzi et al., J. Phys.:Condens. Matter 21 395502 (2009);
         "P. Giannozzi et al., J. Phys.:Condens. Matter 29 465901 (2017);
          URL http://www.quantum-espresso.org", 
     in publications or presentations arising from this work. More details at
     http://www.quantum-espresso.org/quote

     Parallel version (MPI), running on    64 processors

     MPI processes distributed on     1 nodes
     R & G space division:  proc/nbgrp/npool/nimage =      64
     Waiting for input...
     Reading input from standard input
Warning: card &IONS ignored
Warning: card   UPSCALE           = 100.D0, ignored
Warning: card / ignored
Warning: card &CELL ignored
Warning: card   CELL_DYNAMICS     = 'BFGS' ignored
Warning: card   PRESS_CONV_THR    = 0.5D0 ignored
Warning: card   CELL_DOFREE = 'ALL' ignored
Warning: card / ignored

     Current dimensions of program PWSCF are:
     Max number of different atomic species (ntypx) = 10
     Max number of k-points (npk) =  40000
     Max angular momentum in pseudopotentials (lmaxx) =  3

     Atomic positions and unit cell read from directory:
     ./temp/ZnO.save/
 

     Subspace diagonalization in iterative solution of the eigenvalue problem:
     one sub-group per band group will be used
     scalapack distributed-memory algorithm (size of sub-group:  5*  5 procs)

     Message from routine set_sym_bl:
     NOTICE: Symmetry group for Bravais lattice is not a group (12) - symmetries are disabled
 
     Parallelization info
     --------------------
     sticks:   dense  smooth     PW     G-vecs:    dense   smooth      PW
     Min          25      13      4                 1217      471      84
     Max          26      14      5                 1228      482      89
     Sum        1651     871    283                78329    30405    5543
 


     bravais-lattice index     =            0
     lattice parameter (alat)  =       6.3140  a.u.
     unit-cell volume          =     315.0809 (a.u.)^3
     number of atoms/cell      =            4
     number of atomic types    =            3
     number of electrons       =        42.00
     number of Kohn-Sham states=           21
     kinetic-energy cutoff     =      80.0000  Ry
     charge density cutoff     =     600.0000  Ry
     Exchange-correlation      = SLA  PW   PSX  PSC ( 1  4 10  8 0 0)
     Using LIBXC version       =    4   3   4

     celldm(1)=   6.314027  celldm(2)=   0.000000  celldm(3)=   0.000000
     celldm(4)=   0.000000  celldm(5)=   0.000000  celldm(6)=   0.000000

     crystal axes: (cart. coord. in units of alat)
               a(1) = (   1.000000   0.000000   0.000000 )  
               a(2) = (  -0.500000   0.866025  -0.000000 )  
               a(3) = (   0.000001  -0.000000   1.445347 )  

     reciprocal axes: (cart. coord. in units 2 pi/alat)
               b(1) = (  1.000000  0.577350 -0.000000 )  
               b(2) = ( -0.000000  1.154701  0.000000 )  
               b(3) = ( -0.000000  0.000000  0.691875 )  


     PseudoPot. # 1 for Mg read from file:
     ./GBRV_PBEsol/mg_pbesol_v1.4.uspp.F.UPF
     MD5 check sum: 4059f37963cf5867752dbf5ab2400678
     Pseudo is Ultrasoft, Zval = 10.0
     Generated by new atomic code, or converted to UPF format
     Using radial grid of  821 points,  7 beta functions with: 
                l(1) =   0
                l(2) =   0
                l(3) =   0
                l(4) =   1
                l(5) =   1
                l(6) =   2
                l(7) =   2
     Q(r) pseudized with  8 coefficients,  rinner =    1.200   1.200   1.200
                                                       1.200   1.200

     PseudoPot. # 2 for Zn read from file:
     ./GBRV_PBEsol/zn_pbesol_v1.uspp.F.UPF
     MD5 check sum: 7d8615e52efe7c1e2b1899de8658bae2
     Pseudo is Ultrasoft, Zval = 20.0
     Generated by new atomic code, or converted to UPF format
     Using radial grid of  943 points,  6 beta functions with: 
                l(1) =   0
                l(2) =   0
                l(3) =   1
                l(4) =   1
                l(5) =   2
                l(6) =   2
     Q(r) pseudized with  8 coefficients,  rinner =    1.100   1.100   1.100
                                                       1.100   1.100

     PseudoPot. # 3 for O  read from file:
     ./GBRV_PBEsol/o_pbesol_v1.2.uspp.F.UPF
     MD5 check sum: 501638753501ef6325af9037351f7734
     Pseudo is Ultrasoft + core correction, Zval =  6.0
     Generated by new atomic code, or converted to UPF format
     Using radial grid of  737 points,  5 beta functions with: 
                l(1) =   0
                l(2) =   0
                l(3) =   1
                l(4) =   1
                l(5) =   2
     Q(r) pseudized with  8 coefficients,  rinner =    0.900   0.900   0.900
                                                       0.900   0.900

     atomic species   valence    mass     pseudopotential
        Mg            10.00    24.30500     Mg( 1.00)
        Zn            20.00    65.38000     Zn( 1.00)
        O              6.00    15.99900     O ( 1.00)

     No symmetry found


                                    s                        frac. trans.

      isym =  1     identity                                     

 cryst.   s( 1) = (     1          0          0      )
                  (     0          1          0      )
                  (     0          0          1      )

 cart.    s( 1) = (  1.0000000 -0.0000000 -0.0000000 )
                  (  0.0000000  1.0000000 -0.0000000 )
                  ( -0.0000000 -0.0000000  1.0000000 )


   Cartesian axes

     site n.     atom                  positions (alat units)
         1           O   tau(   1) = (   0.5000002   0.2886755   0.0106175  )
         2           O   tau(   2) = (   0.0000005   0.5773492   0.7332906  )
         3           Zn  tau(   3) = (   0.5000004   0.2886747   0.8440740  )
         4           Mg  tau(   4) = (   0.0000007   0.5773508   1.5714947  )

   Crystallographic axes

     site n.     atom                  positions (cryst. coord.)
         1           O   tau(   1) = (  0.6666670  0.3333337  0.0073459  )
         2           O   tau(   2) = (  0.3333329  0.6666657  0.5073458  )
         3           Zn  tau(   3) = (  0.6666664  0.3333329  0.5839939  )
         4           Mg  tau(   4) = (  0.3333337  0.6666677  1.0872785  )

     number of k points=   544
                       cart. coord. in units 2pi/alat
        k(    1) = (   0.0000000   0.0000000   0.0000000), wk =   0.0019531
        k(    2) = (  -0.0000000   0.0000000   0.0461250), wk =   0.0019531
        k(    3) = (  -0.0000000   0.0000000   0.0922501), wk =   0.0019531
        k(    4) = (  -0.0000001   0.0000000   0.1383751), wk =   0.0019531
        k(    5) = (  -0.0000001   0.0000000   0.1845001), wk =   0.0019531
        k(    6) = (  -0.0000001   0.0000000   0.2306251), wk =   0.0019531
        k(    7) = (  -0.0000001   0.0000000   0.2767502), wk =   0.0019531
        k(    8) = (  -0.0000001   0.0000000   0.3228752), wk =   0.0019531
        k(    9) = (  -0.0000002   0.0000000   0.3690002), wk =   0.0019531
        k(   10) = (  -0.0000002   0.0000000   0.4151252), wk =   0.0019531
        k(   11) = (  -0.0000002   0.0000000   0.4612503), wk =   0.0019531
        k(   12) = (  -0.0000002   0.0000000   0.5073753), wk =   0.0019531
        k(   13) = (  -0.0000002   0.0000000   0.5535003), wk =   0.0019531
        k(   14) = (  -0.0000003   0.0000001   0.5996253), wk =   0.0019531
        k(   15) = (  -0.0000003   0.0000001   0.6457504), wk =   0.0019531
        k(   16) = (  -0.0000003   0.0000001   0.6918754), wk =   0.0019531
        k(   17) = (  -0.0000000   0.1443376   0.0000000), wk =   0.0039062
        k(   18) = (  -0.0000000   0.1443376   0.0461250), wk =   0.0039062
        k(   19) = (  -0.0000001   0.1443376   0.0922501), wk =   0.0039062
        k(   20) = (  -0.0000001   0.1443376   0.1383751), wk =   0.0039062
        k(   21) = (  -0.0000001   0.1443376   0.1845001), wk =   0.0039062
        k(   22) = (  -0.0000001   0.1443376   0.2306252), wk =   0.0039062
        k(   23) = (  -0.0000001   0.1443376   0.2767502), wk =   0.0039062
        k(   24) = (  -0.0000002   0.1443376   0.3228752), wk =   0.0039062
        k(   25) = (  -0.0000002   0.1443376   0.3690002), wk =   0.0039062
        k(   26) = (  -0.0000002   0.1443376   0.4151253), wk =   0.0039062
        k(   27) = (  -0.0000002   0.1443376   0.4612503), wk =   0.0039062
        k(   28) = (  -0.0000002   0.1443376   0.5073753), wk =   0.0039062
        k(   29) = (  -0.0000003   0.1443376   0.5535003), wk =   0.0039062
        k(   30) = (  -0.0000003   0.1443376   0.5996254), wk =   0.0039062
        k(   31) = (  -0.0000003   0.1443376   0.6457504), wk =   0.0039062
        k(   32) = (  -0.0000003   0.1443377   0.6918754), wk =   0.0039062
        k(   33) = (  -0.0000000   0.2886752   0.0000000), wk =   0.0039062
        k(   34) = (  -0.0000001   0.2886752   0.0461251), wk =   0.0039062
        k(   35) = (  -0.0000001   0.2886752   0.0922501), wk =   0.0039062
        k(   36) = (  -0.0000001   0.2886752   0.1383751), wk =   0.0039062
        k(   37) = (  -0.0000001   0.2886752   0.1845001), wk =   0.0039062
        k(   38) = (  -0.0000001   0.2886752   0.2306252), wk =   0.0039062
        k(   39) = (  -0.0000002   0.2886752   0.2767502), wk =   0.0039062
        k(   40) = (  -0.0000002   0.2886752   0.3228752), wk =   0.0039062
        k(   41) = (  -0.0000002   0.2886752   0.3690003), wk =   0.0039062
        k(   42) = (  -0.0000002   0.2886752   0.4151253), wk =   0.0039062
        k(   43) = (  -0.0000002   0.2886752   0.4612503), wk =   0.0039062
        k(   44) = (  -0.0000003   0.2886752   0.5073753), wk =   0.0039062
        k(   45) = (  -0.0000003   0.2886752   0.5535004), wk =   0.0039062
        k(   46) = (  -0.0000003   0.2886752   0.5996254), wk =   0.0039062
        k(   47) = (  -0.0000003   0.2886752   0.6457504), wk =   0.0039062
        k(   48) = (  -0.0000003   0.2886752   0.6918754), wk =   0.0039062
        k(   49) = (  -0.0000001   0.4330128   0.0000001), wk =   0.0039062
        k(   50) = (  -0.0000001   0.4330128   0.0461251), wk =   0.0039062
        k(   51) = (  -0.0000001   0.4330128   0.0922501), wk =   0.0039062
        k(   52) = (  -0.0000001   0.4330128   0.1383751), wk =   0.0039062
        k(   53) = (  -0.0000001   0.4330128   0.1845002), wk =   0.0039062
        k(   54) = (  -0.0000002   0.4330128   0.2306252), wk =   0.0039062
        k(   55) = (  -0.0000002   0.4330128   0.2767502), wk =   0.0039062
        k(   56) = (  -0.0000002   0.4330128   0.3228752), wk =   0.0039062
        k(   57) = (  -0.0000002   0.4330128   0.3690003), wk =   0.0039062
        k(   58) = (  -0.0000002   0.4330128   0.4151253), wk =   0.0039062
        k(   59) = (  -0.0000003   0.4330128   0.4612503), wk =   0.0039062
        k(   60) = (  -0.0000003   0.4330128   0.5073753), wk =   0.0039062
        k(   61) = (  -0.0000003   0.4330128   0.5535004), wk =   0.0039062
        k(   62) = (  -0.0000003   0.4330128   0.5996254), wk =   0.0039062
        k(   63) = (  -0.0000003   0.4330128   0.6457504), wk =   0.0039062
        k(   64) = (  -0.0000004   0.4330128   0.6918755), wk =   0.0039062
        k(   65) = (   0.0000001  -0.5773504  -0.0000001), wk =   0.0019531
        k(   66) = (   0.0000001  -0.5773504   0.0461249), wk =   0.0019531
        k(   67) = (   0.0000001  -0.5773503   0.0922500), wk =   0.0019531
        k(   68) = (   0.0000000  -0.5773503   0.1383750), wk =   0.0019531
        k(   69) = (   0.0000000  -0.5773503   0.1845000), wk =   0.0019531
        k(   70) = (  -0.0000000  -0.5773503   0.2306250), wk =   0.0019531
        k(   71) = (  -0.0000000  -0.5773503   0.2767501), wk =   0.0019531
        k(   72) = (  -0.0000000  -0.5773503   0.3228751), wk =   0.0019531
        k(   73) = (  -0.0000001  -0.5773503   0.3690001), wk =   0.0019531
        k(   74) = (  -0.0000001  -0.5773503   0.4151252), wk =   0.0019531
        k(   75) = (  -0.0000001  -0.5773503   0.4612502), wk =   0.0019531
        k(   76) = (  -0.0000001  -0.5773503   0.5073752), wk =   0.0019531
        k(   77) = (  -0.0000001  -0.5773503   0.5535002), wk =   0.0019531
        k(   78) = (  -0.0000002  -0.5773503   0.5996253), wk =   0.0019531
        k(   79) = (  -0.0000002  -0.5773503   0.6457503), wk =   0.0019531
        k(   80) = (  -0.0000002  -0.5773503   0.6918753), wk =   0.0019531
        k(   81) = (   0.1250000   0.0721688  -0.0000001), wk =   0.0039062
        k(   82) = (   0.1250000   0.0721688   0.0461250), wk =   0.0039062
        k(   83) = (   0.1249999   0.0721688   0.0922500), wk =   0.0039062
        k(   84) = (   0.1249999   0.0721688   0.1383750), wk =   0.0039062
        k(   85) = (   0.1249999   0.0721688   0.1845001), wk =   0.0039062
        k(   86) = (   0.1249999   0.0721688   0.2306251), wk =   0.0039062
        k(   87) = (   0.1249999   0.0721688   0.2767501), wk =   0.0039062
        k(   88) = (   0.1249999   0.0721688   0.3228751), wk =   0.0039062
        k(   89) = (   0.1249998   0.0721688   0.3690002), wk =   0.0039062
        k(   90) = (   0.1249998   0.0721688   0.4151252), wk =   0.0039062
        k(   91) = (   0.1249998   0.0721688   0.4612502), wk =   0.0039062
        k(   92) = (   0.1249998   0.0721688   0.5073752), wk =   0.0039062
        k(   93) = (   0.1249998   0.0721688   0.5535003), wk =   0.0039062
        k(   94) = (   0.1249997   0.0721688   0.5996253), wk =   0.0039062
        k(   95) = (   0.1249997   0.0721688   0.6457503), wk =   0.0039062
        k(   96) = (   0.1249997   0.0721688   0.6918753), wk =   0.0039062
        k(   97) = (   0.1250000   0.2165064  -0.0000000), wk =   0.0039062
        k(   98) = (   0.1249999   0.2165064   0.0461250), wk =   0.0039062
        k(   99) = (   0.1249999   0.2165064   0.0922500), wk =   0.0039062
        k(  100) = (   0.1249999   0.2165064   0.1383750), wk =   0.0039062
        k(  101) = (   0.1249999   0.2165064   0.1845001), wk =   0.0039062
        k(  102) = (   0.1249999   0.2165064   0.2306251), wk =   0.0039062
        k(  103) = (   0.1249998   0.2165064   0.2767501), wk =   0.0039062
        k(  104) = (   0.1249998   0.2165064   0.3228752), wk =   0.0039062
        k(  105) = (   0.1249998   0.2165064   0.3690002), wk =   0.0039062
        k(  106) = (   0.1249998   0.2165064   0.4151252), wk =   0.0039062
        k(  107) = (   0.1249998   0.2165064   0.4612502), wk =   0.0039062
        k(  108) = (   0.1249998   0.2165064   0.5073753), wk =   0.0039062
        k(  109) = (   0.1249997   0.2165064   0.5535003), wk =   0.0039062
        k(  110) = (   0.1249997   0.2165064   0.5996253), wk =   0.0039062
        k(  111) = (   0.1249997   0.2165064   0.6457503), wk =   0.0039062
        k(  112) = (   0.1249997   0.2165064   0.6918754), wk =   0.0039062
        k(  113) = (   0.1249999   0.3608440  -0.0000000), wk =   0.0039062
        k(  114) = (   0.1249999   0.3608440   0.0461250), wk =   0.0039062
        k(  115) = (   0.1249999   0.3608440   0.0922500), wk =   0.0039062
        k(  116) = (   0.1249999   0.3608440   0.1383751), wk =   0.0039062
        k(  117) = (   0.1249999   0.3608440   0.1845001), wk =   0.0039062
        k(  118) = (   0.1249998   0.3608440   0.2306251), wk =   0.0039062
        k(  119) = (   0.1249998   0.3608440   0.2767501), wk =   0.0039062
        k(  120) = (   0.1249998   0.3608440   0.3228752), wk =   0.0039062
        k(  121) = (   0.1249998   0.3608440   0.3690002), wk =   0.0039062
        k(  122) = (   0.1249998   0.3608440   0.4151252), wk =   0.0039062
        k(  123) = (   0.1249997   0.3608440   0.4612503), wk =   0.0039062
        k(  124) = (   0.1249997   0.3608440   0.5073753), wk =   0.0039062
        k(  125) = (   0.1249997   0.3608440   0.5535003), wk =   0.0039062
        k(  126) = (   0.1249997   0.3608440   0.5996253), wk =   0.0039062
        k(  127) = (   0.1249997   0.3608440   0.6457504), wk =   0.0039062
        k(  128) = (   0.1249997   0.3608440   0.6918754), wk =   0.0039062
        k(  129) = (   0.1249999   0.5051815   0.0000000), wk =   0.0039062
        k(  130) = (   0.1249999   0.5051815   0.0461250), wk =   0.0039062
        k(  131) = (   0.1249999   0.5051816   0.0922501), wk =   0.0039062
        k(  132) = (   0.1249999   0.5051816   0.1383751), wk =   0.0039062
        k(  133) = (   0.1249998   0.5051816   0.1845001), wk =   0.0039062
        k(  134) = (   0.1249998   0.5051816   0.2306251), wk =   0.0039062
        k(  135) = (   0.1249998   0.5051816   0.2767502), wk =   0.0039062
        k(  136) = (   0.1249998   0.5051816   0.3228752), wk =   0.0039062
        k(  137) = (   0.1249998   0.5051816   0.3690002), wk =   0.0039062
        k(  138) = (   0.1249997   0.5051816   0.4151252), wk =   0.0039062
        k(  139) = (   0.1249997   0.5051816   0.4612503), wk =   0.0039062
        k(  140) = (   0.1249997   0.5051816   0.5073753), wk =   0.0039062
        k(  141) = (   0.1249997   0.5051816   0.5535003), wk =   0.0039062
        k(  142) = (   0.1249997   0.5051816   0.5996254), wk =   0.0039062
        k(  143) = (   0.1249996   0.5051816   0.6457504), wk =   0.0039062
        k(  144) = (   0.1249996   0.5051816   0.6918754), wk =   0.0039062
        k(  145) = (   0.1250001  -0.5051816  -0.0000001), wk =   0.0039062
        k(  146) = (   0.1250001  -0.5051816   0.0461249), wk =   0.0039062
        k(  147) = (   0.1250000  -0.5051816   0.0922499), wk =   0.0039062
        k(  148) = (   0.1250000  -0.5051816   0.1383749), wk =   0.0039062
        k(  149) = (   0.1250000  -0.5051816   0.1845000), wk =   0.0039062
        k(  150) = (   0.1250000  -0.5051816   0.2306250), wk =   0.0039062
        k(  151) = (   0.1250000  -0.5051816   0.2767500), wk =   0.0039062
        k(  152) = (   0.1249999  -0.5051816   0.3228750), wk =   0.0039062
        k(  153) = (   0.1249999  -0.5051815   0.3690001), wk =   0.0039062
        k(  154) = (   0.1249999  -0.5051815   0.4151251), wk =   0.0039062
        k(  155) = (   0.1249999  -0.5051815   0.4612501), wk =   0.0039062
        k(  156) = (   0.1249999  -0.5051815   0.5073752), wk =   0.0039062
        k(  157) = (   0.1249998  -0.5051815   0.5535002), wk =   0.0039062
        k(  158) = (   0.1249998  -0.5051815   0.5996252), wk =   0.0039062
        k(  159) = (   0.1249998  -0.5051815   0.6457502), wk =   0.0039062
        k(  160) = (   0.1249998  -0.5051815   0.6918753), wk =   0.0039062
        k(  161) = (   0.1250001  -0.3608440  -0.0000001), wk =   0.0039062
        k(  162) = (   0.1250000  -0.3608440   0.0461249), wk =   0.0039062
        k(  163) = (   0.1250000  -0.3608440   0.0922499), wk =   0.0039062
        k(  164) = (   0.1250000  -0.3608440   0.1383750), wk =   0.0039062
        k(  165) = (   0.1250000  -0.3608440   0.1845000), wk =   0.0039062
        k(  166) = (   0.1250000  -0.3608440   0.2306250), wk =   0.0039062
        k(  167) = (   0.1249999  -0.3608440   0.2767500), wk =   0.0039062
        k(  168) = (   0.1249999  -0.3608440   0.3228751), wk =   0.0039062
        k(  169) = (   0.1249999  -0.3608440   0.3690001), wk =   0.0039062
        k(  170) = (   0.1249999  -0.3608440   0.4151251), wk =   0.0039062
        k(  171) = (   0.1249999  -0.3608440   0.4612501), wk =   0.0039062
        k(  172) = (   0.1249998  -0.3608439   0.5073752), wk =   0.0039062
        k(  173) = (   0.1249998  -0.3608439   0.5535002), wk =   0.0039062
        k(  174) = (   0.1249998  -0.3608439   0.5996252), wk =   0.0039062
        k(  175) = (   0.1249998  -0.3608439   0.6457503), wk =   0.0039062
        k(  176) = (   0.1249998  -0.3608439   0.6918753), wk =   0.0039062
        k(  177) = (   0.1250000  -0.2165064  -0.0000001), wk =   0.0039062
        k(  178) = (   0.1250000  -0.2165064   0.0461249), wk =   0.0039062
        k(  179) = (   0.1250000  -0.2165064   0.0922500), wk =   0.0039062
        k(  180) = (   0.1250000  -0.2165064   0.1383750), wk =   0.0039062
        k(  181) = (   0.1250000  -0.2165064   0.1845000), wk =   0.0039062
        k(  182) = (   0.1249999  -0.2165064   0.2306250), wk =   0.0039062
        k(  183) = (   0.1249999  -0.2165064   0.2767501), wk =   0.0039062
        k(  184) = (   0.1249999  -0.2165064   0.3228751), wk =   0.0039062
        k(  185) = (   0.1249999  -0.2165064   0.3690001), wk =   0.0039062
        k(  186) = (   0.1249999  -0.2165064   0.4151251), wk =   0.0039062
        k(  187) = (   0.1249998  -0.2165064   0.4612502), wk =   0.0039062
        k(  188) = (   0.1249998  -0.2165064   0.5073752), wk =   0.0039062
        k(  189) = (   0.1249998  -0.2165064   0.5535002), wk =   0.0039062
        k(  190) = (   0.1249998  -0.2165064   0.5996252), wk =   0.0039062
        k(  191) = (   0.1249998  -0.2165063   0.6457503), wk =   0.0039062
        k(  192) = (   0.1249997  -0.2165063   0.6918753), wk =   0.0039062
        k(  193) = (   0.1250000  -0.0721688  -0.0000001), wk =   0.0039062
        k(  194) = (   0.1250000  -0.0721688   0.0461250), wk =   0.0039062
        k(  195) = (   0.1250000  -0.0721688   0.0922500), wk =   0.0039062
        k(  196) = (   0.1250000  -0.0721688   0.1383750), wk =   0.0039062
        k(  197) = (   0.1249999  -0.0721688   0.1845000), wk =   0.0039062
        k(  198) = (   0.1249999  -0.0721688   0.2306251), wk =   0.0039062
        k(  199) = (   0.1249999  -0.0721688   0.2767501), wk =   0.0039062
        k(  200) = (   0.1249999  -0.0721688   0.3228751), wk =   0.0039062
        k(  201) = (   0.1249999  -0.0721688   0.3690001), wk =   0.0039062
        k(  202) = (   0.1249998  -0.0721688   0.4151252), wk =   0.0039062
        k(  203) = (   0.1249998  -0.0721688   0.4612502), wk =   0.0039062
        k(  204) = (   0.1249998  -0.0721688   0.5073752), wk =   0.0039062
        k(  205) = (   0.1249998  -0.0721688   0.5535002), wk =   0.0039062
        k(  206) = (   0.1249998  -0.0721688   0.5996253), wk =   0.0039062
        k(  207) = (   0.1249997  -0.0721688   0.6457503), wk =   0.0039062
        k(  208) = (   0.1249997  -0.0721688   0.6918753), wk =   0.0039062
        k(  209) = (   0.2500000   0.1443375  -0.0000001), wk =   0.0039062
        k(  210) = (   0.2500000   0.1443376   0.0461249), wk =   0.0039062
        k(  211) = (   0.2499999   0.1443376   0.0922500), wk =   0.0039062
        k(  212) = (   0.2499999   0.1443376   0.1383750), wk =   0.0039062
        k(  213) = (   0.2499999   0.1443376   0.1845000), wk =   0.0039062
        k(  214) = (   0.2499999   0.1443376   0.2306250), wk =   0.0039062
        k(  215) = (   0.2499999   0.1443376   0.2767501), wk =   0.0039062
        k(  216) = (   0.2499998   0.1443376   0.3228751), wk =   0.0039062
        k(  217) = (   0.2499998   0.1443376   0.3690001), wk =   0.0039062
        k(  218) = (   0.2499998   0.1443376   0.4151251), wk =   0.0039062
        k(  219) = (   0.2499998   0.1443376   0.4612502), wk =   0.0039062
        k(  220) = (   0.2499998   0.1443376   0.5073752), wk =   0.0039062
        k(  221) = (   0.2499997   0.1443376   0.5535002), wk =   0.0039062
        k(  222) = (   0.2499997   0.1443376   0.5996252), wk =   0.0039062
        k(  223) = (   0.2499997   0.1443376   0.6457503), wk =   0.0039062
        k(  224) = (   0.2499997   0.1443376   0.6918753), wk =   0.0039062
        k(  225) = (   0.2500000   0.2886751  -0.0000001), wk =   0.0039062
        k(  226) = (   0.2499999   0.2886751   0.0461249), wk =   0.0039062
        k(  227) = (   0.2499999   0.2886751   0.0922500), wk =   0.0039062
        k(  228) = (   0.2499999   0.2886752   0.1383750), wk =   0.0039062
        k(  229) = (   0.2499999   0.2886752   0.1845000), wk =   0.0039062
        k(  230) = (   0.2499999   0.2886752   0.2306250), wk =   0.0039062
        k(  231) = (   0.2499998   0.2886752   0.2767501), wk =   0.0039062
        k(  232) = (   0.2499998   0.2886752   0.3228751), wk =   0.0039062
        k(  233) = (   0.2499998   0.2886752   0.3690001), wk =   0.0039062
        k(  234) = (   0.2499998   0.2886752   0.4151252), wk =   0.0039062
        k(  235) = (   0.2499998   0.2886752   0.4612502), wk =   0.0039062
        k(  236) = (   0.2499997   0.2886752   0.5073752), wk =   0.0039062
        k(  237) = (   0.2499997   0.2886752   0.5535002), wk =   0.0039062
        k(  238) = (   0.2499997   0.2886752   0.5996253), wk =   0.0039062
        k(  239) = (   0.2499997   0.2886752   0.6457503), wk =   0.0039062
        k(  240) = (   0.2499997   0.2886752   0.6918753), wk =   0.0039062
        k(  241) = (   0.2499999   0.4330127  -0.0000001), wk =   0.0039062
        k(  242) = (   0.2499999   0.4330127   0.0461250), wk =   0.0039062
        k(  243) = (   0.2499999   0.4330127   0.0922500), wk =   0.0039062
        k(  244) = (   0.2499999   0.4330127   0.1383750), wk =   0.0039062
        k(  245) = (   0.2499999   0.4330127   0.1845000), wk =   0.0039062
        k(  246) = (   0.2499998   0.4330127   0.2306251), wk =   0.0039062
        k(  247) = (   0.2499998   0.4330128   0.2767501), wk =   0.0039062
        k(  248) = (   0.2499998   0.4330128   0.3228751), wk =   0.0039062
        k(  249) = (   0.2499998   0.4330128   0.3690001), wk =   0.0039062
        k(  250) = (   0.2499998   0.4330128   0.4151252), wk =   0.0039062
        k(  251) = (   0.2499997   0.4330128   0.4612502), wk =   0.0039062
        k(  252) = (   0.2499997   0.4330128   0.5073752), wk =   0.0039062
        k(  253) = (   0.2499997   0.4330128   0.5535003), wk =   0.0039062
        k(  254) = (   0.2499997   0.4330128   0.5996253), wk =   0.0039062
        k(  255) = (   0.2499997   0.4330128   0.6457503), wk =   0.0039062
        k(  256) = (   0.2499996   0.4330128   0.6918753), wk =   0.0039062
        k(  257) = (   0.2499999   0.5773503  -0.0000000), wk =   0.0039062
        k(  258) = (   0.2499999   0.5773503   0.0461250), wk =   0.0039062
        k(  259) = (   0.2499999   0.5773503   0.0922500), wk =   0.0039062
        k(  260) = (   0.2499999   0.5773503   0.1383750), wk =   0.0039062
        k(  261) = (   0.2499998   0.5773503   0.1845001), wk =   0.0039062
        k(  262) = (   0.2499998   0.5773503   0.2306251), wk =   0.0039062
        k(  263) = (   0.2499998   0.5773503   0.2767501), wk =   0.0039062
        k(  264) = (   0.2499998   0.5773503   0.3228751), wk =   0.0039062
        k(  265) = (   0.2499998   0.5773504   0.3690002), wk =   0.0039062
        k(  266) = (   0.2499997   0.5773504   0.4151252), wk =   0.0039062
        k(  267) = (   0.2499997   0.5773504   0.4612502), wk =   0.0039062
        k(  268) = (   0.2499997   0.5773504   0.5073752), wk =   0.0039062
        k(  269) = (   0.2499997   0.5773504   0.5535003), wk =   0.0039062
        k(  270) = (   0.2499997   0.5773504   0.5996253), wk =   0.0039062
        k(  271) = (   0.2499996   0.5773504   0.6457503), wk =   0.0039062
        k(  272) = (   0.2499996   0.5773504   0.6918754), wk =   0.0039062
        k(  273) = (   0.2500001  -0.4330128  -0.0000002), wk =   0.0039062
        k(  274) = (   0.2500000  -0.4330128   0.0461248), wk =   0.0039062
        k(  275) = (   0.2500000  -0.4330128   0.0922499), wk =   0.0039062
        k(  276) = (   0.2500000  -0.4330128   0.1383749), wk =   0.0039062
        k(  277) = (   0.2500000  -0.4330128   0.1844999), wk =   0.0039062
        k(  278) = (   0.2500000  -0.4330128   0.2306249), wk =   0.0039062
        k(  279) = (   0.2500000  -0.4330128   0.2767500), wk =   0.0039062
        k(  280) = (   0.2499999  -0.4330128   0.3228750), wk =   0.0039062
        k(  281) = (   0.2499999  -0.4330128   0.3690000), wk =   0.0039062
        k(  282) = (   0.2499999  -0.4330128   0.4151250), wk =   0.0039062
        k(  283) = (   0.2499999  -0.4330128   0.4612501), wk =   0.0039062
        k(  284) = (   0.2499999  -0.4330128   0.5073751), wk =   0.0039062
        k(  285) = (   0.2499998  -0.4330128   0.5535001), wk =   0.0039062
        k(  286) = (   0.2499998  -0.4330128   0.5996252), wk =   0.0039062
        k(  287) = (   0.2499998  -0.4330128   0.6457502), wk =   0.0039062
        k(  288) = (   0.2499998  -0.4330127   0.6918752), wk =   0.0039062
        k(  289) = (   0.2500000  -0.2886752  -0.0000002), wk =   0.0039062
        k(  290) = (   0.2500000  -0.2886752   0.0461249), wk =   0.0039062
        k(  291) = (   0.2500000  -0.2886752   0.0922499), wk =   0.0039062
        k(  292) = (   0.2500000  -0.2886752   0.1383749), wk =   0.0039062
        k(  293) = (   0.2500000  -0.2886752   0.1844999), wk =   0.0039062
        k(  294) = (   0.2499999  -0.2886752   0.2306250), wk =   0.0039062
        k(  295) = (   0.2499999  -0.2886752   0.2767500), wk =   0.0039062
        k(  296) = (   0.2499999  -0.2886752   0.3228750), wk =   0.0039062
        k(  297) = (   0.2499999  -0.2886752   0.3690000), wk =   0.0039062
        k(  298) = (   0.2499999  -0.2886752   0.4151251), wk =   0.0039062
        k(  299) = (   0.2499999  -0.2886752   0.4612501), wk =   0.0039062
        k(  300) = (   0.2499998  -0.2886752   0.5073751), wk =   0.0039062
        k(  301) = (   0.2499998  -0.2886752   0.5535001), wk =   0.0039062
        k(  302) = (   0.2499998  -0.2886752   0.5996252), wk =   0.0039062
        k(  303) = (   0.2499998  -0.2886752   0.6457502), wk =   0.0039062
        k(  304) = (   0.2499998  -0.2886752   0.6918752), wk =   0.0039062
        k(  305) = (   0.2500000  -0.1443376  -0.0000001), wk =   0.0039062
        k(  306) = (   0.2500000  -0.1443376   0.0461249), wk =   0.0039062
        k(  307) = (   0.2500000  -0.1443376   0.0922499), wk =   0.0039062
        k(  308) = (   0.2500000  -0.1443376   0.1383749), wk =   0.0039062
        k(  309) = (   0.2499999  -0.1443376   0.1845000), wk =   0.0039062
        k(  310) = (   0.2499999  -0.1443376   0.2306250), wk =   0.0039062
        k(  311) = (   0.2499999  -0.1443376   0.2767500), wk =   0.0039062
        k(  312) = (   0.2499999  -0.1443376   0.3228750), wk =   0.0039062
        k(  313) = (   0.2499999  -0.1443376   0.3690001), wk =   0.0039062
        k(  314) = (   0.2499998  -0.1443376   0.4151251), wk =   0.0039062
        k(  315) = (   0.2499998  -0.1443376   0.4612501), wk =   0.0039062
        k(  316) = (   0.2499998  -0.1443376   0.5073751), wk =   0.0039062
        k(  317) = (   0.2499998  -0.1443376   0.5535002), wk =   0.0039062
        k(  318) = (   0.2499998  -0.1443376   0.5996252), wk =   0.0039062
        k(  319) = (   0.2499998  -0.1443376   0.6457502), wk =   0.0039062
        k(  320) = (   0.2499997  -0.1443376   0.6918752), wk =   0.0039062
        k(  321) = (   0.2500000  -0.0000000  -0.0000001), wk =   0.0039062
        k(  322) = (   0.2500000  -0.0000000   0.0461249), wk =   0.0039062
        k(  323) = (   0.2500000  -0.0000000   0.0922499), wk =   0.0039062
        k(  324) = (   0.2499999  -0.0000000   0.1383750), wk =   0.0039062
        k(  325) = (   0.2499999  -0.0000000   0.1845000), wk =   0.0039062
        k(  326) = (   0.2499999  -0.0000000   0.2306250), wk =   0.0039062
        k(  327) = (   0.2499999  -0.0000000   0.2767500), wk =   0.0039062
        k(  328) = (   0.2499999  -0.0000000   0.3228751), wk =   0.0039062
        k(  329) = (   0.2499998  -0.0000000   0.3690001), wk =   0.0039062
        k(  330) = (   0.2499998  -0.0000000   0.4151251), wk =   0.0039062
        k(  331) = (   0.2499998   0.0000000   0.4612501), wk =   0.0039062
        k(  332) = (   0.2499998   0.0000000   0.5073752), wk =   0.0039062
        k(  333) = (   0.2499998   0.0000000   0.5535002), wk =   0.0039062
        k(  334) = (   0.2499997   0.0000000   0.5996252), wk =   0.0039062
        k(  335) = (   0.2499997   0.0000000   0.6457502), wk =   0.0039062
        k(  336) = (   0.2499997   0.0000000   0.6918753), wk =   0.0039062
        k(  337) = (   0.3750000   0.2165063  -0.0000002), wk =   0.0039062
        k(  338) = (   0.3749999   0.2165063   0.0461249), wk =   0.0039062
        k(  339) = (   0.3749999   0.2165063   0.0922499), wk =   0.0039062
        k(  340) = (   0.3749999   0.2165063   0.1383749), wk =   0.0039062
        k(  341) = (   0.3749999   0.2165063   0.1845000), wk =   0.0039062
        k(  342) = (   0.3749999   0.2165063   0.2306250), wk =   0.0039062
        k(  343) = (   0.3749998   0.2165063   0.2767500), wk =   0.0039062
        k(  344) = (   0.3749998   0.2165064   0.3228750), wk =   0.0039062
        k(  345) = (   0.3749998   0.2165064   0.3690001), wk =   0.0039062
        k(  346) = (   0.3749998   0.2165064   0.4151251), wk =   0.0039062
        k(  347) = (   0.3749998   0.2165064   0.4612501), wk =   0.0039062
        k(  348) = (   0.3749998   0.2165064   0.5073751), wk =   0.0039062
        k(  349) = (   0.3749997   0.2165064   0.5535002), wk =   0.0039062
        k(  350) = (   0.3749997   0.2165064   0.5996252), wk =   0.0039062
        k(  351) = (   0.3749997   0.2165064   0.6457502), wk =   0.0039062
        k(  352) = (   0.3749997   0.2165064   0.6918752), wk =   0.0039062
        k(  353) = (   0.3749999   0.3608439  -0.0000001), wk =   0.0039062
        k(  354) = (   0.3749999   0.3608439   0.0461249), wk =   0.0039062
        k(  355) = (   0.3749999   0.3608439   0.0922499), wk =   0.0039062
        k(  356) = (   0.3749999   0.3608439   0.1383749), wk =   0.0039062
        k(  357) = (   0.3749999   0.3608439   0.1845000), wk =   0.0039062
        k(  358) = (   0.3749998   0.3608439   0.2306250), wk =   0.0039062
        k(  359) = (   0.3749998   0.3608439   0.2767500), wk =   0.0039062
        k(  360) = (   0.3749998   0.3608439   0.3228751), wk =   0.0039062
        k(  361) = (   0.3749998   0.3608439   0.3690001), wk =   0.0039062
        k(  362) = (   0.3749998   0.3608440   0.4151251), wk =   0.0039062
        k(  363) = (   0.3749997   0.3608440   0.4612501), wk =   0.0039062
        k(  364) = (   0.3749997   0.3608440   0.5073752), wk =   0.0039062
        k(  365) = (   0.3749997   0.3608440   0.5535002), wk =   0.0039062
        k(  366) = (   0.3749997   0.3608440   0.5996252), wk =   0.0039062
        k(  367) = (   0.3749997   0.3608440   0.6457502), wk =   0.0039062
        k(  368) = (   0.3749997   0.3608440   0.6918753), wk =   0.0039062
        k(  369) = (   0.3749999   0.5051815  -0.0000001), wk =   0.0039062
        k(  370) = (   0.3749999   0.5051815   0.0461249), wk =   0.0039062
        k(  371) = (   0.3749999   0.5051815   0.0922499), wk =   0.0039062
        k(  372) = (   0.3749999   0.5051815   0.1383750), wk =   0.0039062
        k(  373) = (   0.3749998   0.5051815   0.1845000), wk =   0.0039062
        k(  374) = (   0.3749998   0.5051815   0.2306250), wk =   0.0039062
        k(  375) = (   0.3749998   0.5051815   0.2767500), wk =   0.0039062
        k(  376) = (   0.3749998   0.5051815   0.3228751), wk =   0.0039062
        k(  377) = (   0.3749998   0.5051815   0.3690001), wk =   0.0039062
        k(  378) = (   0.3749997   0.5051815   0.4151251), wk =   0.0039062
        k(  379) = (   0.3749997   0.5051815   0.4612501), wk =   0.0039062
        k(  380) = (   0.3749997   0.5051815   0.5073752), wk =   0.0039062
        k(  381) = (   0.3749997   0.5051816   0.5535002), wk =   0.0039062
        k(  382) = (   0.3749997   0.5051816   0.5996252), wk =   0.0039062
        k(  383) = (   0.3749996   0.5051816   0.6457503), wk =   0.0039062
        k(  384) = (   0.3749996   0.5051816   0.6918753), wk =   0.0039062
        k(  385) = (   0.3749999   0.6495191  -0.0000001), wk =   0.0039062
        k(  386) = (   0.3749999   0.6495191   0.0461249), wk =   0.0039062
        k(  387) = (   0.3749999   0.6495191   0.0922500), wk =   0.0039062
        k(  388) = (   0.3749998   0.6495191   0.1383750), wk =   0.0039062
        k(  389) = (   0.3749998   0.6495191   0.1845000), wk =   0.0039062
        k(  390) = (   0.3749998   0.6495191   0.2306250), wk =   0.0039062
        k(  391) = (   0.3749998   0.6495191   0.2767501), wk =   0.0039062
        k(  392) = (   0.3749998   0.6495191   0.3228751), wk =   0.0039062
        k(  393) = (   0.3749997   0.6495191   0.3690001), wk =   0.0039062
        k(  394) = (   0.3749997   0.6495191   0.4151251), wk =   0.0039062
        k(  395) = (   0.3749997   0.6495191   0.4612502), wk =   0.0039062
        k(  396) = (   0.3749997   0.6495191   0.5073752), wk =   0.0039062
        k(  397) = (   0.3749997   0.6495191   0.5535002), wk =   0.0039062
        k(  398) = (   0.3749996   0.6495191   0.5996252), wk =   0.0039062
        k(  399) = (   0.3749996   0.6495191   0.6457503), wk =   0.0039062
        k(  400) = (   0.3749996   0.6495192   0.6918753), wk =   0.0039062
        k(  401) = (   0.3750001  -0.3608440  -0.0000002), wk =   0.0039062
        k(  402) = (   0.3750000  -0.3608440   0.0461248), wk =   0.0039062
        k(  403) = (   0.3750000  -0.3608440   0.0922498), wk =   0.0039062
        k(  404) = (   0.3750000  -0.3608440   0.1383748), wk =   0.0039062
        k(  405) = (   0.3750000  -0.3608440   0.1844999), wk =   0.0039062
        k(  406) = (   0.3750000  -0.3608440   0.2306249), wk =   0.0039062
        k(  407) = (   0.3749999  -0.3608440   0.2767499), wk =   0.0039062
        k(  408) = (   0.3749999  -0.3608440   0.3228749), wk =   0.0039062
        k(  409) = (   0.3749999  -0.3608440   0.3690000), wk =   0.0039062
        k(  410) = (   0.3749999  -0.3608440   0.4151250), wk =   0.0039062
        k(  411) = (   0.3749999  -0.3608440   0.4612500), wk =   0.0039062
        k(  412) = (   0.3749998  -0.3608440   0.5073750), wk =   0.0039062
        k(  413) = (   0.3749998  -0.3608440   0.5535001), wk =   0.0039062
        k(  414) = (   0.3749998  -0.3608440   0.5996251), wk =   0.0039062
        k(  415) = (   0.3749998  -0.3608440   0.6457501), wk =   0.0039062
        k(  416) = (   0.3749998  -0.3608440   0.6918752), wk =   0.0039062
        k(  417) = (   0.3750000  -0.2165064  -0.0000002), wk =   0.0039062
        k(  418) = (   0.3750000  -0.2165064   0.0461248), wk =   0.0039062
        k(  419) = (   0.3750000  -0.2165064   0.0922498), wk =   0.0039062
        k(  420) = (   0.3750000  -0.2165064   0.1383749), wk =   0.0039062
        k(  421) = (   0.3750000  -0.2165064   0.1844999), wk =   0.0039062
        k(  422) = (   0.3749999  -0.2165064   0.2306249), wk =   0.0039062
        k(  423) = (   0.3749999  -0.2165064   0.2767499), wk =   0.0039062
        k(  424) = (   0.3749999  -0.2165064   0.3228750), wk =   0.0039062
        k(  425) = (   0.3749999  -0.2165064   0.3690000), wk =   0.0039062
        k(  426) = (   0.3749999  -0.2165064   0.4151250), wk =   0.0039062
        k(  427) = (   0.3749998  -0.2165064   0.4612500), wk =   0.0039062
        k(  428) = (   0.3749998  -0.2165064   0.5073751), wk =   0.0039062
        k(  429) = (   0.3749998  -0.2165064   0.5535001), wk =   0.0039062
        k(  430) = (   0.3749998  -0.2165064   0.5996251), wk =   0.0039062
        k(  431) = (   0.3749998  -0.2165064   0.6457501), wk =   0.0039062
        k(  432) = (   0.3749997  -0.2165064   0.6918752), wk =   0.0039062
        k(  433) = (   0.3750000  -0.0721689  -0.0000002), wk =   0.0039062
        k(  434) = (   0.3750000  -0.0721688   0.0461248), wk =   0.0039062
        k(  435) = (   0.3750000  -0.0721688   0.0922499), wk =   0.0039062
        k(  436) = (   0.3750000  -0.0721688   0.1383749), wk =   0.0039062
        k(  437) = (   0.3749999  -0.0721688   0.1844999), wk =   0.0039062
        k(  438) = (   0.3749999  -0.0721688   0.2306249), wk =   0.0039062
        k(  439) = (   0.3749999  -0.0721688   0.2767500), wk =   0.0039062
        k(  440) = (   0.3749999  -0.0721688   0.3228750), wk =   0.0039062
        k(  441) = (   0.3749999  -0.0721688   0.3690000), wk =   0.0039062
        k(  442) = (   0.3749998  -0.0721688   0.4151250), wk =   0.0039062
        k(  443) = (   0.3749998  -0.0721688   0.4612501), wk =   0.0039062
        k(  444) = (   0.3749998  -0.0721688   0.5073751), wk =   0.0039062
        k(  445) = (   0.3749998  -0.0721688   0.5535001), wk =   0.0039062
        k(  446) = (   0.3749998  -0.0721688   0.5996251), wk =   0.0039062
        k(  447) = (   0.3749997  -0.0721688   0.6457502), wk =   0.0039062
        k(  448) = (   0.3749997  -0.0721688   0.6918752), wk =   0.0039062
        k(  449) = (   0.3750000   0.0721687  -0.0000002), wk =   0.0039062
        k(  450) = (   0.3750000   0.0721687   0.0461249), wk =   0.0039062
        k(  451) = (   0.3749999   0.0721687   0.0922499), wk =   0.0039062
        k(  452) = (   0.3749999   0.0721687   0.1383749), wk =   0.0039062
        k(  453) = (   0.3749999   0.0721688   0.1844999), wk =   0.0039062
        k(  454) = (   0.3749999   0.0721688   0.2306250), wk =   0.0039062
        k(  455) = (   0.3749999   0.0721688   0.2767500), wk =   0.0039062
        k(  456) = (   0.3749999   0.0721688   0.3228750), wk =   0.0039062
        k(  457) = (   0.3749998   0.0721688   0.3690000), wk =   0.0039062
        k(  458) = (   0.3749998   0.0721688   0.4151251), wk =   0.0039062
        k(  459) = (   0.3749998   0.0721688   0.4612501), wk =   0.0039062
        k(  460) = (   0.3749998   0.0721688   0.5073751), wk =   0.0039062
        k(  461) = (   0.3749998   0.0721688   0.5535001), wk =   0.0039062
        k(  462) = (   0.3749997   0.0721688   0.5996252), wk =   0.0039062
        k(  463) = (   0.3749997   0.0721688   0.6457502), wk =   0.0039062
        k(  464) = (   0.3749997   0.0721688   0.6918752), wk =   0.0039062
        k(  465) = (  -0.5000000  -0.2886751   0.0000002), wk =   0.0019531
        k(  466) = (  -0.5000000  -0.2886751   0.0461252), wk =   0.0019531
        k(  467) = (  -0.5000000  -0.2886751   0.0922503), wk =   0.0019531
        k(  468) = (  -0.5000000  -0.2886751   0.1383753), wk =   0.0019531
        k(  469) = (  -0.5000000  -0.2886751   0.1845003), wk =   0.0019531
        k(  470) = (  -0.5000001  -0.2886751   0.2306253), wk =   0.0019531
        k(  471) = (  -0.5000001  -0.2886751   0.2767504), wk =   0.0019531
        k(  472) = (  -0.5000001  -0.2886751   0.3228754), wk =   0.0019531
        k(  473) = (  -0.5000001  -0.2886751   0.3690004), wk =   0.0019531
        k(  474) = (  -0.5000001  -0.2886751   0.4151254), wk =   0.0019531
        k(  475) = (  -0.5000001  -0.2886751   0.4612505), wk =   0.0019531
        k(  476) = (  -0.5000002  -0.2886751   0.5073755), wk =   0.0019531
        k(  477) = (  -0.5000002  -0.2886751   0.5535005), wk =   0.0019531
        k(  478) = (  -0.5000002  -0.2886750   0.5996255), wk =   0.0019531
        k(  479) = (  -0.5000002  -0.2886750   0.6457506), wk =   0.0019531
        k(  480) = (  -0.5000002  -0.2886750   0.6918756), wk =   0.0019531
        k(  481) = (  -0.5000000  -0.1443375   0.0000002), wk =   0.0039062
        k(  482) = (  -0.5000000  -0.1443375   0.0461253), wk =   0.0039062
        k(  483) = (  -0.5000000  -0.1443375   0.0922503), wk =   0.0039062
        k(  484) = (  -0.5000000  -0.1443375   0.1383753), wk =   0.0039062
        k(  485) = (  -0.5000001  -0.1443375   0.1845003), wk =   0.0039062
        k(  486) = (  -0.5000001  -0.1443375   0.2306254), wk =   0.0039062
        k(  487) = (  -0.5000001  -0.1443375   0.2767504), wk =   0.0039062
        k(  488) = (  -0.5000001  -0.1443375   0.3228754), wk =   0.0039062
        k(  489) = (  -0.5000001  -0.1443375   0.3690004), wk =   0.0039062
        k(  490) = (  -0.5000002  -0.1443375   0.4151255), wk =   0.0039062
        k(  491) = (  -0.5000002  -0.1443375   0.4612505), wk =   0.0039062
        k(  492) = (  -0.5000002  -0.1443375   0.5073755), wk =   0.0039062
        k(  493) = (  -0.5000002  -0.1443375   0.5535005), wk =   0.0039062
        k(  494) = (  -0.5000002  -0.1443375   0.5996256), wk =   0.0039062
        k(  495) = (  -0.5000002  -0.1443375   0.6457506), wk =   0.0039062
        k(  496) = (  -0.5000003  -0.1443374   0.6918756), wk =   0.0039062
        k(  497) = (  -0.5000000   0.0000001   0.0000002), wk =   0.0039062
        k(  498) = (  -0.5000000   0.0000001   0.0461253), wk =   0.0039062
        k(  499) = (  -0.5000000   0.0000001   0.0922503), wk =   0.0039062
        k(  500) = (  -0.5000001   0.0000001   0.1383753), wk =   0.0039062
        k(  501) = (  -0.5000001   0.0000001   0.1845004), wk =   0.0039062
        k(  502) = (  -0.5000001   0.0000001   0.2306254), wk =   0.0039062
        k(  503) = (  -0.5000001   0.0000001   0.2767504), wk =   0.0039062
        k(  504) = (  -0.5000001   0.0000001   0.3228754), wk =   0.0039062
        k(  505) = (  -0.5000002   0.0000001   0.3690005), wk =   0.0039062
        k(  506) = (  -0.5000002   0.0000001   0.4151255), wk =   0.0039062
        k(  507) = (  -0.5000002   0.0000001   0.4612505), wk =   0.0039062
        k(  508) = (  -0.5000002   0.0000001   0.5073755), wk =   0.0039062
        k(  509) = (  -0.5000002   0.0000001   0.5535006), wk =   0.0039062
        k(  510) = (  -0.5000003   0.0000001   0.5996256), wk =   0.0039062
        k(  511) = (  -0.5000003   0.0000001   0.6457506), wk =   0.0039062
        k(  512) = (  -0.5000003   0.0000001   0.6918756), wk =   0.0039062
        k(  513) = (  -0.5000000   0.1443377   0.0000003), wk =   0.0039062
        k(  514) = (  -0.5000000   0.1443377   0.0461253), wk =   0.0039062
        k(  515) = (  -0.5000001   0.1443377   0.0922503), wk =   0.0039062
        k(  516) = (  -0.5000001   0.1443377   0.1383753), wk =   0.0039062
        k(  517) = (  -0.5000001   0.1443377   0.1845004), wk =   0.0039062
        k(  518) = (  -0.5000001   0.1443377   0.2306254), wk =   0.0039062
        k(  519) = (  -0.5000001   0.1443377   0.2767504), wk =   0.0039062
        k(  520) = (  -0.5000002   0.1443377   0.3228754), wk =   0.0039062
        k(  521) = (  -0.5000002   0.1443377   0.3690005), wk =   0.0039062
        k(  522) = (  -0.5000002   0.1443377   0.4151255), wk =   0.0039062
        k(  523) = (  -0.5000002   0.1443377   0.4612505), wk =   0.0039062
        k(  524) = (  -0.5000002   0.1443377   0.5073756), wk =   0.0039062
        k(  525) = (  -0.5000003   0.1443377   0.5535006), wk =   0.0039062
        k(  526) = (  -0.5000003   0.1443377   0.5996256), wk =   0.0039062
        k(  527) = (  -0.5000003   0.1443377   0.6457506), wk =   0.0039062
        k(  528) = (  -0.5000003   0.1443377   0.6918757), wk =   0.0039062
        k(  529) = (  -0.4999999  -0.8660255   0.0000001), wk =   0.0019531
        k(  530) = (  -0.4999999  -0.8660255   0.0461251), wk =   0.0019531
        k(  531) = (  -0.4999999  -0.8660254   0.0922502), wk =   0.0019531
        k(  532) = (  -0.4999999  -0.8660254   0.1383752), wk =   0.0019531
        k(  533) = (  -0.4999999  -0.8660254   0.1845002), wk =   0.0019531
        k(  534) = (  -0.5000000  -0.8660254   0.2306253), wk =   0.0019531
        k(  535) = (  -0.5000000  -0.8660254   0.2767503), wk =   0.0019531
        k(  536) = (  -0.5000000  -0.8660254   0.3228753), wk =   0.0019531
        k(  537) = (  -0.5000000  -0.8660254   0.3690003), wk =   0.0019531
        k(  538) = (  -0.5000000  -0.8660254   0.4151254), wk =   0.0019531
        k(  539) = (  -0.5000001  -0.8660254   0.4612504), wk =   0.0019531
        k(  540) = (  -0.5000001  -0.8660254   0.5073754), wk =   0.0019531
        k(  541) = (  -0.5000001  -0.8660254   0.5535004), wk =   0.0019531
        k(  542) = (  -0.5000001  -0.8660254   0.5996255), wk =   0.0019531
        k(  543) = (  -0.5000001  -0.8660254   0.6457505), wk =   0.0019531
        k(  544) = (  -0.5000002  -0.8660254   0.6918755), wk =   0.0019531

                       cryst. coord.
        k(    1) = (   0.0000000   0.0000000   0.0000000), wk =   0.0019531
        k(    2) = (  -0.0000000   0.0000000   0.0666667), wk =   0.0019531
        k(    3) = (  -0.0000000   0.0000000   0.1333333), wk =   0.0019531
        k(    4) = (  -0.0000000   0.0000000   0.2000000), wk =   0.0019531
        k(    5) = (  -0.0000000   0.0000000   0.2666667), wk =   0.0019531
        k(    6) = (  -0.0000000   0.0000000   0.3333333), wk =   0.0019531
        k(    7) = (  -0.0000000   0.0000000   0.4000000), wk =   0.0019531
        k(    8) = (  -0.0000000   0.0000000   0.4666667), wk =   0.0019531
        k(    9) = (  -0.0000000   0.0000000   0.5333333), wk =   0.0019531
        k(   10) = (  -0.0000000   0.0000000   0.6000000), wk =   0.0019531
        k(   11) = (  -0.0000000   0.0000000   0.6666667), wk =   0.0019531
        k(   12) = (  -0.0000000   0.0000000   0.7333333), wk =   0.0019531
        k(   13) = (  -0.0000000   0.0000000   0.8000000), wk =   0.0019531
        k(   14) = (  -0.0000000   0.0000000   0.8666667), wk =   0.0019531
        k(   15) = (  -0.0000000   0.0000000   0.9333333), wk =   0.0019531
        k(   16) = (  -0.0000000   0.0000000   1.0000000), wk =   0.0019531
        k(   17) = (   0.0000000   0.1250000   0.0000000), wk =   0.0039062
        k(   18) = (  -0.0000000   0.1250000   0.0666667), wk =   0.0039062
        k(   19) = (  -0.0000000   0.1250000   0.1333333), wk =   0.0039062
        k(   20) = (  -0.0000000   0.1250000   0.2000000), wk =   0.0039062
        k(   21) = (  -0.0000000   0.1250000   0.2666667), wk =   0.0039062
        k(   22) = (  -0.0000000   0.1250000   0.3333333), wk =   0.0039062
        k(   23) = (  -0.0000000   0.1250000   0.4000000), wk =   0.0039062
        k(   24) = (  -0.0000000   0.1250000   0.4666667), wk =   0.0039062
        k(   25) = (  -0.0000000   0.1250000   0.5333333), wk =   0.0039062
        k(   26) = (  -0.0000000   0.1250000   0.6000000), wk =   0.0039062
        k(   27) = (  -0.0000000   0.1250000   0.6666667), wk =   0.0039062
        k(   28) = (  -0.0000000   0.1250000   0.7333333), wk =   0.0039062
        k(   29) = (  -0.0000000   0.1250000   0.8000000), wk =   0.0039062
        k(   30) = (  -0.0000000   0.1250000   0.8666667), wk =   0.0039062
        k(   31) = (  -0.0000000   0.1250000   0.9333333), wk =   0.0039062
        k(   32) = (  -0.0000000   0.1250000   1.0000000), wk =   0.0039062
        k(   33) = (   0.0000000   0.2500000   0.0000000), wk =   0.0039062
        k(   34) = (  -0.0000000   0.2500000   0.0666667), wk =   0.0039062
        k(   35) = (  -0.0000000   0.2500000   0.1333333), wk =   0.0039062
        k(   36) = (  -0.0000000   0.2500000   0.2000000), wk =   0.0039062
        k(   37) = (  -0.0000000   0.2500000   0.2666667), wk =   0.0039062
        k(   38) = (  -0.0000000   0.2500000   0.3333333), wk =   0.0039062
        k(   39) = (  -0.0000000   0.2500000   0.4000000), wk =   0.0039062
        k(   40) = (  -0.0000000   0.2500000   0.4666667), wk =   0.0039062
        k(   41) = (  -0.0000000   0.2500000   0.5333333), wk =   0.0039062
        k(   42) = (  -0.0000000   0.2500000   0.6000000), wk =   0.0039062
        k(   43) = (  -0.0000000   0.2500000   0.6666667), wk =   0.0039062
        k(   44) = (  -0.0000000   0.2500000   0.7333333), wk =   0.0039062
        k(   45) = (  -0.0000000   0.2500000   0.8000000), wk =   0.0039062
        k(   46) = (  -0.0000000   0.2500000   0.8666667), wk =   0.0039062
        k(   47) = (  -0.0000000   0.2500000   0.9333333), wk =   0.0039062
        k(   48) = (  -0.0000000   0.2500000   1.0000000), wk =   0.0039062
        k(   49) = (   0.0000000   0.3750000  -0.0000000), wk =   0.0039062
        k(   50) = (  -0.0000000   0.3750000   0.0666667), wk =   0.0039062
        k(   51) = (  -0.0000000   0.3750000   0.1333333), wk =   0.0039062
        k(   52) = (  -0.0000000   0.3750000   0.2000000), wk =   0.0039062
        k(   53) = (  -0.0000000   0.3750000   0.2666667), wk =   0.0039062
        k(   54) = (  -0.0000000   0.3750000   0.3333333), wk =   0.0039062
        k(   55) = (  -0.0000000   0.3750000   0.4000000), wk =   0.0039062
        k(   56) = (  -0.0000000   0.3750000   0.4666667), wk =   0.0039062
        k(   57) = (  -0.0000000   0.3750000   0.5333333), wk =   0.0039062
        k(   58) = (  -0.0000000   0.3750000   0.6000000), wk =   0.0039062
        k(   59) = (  -0.0000000   0.3750000   0.6666667), wk =   0.0039062
        k(   60) = (  -0.0000000   0.3750000   0.7333333), wk =   0.0039062
        k(   61) = (  -0.0000000   0.3750000   0.8000000), wk =   0.0039062
        k(   62) = (  -0.0000000   0.3750000   0.8666667), wk =   0.0039062
        k(   63) = (  -0.0000000   0.3750000   0.9333333), wk =   0.0039062
        k(   64) = (  -0.0000000   0.3750000   1.0000000), wk =   0.0039062
        k(   65) = (  -0.0000000  -0.5000000  -0.0000000), wk =   0.0019531
        k(   66) = (  -0.0000000  -0.5000000   0.0666667), wk =   0.0019531
        k(   67) = (  -0.0000000  -0.5000000   0.1333333), wk =   0.0019531
        k(   68) = (  -0.0000000  -0.5000000   0.2000000), wk =   0.0019531
        k(   69) = (  -0.0000000  -0.5000000   0.2666667), wk =   0.0019531
        k(   70) = (  -0.0000000  -0.5000000   0.3333333), wk =   0.0019531
        k(   71) = (  -0.0000000  -0.5000000   0.4000000), wk =   0.0019531
        k(   72) = (  -0.0000000  -0.5000000   0.4666667), wk =   0.0019531
        k(   73) = (  -0.0000000  -0.5000000   0.5333333), wk =   0.0019531
        k(   74) = (  -0.0000000  -0.5000000   0.6000000), wk =   0.0019531
        k(   75) = (  -0.0000000  -0.5000000   0.6666667), wk =   0.0019531
        k(   76) = (  -0.0000000  -0.5000000   0.7333333), wk =   0.0019531
        k(   77) = (  -0.0000000  -0.5000000   0.8000000), wk =   0.0019531
        k(   78) = (  -0.0000000  -0.5000000   0.8666667), wk =   0.0019531
        k(   79) = (  -0.0000000  -0.5000000   0.9333333), wk =   0.0019531
        k(   80) = (  -0.0000000  -0.5000000   1.0000000), wk =   0.0019531
        k(   81) = (   0.1250000  -0.0000000   0.0000000), wk =   0.0039062
        k(   82) = (   0.1250000  -0.0000000   0.0666667), wk =   0.0039062
        k(   83) = (   0.1250000  -0.0000000   0.1333333), wk =   0.0039062
        k(   84) = (   0.1250000  -0.0000000   0.2000000), wk =   0.0039062
        k(   85) = (   0.1250000  -0.0000000   0.2666667), wk =   0.0039062
        k(   86) = (   0.1250000  -0.0000000   0.3333333), wk =   0.0039062
        k(   87) = (   0.1250000  -0.0000000   0.4000000), wk =   0.0039062
        k(   88) = (   0.1250000  -0.0000000   0.4666667), wk =   0.0039062
        k(   89) = (   0.1250000   0.0000000   0.5333333), wk =   0.0039062
        k(   90) = (   0.1250000  -0.0000000   0.6000000), wk =   0.0039062
        k(   91) = (   0.1250000  -0.0000000   0.6666667), wk =   0.0039062
        k(   92) = (   0.1250000  -0.0000000   0.7333333), wk =   0.0039062
        k(   93) = (   0.1250000  -0.0000000   0.8000000), wk =   0.0039062
        k(   94) = (   0.1250000  -0.0000000   0.8666667), wk =   0.0039062
        k(   95) = (   0.1250000  -0.0000000   0.9333333), wk =   0.0039062
        k(   96) = (   0.1250000   0.0000000   1.0000000), wk =   0.0039062
        k(   97) = (   0.1250000   0.1250000   0.0000000), wk =   0.0039062
        k(   98) = (   0.1250000   0.1250000   0.0666667), wk =   0.0039062
        k(   99) = (   0.1250000   0.1250000   0.1333333), wk =   0.0039062
        k(  100) = (   0.1250000   0.1250000   0.2000000), wk =   0.0039062
        k(  101) = (   0.1250000   0.1250000   0.2666667), wk =   0.0039062
        k(  102) = (   0.1250000   0.1250000   0.3333333), wk =   0.0039062
        k(  103) = (   0.1250000   0.1250000   0.4000000), wk =   0.0039062
        k(  104) = (   0.1250000   0.1250000   0.4666667), wk =   0.0039062
        k(  105) = (   0.1250000   0.1250000   0.5333333), wk =   0.0039062
        k(  106) = (   0.1250000   0.1250000   0.6000000), wk =   0.0039062
        k(  107) = (   0.1250000   0.1250000   0.6666667), wk =   0.0039062
        k(  108) = (   0.1250000   0.1250000   0.7333333), wk =   0.0039062
        k(  109) = (   0.1250000   0.1250000   0.8000000), wk =   0.0039062
        k(  110) = (   0.1250000   0.1250000   0.8666667), wk =   0.0039062
        k(  111) = (   0.1250000   0.1250000   0.9333333), wk =   0.0039062
        k(  112) = (   0.1250000   0.1250000   1.0000000), wk =   0.0039062
        k(  113) = (   0.1250000   0.2500000  -0.0000000), wk =   0.0039062
        k(  114) = (   0.1250000   0.2500000   0.0666667), wk =   0.0039062
        k(  115) = (   0.1250000   0.2500000   0.1333333), wk =   0.0039062
        k(  116) = (   0.1250000   0.2500000   0.2000000), wk =   0.0039062
        k(  117) = (   0.1250000   0.2500000   0.2666667), wk =   0.0039062
        k(  118) = (   0.1250000   0.2500000   0.3333333), wk =   0.0039062
        k(  119) = (   0.1250000   0.2500000   0.4000000), wk =   0.0039062
        k(  120) = (   0.1250000   0.2500000   0.4666667), wk =   0.0039062
        k(  121) = (   0.1250000   0.2500000   0.5333333), wk =   0.0039062
        k(  122) = (   0.1250000   0.2500000   0.6000000), wk =   0.0039062
        k(  123) = (   0.1250000   0.2500000   0.6666667), wk =   0.0039062
        k(  124) = (   0.1250000   0.2500000   0.7333333), wk =   0.0039062
        k(  125) = (   0.1250000   0.2500000   0.8000000), wk =   0.0039062
        k(  126) = (   0.1250000   0.2500000   0.8666667), wk =   0.0039062
        k(  127) = (   0.1250000   0.2500000   0.9333333), wk =   0.0039062
        k(  128) = (   0.1250000   0.2500000   1.0000000), wk =   0.0039062
        k(  129) = (   0.1250000   0.3750000   0.0000000), wk =   0.0039062
        k(  130) = (   0.1250000   0.3750000   0.0666667), wk =   0.0039062
        k(  131) = (   0.1250000   0.3750000   0.1333333), wk =   0.0039062
        k(  132) = (   0.1250000   0.3750000   0.2000000), wk =   0.0039062
        k(  133) = (   0.1250000   0.3750000   0.2666667), wk =   0.0039062
        k(  134) = (   0.1250000   0.3750000   0.3333333), wk =   0.0039062
        k(  135) = (   0.1250000   0.3750000   0.4000000), wk =   0.0039062
        k(  136) = (   0.1250000   0.3750000   0.4666667), wk =   0.0039062
        k(  137) = (   0.1250000   0.3750000   0.5333333), wk =   0.0039062
        k(  138) = (   0.1250000   0.3750000   0.6000000), wk =   0.0039062
        k(  139) = (   0.1250000   0.3750000   0.6666667), wk =   0.0039062
        k(  140) = (   0.1250000   0.3750000   0.7333333), wk =   0.0039062
        k(  141) = (   0.1250000   0.3750000   0.8000000), wk =   0.0039062
        k(  142) = (   0.1250000   0.3750000   0.8666667), wk =   0.0039062
        k(  143) = (   0.1250000   0.3750000   0.9333333), wk =   0.0039062
        k(  144) = (   0.1250000   0.3750000   1.0000000), wk =   0.0039062
        k(  145) = (   0.1250000  -0.5000000   0.0000000), wk =   0.0039062
        k(  146) = (   0.1250000  -0.5000000   0.0666667), wk =   0.0039062
        k(  147) = (   0.1250000  -0.5000000   0.1333333), wk =   0.0039062
        k(  148) = (   0.1250000  -0.5000000   0.2000000), wk =   0.0039062
        k(  149) = (   0.1250000  -0.5000000   0.2666667), wk =   0.0039062
        k(  150) = (   0.1250000  -0.5000000   0.3333333), wk =   0.0039062
        k(  151) = (   0.1250000  -0.5000000   0.4000000), wk =   0.0039062
        k(  152) = (   0.1250000  -0.5000000   0.4666667), wk =   0.0039062
        k(  153) = (   0.1250000  -0.5000000   0.5333333), wk =   0.0039062
        k(  154) = (   0.1250000  -0.5000000   0.6000000), wk =   0.0039062
        k(  155) = (   0.1250000  -0.5000000   0.6666667), wk =   0.0039062
        k(  156) = (   0.1250000  -0.5000000   0.7333333), wk =   0.0039062
        k(  157) = (   0.1250000  -0.5000000   0.8000000), wk =   0.0039062
        k(  158) = (   0.1250000  -0.5000000   0.8666667), wk =   0.0039062
        k(  159) = (   0.1250000  -0.5000000   0.9333333), wk =   0.0039062
        k(  160) = (   0.1250000  -0.5000000   1.0000000), wk =   0.0039062
        k(  161) = (   0.1250000  -0.3750000  -0.0000000), wk =   0.0039062
        k(  162) = (   0.1250000  -0.3750000   0.0666667), wk =   0.0039062
        k(  163) = (   0.1250000  -0.3750000   0.1333333), wk =   0.0039062
        k(  164) = (   0.1250000  -0.3750000   0.2000000), wk =   0.0039062
        k(  165) = (   0.1250000  -0.3750000   0.2666667), wk =   0.0039062
        k(  166) = (   0.1250000  -0.3750000   0.3333333), wk =   0.0039062
        k(  167) = (   0.1250000  -0.3750000   0.4000000), wk =   0.0039062
        k(  168) = (   0.1250000  -0.3750000   0.4666667), wk =   0.0039062
        k(  169) = (   0.1250000  -0.3750000   0.5333333), wk =   0.0039062
        k(  170) = (   0.1250000  -0.3750000   0.6000000), wk =   0.0039062
        k(  171) = (   0.1250000  -0.3750000   0.6666667), wk =   0.0039062
        k(  172) = (   0.1250000  -0.3750000   0.7333333), wk =   0.0039062
        k(  173) = (   0.1250000  -0.3750000   0.8000000), wk =   0.0039062
        k(  174) = (   0.1250000  -0.3750000   0.8666667), wk =   0.0039062
        k(  175) = (   0.1250000  -0.3750000   0.9333333), wk =   0.0039062
        k(  176) = (   0.1250000  -0.3750000   1.0000000), wk =   0.0039062
        k(  177) = (   0.1250000  -0.2500000   0.0000000), wk =   0.0039062
        k(  178) = (   0.1250000  -0.2500000   0.0666667), wk =   0.0039062
        k(  179) = (   0.1250000  -0.2500000   0.1333333), wk =   0.0039062
        k(  180) = (   0.1250000  -0.2500000   0.2000000), wk =   0.0039062
        k(  181) = (   0.1250000  -0.2500000   0.2666667), wk =   0.0039062
        k(  182) = (   0.1250000  -0.2500000   0.3333333), wk =   0.0039062
        k(  183) = (   0.1250000  -0.2500000   0.4000000), wk =   0.0039062
        k(  184) = (   0.1250000  -0.2500000   0.4666667), wk =   0.0039062
        k(  185) = (   0.1250000  -0.2500000   0.5333333), wk =   0.0039062
        k(  186) = (   0.1250000  -0.2500000   0.6000000), wk =   0.0039062
        k(  187) = (   0.1250000  -0.2500000   0.6666667), wk =   0.0039062
        k(  188) = (   0.1250000  -0.2500000   0.7333333), wk =   0.0039062
        k(  189) = (   0.1250000  -0.2500000   0.8000000), wk =   0.0039062
        k(  190) = (   0.1250000  -0.2500000   0.8666667), wk =   0.0039062
        k(  191) = (   0.1250000  -0.2500000   0.9333333), wk =   0.0039062
        k(  192) = (   0.1250000  -0.2500000   1.0000000), wk =   0.0039062
        k(  193) = (   0.1250000  -0.1250000   0.0000000), wk =   0.0039062
        k(  194) = (   0.1250000  -0.1250000   0.0666667), wk =   0.0039062
        k(  195) = (   0.1250000  -0.1250000   0.1333333), wk =   0.0039062
        k(  196) = (   0.1250000  -0.1250000   0.2000000), wk =   0.0039062
        k(  197) = (   0.1250000  -0.1250000   0.2666667), wk =   0.0039062
        k(  198) = (   0.1250000  -0.1250000   0.3333333), wk =   0.0039062
        k(  199) = (   0.1250000  -0.1250000   0.4000000), wk =   0.0039062
        k(  200) = (   0.1250000  -0.1250000   0.4666667), wk =   0.0039062
        k(  201) = (   0.1250000  -0.1250000   0.5333333), wk =   0.0039062
        k(  202) = (   0.1250000  -0.1250000   0.6000000), wk =   0.0039062
        k(  203) = (   0.1250000  -0.1250000   0.6666667), wk =   0.0039062
        k(  204) = (   0.1250000  -0.1250000   0.7333333), wk =   0.0039062
        k(  205) = (   0.1250000  -0.1250000   0.8000000), wk =   0.0039062
        k(  206) = (   0.1250000  -0.1250000   0.8666667), wk =   0.0039062
        k(  207) = (   0.1250000  -0.1250000   0.9333333), wk =   0.0039062
        k(  208) = (   0.1250000  -0.1250000   1.0000000), wk =   0.0039062
        k(  209) = (   0.2500000  -0.0000000   0.0000000), wk =   0.0039062
        k(  210) = (   0.2500000   0.0000000   0.0666667), wk =   0.0039062
        k(  211) = (   0.2500000  -0.0000000   0.1333333), wk =   0.0039062
        k(  212) = (   0.2500000  -0.0000000   0.2000000), wk =   0.0039062
        k(  213) = (   0.2500000  -0.0000000   0.2666667), wk =   0.0039062
        k(  214) = (   0.2500000   0.0000000   0.3333333), wk =   0.0039062
        k(  215) = (   0.2500000  -0.0000000   0.4000000), wk =   0.0039062
        k(  216) = (   0.2500000  -0.0000000   0.4666667), wk =   0.0039062
        k(  217) = (   0.2500000  -0.0000000   0.5333333), wk =   0.0039062
        k(  218) = (   0.2500000  -0.0000000   0.6000000), wk =   0.0039062
        k(  219) = (   0.2500000  -0.0000000   0.6666667), wk =   0.0039062
        k(  220) = (   0.2500000  -0.0000000   0.7333333), wk =   0.0039062
        k(  221) = (   0.2500000  -0.0000000   0.8000000), wk =   0.0039062
        k(  222) = (   0.2500000  -0.0000000   0.8666667), wk =   0.0039062
        k(  223) = (   0.2500000  -0.0000000   0.9333333), wk =   0.0039062
        k(  224) = (   0.2500000   0.0000000   1.0000000), wk =   0.0039062
        k(  225) = (   0.2500000   0.1250000  -0.0000000), wk =   0.0039062
        k(  226) = (   0.2500000   0.1250000   0.0666667), wk =   0.0039062
        k(  227) = (   0.2500000   0.1250000   0.1333333), wk =   0.0039062
        k(  228) = (   0.2500000   0.1250000   0.2000000), wk =   0.0039062
        k(  229) = (   0.2500000   0.1250000   0.2666667), wk =   0.0039062
        k(  230) = (   0.2500000   0.1250000   0.3333333), wk =   0.0039062
        k(  231) = (   0.2500000   0.1250000   0.4000000), wk =   0.0039062
        k(  232) = (   0.2500000   0.1250000   0.4666667), wk =   0.0039062
        k(  233) = (   0.2500000   0.1250000   0.5333333), wk =   0.0039062
        k(  234) = (   0.2500000   0.1250000   0.6000000), wk =   0.0039062
        k(  235) = (   0.2500000   0.1250000   0.6666667), wk =   0.0039062
        k(  236) = (   0.2500000   0.1250000   0.7333333), wk =   0.0039062
        k(  237) = (   0.2500000   0.1250000   0.8000000), wk =   0.0039062
        k(  238) = (   0.2500000   0.1250000   0.8666667), wk =   0.0039062
        k(  239) = (   0.2500000   0.1250000   0.9333333), wk =   0.0039062
        k(  240) = (   0.2500000   0.1250000   1.0000000), wk =   0.0039062
        k(  241) = (   0.2500000   0.2500000   0.0000000), wk =   0.0039062
        k(  242) = (   0.2500000   0.2500000   0.0666667), wk =   0.0039062
        k(  243) = (   0.2500000   0.2500000   0.1333333), wk =   0.0039062
        k(  244) = (   0.2500000   0.2500000   0.2000000), wk =   0.0039062
        k(  245) = (   0.2500000   0.2500000   0.2666667), wk =   0.0039062
        k(  246) = (   0.2500000   0.2500000   0.3333333), wk =   0.0039062
        k(  247) = (   0.2500000   0.2500000   0.4000000), wk =   0.0039062
        k(  248) = (   0.2500000   0.2500000   0.4666667), wk =   0.0039062
        k(  249) = (   0.2500000   0.2500000   0.5333333), wk =   0.0039062
        k(  250) = (   0.2500000   0.2500000   0.6000000), wk =   0.0039062
        k(  251) = (   0.2500000   0.2500000   0.6666667), wk =   0.0039062
        k(  252) = (   0.2500000   0.2500000   0.7333333), wk =   0.0039062
        k(  253) = (   0.2500000   0.2500000   0.8000000), wk =   0.0039062
        k(  254) = (   0.2500000   0.2500000   0.8666667), wk =   0.0039062
        k(  255) = (   0.2500000   0.2500000   0.9333333), wk =   0.0039062
        k(  256) = (   0.2500000   0.2500000   1.0000000), wk =   0.0039062
        k(  257) = (   0.2500000   0.3750000  -0.0000000), wk =   0.0039062
        k(  258) = (   0.2500000   0.3750000   0.0666667), wk =   0.0039062
        k(  259) = (   0.2500000   0.3750000   0.1333333), wk =   0.0039062
        k(  260) = (   0.2500000   0.3750000   0.2000000), wk =   0.0039062
        k(  261) = (   0.2500000   0.3750000   0.2666667), wk =   0.0039062
        k(  262) = (   0.2500000   0.3750000   0.3333333), wk =   0.0039062
        k(  263) = (   0.2500000   0.3750000   0.4000000), wk =   0.0039062
        k(  264) = (   0.2500000   0.3750000   0.4666667), wk =   0.0039062
        k(  265) = (   0.2500000   0.3750000   0.5333333), wk =   0.0039062
        k(  266) = (   0.2500000   0.3750000   0.6000000), wk =   0.0039062
        k(  267) = (   0.2500000   0.3750000   0.6666667), wk =   0.0039062
        k(  268) = (   0.2500000   0.3750000   0.7333333), wk =   0.0039062
        k(  269) = (   0.2500000   0.3750000   0.8000000), wk =   0.0039062
        k(  270) = (   0.2500000   0.3750000   0.8666667), wk =   0.0039062
        k(  271) = (   0.2500000   0.3750000   0.9333333), wk =   0.0039062
        k(  272) = (   0.2500000   0.3750000   1.0000000), wk =   0.0039062
        k(  273) = (   0.2500000  -0.5000000   0.0000000), wk =   0.0039062
        k(  274) = (   0.2500000  -0.5000000   0.0666667), wk =   0.0039062
        k(  275) = (   0.2500000  -0.5000000   0.1333333), wk =   0.0039062
        k(  276) = (   0.2500000  -0.5000000   0.2000000), wk =   0.0039062
        k(  277) = (   0.2500000  -0.5000000   0.2666667), wk =   0.0039062
        k(  278) = (   0.2500000  -0.5000000   0.3333333), wk =   0.0039062
        k(  279) = (   0.2500000  -0.5000000   0.4000000), wk =   0.0039062
        k(  280) = (   0.2500000  -0.5000000   0.4666667), wk =   0.0039062
        k(  281) = (   0.2500000  -0.5000000   0.5333333), wk =   0.0039062
        k(  282) = (   0.2500000  -0.5000000   0.6000000), wk =   0.0039062
        k(  283) = (   0.2500000  -0.5000000   0.6666667), wk =   0.0039062
        k(  284) = (   0.2500000  -0.5000000   0.7333333), wk =   0.0039062
        k(  285) = (   0.2500000  -0.5000000   0.8000000), wk =   0.0039062
        k(  286) = (   0.2500000  -0.5000000   0.8666667), wk =   0.0039062
        k(  287) = (   0.2500000  -0.5000000   0.9333333), wk =   0.0039062
        k(  288) = (   0.2500000  -0.5000000   1.0000000), wk =   0.0039062
        k(  289) = (   0.2500000  -0.3750000   0.0000000), wk =   0.0039062
        k(  290) = (   0.2500000  -0.3750000   0.0666667), wk =   0.0039062
        k(  291) = (   0.2500000  -0.3750000   0.1333333), wk =   0.0039062
        k(  292) = (   0.2500000  -0.3750000   0.2000000), wk =   0.0039062
        k(  293) = (   0.2500000  -0.3750000   0.2666667), wk =   0.0039062
        k(  294) = (   0.2500000  -0.3750000   0.3333333), wk =   0.0039062
        k(  295) = (   0.2500000  -0.3750000   0.4000000), wk =   0.0039062
        k(  296) = (   0.2500000  -0.3750000   0.4666667), wk =   0.0039062
        k(  297) = (   0.2500000  -0.3750000   0.5333333), wk =   0.0039062
        k(  298) = (   0.2500000  -0.3750000   0.6000000), wk =   0.0039062
        k(  299) = (   0.2500000  -0.3750000   0.6666667), wk =   0.0039062
        k(  300) = (   0.2500000  -0.3750000   0.7333333), wk =   0.0039062
        k(  301) = (   0.2500000  -0.3750000   0.8000000), wk =   0.0039062
        k(  302) = (   0.2500000  -0.3750000   0.8666667), wk =   0.0039062
        k(  303) = (   0.2500000  -0.3750000   0.9333333), wk =   0.0039062
        k(  304) = (   0.2500000  -0.3750000   1.0000000), wk =   0.0039062
        k(  305) = (   0.2500000  -0.2500000   0.0000000), wk =   0.0039062
        k(  306) = (   0.2500000  -0.2500000   0.0666667), wk =   0.0039062
        k(  307) = (   0.2500000  -0.2500000   0.1333333), wk =   0.0039062
        k(  308) = (   0.2500000  -0.2500000   0.2000000), wk =   0.0039062
        k(  309) = (   0.2500000  -0.2500000   0.2666667), wk =   0.0039062
        k(  310) = (   0.2500000  -0.2500000   0.3333333), wk =   0.0039062
        k(  311) = (   0.2500000  -0.2500000   0.4000000), wk =   0.0039062
        k(  312) = (   0.2500000  -0.2500000   0.4666667), wk =   0.0039062
        k(  313) = (   0.2500000  -0.2500000   0.5333333), wk =   0.0039062
        k(  314) = (   0.2500000  -0.2500000   0.6000000), wk =   0.0039062
        k(  315) = (   0.2500000  -0.2500000   0.6666667), wk =   0.0039062
        k(  316) = (   0.2500000  -0.2500000   0.7333333), wk =   0.0039062
        k(  317) = (   0.2500000  -0.2500000   0.8000000), wk =   0.0039062
        k(  318) = (   0.2500000  -0.2500000   0.8666667), wk =   0.0039062
        k(  319) = (   0.2500000  -0.2500000   0.9333333), wk =   0.0039062
        k(  320) = (   0.2500000  -0.2500000   1.0000000), wk =   0.0039062
        k(  321) = (   0.2500000  -0.1250000  -0.0000000), wk =   0.0039062
        k(  322) = (   0.2500000  -0.1250000   0.0666667), wk =   0.0039062
        k(  323) = (   0.2500000  -0.1250000   0.1333333), wk =   0.0039062
        k(  324) = (   0.2500000  -0.1250000   0.2000000), wk =   0.0039062
        k(  325) = (   0.2500000  -0.1250000   0.2666667), wk =   0.0039062
        k(  326) = (   0.2500000  -0.1250000   0.3333333), wk =   0.0039062
        k(  327) = (   0.2500000  -0.1250000   0.4000000), wk =   0.0039062
        k(  328) = (   0.2500000  -0.1250000   0.4666667), wk =   0.0039062
        k(  329) = (   0.2500000  -0.1250000   0.5333333), wk =   0.0039062
        k(  330) = (   0.2500000  -0.1250000   0.6000000), wk =   0.0039062
        k(  331) = (   0.2500000  -0.1250000   0.6666667), wk =   0.0039062
        k(  332) = (   0.2500000  -0.1250000   0.7333333), wk =   0.0039062
        k(  333) = (   0.2500000  -0.1250000   0.8000000), wk =   0.0039062
        k(  334) = (   0.2500000  -0.1250000   0.8666667), wk =   0.0039062
        k(  335) = (   0.2500000  -0.1250000   0.9333333), wk =   0.0039062
        k(  336) = (   0.2500000  -0.1250000   1.0000000), wk =   0.0039062
        k(  337) = (   0.3750000  -0.0000000  -0.0000000), wk =   0.0039062
        k(  338) = (   0.3750000  -0.0000000   0.0666667), wk =   0.0039062
        k(  339) = (   0.3750000  -0.0000000   0.1333333), wk =   0.0039062
        k(  340) = (   0.3750000  -0.0000000   0.2000000), wk =   0.0039062
        k(  341) = (   0.3750000  -0.0000000   0.2666667), wk =   0.0039062
        k(  342) = (   0.3750000  -0.0000000   0.3333333), wk =   0.0039062
        k(  343) = (   0.3750000  -0.0000000   0.4000000), wk =   0.0039062
        k(  344) = (   0.3750000   0.0000000   0.4666667), wk =   0.0039062
        k(  345) = (   0.3750000  -0.0000000   0.5333333), wk =   0.0039062
        k(  346) = (   0.3750000  -0.0000000   0.6000000), wk =   0.0039062
        k(  347) = (   0.3750000  -0.0000000   0.6666667), wk =   0.0039062
        k(  348) = (   0.3750000   0.0000000   0.7333333), wk =   0.0039062
        k(  349) = (   0.3750000  -0.0000000   0.8000000), wk =   0.0039062
        k(  350) = (   0.3750000  -0.0000000   0.8666667), wk =   0.0039062
        k(  351) = (   0.3750000  -0.0000000   0.9333333), wk =   0.0039062
        k(  352) = (   0.3750000  -0.0000000   1.0000000), wk =   0.0039062
        k(  353) = (   0.3750000   0.1250000  -0.0000000), wk =   0.0039062
        k(  354) = (   0.3750000   0.1250000   0.0666667), wk =   0.0039062
        k(  355) = (   0.3750000   0.1250000   0.1333333), wk =   0.0039062
        k(  356) = (   0.3750000   0.1250000   0.2000000), wk =   0.0039062
        k(  357) = (   0.3750000   0.1250000   0.2666667), wk =   0.0039062
        k(  358) = (   0.3750000   0.1250000   0.3333333), wk =   0.0039062
        k(  359) = (   0.3750000   0.1250000   0.4000000), wk =   0.0039062
        k(  360) = (   0.3750000   0.1250000   0.4666667), wk =   0.0039062
        k(  361) = (   0.3750000   0.1250000   0.5333333), wk =   0.0039062
        k(  362) = (   0.3750000   0.1250000   0.6000000), wk =   0.0039062
        k(  363) = (   0.3750000   0.1250000   0.6666667), wk =   0.0039062
        k(  364) = (   0.3750000   0.1250000   0.7333333), wk =   0.0039062
        k(  365) = (   0.3750000   0.1250000   0.8000000), wk =   0.0039062
        k(  366) = (   0.3750000   0.1250000   0.8666667), wk =   0.0039062
        k(  367) = (   0.3750000   0.1250000   0.9333333), wk =   0.0039062
        k(  368) = (   0.3750000   0.1250000   1.0000000), wk =   0.0039062
        k(  369) = (   0.3750000   0.2500000  -0.0000000), wk =   0.0039062
        k(  370) = (   0.3750000   0.2500000   0.0666667), wk =   0.0039062
        k(  371) = (   0.3750000   0.2500000   0.1333333), wk =   0.0039062
        k(  372) = (   0.3750000   0.2500000   0.2000000), wk =   0.0039062
        k(  373) = (   0.3750000   0.2500000   0.2666667), wk =   0.0039062
        k(  374) = (   0.3750000   0.2500000   0.3333333), wk =   0.0039062
        k(  375) = (   0.3750000   0.2500000   0.4000000), wk =   0.0039062
        k(  376) = (   0.3750000   0.2500000   0.4666667), wk =   0.0039062
        k(  377) = (   0.3750000   0.2500000   0.5333333), wk =   0.0039062
        k(  378) = (   0.3750000   0.2500000   0.6000000), wk =   0.0039062
        k(  379) = (   0.3750000   0.2500000   0.6666667), wk =   0.0039062
        k(  380) = (   0.3750000   0.2500000   0.7333333), wk =   0.0039062
        k(  381) = (   0.3750000   0.2500000   0.8000000), wk =   0.0039062
        k(  382) = (   0.3750000   0.2500000   0.8666667), wk =   0.0039062
        k(  383) = (   0.3750000   0.2500000   0.9333333), wk =   0.0039062
        k(  384) = (   0.3750000   0.2500000   1.0000000), wk =   0.0039062
        k(  385) = (   0.3750000   0.3750000  -0.0000000), wk =   0.0039062
        k(  386) = (   0.3750000   0.3750000   0.0666667), wk =   0.0039062
        k(  387) = (   0.3750000   0.3750000   0.1333333), wk =   0.0039062
        k(  388) = (   0.3750000   0.3750000   0.2000000), wk =   0.0039062
        k(  389) = (   0.3750000   0.3750000   0.2666667), wk =   0.0039062
        k(  390) = (   0.3750000   0.3750000   0.3333333), wk =   0.0039062
        k(  391) = (   0.3750000   0.3750000   0.4000000), wk =   0.0039062
        k(  392) = (   0.3750000   0.3750000   0.4666667), wk =   0.0039062
        k(  393) = (   0.3750000   0.3750000   0.5333333), wk =   0.0039062
        k(  394) = (   0.3750000   0.3750000   0.6000000), wk =   0.0039062
        k(  395) = (   0.3750000   0.3750000   0.6666667), wk =   0.0039062
        k(  396) = (   0.3750000   0.3750000   0.7333333), wk =   0.0039062
        k(  397) = (   0.3750000   0.3750000   0.8000000), wk =   0.0039062
        k(  398) = (   0.3750000   0.3750000   0.8666667), wk =   0.0039062
        k(  399) = (   0.3750000   0.3750000   0.9333333), wk =   0.0039062
        k(  400) = (   0.3750000   0.3750000   1.0000000), wk =   0.0039062
        k(  401) = (   0.3750000  -0.5000000  -0.0000000), wk =   0.0039062
        k(  402) = (   0.3750000  -0.5000000   0.0666667), wk =   0.0039062
        k(  403) = (   0.3750000  -0.5000000   0.1333333), wk =   0.0039062
        k(  404) = (   0.3750000  -0.5000000   0.2000000), wk =   0.0039062
        k(  405) = (   0.3750000  -0.5000000   0.2666667), wk =   0.0039062
        k(  406) = (   0.3750000  -0.5000000   0.3333333), wk =   0.0039062
        k(  407) = (   0.3750000  -0.5000000   0.4000000), wk =   0.0039062
        k(  408) = (   0.3750000  -0.5000000   0.4666667), wk =   0.0039062
        k(  409) = (   0.3750000  -0.5000000   0.5333333), wk =   0.0039062
        k(  410) = (   0.3750000  -0.5000000   0.6000000), wk =   0.0039062
        k(  411) = (   0.3750000  -0.5000000   0.6666667), wk =   0.0039062
        k(  412) = (   0.3750000  -0.5000000   0.7333333), wk =   0.0039062
        k(  413) = (   0.3750000  -0.5000000   0.8000000), wk =   0.0039062
        k(  414) = (   0.3750000  -0.5000000   0.8666667), wk =   0.0039062
        k(  415) = (   0.3750000  -0.5000000   0.9333333), wk =   0.0039062
        k(  416) = (   0.3750000  -0.5000000   1.0000000), wk =   0.0039062
        k(  417) = (   0.3750000  -0.3750000   0.0000000), wk =   0.0039062
        k(  418) = (   0.3750000  -0.3750000   0.0666667), wk =   0.0039062
        k(  419) = (   0.3750000  -0.3750000   0.1333333), wk =   0.0039062
        k(  420) = (   0.3750000  -0.3750000   0.2000000), wk =   0.0039062
[...]
    -9.7564  -9.0120   1.6542   2.1501   2.3102   2.8146   2.8418   3.5087
     4.2038   4.5123   4.7579   5.8233   5.9359

     occupation numbers 
     1.0000   1.0000   1.0000   1.0000   1.0000   1.0000   1.0000   1.0000
     1.0000   1.0000   1.0000   1.0000   1.0000   1.0000   1.0000   1.0000
     1.0000   1.0000   1.0000   1.0000   1.0000

          k =-0.5000-0.8660 0.0000 (  3804 PWs)   bands (ev):

  -115.7898 -70.1659 -70.1391 -70.1379 -65.1024 -32.1086 -32.0920 -32.0717
    -9.7532  -9.0135   1.5636   2.1964   2.2900   2.8219   2.8368   3.4183
     4.1768   4.5431   4.8695   5.8647   6.0884

     occupation numbers 
     1.0000   1.0000   1.0000   1.0000   1.0000   1.0000   1.0000   1.0000
     1.0000   1.0000   1.0000   1.0000   1.0000   1.0000   1.0000   1.0000
     1.0000   1.0000   1.0000   1.0000   1.0000

          k =-0.5000-0.8660 0.0461 (  3802 PWs)   bands (ev):

  -115.7898 -70.1659 -70.1391 -70.1379 -65.1024 -32.1087 -32.0920 -32.0717
    -9.7513  -9.0135   1.5599   2.1955   2.2771   2.8123   2.8352   3.3553
     4.1689   4.6240   4.8814   5.9043   6.0775

     occupation numbers 
     1.0000   1.0000   1.0000   1.0000   1.0000   1.0000   1.0000   1.0000
     1.0000   1.0000   1.0000   1.0000   1.0000   1.0000   1.0000   1.0000
     1.0000   1.0000   1.0000   1.0000   1.0000

          k =-0.5000-0.8660 0.0923 (  3808 PWs)   bands (ev):

  -115.7898 -70.1659 -70.1391 -70.1379 -65.1024 -32.1087 -32.0920 -32.0717
    -9.7459  -9.0136   1.5488   2.1931   2.2431   2.7724   2.8309   3.2240
     4.1589   4.8055   4.9161   6.0152   6.0457

     occupation numbers 
     1.0000   1.0000   1.0000   1.0000   1.0000   1.0000   1.0000   1.0000
     1.0000   1.0000   1.0000   1.0000   1.0000   1.0000   1.0000   1.0000
     1.0000   1.0000   1.0000   1.0000   1.0000

          k =-0.5000-0.8660 0.1384 (  3806 PWs)   bands (ev):

  -115.7898 -70.1659 -70.1391 -70.1379 -65.1024 -32.1087 -32.0919 -32.0717
    -9.7379  -9.0138   1.5314   2.1895   2.1982   2.6788   2.8246   3.1170
     4.1531   4.9708   5.0128   5.9953   6.1743

     occupation numbers 
     1.0000   1.0000   1.0000   1.0000   1.0000   1.0000   1.0000   1.0000
     1.0000   1.0000   1.0000   1.0000   1.0000   1.0000   1.0000   1.0000
     1.0000   1.0000   1.0000   1.0000   1.0000

          k =-0.5000-0.8660 0.1845 (  3792 PWs)   bands (ev):

  -115.7898 -70.1659 -70.1391 -70.1379 -65.1024 -32.1088 -32.0919 -32.0717
    -9.7285  -9.0142   1.5098   2.1531   2.1853   2.5423   2.8177   3.0648
     4.1496   5.0403   5.2093   5.9303   6.3487

     occupation numbers 
     1.0000   1.0000   1.0000   1.0000   1.0000   1.0000   1.0000   1.0000
     1.0000   1.0000   1.0000   1.0000   1.0000   1.0000   1.0000   1.0000
     1.0000   1.0000   1.0000   1.0000   1.0000

          k =-0.5000-0.8660 0.2306 (  3810 PWs)   bands (ev):

  -115.7898 -70.1659 -70.1391 -70.1379 -65.1024 -32.1088 -32.0919 -32.0717
    -9.7195  -9.0146   1.4876   2.1149   2.1813   2.4079   2.8113   3.0442
     4.1471   5.1172   5.3765   5.8576   6.5055

     occupation numbers 
     1.0000   1.0000   1.0000   1.0000   1.0000   1.0000   1.0000   1.0000
     1.0000   1.0000   1.0000   1.0000   1.0000   1.0000   1.0000   1.0000
     1.0000   1.0000   1.0000   1.0000   1.0000

          k =-0.5000-0.8660 0.2768 (  3818 PWs)   bands (ev):

  -115.7898 -70.1660 -70.1391 -70.1379 -65.1024 -32.1089 -32.0919 -32.0717
    -9.7124  -9.0149   1.4694   2.0872   2.1782   2.3075   2.8065   3.0364
     4.1454   5.1894   5.4995   5.7887   6.6201

     occupation numbers 
     1.0000   1.0000   1.0000   1.0000   1.0000   1.0000   1.0000   1.0000
     1.0000   1.0000   1.0000   1.0000   1.0000   1.0000   1.0000   1.0000
     1.0000   1.0000   1.0000   1.0000   1.0000

          k =-0.5000-0.8660 0.3229 (  3814 PWs)   bands (ev):

  -115.7898 -70.1660 -70.1391 -70.1379 -65.1024 -32.1089 -32.0919 -32.0717
    -9.7084  -9.0151   1.4592   2.0721   2.1765   2.2554   2.8039   3.0337
     4.1445   5.2368   5.5652   5.7430   6.6795

     occupation numbers 
     1.0000   1.0000   1.0000   1.0000   1.0000   1.0000   1.0000   1.0000
     1.0000   1.0000   1.0000   1.0000   1.0000   1.0000   1.0000   1.0000
     1.0000   1.0000   1.0000   1.0000   1.0000

          k =-0.5000-0.8660 0.3690 (  3814 PWs)   bands (ev):

  -115.7898 -70.1660 -70.1391 -70.1379 -65.1024 -32.1089 -32.0919 -32.0717
    -9.7084  -9.0151   1.4592   2.0721   2.1765   2.2554   2.8039   3.0337
     4.1445   5.2368   5.5652   5.7430   6.6795

     occupation numbers 
     1.0000   1.0000   1.0000   1.0000   1.0000   1.0000   1.0000   1.0000
     1.0000   1.0000   1.0000   1.0000   1.0000   1.0000   1.0000   1.0000
     1.0000   1.0000   1.0000   1.0000   1.0000

          k =-0.5000-0.8660 0.4151 (  3818 PWs)   bands (ev):

  -115.7898 -70.1660 -70.1391 -70.1379 -65.1024 -32.1089 -32.0919 -32.0717
    -9.7124  -9.0149   1.4694   2.0872   2.1782   2.3075   2.8065   3.0364
     4.1454   5.1894   5.4995   5.7887   6.6201

     occupation numbers 
     1.0000   1.0000   1.0000   1.0000   1.0000   1.0000   1.0000   1.0000
     1.0000   1.0000   1.0000   1.0000   1.0000   1.0000   1.0000   1.0000
     1.0000   1.0000   1.0000   1.0000   1.0000

          k =-0.5000-0.8660 0.4613 (  3810 PWs)   bands (ev):

  -115.7898 -70.1659 -70.1391 -70.1379 -65.1024 -32.1088 -32.0919 -32.0717
    -9.7195  -9.0146   1.4876   2.1149   2.1813   2.4079   2.8113   3.0442
     4.1471   5.1172   5.3765   5.8576   6.5055

     occupation numbers 
     1.0000   1.0000   1.0000   1.0000   1.0000   1.0000   1.0000   1.0000
     1.0000   1.0000   1.0000   1.0000   1.0000   1.0000   1.0000   1.0000
     1.0000   1.0000   1.0000   1.0000   1.0000

          k =-0.5000-0.8660 0.5074 (  3792 PWs)   bands (ev):

  -115.7898 -70.1659 -70.1391 -70.1379 -65.1024 -32.1088 -32.0919 -32.0717
    -9.7285  -9.0142   1.5098   2.1531   2.1853   2.5423   2.8177   3.0648
     4.1496   5.0403   5.2093   5.9303   6.3487

     occupation numbers 
     1.0000   1.0000   1.0000   1.0000   1.0000   1.0000   1.0000   1.0000
     1.0000   1.0000   1.0000   1.0000   1.0000   1.0000   1.0000   1.0000
     1.0000   1.0000   1.0000   1.0000   1.0000

          k =-0.5000-0.8660 0.5535 (  3806 PWs)   bands (ev):

  -115.7898 -70.1659 -70.1391 -70.1379 -65.1024 -32.1087 -32.0919 -32.0717
    -9.7379  -9.0138   1.5314   2.1895   2.1982   2.6788   2.8246   3.1170
     4.1531   4.9708   5.0128   5.9953   6.1743

     occupation numbers 
     1.0000   1.0000   1.0000   1.0000   1.0000   1.0000   1.0000   1.0000
     1.0000   1.0000   1.0000   1.0000   1.0000   1.0000   1.0000   1.0000
     1.0000   1.0000   1.0000   1.0000   1.0000

          k =-0.5000-0.8660 0.5996 (  3808 PWs)   bands (ev):

  -115.7898 -70.1659 -70.1391 -70.1379 -65.1024 -32.1087 -32.0920 -32.0717
    -9.7459  -9.0136   1.5488   2.1931   2.2431   2.7724   2.8309   3.2240
     4.1589   4.8055   4.9161   6.0152   6.0457

     occupation numbers 
     1.0000   1.0000   1.0000   1.0000   1.0000   1.0000   1.0000   1.0000
     1.0000   1.0000   1.0000   1.0000   1.0000   1.0000   1.0000   1.0000
     1.0000   1.0000   1.0000   1.0000   1.0000

          k =-0.5000-0.8660 0.6458 (  3802 PWs)   bands (ev):

  -115.7898 -70.1659 -70.1391 -70.1379 -65.1024 -32.1087 -32.0920 -32.0717
    -9.7513  -9.0135   1.5599   2.1955   2.2771   2.8123   2.8352   3.3553
     4.1689   4.6240   4.8814   5.9043   6.0775

     occupation numbers 
     1.0000   1.0000   1.0000   1.0000   1.0000   1.0000   1.0000   1.0000
     1.0000   1.0000   1.0000   1.0000   1.0000   1.0000   1.0000   1.0000
     1.0000   1.0000   1.0000   1.0000   1.0000

          k =-0.5000-0.8660 0.6919 (  3804 PWs)   bands (ev):

  -115.7898 -70.1659 -70.1391 -70.1379 -65.1024 -32.1086 -32.0920 -32.0717
    -9.7532  -9.0135   1.5636   2.1964   2.2900   2.8219   2.8368   3.4183
     4.1768   4.5431   4.8695   5.8647   6.0884

     occupation numbers 
     1.0000   1.0000   1.0000   1.0000   1.0000   1.0000   1.0000   1.0000
     1.0000   1.0000   1.0000   1.0000   1.0000   1.0000   1.0000   1.0000
     1.0000   1.0000   1.0000   1.0000   1.0000

     highest occupied level (ev):     6.9880



               ==================================================
                            POLARIZATION CALCULATION
                         !!! NOT THOROUGHLY TESTED !!!
               --------------------------------------------------


                     K-POINTS STRINGS USED IN CALCULATIONS
                     ~~~~~~~~~~~~~~~~~~~~~~~~~~~~~~~~~~~~~

       G-vector along string (2 pi/a): -0.00000  0.00000  0.69188
       Modulus of the vector (1/bohr):  0.68850
       Number of k-points per string:  16
       Number of different strings  :  34


                               IONIC POLARIZATION
                               ~~~~~~~~~~~~~~~~~~

        Note: (mod 1) means that the phases (angles ranging from
        -pi to pi) have been mapped to the interval [-1/2,+1/2) by
        dividing by 2*pi; (mod 2) refers to the interval [-1,+1)

  ============================================================================
    Ion    Species    Charge              Position                Phase
  ----------------------------------------------------------------------------
     1        O        6.000       0.5000  0.2887  0.0106     0.04408 (mod 2)
     2        O        6.000       0.0000  0.5773  0.7333    -0.95593 (mod 2)
     3        Zn      20.000       0.5000  0.2887  0.8441    -0.32012 (mod 2)
     4        Mg      10.000       0.0000  0.5774  1.5715     0.87279 (mod 2)
  ----------------------------------------------------------------------------
                                               IONIC PHASE:  -0.35919 (mod 2)
  ============================================================================


                            ELECTRONIC POLARIZATION
                            ~~~~~~~~~~~~~~~~~~~~~~~

        Note: (mod 1) means that the phases (angles ranging from
        -pi to pi) have been mapped to the interval [-1/2,+1/2) by
        dividing by 2*pi; (mod 2) refers to the interval [-1,+1)

  ============================================================================
   Spin    String     Weight      First k-point in string         Phase
  ----------------------------------------------------------------------------
    up        1      0.015625      0.0000  0.0000  0.0000     0.33291 (mod 1)
    up        2      0.031250     -0.0000  0.1443  0.0000     0.34026 (mod 1)
    up        3      0.031250     -0.0000  0.2887  0.0000     0.34540 (mod 1)
    up        4      0.031250     -0.0000  0.4330  0.0000     0.34715 (mod 1)
    up        5      0.015625      0.0000 -0.5774 -0.0000     0.34765 (mod 1)
    up        6      0.031250      0.1250  0.0722 -0.0000     0.34026 (mod 1)
    up        7      0.031250      0.1250  0.2165 -0.0000     0.34470 (mod 1)
    up        8      0.031250      0.1250  0.3608 -0.0000     0.34697 (mod 1)
    up        9      0.031250      0.1250  0.5052  0.0000     0.34766 (mod 1)
    up       10      0.031250      0.1250 -0.5052 -0.0000     0.34766 (mod 1)
    up       11      0.031250      0.1250 -0.3608 -0.0000     0.34697 (mod 1)
    up       12      0.031250      0.1250 -0.2165 -0.0000     0.34470 (mod 1)
    up       13      0.031250      0.1250 -0.0722 -0.0000     0.34026 (mod 1)
    up       14      0.031250      0.2500  0.1443 -0.0000     0.34540 (mod 1)
    up       15      0.031250      0.2500  0.2887 -0.0000     0.34697 (mod 1)
    up       16      0.031250      0.2500  0.4330 -0.0000     0.34764 (mod 1)
    up       17      0.031250      0.2500  0.5774 -0.0000     0.34766 (mod 1)
    up       18      0.031250      0.2500 -0.4330 -0.0000     0.34764 (mod 1)
    up       19      0.031250      0.2500 -0.2887 -0.0000     0.34697 (mod 1)
    up       20      0.031250      0.2500 -0.1443 -0.0000     0.34540 (mod 1)
    up       21      0.031250      0.2500 -0.0000 -0.0000     0.34470 (mod 1)
    up       22      0.031250      0.3750  0.2165 -0.0000     0.34715 (mod 1)
    up       23      0.031250      0.3750  0.3608 -0.0000     0.34766 (mod 1)
    up       24      0.031250      0.3750  0.5052 -0.0000     0.34766 (mod 1)
    up       25      0.031250      0.3750  0.6495 -0.0000     0.34766 (mod 1)
    up       26      0.031250      0.3750 -0.3608 -0.0000     0.34766 (mod 1)
    up       27      0.031250      0.3750 -0.2165 -0.0000     0.34715 (mod 1)
    up       28      0.031250      0.3750 -0.0722 -0.0000     0.34697 (mod 1)
    up       29      0.031250      0.3750  0.0722 -0.0000     0.34697 (mod 1)
    up       30      0.015625     -0.5000 -0.2887  0.0000     0.34765 (mod 1)
    up       31      0.031250     -0.5000 -0.1443  0.0000     0.34766 (mod 1)
    up       32      0.031250     -0.5000  0.0000  0.0000     0.34764 (mod 1)
    up       33      0.031250     -0.5000  0.1443  0.0000     0.34766 (mod 1)
    up       34      0.015625     -0.5000 -0.8660  0.0000     0.34765 (mod 1)
  ----------------------------------------------------------------------------
   down       1      0.015625      0.0000  0.0000  0.0000     0.33291 (mod 1)
   down       2      0.031250     -0.0000  0.1443  0.0000     0.34026 (mod 1)
   down       3      0.031250     -0.0000  0.2887  0.0000     0.34540 (mod 1)
   down       4      0.031250     -0.0000  0.4330  0.0000     0.34715 (mod 1)
   down       5      0.015625      0.0000 -0.5774 -0.0000     0.34765 (mod 1)
   down       6      0.031250      0.1250  0.0722 -0.0000     0.34026 (mod 1)
   down       7      0.031250      0.1250  0.2165 -0.0000     0.34470 (mod 1)
   down       8      0.031250      0.1250  0.3608 -0.0000     0.34697 (mod 1)
   down       9      0.031250      0.1250  0.5052  0.0000     0.34766 (mod 1)
   down      10      0.031250      0.1250 -0.5052 -0.0000     0.34766 (mod 1)
   down      11      0.031250      0.1250 -0.3608 -0.0000     0.34697 (mod 1)
   down      12      0.031250      0.1250 -0.2165 -0.0000     0.34470 (mod 1)
   down      13      0.031250      0.1250 -0.0722 -0.0000     0.34026 (mod 1)
   down      14      0.031250      0.2500  0.1443 -0.0000     0.34540 (mod 1)
   down      15      0.031250      0.2500  0.2887 -0.0000     0.34697 (mod 1)
   down      16      0.031250      0.2500  0.4330 -0.0000     0.34764 (mod 1)
   down      17      0.031250      0.2500  0.5774 -0.0000     0.34766 (mod 1)
   down      18      0.031250      0.2500 -0.4330 -0.0000     0.34764 (mod 1)
   down      19      0.031250      0.2500 -0.2887 -0.0000     0.34697 (mod 1)
   down      20      0.031250      0.2500 -0.1443 -0.0000     0.34540 (mod 1)
   down      21      0.031250      0.2500 -0.0000 -0.0000     0.34470 (mod 1)
   down      22      0.031250      0.3750  0.2165 -0.0000     0.34715 (mod 1)
   down      23      0.031250      0.3750  0.3608 -0.0000     0.34766 (mod 1)
   down      24      0.031250      0.3750  0.5052 -0.0000     0.34766 (mod 1)
   down      25      0.031250      0.3750  0.6495 -0.0000     0.34766 (mod 1)
   down      26      0.031250      0.3750 -0.3608 -0.0000     0.34766 (mod 1)
   down      27      0.031250      0.3750 -0.2165 -0.0000     0.34715 (mod 1)
   down      28      0.031250      0.3750 -0.0722 -0.0000     0.34697 (mod 1)
   down      29      0.031250      0.3750  0.0722 -0.0000     0.34697 (mod 1)
   down      30      0.015625     -0.5000 -0.2887  0.0000     0.34765 (mod 1)
   down      31      0.031250     -0.5000 -0.1443  0.0000     0.34766 (mod 1)
   down      32      0.031250     -0.5000  0.0000  0.0000     0.34764 (mod 1)
   down      33      0.031250     -0.5000  0.1443  0.0000     0.34766 (mod 1)
   down      34      0.015625     -0.5000 -0.8660  0.0000     0.34765 (mod 1)
  ----------------------------------------------------------------------------
                                        Average phase (up):   0.34607 (mod 1)
                                      Average phase (down):   0.34607 (mod 1)
                                          ELECTRONIC PHASE:   0.69213 (mod 2)
  ============================================================================


                               SUMMARY OF PHASES
                               ~~~~~~~~~~~~~~~~~

                          Ionic Phase: -0.35919 (mod 2)
                     Electronic Phase:  0.69213 (mod 2)
                          TOTAL PHASE:  0.33295 (mod 2)


                             VALUES OF POLARIZATION
                             ~~~~~~~~~~~~~~~~~~~~~~

        The calculation of phases done along the direction of vector 3
        of the reciprocal lattice gives the following contribution to
        the polarization vector (in different units, and being Omega
        the volume of the unit cell):

           P =   3.0384442  (mod  18.2519203)  (e/Omega).bohr

           P =   0.0096434  (mod   0.0579277)  e/bohr^2

           P =   0.5513286  (mod   3.3118282)  C/m^2

        The polarization direction is:  ( 0.00000 ,-0.00000 , 1.00000 )


               ==================================================



     Writing output data file ZnO.save/
 
     init_run     :      0.09s CPU      0.48s WALL (       1 calls)
     electrons    :     39.85s CPU     42.63s WALL (       1 calls)

     Called by init_run:
     wfcinit      :      0.00s CPU      0.01s WALL (       1 calls)
     wfcinit:atom :      0.01s CPU      0.01s WALL (     544 calls)
     wfcinit:wfcr :      3.62s CPU      4.48s WALL (     544 calls)
     potinit      :      0.01s CPU      0.08s WALL (       1 calls)
     hinit0       :      0.04s CPU      0.22s WALL (       1 calls)

     Called by electrons:
     c_bands      :     39.07s CPU     41.66s WALL (       1 calls)
     v_of_rho     :      0.01s CPU      0.03s WALL (       1 calls)
     v_h          :      0.00s CPU      0.00s WALL (       1 calls)
     v_xc         :      0.01s CPU      0.03s WALL (       1 calls)
     newd         :      0.01s CPU      0.03s WALL (       1 calls)

     Called by c_bands:
     init_us_2    :      0.04s CPU      0.04s WALL (    1564 calls)
     cegterg      :     35.27s CPU     36.87s WALL (     544 calls)

     Called by sum_band:

     Called by *egterg:
     h_psi        :      8.61s CPU      8.94s WALL (    5450 calls)
     s_psi        :      0.13s CPU      0.13s WALL (    5450 calls)
     g_psi        :      0.01s CPU      0.01s WALL (    4362 calls)
     cdiaghg      :     11.13s CPU     12.27s WALL (    4906 calls)
     cegterg:over :      2.67s CPU      3.25s WALL (    4362 calls)
     cegterg:upda :      7.01s CPU      7.16s WALL (    4362 calls)
     cegterg:last :      7.44s CPU      7.62s WALL (    1627 calls)
     cdiaghg:chol :      0.46s CPU      0.78s WALL (    4906 calls)
     cdiaghg:inve :      0.12s CPU      0.26s WALL (    4906 calls)
     cdiaghg:para :      0.93s CPU      0.99s WALL (    9812 calls)

     Called by h_psi:
     h_psi:pot    :      8.60s CPU      8.93s WALL (    5450 calls)
     h_psi:calbec :      0.64s CPU      0.67s WALL (    5450 calls)
     vloc_psi     :      7.82s CPU      8.10s WALL (    5450 calls)
     add_vuspsi   :      0.14s CPU      0.14s WALL (    5450 calls)

     General routines
     calbec       :      0.77s CPU      0.81s WALL (    6470 calls)
     fft          :      0.00s CPU      0.06s WALL (      13 calls)
     ffts         :      0.00s CPU      0.01s WALL (       1 calls)
     fftw         :      7.61s CPU      7.88s WALL (  193774 calls)
     interpolate  :      0.00s CPU      0.01s WALL (       1 calls)
 
     Parallel routines
     fft_scatt_xy :      0.35s CPU      0.37s WALL (  193788 calls)
     fft_scatt_yz :      6.14s CPU      6.38s WALL (  193788 calls)
 
     PWSCF        :     45.92s CPU     52.32s WALL

 
   This run was terminated on:  23:38:56  15Jun2022            

=------------------------------------------------------------------------------=
   JOB DONE.
=------------------------------------------------------------------------------=
