
     Program PWSCF v.6.4.1 starts on 16Jun2022 at 15: 2:39 

     This program is part of the open-source Quantum ESPRESSO suite
     for quantum simulation of materials; please cite
         "P. Giannozzi et al., J. Phys.:Condens. Matter 21 395502 (2009);
         "P. Giannozzi et al., J. Phys.:Condens. Matter 29 465901 (2017);
          URL http://www.quantum-espresso.org", 
     in publications or presentations arising from this work. More details at
     http://www.quantum-espresso.org/quote

     Parallel version (MPI), running on    64 processors

     MPI processes distributed on     1 nodes
     K-points division:     npool     =       4
     R & G space division:  proc/nbgrp/npool/nimage =      16
     Waiting for input...
     Reading input from standard input

     Current dimensions of program PWSCF are:
     Max number of different atomic species (ntypx) = 10
     Max number of k-points (npk) =  40000
     Max angular momentum in pseudopotentials (lmaxx) =  3

     Subspace diagonalization in iterative solution of the eigenvalue problem:
     one sub-group per band group will be used
     scalapack distributed-memory algorithm (size of sub-group:  2*  2 procs)

 
     Parallelization info
     --------------------
     sticks:   dense  smooth     PW     G-vecs:    dense   smooth      PW
     Min         101      53     16                 4895     1901     330
     Max         102      55     17                 4900     1904     335
     Sum        1627     859    265                78355    30443    5321
 


     bravais-lattice index     =            0
     lattice parameter (alat)  =       6.2601  a.u.
     unit-cell volume          =     315.8069 (a.u.)^3
     number of atoms/cell      =            4
     number of atomic types    =            2
     number of electrons       =        52.00
     number of Kohn-Sham states=           26
     kinetic-energy cutoff     =      80.0000  Ry
     charge density cutoff     =     600.0000  Ry
     convergence threshold     =      1.0E-06
     mixing beta               =       0.5000
     number of iterations used =            8  plain     mixing
     Exchange-correlation      = SLA  PW   PSX  PSC ( 1  4 10  8 0 0)
     Using LIBXC version       =    4   3   4
     nstep                     =          200


     celldm(1)=   6.260095  celldm(2)=   0.000000  celldm(3)=   0.000000
     celldm(4)=   0.000000  celldm(5)=   0.000000  celldm(6)=   0.000000

     crystal axes: (cart. coord. in units of alat)
               a(1) = (   1.000000   0.000000  -0.000000 )  
               a(2) = (  -0.500000   0.866025   0.000000 )  
               a(3) = (  -0.000000   0.000000   1.486443 )  

     reciprocal axes: (cart. coord. in units 2 pi/alat)
               b(1) = (  1.000000  0.577350  0.000000 )  
               b(2) = ( -0.000000  1.154701 -0.000000 )  
               b(3) = (  0.000000 -0.000000  0.672747 )  


     PseudoPot. # 1 for Zn read from file:
     ./GBRV_PBEsol/zn_pbesol_v1.uspp.F.UPF
     MD5 check sum: 7d8615e52efe7c1e2b1899de8658bae2
     Pseudo is Ultrasoft, Zval = 20.0
     Generated by new atomic code, or converted to UPF format
     Using radial grid of  943 points,  6 beta functions with: 
                l(1) =   0
                l(2) =   0
                l(3) =   1
                l(4) =   1
                l(5) =   2
                l(6) =   2
     Q(r) pseudized with  8 coefficients,  rinner =    1.100   1.100   1.100
                                                       1.100   1.100

     PseudoPot. # 2 for O  read from file:
     ./GBRV_PBEsol/o_pbesol_v1.2.uspp.F.UPF
     MD5 check sum: 501638753501ef6325af9037351f7734
     Pseudo is Ultrasoft + core correction, Zval =  6.0
     Generated by new atomic code, or converted to UPF format
     Using radial grid of  737 points,  5 beta functions with: 
                l(1) =   0
                l(2) =   0
                l(3) =   1
                l(4) =   1
                l(5) =   2
     Q(r) pseudized with  8 coefficients,  rinner =    0.900   0.900   0.900
                                                       0.900   0.900

     atomic species   valence    mass     pseudopotential
        Zn            20.00    65.38000     Zn( 1.00)
        O              6.00    15.99900     O ( 1.00)

     No symmetry found


                                    s                        frac. trans.

      isym =  1     identity                                     

 cryst.   s( 1) = (     1          0          0      )
                  (     0          1          0      )
                  (     0          0          1      )

 cart.    s( 1) = (  1.0000000 -0.0000000  0.0000000 )
                  ( -0.0000000  1.0000000 -0.0000000 )
                  (  0.0000000 -0.0000000  1.0000000 )


   Cartesian axes

     site n.     atom                  positions (alat units)
         1           O   tau(   1) = (   0.5000002   0.2886754   0.0109192  )
         2           O   tau(   2) = (   0.0000001   0.5773494   0.7541406  )
         3           Zn  tau(   3) = (   0.5000000   0.2886748   0.8715822  )
         4           Zn  tau(   4) = (  -0.0000002   0.5773511   1.6148037  )

   Crystallographic axes

     site n.     atom                  positions (cryst. coord.)
         1           O   tau(   1) = (  0.6666670  0.3333337  0.0073459  )
         2           O   tau(   2) = (  0.3333329  0.6666657  0.5073458  )
         3           Zn  tau(   3) = (  0.6666664  0.3333329  0.5863542  )
         4           Zn  tau(   4) = (  0.3333336  0.6666677  1.0863542  )

     number of k points=   260
                       cart. coord. in units 2pi/alat
        k(    1) = (   0.0000000   0.0000000   0.0000000), wk =   0.0039062
        k(    2) = (   0.0000000  -0.0000000   0.0840934), wk =   0.0078125
        k(    3) = (   0.0000000  -0.0000000   0.1681867), wk =   0.0078125
        k(    4) = (   0.0000000  -0.0000000   0.2522801), wk =   0.0078125
        k(    5) = (  -0.0000000   0.0000000  -0.3363734), wk =   0.0039062
        k(    6) = (  -0.0000000   0.1443376  -0.0000000), wk =   0.0078125
        k(    7) = (  -0.0000000   0.1443376   0.0840934), wk =   0.0078125
        k(    8) = (   0.0000000   0.1443376   0.1681867), wk =   0.0078125
        k(    9) = (   0.0000000   0.1443376   0.2522801), wk =   0.0078125
        k(   10) = (  -0.0000000   0.1443376  -0.3363734), wk =   0.0078125
        k(   11) = (  -0.0000000   0.1443376  -0.2522801), wk =   0.0078125
        k(   12) = (  -0.0000000   0.1443376  -0.1681867), wk =   0.0078125
        k(   13) = (  -0.0000000   0.1443376  -0.0840934), wk =   0.0078125
        k(   14) = (  -0.0000000   0.2886752  -0.0000000), wk =   0.0078125
        k(   15) = (  -0.0000000   0.2886752   0.0840934), wk =   0.0078125
        k(   16) = (  -0.0000000   0.2886752   0.1681867), wk =   0.0078125
        k(   17) = (  -0.0000000   0.2886752   0.2522801), wk =   0.0078125
        k(   18) = (  -0.0000000   0.2886752  -0.3363734), wk =   0.0078125
        k(   19) = (  -0.0000000   0.2886752  -0.2522801), wk =   0.0078125
        k(   20) = (  -0.0000000   0.2886752  -0.1681867), wk =   0.0078125
        k(   21) = (  -0.0000000   0.2886752  -0.0840934), wk =   0.0078125
        k(   22) = (  -0.0000000   0.4330127  -0.0000000), wk =   0.0078125
        k(   23) = (  -0.0000000   0.4330127   0.0840934), wk =   0.0078125
        k(   24) = (  -0.0000000   0.4330127   0.1681867), wk =   0.0078125
        k(   25) = (  -0.0000000   0.4330127   0.2522801), wk =   0.0078125
        k(   26) = (  -0.0000000   0.4330127  -0.3363734), wk =   0.0078125
        k(   27) = (  -0.0000000   0.4330127  -0.2522801), wk =   0.0078125
        k(   28) = (  -0.0000000   0.4330127  -0.1681867), wk =   0.0078125
        k(   29) = (  -0.0000000   0.4330127  -0.0840934), wk =   0.0078125
        k(   30) = (   0.0000000  -0.5773503   0.0000000), wk =   0.0039062
        k(   31) = (   0.0000000  -0.5773503   0.0840934), wk =   0.0078125
        k(   32) = (   0.0000000  -0.5773503   0.1681867), wk =   0.0078125
        k(   33) = (   0.0000000  -0.5773503   0.2522801), wk =   0.0078125
        k(   34) = (   0.0000000  -0.5773503  -0.3363734), wk =   0.0039062
        k(   35) = (   0.1250000   0.0721688   0.0000000), wk =   0.0078125
        k(   36) = (   0.1250000   0.0721688   0.0840934), wk =   0.0078125
        k(   37) = (   0.1250000   0.0721688   0.1681867), wk =   0.0078125
        k(   38) = (   0.1250000   0.0721688   0.2522801), wk =   0.0078125
        k(   39) = (   0.1250000   0.0721688  -0.3363734), wk =   0.0078125
        k(   40) = (   0.1250000   0.0721688  -0.2522801), wk =   0.0078125
        k(   41) = (   0.1250000   0.0721688  -0.1681867), wk =   0.0078125
        k(   42) = (   0.1250000   0.0721688  -0.0840934), wk =   0.0078125
        k(   43) = (   0.1250000   0.2165064   0.0000000), wk =   0.0078125
        k(   44) = (   0.1250000   0.2165064   0.0840934), wk =   0.0078125
        k(   45) = (   0.1250000   0.2165064   0.1681867), wk =   0.0078125
        k(   46) = (   0.1250000   0.2165064   0.2522801), wk =   0.0078125
        k(   47) = (   0.1250000   0.2165064  -0.3363734), wk =   0.0078125
        k(   48) = (   0.1250000   0.2165064  -0.2522801), wk =   0.0078125
        k(   49) = (   0.1250000   0.2165064  -0.1681867), wk =   0.0078125
        k(   50) = (   0.1250000   0.2165064  -0.0840934), wk =   0.0078125
        k(   51) = (   0.1250000   0.3608439   0.0000000), wk =   0.0078125
        k(   52) = (   0.1250000   0.3608439   0.0840934), wk =   0.0078125
        k(   53) = (   0.1250000   0.3608439   0.1681867), wk =   0.0078125
        k(   54) = (   0.1250000   0.3608439   0.2522801), wk =   0.0078125
        k(   55) = (   0.1250000   0.3608439  -0.3363734), wk =   0.0078125
        k(   56) = (   0.1250000   0.3608439  -0.2522801), wk =   0.0078125
        k(   57) = (   0.1250000   0.3608439  -0.1681867), wk =   0.0078125
        k(   58) = (   0.1250000   0.3608439  -0.0840934), wk =   0.0078125
        k(   59) = (   0.1250000   0.5051815   0.0000000), wk =   0.0078125
        k(   60) = (   0.1250000   0.5051815   0.0840934), wk =   0.0078125
        k(   61) = (   0.1250000   0.5051815   0.1681867), wk =   0.0078125
        k(   62) = (   0.1250000   0.5051815   0.2522801), wk =   0.0078125
        k(   63) = (   0.1250000   0.5051815  -0.3363734), wk =   0.0078125
        k(   64) = (   0.1250000   0.5051815  -0.2522801), wk =   0.0078125
        k(   65) = (   0.1250000   0.5051815  -0.1681867), wk =   0.0078125
        k(   66) = (   0.1250000   0.5051815  -0.0840934), wk =   0.0078125
        k(   67) = (   0.1250000  -0.5051815   0.0000000), wk =   0.0078125
        k(   68) = (   0.1250000  -0.5051815   0.0840934), wk =   0.0078125
        k(   69) = (   0.1250000  -0.5051815   0.1681867), wk =   0.0078125
        k(   70) = (   0.1250000  -0.5051815   0.2522801), wk =   0.0078125
        k(   71) = (   0.1250000  -0.5051815  -0.3363734), wk =   0.0078125
        k(   72) = (   0.1250000  -0.5051815  -0.2522801), wk =   0.0078125
        k(   73) = (   0.1250000  -0.5051815  -0.1681867), wk =   0.0078125
        k(   74) = (   0.1250000  -0.5051815  -0.0840934), wk =   0.0078125
        k(   75) = (   0.1250000  -0.3608440   0.0000000), wk =   0.0078125
        k(   76) = (   0.1250000  -0.3608440   0.0840934), wk =   0.0078125
        k(   77) = (   0.1250000  -0.3608440   0.1681867), wk =   0.0078125
        k(   78) = (   0.1250000  -0.3608440   0.2522801), wk =   0.0078125
        k(   79) = (   0.1250000  -0.3608440  -0.3363734), wk =   0.0078125
        k(   80) = (   0.1250000  -0.3608440  -0.2522801), wk =   0.0078125
        k(   81) = (   0.1250000  -0.3608440  -0.1681867), wk =   0.0078125
        k(   82) = (   0.1250000  -0.3608440  -0.0840934), wk =   0.0078125
        k(   83) = (   0.1250000  -0.2165064   0.0000000), wk =   0.0078125
        k(   84) = (   0.1250000  -0.2165064   0.0840934), wk =   0.0078125
        k(   85) = (   0.1250000  -0.2165064   0.1681867), wk =   0.0078125
        k(   86) = (   0.1250000  -0.2165064   0.2522801), wk =   0.0078125
        k(   87) = (   0.1250000  -0.2165064  -0.3363734), wk =   0.0078125
        k(   88) = (   0.1250000  -0.2165064  -0.2522801), wk =   0.0078125
        k(   89) = (   0.1250000  -0.2165064  -0.1681867), wk =   0.0078125
        k(   90) = (   0.1250000  -0.2165064  -0.0840934), wk =   0.0078125
        k(   91) = (   0.1250000  -0.0721688   0.0000000), wk =   0.0078125
        k(   92) = (   0.1250000  -0.0721688   0.0840934), wk =   0.0078125
        k(   93) = (   0.1250000  -0.0721688   0.1681867), wk =   0.0078125
        k(   94) = (   0.1250000  -0.0721688   0.2522801), wk =   0.0078125
        k(   95) = (   0.1250000  -0.0721688  -0.3363734), wk =   0.0078125
        k(   96) = (   0.1250000  -0.0721688  -0.2522801), wk =   0.0078125
        k(   97) = (   0.1250000  -0.0721688  -0.1681867), wk =   0.0078125
        k(   98) = (   0.1250000  -0.0721688  -0.0840934), wk =   0.0078125
        k(   99) = (   0.2500000   0.1443376   0.0000000), wk =   0.0078125
        k(  100) = (   0.2500000   0.1443376   0.0840934), wk =   0.0078125
        k(  101) = (   0.2500000   0.1443376   0.1681867), wk =   0.0078125
        k(  102) = (   0.2500000   0.1443376   0.2522801), wk =   0.0078125
        k(  103) = (   0.2500000   0.1443376  -0.3363734), wk =   0.0078125
        k(  104) = (   0.2500000   0.1443376  -0.2522801), wk =   0.0078125
        k(  105) = (   0.2500000   0.1443376  -0.1681867), wk =   0.0078125
        k(  106) = (   0.2500000   0.1443376  -0.0840934), wk =   0.0078125
        k(  107) = (   0.2500000   0.2886751   0.0000000), wk =   0.0078125
        k(  108) = (   0.2500000   0.2886751   0.0840934), wk =   0.0078125
        k(  109) = (   0.2500000   0.2886751   0.1681867), wk =   0.0078125
        k(  110) = (   0.2500000   0.2886751   0.2522801), wk =   0.0078125
        k(  111) = (   0.2500000   0.2886751  -0.3363734), wk =   0.0078125
        k(  112) = (   0.2500000   0.2886751  -0.2522801), wk =   0.0078125
        k(  113) = (   0.2500000   0.2886751  -0.1681867), wk =   0.0078125
        k(  114) = (   0.2500000   0.2886751  -0.0840934), wk =   0.0078125
        k(  115) = (   0.2500000   0.4330127   0.0000000), wk =   0.0078125
        k(  116) = (   0.2500000   0.4330127   0.0840934), wk =   0.0078125
        k(  117) = (   0.2500000   0.4330127   0.1681867), wk =   0.0078125
        k(  118) = (   0.2500000   0.4330127   0.2522801), wk =   0.0078125
        k(  119) = (   0.2500000   0.4330127  -0.3363734), wk =   0.0078125
        k(  120) = (   0.2500000   0.4330127  -0.2522801), wk =   0.0078125
        k(  121) = (   0.2500000   0.4330127  -0.1681867), wk =   0.0078125
        k(  122) = (   0.2500000   0.4330127  -0.0840934), wk =   0.0078125
        k(  123) = (   0.2500000   0.5773503   0.0000000), wk =   0.0078125
        k(  124) = (   0.2500000   0.5773503   0.0840934), wk =   0.0078125
        k(  125) = (   0.2500000   0.5773503   0.1681867), wk =   0.0078125
        k(  126) = (   0.2500000   0.5773503   0.2522801), wk =   0.0078125
        k(  127) = (   0.2500000   0.5773503  -0.3363734), wk =   0.0078125
        k(  128) = (   0.2500000   0.5773503  -0.2522801), wk =   0.0078125
        k(  129) = (   0.2500000   0.5773503  -0.1681867), wk =   0.0078125
        k(  130) = (   0.2500000   0.5773503  -0.0840934), wk =   0.0078125
        k(  131) = (   0.2500000  -0.4330128   0.0000000), wk =   0.0078125
        k(  132) = (   0.2500000  -0.4330128   0.0840934), wk =   0.0078125
        k(  133) = (   0.2500000  -0.4330128   0.1681867), wk =   0.0078125
        k(  134) = (   0.2500000  -0.4330128   0.2522801), wk =   0.0078125
        k(  135) = (   0.2500000  -0.4330128  -0.3363734), wk =   0.0078125
        k(  136) = (   0.2500000  -0.4330128  -0.2522801), wk =   0.0078125
        k(  137) = (   0.2500000  -0.4330128  -0.1681867), wk =   0.0078125
        k(  138) = (   0.2500000  -0.4330128  -0.0840934), wk =   0.0078125
        k(  139) = (   0.2500000  -0.2886752   0.0000000), wk =   0.0078125
        k(  140) = (   0.2500000  -0.2886752   0.0840934), wk =   0.0078125
        k(  141) = (   0.2500000  -0.2886752   0.1681867), wk =   0.0078125
        k(  142) = (   0.2500000  -0.2886752   0.2522801), wk =   0.0078125
        k(  143) = (   0.2500000  -0.2886752  -0.3363734), wk =   0.0078125
        k(  144) = (   0.2500000  -0.2886752  -0.2522801), wk =   0.0078125
        k(  145) = (   0.2500000  -0.2886752  -0.1681867), wk =   0.0078125
        k(  146) = (   0.2500000  -0.2886752  -0.0840934), wk =   0.0078125
        k(  147) = (   0.2500000  -0.1443376   0.0000000), wk =   0.0078125
        k(  148) = (   0.2500000  -0.1443376   0.0840934), wk =   0.0078125
        k(  149) = (   0.2500000  -0.1443376   0.1681867), wk =   0.0078125
        k(  150) = (   0.2500000  -0.1443376   0.2522801), wk =   0.0078125
        k(  151) = (   0.2500000  -0.1443376  -0.3363734), wk =   0.0078125
        k(  152) = (   0.2500000  -0.1443376  -0.2522801), wk =   0.0078125
        k(  153) = (   0.2500000  -0.1443376  -0.1681867), wk =   0.0078125
        k(  154) = (   0.2500000  -0.1443376  -0.0840934), wk =   0.0078125
        k(  155) = (   0.2500000  -0.0000000   0.0000000), wk =   0.0078125
        k(  156) = (   0.2500000  -0.0000000   0.0840934), wk =   0.0078125
        k(  157) = (   0.2500000  -0.0000000   0.1681867), wk =   0.0078125
        k(  158) = (   0.2500000  -0.0000000   0.2522801), wk =   0.0078125
        k(  159) = (   0.2500000  -0.0000000  -0.3363734), wk =   0.0078125
        k(  160) = (   0.2500000  -0.0000000  -0.2522801), wk =   0.0078125
        k(  161) = (   0.2500000  -0.0000000  -0.1681867), wk =   0.0078125
        k(  162) = (   0.2500000  -0.0000000  -0.0840934), wk =   0.0078125
        k(  163) = (   0.3750000   0.2165063   0.0000000), wk =   0.0078125
        k(  164) = (   0.3750000   0.2165063   0.0840934), wk =   0.0078125
        k(  165) = (   0.3750000   0.2165063   0.1681867), wk =   0.0078125
        k(  166) = (   0.3750000   0.2165063   0.2522801), wk =   0.0078125
        k(  167) = (   0.3750000   0.2165063  -0.3363734), wk =   0.0078125
        k(  168) = (   0.3750000   0.2165063  -0.2522801), wk =   0.0078125
        k(  169) = (   0.3750000   0.2165063  -0.1681867), wk =   0.0078125
        k(  170) = (   0.3750000   0.2165063  -0.0840933), wk =   0.0078125
        k(  171) = (   0.3750000   0.3608439   0.0000000), wk =   0.0078125
        k(  172) = (   0.3750000   0.3608439   0.0840934), wk =   0.0078125
        k(  173) = (   0.3750000   0.3608439   0.1681867), wk =   0.0078125
        k(  174) = (   0.3750000   0.3608439   0.2522801), wk =   0.0078125
        k(  175) = (   0.3750000   0.3608439  -0.3363734), wk =   0.0078125
        k(  176) = (   0.3750000   0.3608439  -0.2522801), wk =   0.0078125
        k(  177) = (   0.3750000   0.3608439  -0.1681867), wk =   0.0078125
        k(  178) = (   0.3750000   0.3608439  -0.0840933), wk =   0.0078125
        k(  179) = (   0.3750000   0.5051815   0.0000000), wk =   0.0078125
        k(  180) = (   0.3750000   0.5051815   0.0840934), wk =   0.0078125
        k(  181) = (   0.3750000   0.5051815   0.1681867), wk =   0.0078125
        k(  182) = (   0.3750000   0.5051815   0.2522801), wk =   0.0078125
        k(  183) = (   0.3750000   0.5051815  -0.3363734), wk =   0.0078125
        k(  184) = (   0.3750000   0.5051815  -0.2522801), wk =   0.0078125
        k(  185) = (   0.3750000   0.5051815  -0.1681867), wk =   0.0078125
        k(  186) = (   0.3750000   0.5051815  -0.0840933), wk =   0.0078125
        k(  187) = (   0.3750000   0.6495191   0.0000000), wk =   0.0078125
        k(  188) = (   0.3750000   0.6495191   0.0840934), wk =   0.0078125
        k(  189) = (   0.3750000   0.6495191   0.1681867), wk =   0.0078125
        k(  190) = (   0.3750000   0.6495191   0.2522801), wk =   0.0078125
        k(  191) = (   0.3750000   0.6495191  -0.3363734), wk =   0.0078125
        k(  192) = (   0.3750000   0.6495191  -0.2522801), wk =   0.0078125
        k(  193) = (   0.3750000   0.6495191  -0.1681867), wk =   0.0078125
        k(  194) = (   0.3750000   0.6495191  -0.0840933), wk =   0.0078125
        k(  195) = (   0.3750000  -0.3608440   0.0000000), wk =   0.0078125
        k(  196) = (   0.3750000  -0.3608440   0.0840934), wk =   0.0078125
        k(  197) = (   0.3750000  -0.3608440   0.1681867), wk =   0.0078125
        k(  198) = (   0.3750000  -0.3608440   0.2522801), wk =   0.0078125
        k(  199) = (   0.3750000  -0.3608440  -0.3363734), wk =   0.0078125
        k(  200) = (   0.3750000  -0.3608440  -0.2522801), wk =   0.0078125
        k(  201) = (   0.3750000  -0.3608440  -0.1681867), wk =   0.0078125
        k(  202) = (   0.3750000  -0.3608440  -0.0840933), wk =   0.0078125
        k(  203) = (   0.3750000  -0.2165064   0.0000000), wk =   0.0078125
        k(  204) = (   0.3750000  -0.2165064   0.0840934), wk =   0.0078125
        k(  205) = (   0.3750000  -0.2165064   0.1681867), wk =   0.0078125
        k(  206) = (   0.3750000  -0.2165064   0.2522801), wk =   0.0078125
        k(  207) = (   0.3750000  -0.2165064  -0.3363734), wk =   0.0078125
        k(  208) = (   0.3750000  -0.2165064  -0.2522801), wk =   0.0078125
        k(  209) = (   0.3750000  -0.2165064  -0.1681867), wk =   0.0078125
        k(  210) = (   0.3750000  -0.2165064  -0.0840933), wk =   0.0078125
        k(  211) = (   0.3750000  -0.0721688   0.0000000), wk =   0.0078125
        k(  212) = (   0.3750000  -0.0721688   0.0840934), wk =   0.0078125
        k(  213) = (   0.3750000  -0.0721688   0.1681867), wk =   0.0078125
        k(  214) = (   0.3750000  -0.0721688   0.2522801), wk =   0.0078125
        k(  215) = (   0.3750000  -0.0721688  -0.3363734), wk =   0.0078125
        k(  216) = (   0.3750000  -0.0721688  -0.2522801), wk =   0.0078125
        k(  217) = (   0.3750000  -0.0721688  -0.1681867), wk =   0.0078125
        k(  218) = (   0.3750000  -0.0721688  -0.0840933), wk =   0.0078125
        k(  219) = (   0.3750000   0.0721688   0.0000000), wk =   0.0078125
        k(  220) = (   0.3750000   0.0721688   0.0840934), wk =   0.0078125
        k(  221) = (   0.3750000   0.0721688   0.1681867), wk =   0.0078125
        k(  222) = (   0.3750000   0.0721688   0.2522801), wk =   0.0078125
        k(  223) = (   0.3750000   0.0721688  -0.3363734), wk =   0.0078125
        k(  224) = (   0.3750000   0.0721688  -0.2522801), wk =   0.0078125
        k(  225) = (   0.3750000   0.0721688  -0.1681867), wk =   0.0078125
        k(  226) = (   0.3750000   0.0721688  -0.0840933), wk =   0.0078125
        k(  227) = (  -0.5000000  -0.2886751  -0.0000000), wk =   0.0039062
        k(  228) = (  -0.5000000  -0.2886751   0.0840933), wk =   0.0078125
        k(  229) = (  -0.5000000  -0.2886751   0.1681867), wk =   0.0078125
        k(  230) = (  -0.5000000  -0.2886751   0.2522801), wk =   0.0078125
        k(  231) = (  -0.5000000  -0.2886751  -0.3363735), wk =   0.0039062
        k(  232) = (  -0.5000000  -0.1443375  -0.0000000), wk =   0.0078125
        k(  233) = (  -0.5000000  -0.1443375   0.0840933), wk =   0.0078125
        k(  234) = (  -0.5000000  -0.1443375   0.1681867), wk =   0.0078125
        k(  235) = (  -0.5000000  -0.1443375   0.2522801), wk =   0.0078125
        k(  236) = (  -0.5000000  -0.1443375  -0.3363735), wk =   0.0078125
        k(  237) = (  -0.5000000  -0.1443375  -0.2522801), wk =   0.0078125
        k(  238) = (  -0.5000000  -0.1443375  -0.1681867), wk =   0.0078125
        k(  239) = (  -0.5000000  -0.1443375  -0.0840934), wk =   0.0078125
        k(  240) = (  -0.5000000   0.0000000  -0.0000000), wk =   0.0078125
        k(  241) = (  -0.5000000   0.0000000   0.0840933), wk =   0.0078125
        k(  242) = (  -0.5000000   0.0000000   0.1681867), wk =   0.0078125
        k(  243) = (  -0.5000000   0.0000000   0.2522801), wk =   0.0078125
        k(  244) = (  -0.5000000   0.0000000  -0.3363735), wk =   0.0078125
        k(  245) = (  -0.5000000   0.0000000  -0.2522801), wk =   0.0078125
        k(  246) = (  -0.5000000   0.0000000  -0.1681867), wk =   0.0078125
        k(  247) = (  -0.5000000   0.0000000  -0.0840934), wk =   0.0078125
        k(  248) = (  -0.5000000   0.1443376  -0.0000000), wk =   0.0078125
        k(  249) = (  -0.5000000   0.1443376   0.0840933), wk =   0.0078125
        k(  250) = (  -0.5000000   0.1443376   0.1681867), wk =   0.0078125
        k(  251) = (  -0.5000000   0.1443376   0.2522801), wk =   0.0078125
        k(  252) = (  -0.5000000   0.1443376  -0.3363735), wk =   0.0078125
        k(  253) = (  -0.5000000   0.1443376  -0.2522801), wk =   0.0078125
        k(  254) = (  -0.5000000   0.1443376  -0.1681867), wk =   0.0078125
        k(  255) = (  -0.5000000   0.1443376  -0.0840934), wk =   0.0078125
        k(  256) = (  -0.5000000  -0.8660254  -0.0000000), wk =   0.0039062
        k(  257) = (  -0.5000000  -0.8660254   0.0840933), wk =   0.0078125
        k(  258) = (  -0.5000000  -0.8660254   0.1681867), wk =   0.0078125
        k(  259) = (  -0.5000000  -0.8660254   0.2522801), wk =   0.0078125
        k(  260) = (  -0.5000000  -0.8660254  -0.3363735), wk =   0.0039062

                       cryst. coord.
        k(    1) = (   0.0000000   0.0000000   0.0000000), wk =   0.0039062
        k(    2) = (   0.0000000  -0.0000000   0.1250000), wk =   0.0078125
        k(    3) = (   0.0000000  -0.0000000   0.2500000), wk =   0.0078125
        k(    4) = (   0.0000000  -0.0000000   0.3750000), wk =   0.0078125
        k(    5) = (  -0.0000000   0.0000000  -0.5000000), wk =   0.0039062
        k(    6) = (   0.0000000   0.1250000  -0.0000000), wk =   0.0078125
        k(    7) = (  -0.0000000   0.1250000   0.1250000), wk =   0.0078125
        k(    8) = (   0.0000000   0.1250000   0.2500000), wk =   0.0078125
        k(    9) = (  -0.0000000   0.1250000   0.3750000), wk =   0.0078125
        k(   10) = (   0.0000000   0.1250000  -0.5000000), wk =   0.0078125
        k(   11) = (   0.0000000   0.1250000  -0.3750000), wk =   0.0078125
        k(   12) = (  -0.0000000   0.1250000  -0.2500000), wk =   0.0078125
        k(   13) = (  -0.0000000   0.1250000  -0.1250000), wk =   0.0078125
        k(   14) = (   0.0000000   0.2500000  -0.0000000), wk =   0.0078125
        k(   15) = (  -0.0000000   0.2500000   0.1250000), wk =   0.0078125
        k(   16) = (  -0.0000000   0.2500000   0.2500000), wk =   0.0078125
        k(   17) = (   0.0000000   0.2500000   0.3750000), wk =   0.0078125
        k(   18) = (  -0.0000000   0.2500000  -0.5000000), wk =   0.0078125
        k(   19) = (  -0.0000000   0.2500000  -0.3750000), wk =   0.0078125
        k(   20) = (  -0.0000000   0.2500000  -0.2500000), wk =   0.0078125
        k(   21) = (   0.0000000   0.2500000  -0.1250000), wk =   0.0078125
        k(   22) = (  -0.0000000   0.3750000   0.0000000), wk =   0.0078125
        k(   23) = (  -0.0000000   0.3750000   0.1250000), wk =   0.0078125
        k(   24) = (  -0.0000000   0.3750000   0.2500000), wk =   0.0078125
        k(   25) = (  -0.0000000   0.3750000   0.3750000), wk =   0.0078125
        k(   26) = (  -0.0000000   0.3750000  -0.5000000), wk =   0.0078125
        k(   27) = (  -0.0000000   0.3750000  -0.3750000), wk =   0.0078125
        k(   28) = (   0.0000000   0.3750000  -0.2500000), wk =   0.0078125
        k(   29) = (  -0.0000000   0.3750000  -0.1250000), wk =   0.0078125
        k(   30) = (  -0.0000000  -0.5000000   0.0000000), wk =   0.0039062
        k(   31) = (   0.0000000  -0.5000000   0.1250000), wk =   0.0078125
        k(   32) = (  -0.0000000  -0.5000000   0.2500000), wk =   0.0078125
        k(   33) = (  -0.0000000  -0.5000000   0.3750000), wk =   0.0078125
        k(   34) = (   0.0000000  -0.5000000  -0.5000000), wk =   0.0039062
        k(   35) = (   0.1250000  -0.0000000   0.0000000), wk =   0.0078125
        k(   36) = (   0.1250000  -0.0000000   0.1250000), wk =   0.0078125
        k(   37) = (   0.1250000  -0.0000000   0.2500000), wk =   0.0078125
        k(   38) = (   0.1250000   0.0000000   0.3750000), wk =   0.0078125
        k(   39) = (   0.1250000   0.0000000  -0.5000000), wk =   0.0078125
        k(   40) = (   0.1250000   0.0000000  -0.3750000), wk =   0.0078125
        k(   41) = (   0.1250000  -0.0000000  -0.2500000), wk =   0.0078125
        k(   42) = (   0.1250000  -0.0000000  -0.1250000), wk =   0.0078125
        k(   43) = (   0.1250000   0.1250000   0.0000000), wk =   0.0078125
        k(   44) = (   0.1250000   0.1250000   0.1250000), wk =   0.0078125
        k(   45) = (   0.1250000   0.1250000   0.2500000), wk =   0.0078125
        k(   46) = (   0.1250000   0.1250000   0.3750000), wk =   0.0078125
        k(   47) = (   0.1250000   0.1250000  -0.5000000), wk =   0.0078125
        k(   48) = (   0.1250000   0.1250000  -0.3750000), wk =   0.0078125
        k(   49) = (   0.1250000   0.1250000  -0.2500000), wk =   0.0078125
        k(   50) = (   0.1250000   0.1250000  -0.1250000), wk =   0.0078125
        k(   51) = (   0.1250000   0.2500000   0.0000000), wk =   0.0078125
        k(   52) = (   0.1250000   0.2500000   0.1250000), wk =   0.0078125
        k(   53) = (   0.1250000   0.2500000   0.2500000), wk =   0.0078125
        k(   54) = (   0.1250000   0.2500000   0.3750000), wk =   0.0078125
        k(   55) = (   0.1250000   0.2500000  -0.5000000), wk =   0.0078125
        k(   56) = (   0.1250000   0.2500000  -0.3750000), wk =   0.0078125
        k(   57) = (   0.1250000   0.2500000  -0.2500000), wk =   0.0078125
        k(   58) = (   0.1250000   0.2500000  -0.1250000), wk =   0.0078125
        k(   59) = (   0.1250000   0.3750000   0.0000000), wk =   0.0078125
        k(   60) = (   0.1250000   0.3750000   0.1250000), wk =   0.0078125
        k(   61) = (   0.1250000   0.3750000   0.2500000), wk =   0.0078125
        k(   62) = (   0.1250000   0.3750000   0.3750000), wk =   0.0078125
        k(   63) = (   0.1250000   0.3750000  -0.5000000), wk =   0.0078125
        k(   64) = (   0.1250000   0.3750000  -0.3750000), wk =   0.0078125
        k(   65) = (   0.1250000   0.3750000  -0.2500000), wk =   0.0078125
        k(   66) = (   0.1250000   0.3750000  -0.1250000), wk =   0.0078125
        k(   67) = (   0.1250000  -0.5000000   0.0000000), wk =   0.0078125
        k(   68) = (   0.1250000  -0.5000000   0.1250000), wk =   0.0078125
        k(   69) = (   0.1250000  -0.5000000   0.2500000), wk =   0.0078125
        k(   70) = (   0.1250000  -0.5000000   0.3750000), wk =   0.0078125
        k(   71) = (   0.1250000  -0.5000000  -0.5000000), wk =   0.0078125
        k(   72) = (   0.1250000  -0.5000000  -0.3750000), wk =   0.0078125
        k(   73) = (   0.1250000  -0.5000000  -0.2500000), wk =   0.0078125
        k(   74) = (   0.1250000  -0.5000000  -0.1250000), wk =   0.0078125
        k(   75) = (   0.1250000  -0.3750000   0.0000000), wk =   0.0078125
        k(   76) = (   0.1250000  -0.3750000   0.1250000), wk =   0.0078125
        k(   77) = (   0.1250000  -0.3750000   0.2500000), wk =   0.0078125
        k(   78) = (   0.1250000  -0.3750000   0.3750000), wk =   0.0078125
        k(   79) = (   0.1250000  -0.3750000  -0.5000000), wk =   0.0078125
        k(   80) = (   0.1250000  -0.3750000  -0.3750000), wk =   0.0078125
        k(   81) = (   0.1250000  -0.3750000  -0.2500000), wk =   0.0078125
        k(   82) = (   0.1250000  -0.3750000  -0.1250000), wk =   0.0078125
        k(   83) = (   0.1250000  -0.2500000   0.0000000), wk =   0.0078125
        k(   84) = (   0.1250000  -0.2500000   0.1250000), wk =   0.0078125
        k(   85) = (   0.1250000  -0.2500000   0.2500000), wk =   0.0078125
        k(   86) = (   0.1250000  -0.2500000   0.3750000), wk =   0.0078125
        k(   87) = (   0.1250000  -0.2500000  -0.5000000), wk =   0.0078125
        k(   88) = (   0.1250000  -0.2500000  -0.3750000), wk =   0.0078125
        k(   89) = (   0.1250000  -0.2500000  -0.2500000), wk =   0.0078125
        k(   90) = (   0.1250000  -0.2500000  -0.1250000), wk =   0.0078125
        k(   91) = (   0.1250000  -0.1250000   0.0000000), wk =   0.0078125
        k(   92) = (   0.1250000  -0.1250000   0.1250000), wk =   0.0078125
        k(   93) = (   0.1250000  -0.1250000   0.2500000), wk =   0.0078125
        k(   94) = (   0.1250000  -0.1250000   0.3750000), wk =   0.0078125
        k(   95) = (   0.1250000  -0.1250000  -0.5000000), wk =   0.0078125
        k(   96) = (   0.1250000  -0.1250000  -0.3750000), wk =   0.0078125
        k(   97) = (   0.1250000  -0.1250000  -0.2500000), wk =   0.0078125
        k(   98) = (   0.1250000  -0.1250000  -0.1250000), wk =   0.0078125
        k(   99) = (   0.2500000  -0.0000000   0.0000000), wk =   0.0078125
        k(  100) = (   0.2500000  -0.0000000   0.1250000), wk =   0.0078125
        k(  101) = (   0.2500000  -0.0000000   0.2500000), wk =   0.0078125
        k(  102) = (   0.2500000  -0.0000000   0.3750000), wk =   0.0078125
        k(  103) = (   0.2500000  -0.0000000  -0.5000000), wk =   0.0078125
        k(  104) = (   0.2500000  -0.0000000  -0.3750000), wk =   0.0078125
        k(  105) = (   0.2500000  -0.0000000  -0.2500000), wk =   0.0078125
        k(  106) = (   0.2500000   0.0000000  -0.1250000), wk =   0.0078125
        k(  107) = (   0.2500000   0.1250000   0.0000000), wk =   0.0078125
        k(  108) = (   0.2500000   0.1250000   0.1250000), wk =   0.0078125
        k(  109) = (   0.2500000   0.1250000   0.2500000), wk =   0.0078125
        k(  110) = (   0.2500000   0.1250000   0.3750000), wk =   0.0078125
        k(  111) = (   0.2500000   0.1250000  -0.5000000), wk =   0.0078125
        k(  112) = (   0.2500000   0.1250000  -0.3750000), wk =   0.0078125
        k(  113) = (   0.2500000   0.1250000  -0.2500000), wk =   0.0078125
        k(  114) = (   0.2500000   0.1250000  -0.1250000), wk =   0.0078125
        k(  115) = (   0.2500000   0.2500000   0.0000000), wk =   0.0078125
        k(  116) = (   0.2500000   0.2500000   0.1250000), wk =   0.0078125
        k(  117) = (   0.2500000   0.2500000   0.2500000), wk =   0.0078125
        k(  118) = (   0.2500000   0.2500000   0.3750000), wk =   0.0078125
        k(  119) = (   0.2500000   0.2500000  -0.5000000), wk =   0.0078125
        k(  120) = (   0.2500000   0.2500000  -0.3750000), wk =   0.0078125
        k(  121) = (   0.2500000   0.2500000  -0.2500000), wk =   0.0078125
        k(  122) = (   0.2500000   0.2500000  -0.1250000), wk =   0.0078125
        k(  123) = (   0.2500000   0.3750000   0.0000000), wk =   0.0078125
        k(  124) = (   0.2500000   0.3750000   0.1250000), wk =   0.0078125
        k(  125) = (   0.2500000   0.3750000   0.2500000), wk =   0.0078125
        k(  126) = (   0.2500000   0.3750000   0.3750000), wk =   0.0078125
        k(  127) = (   0.2500000   0.3750000  -0.5000000), wk =   0.0078125
        k(  128) = (   0.2500000   0.3750000  -0.3750000), wk =   0.0078125
        k(  129) = (   0.2500000   0.3750000  -0.2500000), wk =   0.0078125
        k(  130) = (   0.2500000   0.3750000  -0.1250000), wk =   0.0078125
        k(  131) = (   0.2500000  -0.5000000   0.0000000), wk =   0.0078125
        k(  132) = (   0.2500000  -0.5000000   0.1250000), wk =   0.0078125
        k(  133) = (   0.2500000  -0.5000000   0.2500000), wk =   0.0078125
        k(  134) = (   0.2500000  -0.5000000   0.3750000), wk =   0.0078125
        k(  135) = (   0.2500000  -0.5000000  -0.5000000), wk =   0.0078125
        k(  136) = (   0.2500000  -0.5000000  -0.3750000), wk =   0.0078125
        k(  137) = (   0.2500000  -0.5000000  -0.2500000), wk =   0.0078125
        k(  138) = (   0.2500000  -0.5000000  -0.1250000), wk =   0.0078125
        k(  139) = (   0.2500000  -0.3750000   0.0000000), wk =   0.0078125
        k(  140) = (   0.2500000  -0.3750000   0.1250000), wk =   0.0078125
        k(  141) = (   0.2500000  -0.3750000   0.2500000), wk =   0.0078125
        k(  142) = (   0.2500000  -0.3750000   0.3750000), wk =   0.0078125
        k(  143) = (   0.2500000  -0.3750000  -0.5000000), wk =   0.0078125
        k(  144) = (   0.2500000  -0.3750000  -0.3750000), wk =   0.0078125
        k(  145) = (   0.2500000  -0.3750000  -0.2500000), wk =   0.0078125
        k(  146) = (   0.2500000  -0.3750000  -0.1250000), wk =   0.0078125
        k(  147) = (   0.2500000  -0.2500000   0.0000000), wk =   0.0078125
        k(  148) = (   0.2500000  -0.2500000   0.1250000), wk =   0.0078125
        k(  149) = (   0.2500000  -0.2500000   0.2500000), wk =   0.0078125
        k(  150) = (   0.2500000  -0.2500000   0.3750000), wk =   0.0078125
        k(  151) = (   0.2500000  -0.2500000  -0.5000000), wk =   0.0078125
        k(  152) = (   0.2500000  -0.2500000  -0.3750000), wk =   0.0078125
        k(  153) = (   0.2500000  -0.2500000  -0.2500000), wk =   0.0078125
        k(  154) = (   0.2500000  -0.2500000  -0.1250000), wk =   0.0078125
        k(  155) = (   0.2500000  -0.1250000   0.0000000), wk =   0.0078125
        k(  156) = (   0.2500000  -0.1250000   0.1250000), wk =   0.0078125
        k(  157) = (   0.2500000  -0.1250000   0.2500000), wk =   0.0078125
        k(  158) = (   0.2500000  -0.1250000   0.3750000), wk =   0.0078125
        k(  159) = (   0.2500000  -0.1250000  -0.5000000), wk =   0.0078125
        k(  160) = (   0.2500000  -0.1250000  -0.3750000), wk =   0.0078125
        k(  161) = (   0.2500000  -0.1250000  -0.2500000), wk =   0.0078125
        k(  162) = (   0.2500000  -0.1250000  -0.1250000), wk =   0.0078125
        k(  163) = (   0.3750000   0.0000000   0.0000000), wk =   0.0078125
        k(  164) = (   0.3750000  -0.0000000   0.1250000), wk =   0.0078125
        k(  165) = (   0.3750000   0.0000000   0.2500000), wk =   0.0078125
        k(  166) = (   0.3750000  -0.0000000   0.3750000), wk =   0.0078125
        k(  167) = (   0.3750000   0.0000000  -0.5000000), wk =   0.0078125
        k(  168) = (   0.3750000   0.0000000  -0.3750000), wk =   0.0078125
        k(  169) = (   0.3750000   0.0000000  -0.2500000), wk =   0.0078125
        k(  170) = (   0.3750000   0.0000000  -0.1250000), wk =   0.0078125
        k(  171) = (   0.3750000   0.1250000   0.0000000), wk =   0.0078125
        k(  172) = (   0.3750000   0.1250000   0.1250000), wk =   0.0078125
        k(  173) = (   0.3750000   0.1250000   0.2500000), wk =   0.0078125
        k(  174) = (   0.3750000   0.1250000   0.3750000), wk =   0.0078125
        k(  175) = (   0.3750000   0.1250000  -0.5000000), wk =   0.0078125
        k(  176) = (   0.3750000   0.1250000  -0.3750000), wk =   0.0078125
        k(  177) = (   0.3750000   0.1250000  -0.2500000), wk =   0.0078125
        k(  178) = (   0.3750000   0.1250000  -0.1250000), wk =   0.0078125
        k(  179) = (   0.3750000   0.2500000   0.0000000), wk =   0.0078125
        k(  180) = (   0.3750000   0.2500000   0.1250000), wk =   0.0078125
        k(  181) = (   0.3750000   0.2500000   0.2500000), wk =   0.0078125
        k(  182) = (   0.3750000   0.2500000   0.3750000), wk =   0.0078125
        k(  183) = (   0.3750000   0.2500000  -0.5000000), wk =   0.0078125
        k(  184) = (   0.3750000   0.2500000  -0.3750000), wk =   0.0078125
        k(  185) = (   0.3750000   0.2500000  -0.2500000), wk =   0.0078125
        k(  186) = (   0.3750000   0.2500000  -0.1250000), wk =   0.0078125
        k(  187) = (   0.3750000   0.3750000   0.0000000), wk =   0.0078125
        k(  188) = (   0.3750000   0.3750000   0.1250000), wk =   0.0078125
        k(  189) = (   0.3750000   0.3750000   0.2500000), wk =   0.0078125
        k(  190) = (   0.3750000   0.3750000   0.3750000), wk =   0.0078125
        k(  191) = (   0.3750000   0.3750000  -0.5000000), wk =   0.0078125
        k(  192) = (   0.3750000   0.3750000  -0.3750000), wk =   0.0078125
        k(  193) = (   0.3750000   0.3750000  -0.2500000), wk =   0.0078125
        k(  194) = (   0.3750000   0.3750000  -0.1250000), wk =   0.0078125
        k(  195) = (   0.3750000  -0.5000000   0.0000000), wk =   0.0078125
        k(  196) = (   0.3750000  -0.5000000   0.1250000), wk =   0.0078125
        k(  197) = (   0.3750000  -0.5000000   0.2500000), wk =   0.0078125
        k(  198) = (   0.3750000  -0.5000000   0.3750000), wk =   0.0078125
        k(  199) = (   0.3750000  -0.5000000  -0.5000000), wk =   0.0078125
        k(  200) = (   0.3750000  -0.5000000  -0.3750000), wk =   0.0078125
        k(  201) = (   0.3750000  -0.5000000  -0.2500000), wk =   0.0078125
        k(  202) = (   0.3750000  -0.5000000  -0.1250000), wk =   0.0078125
        k(  203) = (   0.3750000  -0.3750000   0.0000000), wk =   0.0078125
        k(  204) = (   0.3750000  -0.3750000   0.1250000), wk =   0.0078125
        k(  205) = (   0.3750000  -0.3750000   0.2500000), wk =   0.0078125
        k(  206) = (   0.3750000  -0.3750000   0.3750000), wk =   0.0078125
        k(  207) = (   0.3750000  -0.3750000  -0.5000000), wk =   0.0078125
        k(  208) = (   0.3750000  -0.3750000  -0.3750000), wk =   0.0078125
        k(  209) = (   0.3750000  -0.3750000  -0.2500000), wk =   0.0078125
        k(  210) = (   0.3750000  -0.3750000  -0.1250000), wk =   0.0078125
        k(  211) = (   0.3750000  -0.2500000   0.0000000), wk =   0.0078125
        k(  212) = (   0.3750000  -0.2500000   0.1250000), wk =   0.0078125
        k(  213) = (   0.3750000  -0.2500000   0.2500000), wk =   0.0078125
        k(  214) = (   0.3750000  -0.2500000   0.3750000), wk =   0.0078125
        k(  215) = (   0.3750000  -0.2500000  -0.5000000), wk =   0.0078125
        k(  216) = (   0.3750000  -0.2500000  -0.3750000), wk =   0.0078125
        k(  217) = (   0.3750000  -0.2500000  -0.2500000), wk =   0.0078125
        k(  218) = (   0.3750000  -0.2500000  -0.1250000), wk =   0.0078125
        k(  219) = (   0.3750000  -0.1250000   0.0000000), wk =   0.0078125
        k(  220) = (   0.3750000  -0.1250000   0.1250000), wk =   0.0078125
        k(  221) = (   0.3750000  -0.1250000   0.2500000), wk =   0.0078125
        k(  222) = (   0.3750000  -0.1250000   0.3750000), wk =   0.0078125
        k(  223) = (   0.3750000  -0.1250000  -0.5000000), wk =   0.0078125
        k(  224) = (   0.3750000  -0.1250000  -0.3750000), wk =   0.0078125
        k(  225) = (   0.3750000  -0.1250000  -0.2500000), wk =   0.0078125
        k(  226) = (   0.3750000  -0.1250000  -0.1250000), wk =   0.0078125
        k(  227) = (  -0.5000000   0.0000000  -0.0000000), wk =   0.0039062
        k(  228) = (  -0.5000000  -0.0000000   0.1250000), wk =   0.0078125
        k(  229) = (  -0.5000000  -0.0000000   0.2500000), wk =   0.0078125
        k(  230) = (  -0.5000000  -0.0000000   0.3750000), wk =   0.0078125
        k(  231) = (  -0.5000000   0.0000000  -0.5000000), wk =   0.0039062
        k(  232) = (  -0.5000000   0.1250000  -0.0000000), wk =   0.0078125
        k(  233) = (  -0.5000000   0.1250000   0.1250000), wk =   0.0078125
        k(  234) = (  -0.5000000   0.1250000   0.2500000), wk =   0.0078125
        k(  235) = (  -0.5000000   0.1250000   0.3750000), wk =   0.0078125
        k(  236) = (  -0.5000000   0.1250000  -0.5000000), wk =   0.0078125
        k(  237) = (  -0.5000000   0.1250000  -0.3750000), wk =   0.0078125
        k(  238) = (  -0.5000000   0.1250000  -0.2500000), wk =   0.0078125
        k(  239) = (  -0.5000000   0.1250000  -0.1250000), wk =   0.0078125
        k(  240) = (  -0.5000000   0.2500000  -0.0000000), wk =   0.0078125
        k(  241) = (  -0.5000000   0.2500000   0.1250000), wk =   0.0078125
        k(  242) = (  -0.5000000   0.2500000   0.2500000), wk =   0.0078125
        k(  243) = (  -0.5000000   0.2500000   0.3750000), wk =   0.0078125
        k(  244) = (  -0.5000000   0.2500000  -0.5000000), wk =   0.0078125
        k(  245) = (  -0.5000000   0.2500000  -0.3750000), wk =   0.0078125
        k(  246) = (  -0.5000000   0.2500000  -0.2500000), wk =   0.0078125
        k(  247) = (  -0.5000000   0.2500000  -0.1250000), wk =   0.0078125
        k(  248) = (  -0.5000000   0.3750000  -0.0000000), wk =   0.0078125
        k(  249) = (  -0.5000000   0.3750000   0.1250000), wk =   0.0078125
        k(  250) = (  -0.5000000   0.3750000   0.2500000), wk =   0.0078125
        k(  251) = (  -0.5000000   0.3750000   0.3750000), wk =   0.0078125
        k(  252) = (  -0.5000000   0.3750000  -0.5000000), wk =   0.0078125
        k(  253) = (  -0.5000000   0.3750000  -0.3750000), wk =   0.0078125
        k(  254) = (  -0.5000000   0.3750000  -0.2500000), wk =   0.0078125
        k(  255) = (  -0.5000000   0.3750000  -0.1250000), wk =   0.0078125
        k(  256) = (  -0.5000000  -0.5000000  -0.0000000), wk =   0.0039062
        k(  257) = (  -0.5000000  -0.5000000   0.1250000), wk =   0.0078125
        k(  258) = (  -0.5000000  -0.5000000   0.2500000), wk =   0.0078125
        k(  259) = (  -0.5000000  -0.5000000   0.3750000), wk =   0.0078125
        k(  260) = (  -0.5000000  -0.5000000  -0.5000000), wk =   0.0039062

     Dense  grid:    78355 G-vectors     FFT dimensions: (  50,  50,  80)

     Smooth grid:    30443 G-vectors     FFT dimensions: (  36,  36,  54)

     Dynamical RAM for                 wfc:       0.09 MB

     Dynamical RAM for     wfc (w. buffer):       6.23 MB

     Dynamical RAM for           str. fact:       0.15 MB

     Dynamical RAM for           local pot:       0.00 MB

     Dynamical RAM for          nlocal pot:       0.23 MB

     Dynamical RAM for                qrad:       7.83 MB

     Dynamical RAM for          rho,v,vnew:       0.51 MB

     Dynamical RAM for               rhoin:       0.17 MB

     Dynamical RAM for            rho*nmix:       1.20 MB

     Dynamical RAM for           G-vectors:       0.29 MB

     Dynamical RAM for          h,s,v(r/c):       0.12 MB

     Dynamical RAM for          <psi|beta>:       0.02 MB

     Dynamical RAM for                 psi:       0.38 MB

     Dynamical RAM for                hpsi:       0.38 MB

     Dynamical RAM for                spsi:       0.38 MB

     Dynamical RAM for      wfcinit/wfcrot:       0.27 MB

     Dynamical RAM for           addusdens:       3.57 MB

     Dynamical RAM for          addusforce:       3.72 MB

     Dynamical RAM for         addusstress:       3.79 MB

     Estimated static dynamical RAM per process >      17.31 MB

     Estimated max dynamical RAM per process >      21.10 MB

     Estimated total dynamical RAM >       1.32 GB

     Check: negative core charge=   -0.000003

     Initial potential from superposition of free atoms

     starting charge   51.99974, renormalised to   52.00000
     Starting wfcs are   34 randomized atomic wfcs

     total cpu time spent up to now is        2.8 secs

     Self-consistent Calculation

     iteration #  1     ecut=    80.00 Ry     beta= 0.50
     Davidson diagonalization with overlap
     ethr =  1.00E-02,  avg # of iterations =  1.0

     total cpu time spent up to now is        3.7 secs

     total energy              =    -986.76120202 Ry
     Harris-Foulkes estimate   =    -987.28322414 Ry
     estimated scf accuracy    <       0.82098042 Ry

     iteration #  2     ecut=    80.00 Ry     beta= 0.50
     Davidson diagonalization with overlap
     ethr =  1.58E-03,  avg # of iterations =  3.0

     total cpu time spent up to now is        5.0 secs

     total energy              =    -987.00300086 Ry
     Harris-Foulkes estimate   =    -987.17074289 Ry
     estimated scf accuracy    <       0.38712222 Ry

     iteration #  3     ecut=    80.00 Ry     beta= 0.50
     Davidson diagonalization with overlap
     ethr =  7.44E-04,  avg # of iterations =  2.1

     total cpu time spent up to now is        6.1 secs

     total energy              =    -987.07265798 Ry
     Harris-Foulkes estimate   =    -987.07494564 Ry
     estimated scf accuracy    <       0.00685028 Ry

     iteration #  4     ecut=    80.00 Ry     beta= 0.50
     Davidson diagonalization with overlap
     ethr =  1.32E-05,  avg # of iterations =  2.0

     total cpu time spent up to now is        7.2 secs

     total energy              =    -987.07324314 Ry
     Harris-Foulkes estimate   =    -987.07369417 Ry
     estimated scf accuracy    <       0.00153452 Ry

     iteration #  5     ecut=    80.00 Ry     beta= 0.50
     Davidson diagonalization with overlap
     ethr =  2.95E-06,  avg # of iterations =  2.0

     total cpu time spent up to now is        8.2 secs

     total energy              =    -987.07340317 Ry
     Harris-Foulkes estimate   =    -987.07341253 Ry
     estimated scf accuracy    <       0.00001833 Ry

     iteration #  6     ecut=    80.00 Ry     beta= 0.50
     Davidson diagonalization with overlap
     ethr =  3.53E-08,  avg # of iterations =  2.0

     total cpu time spent up to now is        9.3 secs

     total energy              =    -987.07340623 Ry
     Harris-Foulkes estimate   =    -987.07340546 Ry
     estimated scf accuracy    <       0.00000354 Ry

     iteration #  7     ecut=    80.00 Ry     beta= 0.50
     Davidson diagonalization with overlap
     ethr =  6.82E-09,  avg # of iterations =  2.0

     total cpu time spent up to now is       10.2 secs

     End of self-consistent calculation

          k = 0.0000 0.0000 0.0000 (  3765 PWs)   bands (ev):

  -114.2103-114.2100 -68.5989 -68.5944 -68.5549 -68.5549 -68.5539 -68.5539
    -9.1450  -8.2462   3.0358   3.0358   3.0896   3.0896   3.5550   3.6801
     4.3091   4.3091   4.5803   4.5803   4.9618   8.1954   8.1954   8.5369
     8.8936   8.8936

     occupation numbers 
     1.0000   1.0000   1.0000   1.0000   1.0000   1.0000   1.0000   1.0000
     1.0000   1.0000   1.0000   1.0000   1.0000   1.0000   1.0000   1.0000
     1.0000   1.0000   1.0000   1.0000   1.0000   1.0000   1.0000   1.0000
     1.0000   1.0000

          k = 0.0000-0.0000 0.0841 (  3789 PWs)   bands (ev):

  -114.2103-114.2101 -68.5987 -68.5946 -68.5549 -68.5549 -68.5540 -68.5540
    -9.1122  -8.2817   3.0325   3.0325   3.0824   3.0824   3.4509   3.6299
     4.3250   4.3250   4.5754   4.5754   5.1703   8.2237   8.2237   8.2250
     8.8693   8.8693

     occupation numbers 
     1.0000   1.0000   1.0000   1.0000   1.0000   1.0000   1.0000   1.0000
     1.0000   1.0000   1.0000   1.0000   1.0000   1.0000   1.0000   1.0000
     1.0000   1.0000   1.0000   1.0000   1.0000   1.0000   1.0000   1.0000
     1.0000   1.0000

          k = 0.0000-0.0000 0.1682 (  3788 PWs)   bands (ev):

  -114.2103-114.2101 -68.5982 -68.5951 -68.5548 -68.5548 -68.5541 -68.5541
    -9.0183  -8.3824   3.0255   3.0255   3.0641   3.0641   3.2834   3.5001
     4.3674   4.3674   4.5589   4.5589   5.6351   7.7146   8.3040   8.3040
     8.7991   8.7991

     occupation numbers 
     1.0000   1.0000   1.0000   1.0000   1.0000   1.0000   1.0000   1.0000
     1.0000   1.0000   1.0000   1.0000   1.0000   1.0000   1.0000   1.0000
     1.0000   1.0000   1.0000   1.0000   1.0000   1.0000   1.0000   1.0000
     1.0000   1.0000

          k = 0.0000-0.0000 0.2523 (  3836 PWs)   bands (ev):

  -114.2103-114.2101 -68.5976 -68.5959 -68.5547 -68.5547 -68.5543 -68.5543
    -8.8760  -8.5317   3.0219   3.0219   3.0431   3.0431   3.1973   3.3438
     4.4241   4.4241   4.5276   4.5276   6.1717   7.2090   8.4223   8.4223
     8.6908   8.6908

     occupation numbers 
     1.0000   1.0000   1.0000   1.0000   1.0000   1.0000   1.0000   1.0000
     1.0000   1.0000   1.0000   1.0000   1.0000   1.0000   1.0000   1.0000
     1.0000   1.0000   1.0000   1.0000   1.0000   1.0000   1.0000   1.0000
     1.0000   1.0000

          k =-0.0000 0.0000-0.3364 (  3842 PWs)   bands (ev):

  -114.2102-114.2102 -68.5967 -68.5967 -68.5545 -68.5545 -68.5545 -68.5545
    -8.7053  -8.7052   3.0274   3.0275   3.0275   3.0275   3.2253   3.2253
     4.4810   4.4810   4.4810   4.4810   6.7014   6.7014   8.5586   8.5586
     8.5587   8.5587

     occupation numbers 
     1.0000   1.0000   1.0000   1.0000   1.0000   1.0000   1.0000   1.0000
     1.0000   1.0000   1.0000   1.0000   1.0000   1.0000   1.0000   1.0000
     1.0000   1.0000   1.0000   1.0000   1.0000   1.0000   1.0000   1.0000
     1.0000   1.0000

          k =-0.0000 0.1443-0.0000 (  3797 PWs)   bands (ev):

  -114.2103-114.2100 -68.5987 -68.5946 -68.5552 -68.5551 -68.5542 -68.5540
    -9.0574  -8.2155   2.9567   3.0880   3.1089   3.1722   3.5673   3.7118
     4.2772   4.2962   4.5907   4.7398   4.9583   7.6287   7.9479   8.0677
     8.4703   8.7355

     occupation numbers 
     1.0000   1.0000   1.0000   1.0000   1.0000   1.0000   1.0000   1.0000
     1.0000   1.0000   1.0000   1.0000   1.0000   1.0000   1.0000   1.0000
     1.0000   1.0000   1.0000   1.0000   1.0000   1.0000   1.0000   1.0000
     1.0000   1.0000

          k =-0.0000 0.1443 0.0841 (  3801 PWs)   bands (ev):

  -114.2103-114.2101 -68.5985 -68.5947 -68.5552 -68.5550 -68.5543 -68.5540
    -9.0263  -8.2483   2.9493   3.0626   3.1059   3.1645   3.4810   3.6593
     4.3016   4.3126   4.5843   4.6696   5.2216   7.6488   7.8605   7.9799
     8.5756   8.7079

     occupation numbers 
     1.0000   1.0000   1.0000   1.0000   1.0000   1.0000   1.0000   1.0000
     1.0000   1.0000   1.0000   1.0000   1.0000   1.0000   1.0000   1.0000
     1.0000   1.0000   1.0000   1.0000   1.0000   1.0000   1.0000   1.0000
     1.0000   1.0000

          k = 0.0000 0.1443 0.1682 (  3811 PWs)   bands (ev):

  -114.2103-114.2101 -68.5981 -68.5952 -68.5551 -68.5549 -68.5544 -68.5542
    -8.9373  -8.3413   2.9284   2.9920   3.0999   3.1448   3.3545   3.5341
     4.3566   4.3608   4.5640   4.6139   5.7008   7.4300   7.8321   8.0702
     8.5996   8.6282

     occupation numbers 
     1.0000   1.0000   1.0000   1.0000   1.0000   1.0000   1.0000   1.0000
     1.0000   1.0000   1.0000   1.0000   1.0000   1.0000   1.0000   1.0000
     1.0000   1.0000   1.0000   1.0000   1.0000   1.0000   1.0000   1.0000
     1.0000   1.0000

          k = 0.0000 0.1443 0.2523 (  3810 PWs)   bands (ev):

  -114.2102-114.2101 -68.5975 -68.5959 -68.5549 -68.5547 -68.5545 -68.5543
    -8.8027  -8.4799   2.8999   2.9219   3.0977   3.1221   3.2993   3.4014
     4.4158   4.4332   4.5277   4.5640   6.2048   7.0592   8.0188   8.2034
     8.4709   8.5058

     occupation numbers 
     1.0000   1.0000   1.0000   1.0000   1.0000   1.0000   1.0000   1.0000
     1.0000   1.0000   1.0000   1.0000   1.0000   1.0000   1.0000   1.0000
     1.0000   1.0000   1.0000   1.0000   1.0000   1.0000   1.0000   1.0000
     1.0000   1.0000

          k =-0.0000 0.1443-0.3364 (  3806 PWs)   bands (ev):

  -114.2102-114.2102 -68.5967 -68.5967 -68.5547 -68.5547 -68.5546 -68.5545
    -8.6422  -8.6421   2.8908   2.8908   3.1048   3.1048   3.3164   3.3164
     4.4764   4.4764   4.5038   4.5038   6.6593   6.6594   8.2531   8.2532
     8.3567   8.3568

     occupation numbers 
     1.0000   1.0000   1.0000   1.0000   1.0000   1.0000   1.0000   1.0000
     1.0000   1.0000   1.0000   1.0000   1.0000   1.0000   1.0000   1.0000
     1.0000   1.0000   1.0000   1.0000   1.0000   1.0000   1.0000   1.0000
     1.0000   1.0000

          k =-0.0000 0.1443-0.2523 (  3810 PWs)   bands (ev):

  -114.2102-114.2101 -68.5975 -68.5959 -68.5549 -68.5547 -68.5545 -68.5543
    -8.8027  -8.4799   2.8999   2.9219   3.0977   3.1221   3.2993   3.4014
     4.4158   4.4332   4.5277   4.5640   6.2048   7.0592   8.0188   8.2034
     8.4709   8.5058

     occupation numbers 
     1.0000   1.0000   1.0000   1.0000   1.0000   1.0000   1.0000   1.0000
     1.0000   1.0000   1.0000   1.0000   1.0000   1.0000   1.0000   1.0000
     1.0000   1.0000   1.0000   1.0000   1.0000   1.0000   1.0000   1.0000
     1.0000   1.0000

          k =-0.0000 0.1443-0.1682 (  3811 PWs)   bands (ev):

  -114.2103-114.2101 -68.5981 -68.5952 -68.5551 -68.5549 -68.5544 -68.5542
    -8.9373  -8.3413   2.9284   2.9920   3.0999   3.1448   3.3545   3.5341
     4.3566   4.3608   4.5640   4.6139   5.7008   7.4300   7.8321   8.0702
     8.5996   8.6282

     occupation numbers 
     1.0000   1.0000   1.0000   1.0000   1.0000   1.0000   1.0000   1.0000
     1.0000   1.0000   1.0000   1.0000   1.0000   1.0000   1.0000   1.0000
     1.0000   1.0000   1.0000   1.0000   1.0000   1.0000   1.0000   1.0000
     1.0000   1.0000

          k =-0.0000 0.1443-0.0841 (  3801 PWs)   bands (ev):

  -114.2103-114.2101 -68.5985 -68.5947 -68.5552 -68.5550 -68.5543 -68.5540
    -9.0263  -8.2483   2.9493   3.0626   3.1059   3.1645   3.4810   3.6593
     4.3016   4.3126   4.5843   4.6696   5.2216   7.6488   7.8605   7.9799
     8.5756   8.7079

     occupation numbers 
     1.0000   1.0000   1.0000   1.0000   1.0000   1.0000   1.0000   1.0000
     1.0000   1.0000   1.0000   1.0000   1.0000   1.0000   1.0000   1.0000
     1.0000   1.0000   1.0000   1.0000   1.0000   1.0000   1.0000   1.0000
     1.0000   1.0000

          k =-0.0000 0.2887-0.0000 (  3809 PWs)   bands (ev):

  -114.2103-114.2100 -68.5982 -68.5950 -68.5558 -68.5553 -68.5550 -68.5541
    -8.8295  -8.1517   2.8240   3.0922   3.3017   3.3858   3.6491   3.7952
     4.2203   4.2902   4.6103   4.8924   5.1689   6.4819   7.0475   7.3562
     8.2652   8.3333

     occupation numbers 
     1.0000   1.0000   1.0000   1.0000   1.0000   1.0000   1.0000   1.0000
     1.0000   1.0000   1.0000   1.0000   1.0000   1.0000   1.0000   1.0000
     1.0000   1.0000   1.0000   1.0000   1.0000   1.0000   1.0000   1.0000
     1.0000   1.0000

          k =-0.0000 0.2887 0.0841 (  3803 PWs)   bands (ev):

  -114.2103-114.2100 -68.5981 -68.5951 -68.5557 -68.5552 -68.5550 -68.5541
    -8.8032  -8.1766   2.8097   3.0427   3.2995   3.3773   3.5766   3.7292
     4.2687   4.3059   4.6007   4.7983   5.4169   6.5466   6.9760   7.3966
     8.2991   8.3299

     occupation numbers 
     1.0000   1.0000   1.0000   1.0000   1.0000   1.0000   1.0000   1.0000
     1.0000   1.0000   1.0000   1.0000   1.0000   1.0000   1.0000   1.0000
     1.0000   1.0000   1.0000   1.0000   1.0000   1.0000   1.0000   1.0000
     1.0000   1.0000

          k =-0.0000 0.2887 0.1682 (  3807 PWs)   bands (ev):

  -114.2102-114.2101 -68.5978 -68.5955 -68.5556 -68.5551 -68.5550 -68.5543
    -8.7286  -8.2481   2.7705   2.9161   3.2959   3.3554   3.4690   3.6003
     4.3486   4.3652   4.5727   4.7134   5.7839   6.6075   7.0092   7.5102
     8.2005   8.3845

     occupation numbers 
     1.0000   1.0000   1.0000   1.0000   1.0000   1.0000   1.0000   1.0000
     1.0000   1.0000   1.0000   1.0000   1.0000   1.0000   1.0000   1.0000
     1.0000   1.0000   1.0000   1.0000   1.0000   1.0000   1.0000   1.0000
     1.0000   1.0000

          k =-0.0000 0.2887 0.2523 (  3817 PWs)   bands (ev):

  -114.2102-114.2101 -68.5973 -68.5960 -68.5555 -68.5552 -68.5549 -68.5545
    -8.6171  -8.3566   2.7275   2.7903   3.2972   3.3293   3.4167   3.4870
     4.4074   4.4669   4.5279   4.6413   6.0618   6.4583   7.4218   7.6760
     8.0494   8.2513

     occupation numbers 
     1.0000   1.0000   1.0000   1.0000   1.0000   1.0000   1.0000   1.0000
     1.0000   1.0000   1.0000   1.0000   1.0000   1.0000   1.0000   1.0000
     1.0000   1.0000   1.0000   1.0000   1.0000   1.0000   1.0000   1.0000
     1.0000   1.0000

          k =-0.0000 0.2887-0.3364 (  3812 PWs)   bands (ev):

  -114.2102-114.2101 -68.5967 -68.5966 -68.5553 -68.5553 -68.5547 -68.5547
    -8.4863  -8.4861   2.7244   2.7244   3.3082   3.3082   3.4235   3.4235
     4.4705   4.4705   4.5605   4.5605   6.2712   6.2712   7.8657   7.8658
     7.9004   7.9005

     occupation numbers 
     1.0000   1.0000   1.0000   1.0000   1.0000   1.0000   1.0000   1.0000
     1.0000   1.0000   1.0000   1.0000   1.0000   1.0000   1.0000   1.0000
     1.0000   1.0000   1.0000   1.0000   1.0000   1.0000   1.0000   1.0000
     1.0000   1.0000

          k =-0.0000 0.2887-0.2523 (  3817 PWs)   bands (ev):

  -114.2102-114.2101 -68.5973 -68.5960 -68.5555 -68.5552 -68.5549 -68.5545
    -8.6171  -8.3566   2.7275   2.7903   3.2972   3.3293   3.4167   3.4870
     4.4074   4.4669   4.5279   4.6413   6.0618   6.4583   7.4218   7.6760
     8.0494   8.2513

     occupation numbers 
     1.0000   1.0000   1.0000   1.0000   1.0000   1.0000   1.0000   1.0000
     1.0000   1.0000   1.0000   1.0000   1.0000   1.0000   1.0000   1.0000
     1.0000   1.0000   1.0000   1.0000   1.0000   1.0000   1.0000   1.0000
     1.0000   1.0000

          k =-0.0000 0.2887-0.1682 (  3807 PWs)   bands (ev):

  -114.2102-114.2101 -68.5978 -68.5955 -68.5556 -68.5551 -68.5550 -68.5543
    -8.7286  -8.2481   2.7705   2.9162   3.2959   3.3554   3.4690   3.6003
     4.3486   4.3652   4.5727   4.7134   5.7839   6.6074   7.0092   7.5102
     8.2005   8.3845

     occupation numbers 
     1.0000   1.0000   1.0000   1.0000   1.0000   1.0000   1.0000   1.0000
     1.0000   1.0000   1.0000   1.0000   1.0000   1.0000   1.0000   1.0000
     1.0000   1.0000   1.0000   1.0000   1.0000   1.0000   1.0000   1.0000
     1.0000   1.0000

          k =-0.0000 0.2887-0.0841 (  3803 PWs)   bands (ev):

  -114.2103-114.2100 -68.5981 -68.5951 -68.5557 -68.5552 -68.5550 -68.5541
    -8.8032  -8.1766   2.8097   3.0427   3.2995   3.3773   3.5766   3.7292
     4.2687   4.3059   4.6007   4.7983   5.4169   6.5466   6.9760   7.3966
     8.2991   8.3299

     occupation numbers 
     1.0000   1.0000   1.0000   1.0000   1.0000   1.0000   1.0000   1.0000
     1.0000   1.0000   1.0000   1.0000   1.0000   1.0000   1.0000   1.0000
     1.0000   1.0000   1.0000   1.0000   1.0000   1.0000   1.0000   1.0000
     1.0000   1.0000

          k =-0.0000 0.4330-0.0000 (  3822 PWs)   bands (ev):

  -114.2102-114.2101 -68.5977 -68.5955 -68.5563 -68.5557 -68.5555 -68.5542
    -8.5603  -8.1193   2.8142   3.0784   3.4899   3.6528   3.7205   4.0567
     4.2091   4.3461   4.6256   4.8223   5.2331   5.7459   6.2160   6.7316
     7.8993   7.9428

     occupation numbers 
     1.0000   1.0000   1.0000   1.0000   1.0000   1.0000   1.0000   1.0000
     1.0000   1.0000   1.0000   1.0000   1.0000   1.0000   1.0000   1.0000
     1.0000   1.0000   1.0000   1.0000   1.0000   1.0000   1.0000   1.0000
     1.0000   1.0000

          k =-0.0000 0.4330 0.0841 (  3811 PWs)   bands (ev):

  -114.2102-114.2101 -68.5976 -68.5956 -68.5563 -68.5557 -68.5555 -68.5543
    -8.5415  -8.1336   2.7898   3.0240   3.4917   3.6419   3.6574   3.9355
     4.2985   4.3565   4.6129   4.7946   5.2759   5.7740   6.3591   6.7828
     7.8595   8.0297

     occupation numbers 
     1.0000   1.0000   1.0000   1.0000   1.0000   1.0000   1.0000   1.0000
     1.0000   1.0000   1.0000   1.0000   1.0000   1.0000   1.0000   1.0000
     1.0000   1.0000   1.0000   1.0000   1.0000   1.0000   1.0000   1.0000
     1.0000   1.0000

          k =-0.0000 0.4330 0.1682 (  3822 PWs)   bands (ev):

  -114.2102-114.2101 -68.5974 -68.5958 -68.5562 -68.5558 -68.5553 -68.5544
    -8.4888  -8.1757   2.7258   2.8846   3.4986   3.5625   3.6132   3.7629
     4.3859   4.4165   4.5786   4.7443   5.3531   5.7263   6.8244   6.9244
     7.7447   8.1753

     occupation numbers 
     1.0000   1.0000   1.0000   1.0000   1.0000   1.0000   1.0000   1.0000
     1.0000   1.0000   1.0000   1.0000   1.0000   1.0000   1.0000   1.0000
     1.0000   1.0000   1.0000   1.0000   1.0000   1.0000   1.0000   1.0000
     1.0000   1.0000

          k =-0.0000 0.4330 0.2523 (  3813 PWs)   bands (ev):

  -114.2102-114.2101 -68.5970 -68.5962 -68.5561 -68.5558 -68.5551 -68.5546
    -8.4119  -8.2420   2.6618   2.7382   3.5143   3.5240   3.5760   3.6284
     4.4290   4.5211   4.5316   4.6840   5.4399   5.6310   7.1264   7.4062
     7.5684   8.1697

     occupation numbers 
     1.0000   1.0000   1.0000   1.0000   1.0000   1.0000   1.0000   1.0000
     1.0000   1.0000   1.0000   1.0000   1.0000   1.0000   1.0000   1.0000
     1.0000   1.0000   1.0000   1.0000   1.0000   1.0000   1.0000   1.0000
     1.0000   1.0000

          k =-0.0000 0.4330-0.3364 (  3824 PWs)   bands (ev):

  -114.2102-114.2101 -68.5966 -68.5966 -68.5560 -68.5559 -68.5549 -68.5549
    -8.3248  -8.3247   2.6564   2.6564   3.5407   3.5407   3.5480   3.5480
     4.4795   4.4796   4.6102   4.6102   5.5332   5.5333   7.3525   7.3526
     7.8997   7.8998

     occupation numbers 
     1.0000   1.0000   1.0000   1.0000   1.0000   1.0000   1.0000   1.0000
     1.0000   1.0000   1.0000   1.0000   1.0000   1.0000   1.0000   1.0000
     1.0000   1.0000   1.0000   1.0000   1.0000   1.0000   1.0000   1.0000
     1.0000   1.0000

          k =-0.0000 0.4330-0.2523 (  3813 PWs)   bands (ev):

  -114.2102-114.2101 -68.5970 -68.5962 -68.5561 -68.5558 -68.5551 -68.5546
    -8.4119  -8.2420   2.6618   2.7382   3.5143   3.5240   3.5760   3.6284
     4.4290   4.5211   4.5316   4.6840   5.4400   5.6310   7.1264   7.4062
     7.5684   8.1697

     occupation numbers 
     1.0000   1.0000   1.0000   1.0000   1.0000   1.0000   1.0000   1.0000
     1.0000   1.0000   1.0000   1.0000   1.0000   1.0000   1.0000   1.0000
     1.0000   1.0000   1.0000   1.0000   1.0000   1.0000   1.0000   1.0000
     1.0000   1.0000

          k =-0.0000 0.4330-0.1682 (  3822 PWs)   bands (ev):

  -114.2102-114.2101 -68.5974 -68.5958 -68.5562 -68.5558 -68.5553 -68.5544
    -8.4888  -8.1757   2.7258   2.8847   3.4986   3.5625   3.6132   3.7629
     4.3859   4.4164   4.5786   4.7444   5.3531   5.7262   6.8244   6.9244
     7.7447   8.1753

     occupation numbers 
     1.0000   1.0000   1.0000   1.0000   1.0000   1.0000   1.0000   1.0000
     1.0000   1.0000   1.0000   1.0000   1.0000   1.0000   1.0000   1.0000
     1.0000   1.0000   1.0000   1.0000   1.0000   1.0000   1.0000   1.0000
     1.0000   1.0000

          k =-0.0000 0.4330-0.0841 (  3811 PWs)   bands (ev):

  -114.2102-114.2101 -68.5976 -68.5956 -68.5563 -68.5557 -68.5555 -68.5543
    -8.5415  -8.1336   2.7898   3.0240   3.4917   3.6419   3.6574   3.9355
     4.2985   4.3565   4.6129   4.7946   5.2759   5.7740   6.3591   6.7828
     7.8595   8.0297

     occupation numbers 
     1.0000   1.0000   1.0000   1.0000   1.0000   1.0000   1.0000   1.0000
     1.0000   1.0000   1.0000   1.0000   1.0000   1.0000   1.0000   1.0000
     1.0000   1.0000   1.0000   1.0000   1.0000   1.0000   1.0000   1.0000
     1.0000   1.0000

          k = 0.0000-0.5774 0.0000 (  3816 PWs)   bands (ev):

  -114.2102-114.2101 -68.5973 -68.5958 -68.5566 -68.5560 -68.5556 -68.5543
    -8.4173  -8.1344   2.9319   2.9903   3.5569   3.7371   3.7908   4.1994
     4.4062   4.4303   4.6310   4.6489   4.9789   5.3241   6.2643   6.4438
     7.7066   7.7314

     occupation numbers 
     1.0000   1.0000   1.0000   1.0000   1.0000   1.0000   1.0000   1.0000
     1.0000   1.0000   1.0000   1.0000   1.0000   1.0000   1.0000   1.0000
     1.0000   1.0000   1.0000   1.0000   1.0000   1.0000   1.0000   1.0000
     1.0000   1.0000

          k = 0.0000-0.5774 0.0841 (  3818 PWs)   bands (ev):

  -114.2102-114.2101 -68.5972 -68.5959 -68.5566 -68.5560 -68.5555 -68.5543
    -8.4038  -8.1421   2.8887   2.9497   3.5620   3.6849   3.7778   4.1021
     4.4124   4.4638   4.6161   4.6547   5.0111   5.2765   6.4844   6.5020
     7.6645   7.8331

     occupation numbers 
     1.0000   1.0000   1.0000   1.0000   1.0000   1.0000   1.0000   1.0000
     1.0000   1.0000   1.0000   1.0000   1.0000   1.0000   1.0000   1.0000
     1.0000   1.0000   1.0000   1.0000   1.0000   1.0000   1.0000   1.0000
     1.0000   1.0000

          k = 0.0000-0.5774 0.1682 (  3822 PWs)   bands (ev):

  -114.2102-114.2101 -68.5971 -68.5961 -68.5565 -68.5560 -68.5554 -68.5545
    -8.3665  -8.1655   2.7803   2.8435   3.5780   3.6129   3.7427   3.9146
     4.4300   4.5239   4.5792   4.6546   5.0687   5.2130   6.6604   6.9776
     7.5431   8.0341

     occupation numbers 
     1.0000   1.0000   1.0000   1.0000   1.0000   1.0000   1.0000   1.0000
     1.0000   1.0000   1.0000   1.0000   1.0000   1.0000   1.0000   1.0000
     1.0000   1.0000   1.0000   1.0000   1.0000   1.0000   1.0000   1.0000
     1.0000   1.0000

          k = 0.0000-0.5774 0.2523 (  3820 PWs)   bands (ev):

  -114.2101-114.2101 -68.5969 -68.5963 -68.5563 -68.5561 -68.5552 -68.5547
    -8.3136  -8.2045   2.6782   2.7222   3.5986   3.6064   3.6951   3.7521
     4.4576   4.5351   4.5758   4.6410   5.1157   5.1753   6.8819   7.3562
     7.5197   8.1193

     occupation numbers 
     1.0000   1.0000   1.0000   1.0000   1.0000   1.0000   1.0000   1.0000
     1.0000   1.0000   1.0000   1.0000   1.0000   1.0000   1.0000   1.0000
     1.0000   1.0000   1.0000   1.0000   1.0000   1.0000   1.0000   1.0000
     1.0000   1.0000

          k = 0.0000-0.5774-0.3364 (  3796 PWs)   bands (ev):

  -114.2101-114.2101 -68.5966 -68.5965 -68.5562 -68.5562 -68.5550 -68.5549
    -8.2562  -8.2561   2.6536   2.6536   3.6464   3.6464   3.6468   3.6468
     4.4932   4.4932   4.6146   4.6147   5.1483   5.1484   7.1258   7.1259
     7.9422   7.9423

     occupation numbers 
     1.0000   1.0000   1.0000   1.0000   1.0000   1.0000   1.0000   1.0000
     1.0000   1.0000   1.0000   1.0000   1.0000   1.0000   1.0000   1.0000
     1.0000   1.0000   1.0000   1.0000   1.0000   1.0000   1.0000   1.0000
     1.0000   1.0000

          k = 0.1250 0.0722 0.0000 (  3797 PWs)   bands (ev):

  -114.2103-114.2100 -68.5987 -68.5946 -68.5552 -68.5551 -68.5542 -68.5540
    -9.0574  -8.2155   2.9567   3.0880   3.1089   3.1722   3.5673   3.7118
     4.2772   4.2962   4.5907   4.7398   4.9583   7.6287   7.9479   8.0677
     8.4703   8.7355

     occupation numbers 
     1.0000   1.0000   1.0000   1.0000   1.0000   1.0000   1.0000   1.0000
     1.0000   1.0000   1.0000   1.0000   1.0000   1.0000   1.0000   1.0000
     1.0000   1.0000   1.0000   1.0000   1.0000   1.0000   1.0000   1.0000
     1.0000   1.0000

          k = 0.1250 0.0722 0.0841 (  3801 PWs)   bands (ev):

  -114.2103-114.2101 -68.5985 -68.5947 -68.5552 -68.5550 -68.5543 -68.5540
    -9.0263  -8.2483   2.9493   3.0626   3.1059   3.1645   3.4810   3.6593
     4.3016   4.3126   4.5843   4.6696   5.2216   7.6488   7.8605   7.9799
     8.5756   8.7079

     occupation numbers 
     1.0000   1.0000   1.0000   1.0000   1.0000   1.0000   1.0000   1.0000
     1.0000   1.0000   1.0000   1.0000   1.0000   1.0000   1.0000   1.0000
     1.0000   1.0000   1.0000   1.0000   1.0000   1.0000   1.0000   1.0000
     1.0000   1.0000

          k = 0.1250 0.0722 0.1682 (  3811 PWs)   bands (ev):

  -114.2103-114.2101 -68.5981 -68.5952 -68.5551 -68.5549 -68.5544 -68.5542
    -8.9373  -8.3413   2.9284   2.9920   3.0999   3.1448   3.3545   3.5341
     4.3566   4.3608   4.5640   4.6139   5.7008   7.4300   7.8321   8.0702
     8.5996   8.6282

     occupation numbers 
     1.0000   1.0000   1.0000   1.0000   1.0000   1.0000   1.0000   1.0000
     1.0000   1.0000   1.0000   1.0000   1.0000   1.0000   1.0000   1.0000
     1.0000   1.0000   1.0000   1.0000   1.0000   1.0000   1.0000   1.0000
     1.0000   1.0000

          k = 0.1250 0.0722 0.2523 (  3810 PWs)   bands (ev):

  -114.2102-114.2101 -68.5975 -68.5959 -68.5549 -68.5547 -68.5545 -68.5543
    -8.8027  -8.4799   2.8999   2.9219   3.0977   3.1221   3.2993   3.4014
     4.4158   4.4333   4.5277   4.5640   6.2048   7.0592   8.0188   8.2034
     8.4709   8.5058

     occupation numbers 
     1.0000   1.0000   1.0000   1.0000   1.0000   1.0000   1.0000   1.0000
     1.0000   1.0000   1.0000   1.0000   1.0000   1.0000   1.0000   1.0000
     1.0000   1.0000   1.0000   1.0000   1.0000   1.0000   1.0000   1.0000
     1.0000   1.0000

          k = 0.1250 0.0722-0.3364 (  3806 PWs)   bands (ev):

  -114.2102-114.2102 -68.5967 -68.5967 -68.5547 -68.5547 -68.5546 -68.5545
    -8.6422  -8.6421   2.8908   2.8908   3.1048   3.1048   3.3164   3.3164
     4.4764   4.4764   4.5038   4.5038   6.6593   6.6594   8.2531   8.2532
     8.3567   8.3568

     occupation numbers 
     1.0000   1.0000   1.0000   1.0000   1.0000   1.0000   1.0000   1.0000
     1.0000   1.0000   1.0000   1.0000   1.0000   1.0000   1.0000   1.0000
     1.0000   1.0000   1.0000   1.0000   1.0000   1.0000   1.0000   1.0000
     1.0000   1.0000

          k = 0.1250 0.0722-0.2523 (  3810 PWs)   bands (ev):

  -114.2102-114.2101 -68.5975 -68.5959 -68.5549 -68.5547 -68.5545 -68.5543
    -8.8027  -8.4799   2.8999   2.9219   3.0977   3.1221   3.2993   3.4014
     4.4158   4.4333   4.5277   4.5640   6.2048   7.0592   8.0188   8.2034
     8.4709   8.5058

     occupation numbers 
     1.0000   1.0000   1.0000   1.0000   1.0000   1.0000   1.0000   1.0000
     1.0000   1.0000   1.0000   1.0000   1.0000   1.0000   1.0000   1.0000
     1.0000   1.0000   1.0000   1.0000   1.0000   1.0000   1.0000   1.0000
     1.0000   1.0000

          k = 0.1250 0.0722-0.1682 (  3811 PWs)   bands (ev):

  -114.2103-114.2101 -68.5981 -68.5952 -68.5551 -68.5549 -68.5544 -68.5542
    -8.9373  -8.3413   2.9284   2.9920   3.0999   3.1448   3.3545   3.5341
     4.3566   4.3608   4.5640   4.6139   5.7008   7.4300   7.8321   8.0702
     8.5996   8.6282

     occupation numbers 
     1.0000   1.0000   1.0000   1.0000   1.0000   1.0000   1.0000   1.0000
     1.0000   1.0000   1.0000   1.0000   1.0000   1.0000   1.0000   1.0000
     1.0000   1.0000   1.0000   1.0000   1.0000   1.0000   1.0000   1.0000
     1.0000   1.0000

          k = 0.1250 0.0722-0.0841 (  3801 PWs)   bands (ev):

  -114.2103-114.2101 -68.5985 -68.5947 -68.5552 -68.5550 -68.5543 -68.5540
    -9.0263  -8.2483   2.9493   3.0626   3.1059   3.1645   3.4810   3.6593
     4.3016   4.3126   4.5843   4.6696   5.2216   7.6488   7.8605   7.9799
     8.5756   8.7079

     occupation numbers 
     1.0000   1.0000   1.0000   1.0000   1.0000   1.0000   1.0000   1.0000
     1.0000   1.0000   1.0000   1.0000   1.0000   1.0000   1.0000   1.0000
     1.0000   1.0000   1.0000   1.0000   1.0000   1.0000   1.0000   1.0000
     1.0000   1.0000

          k = 0.1250 0.2165 0.0000 (  3793 PWs)   bands (ev):

  -114.2103-114.2100 -68.5984 -68.5949 -68.5555 -68.5553 -68.5546 -68.5541
    -8.8994  -8.1684   2.8771   3.1013   3.2136   3.3057   3.6361   3.7614
     4.2396   4.2815   4.6040   4.8963   5.0662   6.9365   7.1422   7.5690
     8.3463   8.3822

     occupation numbers 
     1.0000   1.0000   1.0000   1.0000   1.0000   1.0000   1.0000   1.0000
     1.0000   1.0000   1.0000   1.0000   1.0000   1.0000   1.0000   1.0000
     1.0000   1.0000   1.0000   1.0000   1.0000   1.0000   1.0000   1.0000
     1.0000   1.0000

          k = 0.1250 0.2165 0.0841 (  3795 PWs)   bands (ev):

  -114.2103-114.2100 -68.5982 -68.5950 -68.5555 -68.5553 -68.5547 -68.5542
    -8.8716  -8.1958   2.8658   3.0493   3.2179   3.2963   3.5613   3.7023
     4.2794   4.2988   4.5955   4.7768   5.3572   7.0053   7.0840   7.5471
     8.3480   8.4169

     occupation numbers 
     1.0000   1.0000   1.0000   1.0000   1.0000   1.0000   1.0000   1.0000
     1.0000   1.0000   1.0000   1.0000   1.0000   1.0000   1.0000   1.0000
     1.0000   1.0000   1.0000   1.0000   1.0000   1.0000   1.0000   1.0000
     1.0000   1.0000

          k = 0.1250 0.2165 0.1682 (  3807 PWs)   bands (ev):

  -114.2103-114.2101 -68.5979 -68.5954 -68.5554 -68.5552 -68.5547 -68.5543
    -8.7922  -8.2742   2.8339   2.9269   3.2203   3.2727   3.4511   3.5784
     4.3442   4.3641   4.5699   4.6912   5.7916   6.9092   7.2233   7.5963
     8.2500   8.4663

     occupation numbers 
     1.0000   1.0000   1.0000   1.0000   1.0000   1.0000   1.0000   1.0000
     1.0000   1.0000   1.0000   1.0000   1.0000   1.0000   1.0000   1.0000
     1.0000   1.0000   1.0000   1.0000   1.0000   1.0000   1.0000   1.0000
     1.0000   1.0000

          k = 0.1250 0.2165 0.2523 (  3802 PWs)   bands (ev):

  -114.2102-114.2101 -68.5973 -68.5960 -68.5553 -68.5550 -68.5548 -68.5545
    -8.6731  -8.3923   2.7927   2.8156   3.2208   3.2457   3.3975   3.4658
     4.4051   4.4567   4.5283   4.6228   6.1663   6.6879   7.5841   7.7339
     8.1030   8.3319

     occupation numbers 
     1.0000   1.0000   1.0000   1.0000   1.0000   1.0000   1.0000   1.0000
     1.0000   1.0000   1.0000   1.0000   1.0000   1.0000   1.0000   1.0000
     1.0000   1.0000   1.0000   1.0000   1.0000   1.0000   1.0000   1.0000
     1.0000   1.0000

          k = 0.1250 0.2165-0.3364 (  3804 PWs)   bands (ev):

  -114.2102-114.2101 -68.5967 -68.5966 -68.5551 -68.5551 -68.5547 -68.5547
    -8.5326  -8.5325   2.7733   2.7733   3.2273   3.2273   3.4031   3.4032
     4.4682   4.4682   4.5476   4.5476   6.4501   6.4501   7.8906   7.8906
     8.0306   8.0307

     occupation numbers 
     1.0000   1.0000   1.0000   1.0000   1.0000   1.0000   1.0000   1.0000
     1.0000   1.0000   1.0000   1.0000   1.0000   1.0000   1.0000   1.0000
     1.0000   1.0000   1.0000   1.0000   1.0000   1.0000   1.0000   1.0000
     1.0000   1.0000

          k = 0.1250 0.2165-0.2523 (  3802 PWs)   bands (ev):

  -114.2102-114.2101 -68.5973 -68.5960 -68.5553 -68.5550 -68.5548 -68.5545
    -8.6731  -8.3923   2.7927   2.8156   3.2208   3.2457   3.3975   3.4658
     4.4051   4.4567   4.5283   4.6228   6.1663   6.6879   7.5841   7.7339
     8.1030   8.3319

     occupation numbers 
     1.0000   1.0000   1.0000   1.0000   1.0000   1.0000   1.0000   1.0000
     1.0000   1.0000   1.0000   1.0000   1.0000   1.0000   1.0000   1.0000
     1.0000   1.0000   1.0000   1.0000   1.0000   1.0000   1.0000   1.0000
     1.0000   1.0000

          k = 0.1250 0.2165-0.1682 (  3807 PWs)   bands (ev):

  -114.2103-114.2101 -68.5979 -68.5954 -68.5554 -68.5552 -68.5547 -68.5543
    -8.7922  -8.2742   2.8339   2.9269   3.2203   3.2727   3.4511   3.5784
     4.3442   4.3641   4.5699   4.6912   5.7916   6.9092   7.2233   7.5963
     8.2500   8.4663

     occupation numbers 
     1.0000   1.0000   1.0000   1.0000   1.0000   1.0000   1.0000   1.0000
     1.0000   1.0000   1.0000   1.0000   1.0000   1.0000   1.0000   1.0000
     1.0000   1.0000   1.0000   1.0000   1.0000   1.0000   1.0000   1.0000
     1.0000   1.0000

          k = 0.1250 0.2165-0.0841 (  3795 PWs)   bands (ev):

  -114.2103-114.2100 -68.5982 -68.5950 -68.5555 -68.5553 -68.5547 -68.5542
    -8.8716  -8.1958   2.8658   3.0493   3.2179   3.2963   3.5613   3.7023
     4.2794   4.2988   4.5955   4.7768   5.3572   7.0053   7.0840   7.5471
     8.3480   8.4169

     occupation numbers 
     1.0000   1.0000   1.0000   1.0000   1.0000   1.0000   1.0000   1.0000
     1.0000   1.0000   1.0000   1.0000   1.0000   1.0000   1.0000   1.0000
     1.0000   1.0000   1.0000   1.0000   1.0000   1.0000   1.0000   1.0000
     1.0000   1.0000

          k = 0.1250 0.3608 0.0000 (  3820 PWs)   bands (ev):

  -114.2102-114.2100 -68.5978 -68.5953 -68.5560 -68.5557 -68.5552 -68.5543
    -8.6479  -8.1222   2.8572   3.1475   3.3713   3.5167   3.7624   3.8827
     4.2249   4.3097   4.6206   4.8668   5.3736   6.0372   6.4230   6.7091
     7.8526   8.0699

     occupation numbers 
     1.0000   1.0000   1.0000   1.0000   1.0000   1.0000   1.0000   1.0000
     1.0000   1.0000   1.0000   1.0000   1.0000   1.0000   1.0000   1.0000
     1.0000   1.0000   1.0000   1.0000   1.0000   1.0000   1.0000   1.0000
     1.0000   1.0000

          k = 0.1250 0.3608 0.0841 (  3820 PWs)   bands (ev):

  -114.2102-114.2101 -68.5977 -68.5954 -68.5560 -68.5557 -68.5552 -68.5544
    -8.6264  -8.1402   2.8383   3.0846   3.3783   3.5013   3.6904   3.8052
     4.2843   4.3279   4.6093   4.8234   5.4793   6.1300   6.4546   6.7438
     7.8081   8.1553

     occupation numbers 
     1.0000   1.0000   1.0000   1.0000   1.0000   1.0000   1.0000   1.0000
     1.0000   1.0000   1.0000   1.0000   1.0000   1.0000   1.0000   1.0000
     1.0000   1.0000   1.0000   1.0000   1.0000   1.0000   1.0000   1.0000
     1.0000   1.0000

          k = 0.1250 0.3608 0.1682 (  3811 PWs)   bands (ev):

  -114.2102-114.2101 -68.5975 -68.5957 -68.5559 -68.5556 -68.5552 -68.5545
    -8.5656  -8.1927   2.7864   2.9332   3.3864   3.4632   3.5795   3.6799
     4.3644   4.3950   4.5789   4.7577   5.6250   6.1199   6.7594   6.9246
[...]
    -8.3746  -8.1600   2.9773   3.0701   3.5043   3.5281   3.6523   3.8113
     4.4127   4.4257   4.6140   4.8005   5.3005   5.6030   5.9151   6.8459
     7.2056   8.0580

     occupation numbers 
     1.0000   1.0000   1.0000   1.0000   1.0000   1.0000   1.0000   1.0000
     1.0000   1.0000   1.0000   1.0000   1.0000   1.0000   1.0000   1.0000
     1.0000   1.0000   1.0000   1.0000   1.0000   1.0000   1.0000   1.0000
     1.0000   1.0000

          k =-0.5001 0.0000 0.2523 (  3834 PWs)   bands (ev):

  -114.2084-114.2083 -68.5951 -68.5945 -68.5542 -68.5542 -68.5536 -68.5533
    -8.3188  -8.2023   2.8827   2.9162   3.4871   3.4995   3.6091   3.7192
     4.4406   4.4481   4.6435   4.7532   5.3807   5.5343   6.1421   6.6782
     7.6794   8.1879

     occupation numbers 
     1.0000   1.0000   1.0000   1.0000   1.0000   1.0000   1.0000   1.0000
     1.0000   1.0000   1.0000   1.0000   1.0000   1.0000   1.0000   1.0000
     1.0000   1.0000   1.0000   1.0000   1.0000   1.0000   1.0000   1.0000
     1.0000   1.0000

          k =-0.5001 0.0000-0.3363 (  3832 PWs)   bands (ev):

  -114.2084-114.2083 -68.5948 -68.5948 -68.5541 -68.5541 -68.5535 -68.5535
    -8.2578  -8.2578   2.8473   2.8473   3.4812   3.4812   3.6472   3.6472
     4.4501   4.4501   4.6982   4.6982   5.4582   5.4582   6.4141   6.4141
     8.0633   8.0633

     occupation numbers 
     1.0000   1.0000   1.0000   1.0000   1.0000   1.0000   1.0000   1.0000
     1.0000   1.0000   1.0000   1.0000   1.0000   1.0000   1.0000   1.0000
     1.0000   1.0000   1.0000   1.0000   1.0000   1.0000   1.0000   1.0000
     1.0000   1.0000

          k =-0.5001 0.0000-0.2523 (  3834 PWs)   bands (ev):

  -114.2084-114.2083 -68.5951 -68.5945 -68.5542 -68.5542 -68.5536 -68.5533
    -8.3188  -8.2023   2.8827   2.9162   3.4871   3.4995   3.6091   3.7192
     4.4406   4.4481   4.6435   4.7532   5.3807   5.5343   6.1421   6.6782
     7.6794   8.1879

     occupation numbers 
     1.0000   1.0000   1.0000   1.0000   1.0000   1.0000   1.0000   1.0000
     1.0000   1.0000   1.0000   1.0000   1.0000   1.0000   1.0000   1.0000
     1.0000   1.0000   1.0000   1.0000   1.0000   1.0000   1.0000   1.0000
     1.0000   1.0000

          k =-0.5001 0.0000-0.1682 (  3823 PWs)   bands (ev):

  -114.2084-114.2083 -68.5953 -68.5943 -68.5543 -68.5542 -68.5537 -68.5530
    -8.3746  -8.1600   2.9773   3.0701   3.5043   3.5281   3.6523   3.8113
     4.4127   4.4257   4.6140   4.8005   5.3005   5.6030   5.9151   6.8459
     7.2056   8.0580

     occupation numbers 
     1.0000   1.0000   1.0000   1.0000   1.0000   1.0000   1.0000   1.0000
     1.0000   1.0000   1.0000   1.0000   1.0000   1.0000   1.0000   1.0000
     1.0000   1.0000   1.0000   1.0000   1.0000   1.0000   1.0000   1.0000
     1.0000   1.0000

          k =-0.5001 0.0000-0.0841 (  3830 PWs)   bands (ev):

  -114.2084-114.2083 -68.5955 -68.5941 -68.5544 -68.5542 -68.5537 -68.5529
    -8.4138  -8.1343   3.0595   3.2152   3.4903   3.5902   3.7919   3.9103
     4.3386   4.4051   4.6221   4.8368   5.2219   5.6076   5.8210   6.5787
     7.1414   7.8266

     occupation numbers 
     1.0000   1.0000   1.0000   1.0000   1.0000   1.0000   1.0000   1.0000
     1.0000   1.0000   1.0000   1.0000   1.0000   1.0000   1.0000   1.0000
     1.0000   1.0000   1.0000   1.0000   1.0000   1.0000   1.0000   1.0000
     1.0000   1.0000

          k =-0.5001 0.1444 0.0000 (  3827 PWs)   bands (ev):

  -114.2084-114.2083 -68.5955 -68.5941 -68.5547 -68.5541 -68.5538 -68.5526
    -8.4220  -8.1293   2.9891   3.1383   3.5076   3.6666   3.8465   4.1809
     4.2664   4.4045   4.6334   4.7393   5.0779   5.5049   5.9903   6.4475
     7.4428   7.7312

     occupation numbers 
     1.0000   1.0000   1.0000   1.0000   1.0000   1.0000   1.0000   1.0000
     1.0000   1.0000   1.0000   1.0000   1.0000   1.0000   1.0000   1.0000
     1.0000   1.0000   1.0000   1.0000   1.0000   1.0000   1.0000   1.0000
     1.0000   1.0000

          k =-0.5001 0.1444 0.0841 (  3827 PWs)   bands (ev):

  -114.2084-114.2083 -68.5955 -68.5941 -68.5546 -68.5541 -68.5538 -68.5527
    -8.4082  -8.1375   2.9554   3.0856   3.5128   3.6340   3.8086   4.0350
     4.3545   4.4195   4.6216   4.7391   5.1022   5.4626   6.0843   6.6277
     7.3967   7.8374

     occupation numbers 
     1.0000   1.0000   1.0000   1.0000   1.0000   1.0000   1.0000   1.0000
     1.0000   1.0000   1.0000   1.0000   1.0000   1.0000   1.0000   1.0000
     1.0000   1.0000   1.0000   1.0000   1.0000   1.0000   1.0000   1.0000
     1.0000   1.0000

          k =-0.5001 0.1444 0.1682 (  3814 PWs)   bands (ev):

  -114.2084-114.2083 -68.5953 -68.5943 -68.5545 -68.5541 -68.5537 -68.5528
    -8.3700  -8.1621   2.8652   2.9506   3.5236   3.5889   3.7364   3.8493
     4.4209   4.4558   4.6052   4.7271   5.1552   5.3922   6.2790   7.0705
     7.2742   8.0528

     occupation numbers 
     1.0000   1.0000   1.0000   1.0000   1.0000   1.0000   1.0000   1.0000
     1.0000   1.0000   1.0000   1.0000   1.0000   1.0000   1.0000   1.0000
     1.0000   1.0000   1.0000   1.0000   1.0000   1.0000   1.0000   1.0000
     1.0000   1.0000

          k =-0.5001 0.1444 0.2523 (  3817 PWs)   bands (ev):

  -114.2084-114.2083 -68.5951 -68.5945 -68.5544 -68.5542 -68.5535 -68.5530
    -8.3156  -8.2028   2.7695   2.8112   3.5363   3.5948   3.6537   3.7217
     4.4486   4.4797   4.6196   4.6993   5.2146   5.3295   6.5213   7.0353
     7.6237   8.1637

     occupation numbers 
     1.0000   1.0000   1.0000   1.0000   1.0000   1.0000   1.0000   1.0000
     1.0000   1.0000   1.0000   1.0000   1.0000   1.0000   1.0000   1.0000
     1.0000   1.0000   1.0000   1.0000   1.0000   1.0000   1.0000   1.0000
     1.0000   1.0000

          k =-0.5001 0.1444-0.3363 (  3814 PWs)   bands (ev):

  -114.2083-114.2083 -68.5948 -68.5948 -68.5543 -68.5543 -68.5533 -68.5533
    -8.2564  -8.2564   2.7415   2.7415   3.5737   3.5737   3.6479   3.6479
     4.4694   4.4694   4.6601   4.6601   5.2725   5.2725   6.7848   6.7848
     8.0189   8.0189

     occupation numbers 
     1.0000   1.0000   1.0000   1.0000   1.0000   1.0000   1.0000   1.0000
     1.0000   1.0000   1.0000   1.0000   1.0000   1.0000   1.0000   1.0000
     1.0000   1.0000   1.0000   1.0000   1.0000   1.0000   1.0000   1.0000
     1.0000   1.0000

          k =-0.5001 0.1444-0.2523 (  3817 PWs)   bands (ev):

  -114.2084-114.2083 -68.5951 -68.5945 -68.5544 -68.5542 -68.5535 -68.5530
    -8.3156  -8.2028   2.7695   2.8112   3.5363   3.5948   3.6537   3.7217
     4.4486   4.4797   4.6196   4.6993   5.2146   5.3295   6.5213   7.0353
     7.6237   8.1637

     occupation numbers 
     1.0000   1.0000   1.0000   1.0000   1.0000   1.0000   1.0000   1.0000
     1.0000   1.0000   1.0000   1.0000   1.0000   1.0000   1.0000   1.0000
     1.0000   1.0000   1.0000   1.0000   1.0000   1.0000   1.0000   1.0000
     1.0000   1.0000

          k =-0.5001 0.1444-0.1682 (  3814 PWs)   bands (ev):

  -114.2084-114.2083 -68.5953 -68.5943 -68.5545 -68.5541 -68.5537 -68.5528
    -8.3700  -8.1621   2.8652   2.9506   3.5236   3.5889   3.7364   3.8493
     4.4209   4.4558   4.6052   4.7271   5.1552   5.3921   6.2790   7.0705
     7.2742   8.0528

     occupation numbers 
     1.0000   1.0000   1.0000   1.0000   1.0000   1.0000   1.0000   1.0000
     1.0000   1.0000   1.0000   1.0000   1.0000   1.0000   1.0000   1.0000
     1.0000   1.0000   1.0000   1.0000   1.0000   1.0000   1.0000   1.0000
     1.0000   1.0000

          k =-0.5001 0.1444-0.0841 (  3827 PWs)   bands (ev):

  -114.2084-114.2083 -68.5955 -68.5941 -68.5546 -68.5541 -68.5538 -68.5527
    -8.4082  -8.1375   2.9554   3.0856   3.5128   3.6340   3.8086   4.0350
     4.3545   4.4195   4.6216   4.7391   5.1022   5.4626   6.0843   6.6277
     7.3967   7.8374

     occupation numbers 
     1.0000   1.0000   1.0000   1.0000   1.0000   1.0000   1.0000   1.0000
     1.0000   1.0000   1.0000   1.0000   1.0000   1.0000   1.0000   1.0000
     1.0000   1.0000   1.0000   1.0000   1.0000   1.0000   1.0000   1.0000
     1.0000   1.0000

          k =-0.5001-0.8661-0.0000 (  3816 PWs)   bands (ev):

  -114.2084-114.2083 -68.5955 -68.5940 -68.5548 -68.5542 -68.5538 -68.5525
    -8.4159  -8.1331   2.9328   2.9914   3.5583   3.7387   3.7922   4.2012
     4.4081   4.4321   4.6328   4.6507   4.9800   5.3260   6.2663   6.4461
     7.7084   7.7336

     occupation numbers 
     1.0000   1.0000   1.0000   1.0000   1.0000   1.0000   1.0000   1.0000
     1.0000   1.0000   1.0000   1.0000   1.0000   1.0000   1.0000   1.0000
     1.0000   1.0000   1.0000   1.0000   1.0000   1.0000   1.0000   1.0000
     1.0000   1.0000

          k =-0.5001-0.8661 0.0841 (  3818 PWs)   bands (ev):

  -114.2084-114.2083 -68.5955 -68.5941 -68.5548 -68.5542 -68.5537 -68.5525
    -8.4025  -8.1408   2.8896   2.9508   3.5634   3.6865   3.7792   4.1038
     4.4142   4.4656   4.6178   4.6565   5.0123   5.2784   6.4863   6.5043
     7.6664   7.8352

     occupation numbers 
     1.0000   1.0000   1.0000   1.0000   1.0000   1.0000   1.0000   1.0000
     1.0000   1.0000   1.0000   1.0000   1.0000   1.0000   1.0000   1.0000
     1.0000   1.0000   1.0000   1.0000   1.0000   1.0000   1.0000   1.0000
     1.0000   1.0000

          k =-0.5001-0.8661 0.1682 (  3822 PWs)   bands (ev):

  -114.2084-114.2083 -68.5953 -68.5943 -68.5547 -68.5542 -68.5536 -68.5527
    -8.3652  -8.1643   2.7813   2.8446   3.5794   3.6145   3.7441   3.9162
     4.4319   4.5257   4.5810   4.6565   5.0701   5.2149   6.6626   6.9793
     7.5450   8.0359

     occupation numbers 
     1.0000   1.0000   1.0000   1.0000   1.0000   1.0000   1.0000   1.0000
     1.0000   1.0000   1.0000   1.0000   1.0000   1.0000   1.0000   1.0000
     1.0000   1.0000   1.0000   1.0000   1.0000   1.0000   1.0000   1.0000
     1.0000   1.0000

          k =-0.5001-0.8661 0.2523 (  3816 PWs)   bands (ev):

  -114.2084-114.2083 -68.5951 -68.5946 -68.5545 -68.5543 -68.5534 -68.5529
    -8.3123  -8.2032   2.6794   2.7234   3.6002   3.6078   3.6966   3.7538
     4.4594   4.5369   4.5776   4.6429   5.1173   5.1770   6.8840   7.3581
     7.5212   8.1209

     occupation numbers 
     1.0000   1.0000   1.0000   1.0000   1.0000   1.0000   1.0000   1.0000
     1.0000   1.0000   1.0000   1.0000   1.0000   1.0000   1.0000   1.0000
     1.0000   1.0000   1.0000   1.0000   1.0000   1.0000   1.0000   1.0000
     1.0000   1.0000

          k =-0.5001-0.8661-0.3363 (  3796 PWs)   bands (ev):

  -114.2083-114.2083 -68.5948 -68.5948 -68.5544 -68.5544 -68.5531 -68.5531
    -8.2549  -8.2549   2.6549   2.6549   3.6480   3.6480   3.6482   3.6482
     4.4950   4.4950   4.6165   4.6165   5.1500   5.1500   7.1279   7.1279
     7.9438   7.9438

     occupation numbers 
     1.0000   1.0000   1.0000   1.0000   1.0000   1.0000   1.0000   1.0000
     1.0000   1.0000   1.0000   1.0000   1.0000   1.0000   1.0000   1.0000
     1.0000   1.0000   1.0000   1.0000   1.0000   1.0000   1.0000   1.0000
     1.0000   1.0000

     highest occupied level (ev):     8.8961

!    total energy              =    -987.07340828 Ry
     Harris-Foulkes estimate   =    -987.07340828 Ry
     estimated scf accuracy    <       0.00000001 Ry

     The total energy is the sum of the following terms:

     one-electron contribution =    -800.30836824 Ry
     hartree contribution      =     421.83004036 Ry
     xc contribution           =     -98.08405177 Ry
     ewald contribution        =    -510.51102862 Ry

     convergence has been achieved in   7 iterations

     Forces acting on atoms (cartesian axes, Ry/au):

     atom    1 type  2   force =    -0.00000011    0.00000068   -0.01309307
     atom    2 type  2   force =    -0.00000022    0.00000042   -0.01309268
     atom    3 type  1   force =     0.00000016   -0.00000013    0.01309337
     atom    4 type  1   force =     0.00000017   -0.00000097    0.01309238
     The non-local contrib.  to forces
     atom    1 type  2   force =     0.00000071   -0.00000323   -0.03309370
     atom    2 type  2   force =     0.00000027    0.00000033   -0.03309269
     atom    3 type  1   force =     0.00000092   -0.00000432   -0.09841295
     atom    4 type  1   force =     0.00000147   -0.00000304   -0.09841496
     The ionic contribution  to forces
     atom    1 type  2   force =    -0.00001189    0.00004338    0.53797864
     atom    2 type  2   force =    -0.00000421    0.00000514    0.53798029
     atom    3 type  1   force =     0.00000467   -0.00001742   -0.53797549
     atom    4 type  1   force =     0.00001143   -0.00003109   -0.53798344
     The local contribution  to forces
     atom    1 type  2   force =     0.00001119   -0.00003953   -0.51829015
     atom    2 type  2   force =     0.00000376   -0.00000488   -0.51829314
     atom    3 type  1   force =    -0.00000545    0.00002147    0.64968775
     atom    4 type  1   force =    -0.00001275    0.00003320    0.64969885
     The core correction contribution to forces
     atom    1 type  2   force =     0.00000000    0.00000002    0.00017596
     atom    2 type  2   force =     0.00000000   -0.00000001    0.00017595
     atom    3 type  1   force =     0.00000000    0.00000000    0.00000000
     atom    4 type  1   force =     0.00000000    0.00000000    0.00000000
     The Hubbard contrib.    to forces
     atom    1 type  2   force =     0.00000000    0.00000000    0.00000000
     atom    2 type  2   force =     0.00000000    0.00000000    0.00000000
     atom    3 type  1   force =     0.00000000    0.00000000    0.00000000
     atom    4 type  1   force =     0.00000000    0.00000000    0.00000000
     The SCF correction term to forces
     atom    1 type  2   force =     0.00000000    0.00000000    0.00000000
     atom    2 type  2   force =     0.00000000    0.00000000    0.00000000
     atom    3 type  1   force =     0.00000000    0.00000000    0.00000000
     atom    4 type  1   force =     0.00000000    0.00000000    0.00000000

     Total force =     0.000000     Total SCF correction =     0.000000


     Computing stress (Cartesian axis) and pressure

          total   stress  (Ry/bohr**3)                   (kbar)     P=    0.86
   0.00000406  -0.00000000  -0.00000001          0.60     -0.00     -0.00
  -0.00000000   0.00000406   0.00000001         -0.00      0.60      0.00
  -0.00000001   0.00000001   0.00000934         -0.00      0.00      1.37

     kinetic stress (kbar)  34115.06     -0.00     -0.00
                               -0.00  34115.06      0.00
                               -0.00      0.00  34446.43

     local   stress (kbar)  -4059.06     -0.04     -0.04
                               -0.04  -4059.22      0.07
                               -0.04      0.07  -4488.72

     nonloc. stress (kbar)  -1663.75      0.00      0.00
                                0.00  -1663.75     -0.00
                                0.00     -0.00  -1798.01

     hartree stress (kbar)  65093.88      0.02      0.01
                                0.02  65093.95     -0.03
                                0.01     -0.03  66327.85

     exc-cor stress (kbar) -14289.39      0.00      0.00
                                0.00 -14289.39     -0.00
                                0.00     -0.00 -14294.74

     corecor stress (kbar)   -251.32      0.00      0.00
                                0.00   -251.32     -0.00
                                0.00     -0.00   -251.96

     ewald   stress (kbar) -78944.81      0.02      0.02
                                0.02 -78944.72     -0.04
                                0.02     -0.04 -79939.46

     hubbard stress (kbar)      0.00      0.00      0.00
                                0.00      0.00      0.00
                                0.00      0.00      0.00

     london  stress (kbar)      0.00      0.00      0.00
                                0.00      0.00      0.00
                                0.00      0.00      0.00

     DFT-D3  stress (kbar)      0.00      0.00      0.00
                                0.00      0.00      0.00
                                0.00      0.00      0.00

     XDM     stress (kbar)      0.00      0.00      0.00
                                0.00      0.00      0.00
                                0.00      0.00      0.00

     dft-nl  stress (kbar)      0.00      0.00      0.00
                                0.00      0.00      0.00
                                0.00      0.00      0.00

     TS-vdW  stress (kbar)      0.00      0.00      0.00
                                0.00      0.00      0.00
                                0.00      0.00      0.00



     Writing output data file ZnO.save/
 
     init_run     :      1.12s CPU      2.33s WALL (       2 calls)
     electrons    :     26.31s CPU     28.45s WALL (       5 calls)
     update_pot   :      0.36s CPU      0.38s WALL (       3 calls)
     forces       :      0.75s CPU      0.83s WALL (       5 calls)
     stress       :      1.37s CPU      1.45s WALL (       5 calls)

     Called by init_run:
     wfcinit      :      0.79s CPU      1.61s WALL (       2 calls)
     wfcinit:atom :      0.01s CPU      0.01s WALL (     130 calls)
     wfcinit:wfcr :      0.74s CPU      1.56s WALL (     130 calls)
     potinit      :      0.12s CPU      0.17s WALL (       2 calls)
     hinit0       :      0.19s CPU      0.34s WALL (       2 calls)

     Called by electrons:
     c_bands      :     22.47s CPU     24.15s WALL (      26 calls)
     sum_band     :      3.02s CPU      3.19s WALL (      26 calls)
     v_of_rho     :      0.77s CPU      0.80s WALL (      28 calls)
     v_h          :      0.01s CPU      0.01s WALL (      28 calls)
     v_xc         :      1.03s CPU      1.06s WALL (      38 calls)
     newd         :      0.12s CPU      0.13s WALL (      28 calls)
     mix_rho      :      0.02s CPU      0.08s WALL (      26 calls)

     Called by c_bands:
     init_us_2    :      0.29s CPU      0.31s WALL (    4160 calls)
     cegterg      :     21.02s CPU     22.04s WALL (    1690 calls)

     Called by sum_band:
     sum_band:bec :      0.02s CPU      0.02s WALL (    1690 calls)
     addusdens    :      0.11s CPU      0.12s WALL (      26 calls)

     Called by *egterg:
     h_psi        :     12.76s CPU     13.25s WALL (    5329 calls)
     s_psi        :      0.42s CPU      0.44s WALL (    5329 calls)
     g_psi        :      0.03s CPU      0.03s WALL (    3509 calls)
     cdiaghg      :      5.30s CPU      6.35s WALL (    4809 calls)
     cegterg:over :      1.35s CPU      1.55s WALL (    3509 calls)
     cegterg:upda :      0.76s CPU      0.78s WALL (    3509 calls)
     cegterg:last :      0.53s CPU      0.54s WALL (    1755 calls)
     cdiaghg:chol :      0.25s CPU      0.54s WALL (    4809 calls)
     cdiaghg:inve :      0.08s CPU      0.14s WALL (    4809 calls)
     cdiaghg:para :      0.54s CPU      0.58s WALL (    9618 calls)

     Called by h_psi:
     h_psi:pot    :     12.73s CPU     13.21s WALL (    5329 calls)
     h_psi:calbec :      0.72s CPU      0.77s WALL (    5329 calls)
     vloc_psi     :     11.56s CPU     11.98s WALL (    5329 calls)
     add_vuspsi   :      0.43s CPU      0.45s WALL (    5329 calls)

     General routines
     calbec       :      1.23s CPU      1.29s WALL (    8644 calls)
     fft          :      0.16s CPU      0.20s WALL (     485 calls)
     ffts         :      0.01s CPU      0.01s WALL (      54 calls)
     fftw         :     13.18s CPU     13.66s WALL (  277146 calls)
     interpolate  :      0.01s CPU      0.02s WALL (      28 calls)
 
     Parallel routines
     fft_scatt_xy :      1.84s CPU      1.90s WALL (  277685 calls)
     fft_scatt_yz :      6.89s CPU      7.16s WALL (  277685 calls)
 
     PWSCF        :     30.37s CPU     36.29s WALL

 
   This run was terminated on:  15: 3:15  16Jun2022            

=------------------------------------------------------------------------------=
   JOB DONE.
=------------------------------------------------------------------------------=
