
     Program PWSCF v.6.4.1 starts on 15Jun2022 at 20:52:25 

     This program is part of the open-source Quantum ESPRESSO suite
     for quantum simulation of materials; please cite
         "P. Giannozzi et al., J. Phys.:Condens. Matter 21 395502 (2009);
         "P. Giannozzi et al., J. Phys.:Condens. Matter 29 465901 (2017);
          URL http://www.quantum-espresso.org", 
     in publications or presentations arising from this work. More details at
     http://www.quantum-espresso.org/quote

     Parallel version (MPI), running on    64 processors

     MPI processes distributed on     1 nodes
     K-points division:     npool     =       4
     R & G space division:  proc/nbgrp/npool/nimage =      16
     Waiting for input...
     Reading input from standard input
Warning: card &IONS ignored
Warning: card   UPSCALE           = 100.D0, ignored
Warning: card / ignored
Warning: card &CELL ignored
Warning: card   CELL_DYNAMICS     = 'BFGS' ignored
Warning: card   PRESS_CONV_THR    = 0.5D0 ignored
Warning: card   CELL_DOFREE = 'ALL' ignored
Warning: card / ignored

     Current dimensions of program PWSCF are:
     Max number of different atomic species (ntypx) = 10
     Max number of k-points (npk) =  40000
     Max angular momentum in pseudopotentials (lmaxx) =  3

     Subspace diagonalization in iterative solution of the eigenvalue problem:
     one sub-group per band group will be used
     scalapack distributed-memory algorithm (size of sub-group:  2*  2 procs)

 
     Parallelization info
     --------------------
     sticks:   dense  smooth     PW     G-vecs:    dense   smooth      PW
     Min         111      59     18                 4659     1815     316
     Max         112      60     19                 4666     1820     321
     Sum        1789     955    301                74631    29091    5113
 


     bravais-lattice index     =            0
     lattice parameter (alat)  =       6.5828  a.u.
     unit-cell volume          =     300.3155 (a.u.)^3
     number of atoms/cell      =            4
     number of atomic types    =            2
     number of electrons       =        32.00
     number of Kohn-Sham states=           16
     kinetic-energy cutoff     =      80.0000  Ry
     charge density cutoff     =     600.0000  Ry
     convergence threshold     =      1.0E-06
     mixing beta               =       0.5000
     number of iterations used =            8  plain     mixing
     Exchange-correlation      = SLA  PW   PSX  PSC ( 1  4 10  8 0 0)
     Using LIBXC version       =    4   3   4

     celldm(1)=   6.582775  celldm(2)=   0.000000  celldm(3)=   0.000000
     celldm(4)=   0.000000  celldm(5)=   0.000000  celldm(6)=   0.000000

     crystal axes: (cart. coord. in units of alat)
               a(1) = (   1.000000   0.000000   0.000000 )  
               a(2) = (  -0.500000   0.866025   0.000000 )  
               a(3) = (   0.000000   0.000000   1.215682 )  

     reciprocal axes: (cart. coord. in units 2 pi/alat)
               b(1) = (  1.000000  0.577350 -0.000000 )  
               b(2) = ( -0.000000  1.154701 -0.000000 )  
               b(3) = ( -0.000000 -0.000000  0.822583 )  


     PseudoPot. # 1 for Mg read from file:
     ./GBRV_PBEsol/mg_pbesol_v1.4.uspp.F.UPF
     MD5 check sum: 4059f37963cf5867752dbf5ab2400678
     Pseudo is Ultrasoft, Zval = 10.0
     Generated by new atomic code, or converted to UPF format
     Using radial grid of  821 points,  7 beta functions with: 
                l(1) =   0
                l(2) =   0
                l(3) =   0
                l(4) =   1
                l(5) =   1
                l(6) =   2
                l(7) =   2
     Q(r) pseudized with  8 coefficients,  rinner =    1.200   1.200   1.200
                                                       1.200   1.200

     PseudoPot. # 2 for O  read from file:
     ./GBRV_PBEsol/o_pbesol_v1.2.uspp.F.UPF
     MD5 check sum: 501638753501ef6325af9037351f7734
     Pseudo is Ultrasoft + core correction, Zval =  6.0
     Generated by new atomic code, or converted to UPF format
     Using radial grid of  737 points,  5 beta functions with: 
                l(1) =   0
                l(2) =   0
                l(3) =   1
                l(4) =   1
                l(5) =   2
     Q(r) pseudized with  8 coefficients,  rinner =    0.900   0.900   0.900
                                                       0.900   0.900

     atomic species   valence    mass     pseudopotential
        Mg            10.00    24.30500     Mg( 1.00)
        O              6.00    15.99900     O ( 1.00)

     No symmetry found


                                    s                        frac. trans.

      isym =  1     identity                                     

 cryst.   s( 1) = (     1          0          0      )
                  (     0          1          0      )
                  (     0          0          1      )

 cart.    s( 1) = (  1.0000000 -0.0000000 -0.0000000 )
                  (  0.0000000  1.0000000  0.0000000 )
                  (  0.0000000 -0.0000000  1.0000000 )


   Cartesian axes

     site n.     atom                  positions (alat units)
         1           O   tau(   1) = (   0.5000002   0.2886755   0.0089303  )
         2           O   tau(   2) = (   0.0000002   0.5773495   0.6167714  )
         3           Mg  tau(   3) = (   0.5000001   0.2886749   0.6398795  )
         4           Mg  tau(   4) = (  -0.0000000   0.5773512   1.2477206  )

   Crystallographic axes

     site n.     atom                  positions (cryst. coord.)
         1           O   tau(   1) = (  0.6666670  0.3333337  0.0073459  )
         2           O   tau(   2) = (  0.3333329  0.6666657  0.5073458  )
         3           Mg  tau(   3) = (  0.6666664  0.3333329  0.5263540  )
         4           Mg  tau(   4) = (  0.3333337  0.6666677  1.0263539  )

     number of k points=   260
                       cart. coord. in units 2pi/alat
        k(    1) = (   0.0000000   0.0000000   0.0000000), wk =   0.0039062
        k(    2) = (  -0.0000000  -0.0000000   0.1028229), wk =   0.0078125
        k(    3) = (  -0.0000000  -0.0000000   0.2056458), wk =   0.0078125
        k(    4) = (  -0.0000000  -0.0000000   0.3084687), wk =   0.0078125
        k(    5) = (   0.0000001   0.0000000  -0.4112916), wk =   0.0039062
        k(    6) = (  -0.0000000   0.1443376  -0.0000000), wk =   0.0078125
        k(    7) = (  -0.0000000   0.1443376   0.1028229), wk =   0.0078125
        k(    8) = (  -0.0000000   0.1443375   0.2056458), wk =   0.0078125
        k(    9) = (  -0.0000001   0.1443375   0.3084687), wk =   0.0078125
        k(   10) = (   0.0000000   0.1443376  -0.4112916), wk =   0.0078125
        k(   11) = (   0.0000000   0.1443376  -0.3084687), wk =   0.0078125
        k(   12) = (   0.0000000   0.1443376  -0.2056458), wk =   0.0078125
        k(   13) = (   0.0000000   0.1443376  -0.1028229), wk =   0.0078125
        k(   14) = (  -0.0000000   0.2886751  -0.0000000), wk =   0.0078125
        k(   15) = (  -0.0000000   0.2886751   0.1028229), wk =   0.0078125
        k(   16) = (  -0.0000001   0.2886751   0.2056458), wk =   0.0078125
        k(   17) = (  -0.0000001   0.2886751   0.3084687), wk =   0.0078125
        k(   18) = (   0.0000000   0.2886752  -0.4112916), wk =   0.0078125
        k(   19) = (   0.0000000   0.2886752  -0.3084687), wk =   0.0078125
        k(   20) = (   0.0000000   0.2886751  -0.2056458), wk =   0.0078125
        k(   21) = (  -0.0000000   0.2886751  -0.1028229), wk =   0.0078125
        k(   22) = (  -0.0000000   0.4330127  -0.0000000), wk =   0.0078125
        k(   23) = (  -0.0000001   0.4330127   0.1028229), wk =   0.0078125
        k(   24) = (  -0.0000001   0.4330127   0.2056458), wk =   0.0078125
        k(   25) = (  -0.0000001   0.4330127   0.3084687), wk =   0.0078125
        k(   26) = (   0.0000000   0.4330127  -0.4112916), wk =   0.0078125
        k(   27) = (   0.0000000   0.4330127  -0.3084687), wk =   0.0078125
        k(   28) = (  -0.0000000   0.4330127  -0.2056458), wk =   0.0078125
        k(   29) = (  -0.0000000   0.4330127  -0.1028229), wk =   0.0078125
        k(   30) = (   0.0000000  -0.5773503   0.0000000), wk =   0.0039062
        k(   31) = (   0.0000000  -0.5773503   0.1028229), wk =   0.0078125
        k(   32) = (   0.0000000  -0.5773503   0.2056458), wk =   0.0078125
        k(   33) = (   0.0000000  -0.5773503   0.3084687), wk =   0.0078125
        k(   34) = (   0.0000001  -0.5773502  -0.4112916), wk =   0.0039062
        k(   35) = (   0.1250000   0.0721688  -0.0000000), wk =   0.0078125
        k(   36) = (   0.1250000   0.0721688   0.1028229), wk =   0.0078125
        k(   37) = (   0.1250000   0.0721688   0.2056458), wk =   0.0078125
        k(   38) = (   0.1249999   0.0721687   0.3084687), wk =   0.0078125
        k(   39) = (   0.1250001   0.0721688  -0.4112916), wk =   0.0078125
        k(   40) = (   0.1250000   0.0721688  -0.3084687), wk =   0.0078125
        k(   41) = (   0.1250000   0.0721688  -0.2056458), wk =   0.0078125
        k(   42) = (   0.1250000   0.0721688  -0.1028229), wk =   0.0078125
        k(   43) = (   0.1250000   0.2165063  -0.0000000), wk =   0.0078125
        k(   44) = (   0.1250000   0.2165063   0.1028229), wk =   0.0078125
        k(   45) = (   0.1250000   0.2165063   0.2056458), wk =   0.0078125
        k(   46) = (   0.1249999   0.2165063   0.3084687), wk =   0.0078125
        k(   47) = (   0.1250000   0.2165064  -0.4112916), wk =   0.0078125
        k(   48) = (   0.1250000   0.2165064  -0.3084687), wk =   0.0078125
        k(   49) = (   0.1250000   0.2165064  -0.2056458), wk =   0.0078125
        k(   50) = (   0.1250000   0.2165063  -0.1028229), wk =   0.0078125
        k(   51) = (   0.1250000   0.3608439  -0.0000000), wk =   0.0078125
        k(   52) = (   0.1250000   0.3608439   0.1028229), wk =   0.0078125
        k(   53) = (   0.1249999   0.3608439   0.2056458), wk =   0.0078125
        k(   54) = (   0.1249999   0.3608439   0.3084687), wk =   0.0078125
        k(   55) = (   0.1250000   0.3608439  -0.4112916), wk =   0.0078125
        k(   56) = (   0.1250000   0.3608439  -0.3084687), wk =   0.0078125
        k(   57) = (   0.1250000   0.3608439  -0.2056458), wk =   0.0078125
        k(   58) = (   0.1250000   0.3608439  -0.1028229), wk =   0.0078125
        k(   59) = (   0.1250000   0.5051815  -0.0000000), wk =   0.0078125
        k(   60) = (   0.1249999   0.5051815   0.1028229), wk =   0.0078125
        k(   61) = (   0.1249999   0.5051814   0.2056458), wk =   0.0078125
        k(   62) = (   0.1249999   0.5051814   0.3084687), wk =   0.0078125
        k(   63) = (   0.1250000   0.5051815  -0.4112916), wk =   0.0078125
        k(   64) = (   0.1250000   0.5051815  -0.3084687), wk =   0.0078125
        k(   65) = (   0.1250000   0.5051815  -0.2056458), wk =   0.0078125
        k(   66) = (   0.1250000   0.5051815  -0.1028229), wk =   0.0078125
        k(   67) = (   0.1250000  -0.5051815   0.0000000), wk =   0.0078125
        k(   68) = (   0.1250000  -0.5051815   0.1028229), wk =   0.0078125
        k(   69) = (   0.1250000  -0.5051815   0.2056458), wk =   0.0078125
        k(   70) = (   0.1250000  -0.5051815   0.3084687), wk =   0.0078125
        k(   71) = (   0.1250001  -0.5051814  -0.4112916), wk =   0.0078125
        k(   72) = (   0.1250001  -0.5051815  -0.3084687), wk =   0.0078125
        k(   73) = (   0.1250001  -0.5051815  -0.2056458), wk =   0.0078125
        k(   74) = (   0.1250001  -0.5051815  -0.1028229), wk =   0.0078125
        k(   75) = (   0.1250000  -0.3608439   0.0000000), wk =   0.0078125
        k(   76) = (   0.1250000  -0.3608439   0.1028229), wk =   0.0078125
        k(   77) = (   0.1250000  -0.3608439   0.2056458), wk =   0.0078125
        k(   78) = (   0.1250000  -0.3608439   0.3084687), wk =   0.0078125
        k(   79) = (   0.1250001  -0.3608439  -0.4112916), wk =   0.0078125
        k(   80) = (   0.1250001  -0.3608439  -0.3084687), wk =   0.0078125
        k(   81) = (   0.1250001  -0.3608439  -0.2056458), wk =   0.0078125
        k(   82) = (   0.1250000  -0.3608439  -0.1028229), wk =   0.0078125
        k(   83) = (   0.1250000  -0.2165064   0.0000000), wk =   0.0078125
        k(   84) = (   0.1250000  -0.2165064   0.1028229), wk =   0.0078125
        k(   85) = (   0.1250000  -0.2165064   0.2056458), wk =   0.0078125
        k(   86) = (   0.1250000  -0.2165064   0.3084687), wk =   0.0078125
        k(   87) = (   0.1250001  -0.2165063  -0.4112916), wk =   0.0078125
        k(   88) = (   0.1250001  -0.2165063  -0.3084687), wk =   0.0078125
        k(   89) = (   0.1250000  -0.2165063  -0.2056458), wk =   0.0078125
        k(   90) = (   0.1250000  -0.2165063  -0.1028229), wk =   0.0078125
        k(   91) = (   0.1250000  -0.0721688  -0.0000000), wk =   0.0078125
        k(   92) = (   0.1250000  -0.0721688   0.1028229), wk =   0.0078125
        k(   93) = (   0.1250000  -0.0721688   0.2056458), wk =   0.0078125
        k(   94) = (   0.1250000  -0.0721688   0.3084687), wk =   0.0078125
        k(   95) = (   0.1250001  -0.0721688  -0.4112916), wk =   0.0078125
        k(   96) = (   0.1250001  -0.0721688  -0.3084687), wk =   0.0078125
        k(   97) = (   0.1250000  -0.0721688  -0.2056458), wk =   0.0078125
        k(   98) = (   0.1250000  -0.0721688  -0.1028229), wk =   0.0078125
        k(   99) = (   0.2500000   0.1443375  -0.0000000), wk =   0.0078125
        k(  100) = (   0.2500000   0.1443375   0.1028229), wk =   0.0078125
        k(  101) = (   0.2500000   0.1443375   0.2056458), wk =   0.0078125
        k(  102) = (   0.2499999   0.1443375   0.3084687), wk =   0.0078125
        k(  103) = (   0.2500000   0.1443376  -0.4112916), wk =   0.0078125
        k(  104) = (   0.2500000   0.1443376  -0.3084687), wk =   0.0078125
        k(  105) = (   0.2500000   0.1443376  -0.2056458), wk =   0.0078125
        k(  106) = (   0.2500000   0.1443376  -0.1028229), wk =   0.0078125
        k(  107) = (   0.2500000   0.2886751  -0.0000000), wk =   0.0078125
        k(  108) = (   0.2500000   0.2886751   0.1028229), wk =   0.0078125
        k(  109) = (   0.2499999   0.2886751   0.2056458), wk =   0.0078125
        k(  110) = (   0.2499999   0.2886751   0.3084687), wk =   0.0078125
        k(  111) = (   0.2500000   0.2886751  -0.4112916), wk =   0.0078125
        k(  112) = (   0.2500000   0.2886751  -0.3084687), wk =   0.0078125
        k(  113) = (   0.2500000   0.2886751  -0.2056458), wk =   0.0078125
        k(  114) = (   0.2500000   0.2886751  -0.1028229), wk =   0.0078125
        k(  115) = (   0.2500000   0.4330127  -0.0000000), wk =   0.0078125
        k(  116) = (   0.2499999   0.4330127   0.1028229), wk =   0.0078125
        k(  117) = (   0.2499999   0.4330127   0.2056458), wk =   0.0078125
        k(  118) = (   0.2499999   0.4330126   0.3084687), wk =   0.0078125
        k(  119) = (   0.2500000   0.4330127  -0.4112917), wk =   0.0078125
        k(  120) = (   0.2500000   0.4330127  -0.3084688), wk =   0.0078125
        k(  121) = (   0.2500000   0.4330127  -0.2056458), wk =   0.0078125
        k(  122) = (   0.2500000   0.4330127  -0.1028229), wk =   0.0078125
        k(  123) = (   0.2500000   0.5773502  -0.0000001), wk =   0.0078125
        k(  124) = (   0.2499999   0.5773502   0.1028228), wk =   0.0078125
        k(  125) = (   0.2499999   0.5773502   0.2056457), wk =   0.0078125
        k(  126) = (   0.2499999   0.5773502   0.3084686), wk =   0.0078125
        k(  127) = (   0.2500000   0.5773503  -0.4112917), wk =   0.0078125
        k(  128) = (   0.2500000   0.5773503  -0.3084688), wk =   0.0078125
        k(  129) = (   0.2500000   0.5773503  -0.2056459), wk =   0.0078125
        k(  130) = (   0.2500000   0.5773502  -0.1028230), wk =   0.0078125
        k(  131) = (   0.2500000  -0.4330127   0.0000000), wk =   0.0078125
        k(  132) = (   0.2500000  -0.4330127   0.1028229), wk =   0.0078125
        k(  133) = (   0.2500000  -0.4330127   0.2056458), wk =   0.0078125
        k(  134) = (   0.2500000  -0.4330127   0.3084687), wk =   0.0078125
        k(  135) = (   0.2500001  -0.4330127  -0.4112916), wk =   0.0078125
        k(  136) = (   0.2500001  -0.4330127  -0.3084687), wk =   0.0078125
        k(  137) = (   0.2500001  -0.4330127  -0.2056458), wk =   0.0078125
        k(  138) = (   0.2500001  -0.4330127  -0.1028229), wk =   0.0078125
        k(  139) = (   0.2500000  -0.2886751  -0.0000000), wk =   0.0078125
        k(  140) = (   0.2500000  -0.2886752   0.1028229), wk =   0.0078125
        k(  141) = (   0.2500000  -0.2886752   0.2056458), wk =   0.0078125
        k(  142) = (   0.2500000  -0.2886752   0.3084687), wk =   0.0078125
        k(  143) = (   0.2500001  -0.2886751  -0.4112916), wk =   0.0078125
        k(  144) = (   0.2500001  -0.2886751  -0.3084687), wk =   0.0078125
        k(  145) = (   0.2500001  -0.2886751  -0.2056458), wk =   0.0078125
        k(  146) = (   0.2500000  -0.2886751  -0.1028229), wk =   0.0078125
        k(  147) = (   0.2500000  -0.1443376  -0.0000000), wk =   0.0078125
        k(  148) = (   0.2500000  -0.1443376   0.1028229), wk =   0.0078125
        k(  149) = (   0.2500000  -0.1443376   0.2056458), wk =   0.0078125
        k(  150) = (   0.2500000  -0.1443376   0.3084687), wk =   0.0078125
        k(  151) = (   0.2500001  -0.1443375  -0.4112916), wk =   0.0078125
        k(  152) = (   0.2500001  -0.1443376  -0.3084687), wk =   0.0078125
        k(  153) = (   0.2500000  -0.1443376  -0.2056458), wk =   0.0078125
        k(  154) = (   0.2500000  -0.1443376  -0.1028229), wk =   0.0078125
        k(  155) = (   0.2500000  -0.0000000  -0.0000000), wk =   0.0078125
        k(  156) = (   0.2500000  -0.0000000   0.1028229), wk =   0.0078125
        k(  157) = (   0.2500000  -0.0000000   0.2056458), wk =   0.0078125
        k(  158) = (   0.2500000  -0.0000000   0.3084687), wk =   0.0078125
        k(  159) = (   0.2500001   0.0000000  -0.4112916), wk =   0.0078125
        k(  160) = (   0.2500000   0.0000000  -0.3084687), wk =   0.0078125
        k(  161) = (   0.2500000  -0.0000000  -0.2056458), wk =   0.0078125
        k(  162) = (   0.2500000  -0.0000000  -0.1028229), wk =   0.0078125
        k(  163) = (   0.3750000   0.2165063  -0.0000000), wk =   0.0078125
        k(  164) = (   0.3750000   0.2165063   0.1028229), wk =   0.0078125
        k(  165) = (   0.3750000   0.2165063   0.2056458), wk =   0.0078125
        k(  166) = (   0.3749999   0.2165063   0.3084687), wk =   0.0078125
        k(  167) = (   0.3750000   0.2165064  -0.4112916), wk =   0.0078125
        k(  168) = (   0.3750000   0.2165063  -0.3084687), wk =   0.0078125
        k(  169) = (   0.3750000   0.2165063  -0.2056458), wk =   0.0078125
        k(  170) = (   0.3750000   0.2165063  -0.1028229), wk =   0.0078125
        k(  171) = (   0.3750000   0.3608439  -0.0000001), wk =   0.0078125
        k(  172) = (   0.3750000   0.3608439   0.1028228), wk =   0.0078125
        k(  173) = (   0.3749999   0.3608439   0.2056458), wk =   0.0078125
        k(  174) = (   0.3749999   0.3608438   0.3084687), wk =   0.0078125
        k(  175) = (   0.3750000   0.3608439  -0.4112917), wk =   0.0078125
        k(  176) = (   0.3750000   0.3608439  -0.3084688), wk =   0.0078125
        k(  177) = (   0.3750000   0.3608439  -0.2056459), wk =   0.0078125
        k(  178) = (   0.3750000   0.3608439  -0.1028230), wk =   0.0078125
        k(  179) = (   0.3750000   0.5051814  -0.0000001), wk =   0.0078125
        k(  180) = (   0.3749999   0.5051814   0.1028228), wk =   0.0078125
        k(  181) = (   0.3749999   0.5051814   0.2056457), wk =   0.0078125
        k(  182) = (   0.3749999   0.5051814   0.3084686), wk =   0.0078125
        k(  183) = (   0.3750000   0.5051815  -0.4112917), wk =   0.0078125
        k(  184) = (   0.3750000   0.5051815  -0.3084688), wk =   0.0078125
        k(  185) = (   0.3750000   0.5051815  -0.2056459), wk =   0.0078125
        k(  186) = (   0.3750000   0.5051815  -0.1028230), wk =   0.0078125
        k(  187) = (   0.3749999   0.6495190  -0.0000001), wk =   0.0078125
        k(  188) = (   0.3749999   0.6495190   0.1028228), wk =   0.0078125
        k(  189) = (   0.3749999   0.6495190   0.2056457), wk =   0.0078125
        k(  190) = (   0.3749999   0.6495190   0.3084686), wk =   0.0078125
        k(  191) = (   0.3750000   0.6495190  -0.4112917), wk =   0.0078125
        k(  192) = (   0.3750000   0.6495190  -0.3084688), wk =   0.0078125
        k(  193) = (   0.3750000   0.6495190  -0.2056459), wk =   0.0078125
        k(  194) = (   0.3750000   0.6495190  -0.1028230), wk =   0.0078125
        k(  195) = (   0.3750000  -0.3608439  -0.0000000), wk =   0.0078125
        k(  196) = (   0.3750000  -0.3608440   0.1028229), wk =   0.0078125
        k(  197) = (   0.3750000  -0.3608440   0.2056458), wk =   0.0078125
        k(  198) = (   0.3750000  -0.3608440   0.3084687), wk =   0.0078125
        k(  199) = (   0.3750001  -0.3608439  -0.4112916), wk =   0.0078125
        k(  200) = (   0.3750001  -0.3608439  -0.3084687), wk =   0.0078125
        k(  201) = (   0.3750001  -0.3608439  -0.2056458), wk =   0.0078125
        k(  202) = (   0.3750000  -0.3608439  -0.1028229), wk =   0.0078125
        k(  203) = (   0.3750000  -0.2165064  -0.0000000), wk =   0.0078125
        k(  204) = (   0.3750000  -0.2165064   0.1028229), wk =   0.0078125
        k(  205) = (   0.3750000  -0.2165064   0.2056458), wk =   0.0078125
        k(  206) = (   0.3750000  -0.2165064   0.3084687), wk =   0.0078125
        k(  207) = (   0.3750001  -0.2165063  -0.4112916), wk =   0.0078125
        k(  208) = (   0.3750001  -0.2165063  -0.3084687), wk =   0.0078125
        k(  209) = (   0.3750000  -0.2165064  -0.2056458), wk =   0.0078125
        k(  210) = (   0.3750000  -0.2165064  -0.1028229), wk =   0.0078125
        k(  211) = (   0.3750000  -0.0721688  -0.0000000), wk =   0.0078125
        k(  212) = (   0.3750000  -0.0721688   0.1028229), wk =   0.0078125
        k(  213) = (   0.3750000  -0.0721688   0.2056458), wk =   0.0078125
        k(  214) = (   0.3750000  -0.0721688   0.3084687), wk =   0.0078125
        k(  215) = (   0.3750001  -0.0721688  -0.4112916), wk =   0.0078125
        k(  216) = (   0.3750001  -0.0721688  -0.3084687), wk =   0.0078125
        k(  217) = (   0.3750000  -0.0721688  -0.2056458), wk =   0.0078125
        k(  218) = (   0.3750000  -0.0721688  -0.1028229), wk =   0.0078125
        k(  219) = (   0.3750000   0.0721687  -0.0000000), wk =   0.0078125
        k(  220) = (   0.3750000   0.0721687   0.1028229), wk =   0.0078125
        k(  221) = (   0.3750000   0.0721687   0.2056458), wk =   0.0078125
        k(  222) = (   0.3749999   0.0721687   0.3084687), wk =   0.0078125
        k(  223) = (   0.3750001   0.0721688  -0.4112916), wk =   0.0078125
        k(  224) = (   0.3750000   0.0721688  -0.3084687), wk =   0.0078125
        k(  225) = (   0.3750000   0.0721688  -0.2056458), wk =   0.0078125
        k(  226) = (   0.3750000   0.0721688  -0.1028229), wk =   0.0078125
        k(  227) = (  -0.5000000  -0.2886751   0.0000001), wk =   0.0039062
        k(  228) = (  -0.5000000  -0.2886751   0.1028230), wk =   0.0078125
        k(  229) = (  -0.5000000  -0.2886751   0.2056459), wk =   0.0078125
        k(  230) = (  -0.5000000  -0.2886751   0.3084688), wk =   0.0078125
        k(  231) = (  -0.4999999  -0.2886750  -0.4112915), wk =   0.0039062
        k(  232) = (  -0.5000000  -0.1443375   0.0000000), wk =   0.0078125
        k(  233) = (  -0.5000000  -0.1443375   0.1028230), wk =   0.0078125
        k(  234) = (  -0.5000000  -0.1443375   0.2056459), wk =   0.0078125
        k(  235) = (  -0.5000000  -0.1443375   0.3084688), wk =   0.0078125
        k(  236) = (  -0.4999999  -0.1443375  -0.4112916), wk =   0.0078125
        k(  237) = (  -0.4999999  -0.1443375  -0.3084687), wk =   0.0078125
        k(  238) = (  -0.5000000  -0.1443375  -0.2056458), wk =   0.0078125
        k(  239) = (  -0.5000000  -0.1443375  -0.1028229), wk =   0.0078125
        k(  240) = (  -0.5000000   0.0000000   0.0000000), wk =   0.0078125
        k(  241) = (  -0.5000000   0.0000000   0.1028229), wk =   0.0078125
        k(  242) = (  -0.5000000   0.0000000   0.2056458), wk =   0.0078125
        k(  243) = (  -0.5000000   0.0000000   0.3084687), wk =   0.0078125
        k(  244) = (  -0.4999999   0.0000001  -0.4112916), wk =   0.0078125
        k(  245) = (  -0.5000000   0.0000001  -0.3084687), wk =   0.0078125
        k(  246) = (  -0.5000000   0.0000001  -0.2056458), wk =   0.0078125
        k(  247) = (  -0.5000000   0.0000001  -0.1028229), wk =   0.0078125
        k(  248) = (  -0.5000000   0.1443376   0.0000000), wk =   0.0078125
        k(  249) = (  -0.5000000   0.1443376   0.1028229), wk =   0.0078125
        k(  250) = (  -0.5000000   0.1443376   0.2056458), wk =   0.0078125
        k(  251) = (  -0.5000001   0.1443376   0.3084687), wk =   0.0078125
        k(  252) = (  -0.5000000   0.1443376  -0.4112916), wk =   0.0078125
        k(  253) = (  -0.5000000   0.1443376  -0.3084687), wk =   0.0078125
        k(  254) = (  -0.5000000   0.1443376  -0.2056458), wk =   0.0078125
        k(  255) = (  -0.5000000   0.1443376  -0.1028229), wk =   0.0078125
        k(  256) = (  -0.4999999  -0.8660253   0.0000001), wk =   0.0039062
        k(  257) = (  -0.4999999  -0.8660253   0.1028230), wk =   0.0078125
        k(  258) = (  -0.5000000  -0.8660254   0.2056459), wk =   0.0078125
        k(  259) = (  -0.5000000  -0.8660254   0.3084688), wk =   0.0078125
        k(  260) = (  -0.4999999  -0.8660253  -0.4112915), wk =   0.0039062

                       cryst. coord.
        k(    1) = (   0.0000000   0.0000000   0.0000000), wk =   0.0039062
        k(    2) = (   0.0000000  -0.0000000   0.1250000), wk =   0.0078125
        k(    3) = (   0.0000000  -0.0000000   0.2500000), wk =   0.0078125
        k(    4) = (   0.0000000  -0.0000000   0.3750000), wk =   0.0078125
        k(    5) = (  -0.0000000   0.0000000  -0.5000000), wk =   0.0039062
        k(    6) = (  -0.0000000   0.1250000  -0.0000000), wk =   0.0078125
        k(    7) = (   0.0000000   0.1250000   0.1250000), wk =   0.0078125
        k(    8) = (   0.0000000   0.1250000   0.2500000), wk =   0.0078125
        k(    9) = (   0.0000000   0.1250000   0.3750000), wk =   0.0078125
        k(   10) = (  -0.0000000   0.1250000  -0.5000000), wk =   0.0078125
        k(   11) = (  -0.0000000   0.1250000  -0.3750000), wk =   0.0078125
        k(   12) = (  -0.0000000   0.1250000  -0.2500000), wk =   0.0078125
        k(   13) = (  -0.0000000   0.1250000  -0.1250000), wk =   0.0078125
        k(   14) = (  -0.0000000   0.2500000  -0.0000000), wk =   0.0078125
        k(   15) = (  -0.0000000   0.2500000   0.1250000), wk =   0.0078125
        k(   16) = (   0.0000000   0.2500000   0.2500000), wk =   0.0078125
        k(   17) = (  -0.0000000   0.2500000   0.3750000), wk =   0.0078125
        k(   18) = (  -0.0000000   0.2500000  -0.5000000), wk =   0.0078125
        k(   19) = (  -0.0000000   0.2500000  -0.3750000), wk =   0.0078125
        k(   20) = (  -0.0000000   0.2500000  -0.2500000), wk =   0.0078125
        k(   21) = (  -0.0000000   0.2500000  -0.1250000), wk =   0.0078125
        k(   22) = (  -0.0000000   0.3750000   0.0000000), wk =   0.0078125
        k(   23) = (  -0.0000000   0.3750000   0.1250000), wk =   0.0078125
        k(   24) = (  -0.0000000   0.3750000   0.2500000), wk =   0.0078125
        k(   25) = (  -0.0000000   0.3750000   0.3750000), wk =   0.0078125
        k(   26) = (  -0.0000000   0.3750000  -0.5000000), wk =   0.0078125
        k(   27) = (  -0.0000000   0.3750000  -0.3750000), wk =   0.0078125
        k(   28) = (  -0.0000000   0.3750000  -0.2500000), wk =   0.0078125
        k(   29) = (  -0.0000000   0.3750000  -0.1250000), wk =   0.0078125
        k(   30) = (   0.0000000  -0.5000000   0.0000000), wk =   0.0039062
        k(   31) = (   0.0000000  -0.5000000   0.1250000), wk =   0.0078125
        k(   32) = (   0.0000000  -0.5000000   0.2500000), wk =   0.0078125
        k(   33) = (   0.0000000  -0.5000000   0.3750000), wk =   0.0078125
        k(   34) = (  -0.0000000  -0.5000000  -0.5000000), wk =   0.0039062
        k(   35) = (   0.1250000  -0.0000000  -0.0000000), wk =   0.0078125
        k(   36) = (   0.1250000  -0.0000000   0.1250000), wk =   0.0078125
        k(   37) = (   0.1250000   0.0000000   0.2500000), wk =   0.0078125
        k(   38) = (   0.1250000   0.0000000   0.3750000), wk =   0.0078125
        k(   39) = (   0.1250000   0.0000000  -0.5000000), wk =   0.0078125
        k(   40) = (   0.1250000  -0.0000000  -0.3750000), wk =   0.0078125
        k(   41) = (   0.1250000   0.0000000  -0.2500000), wk =   0.0078125
        k(   42) = (   0.1250000   0.0000000  -0.1250000), wk =   0.0078125
        k(   43) = (   0.1250000   0.1250000  -0.0000000), wk =   0.0078125
        k(   44) = (   0.1250000   0.1250000   0.1250000), wk =   0.0078125
        k(   45) = (   0.1250000   0.1250000   0.2500000), wk =   0.0078125
        k(   46) = (   0.1250000   0.1250000   0.3750000), wk =   0.0078125
        k(   47) = (   0.1250000   0.1250000  -0.5000000), wk =   0.0078125
        k(   48) = (   0.1250000   0.1250000  -0.3750000), wk =   0.0078125
        k(   49) = (   0.1250000   0.1250000  -0.2500000), wk =   0.0078125
        k(   50) = (   0.1250000   0.1250000  -0.1250000), wk =   0.0078125
        k(   51) = (   0.1250000   0.2500000  -0.0000000), wk =   0.0078125
        k(   52) = (   0.1250000   0.2500000   0.1250000), wk =   0.0078125
        k(   53) = (   0.1250000   0.2500000   0.2500000), wk =   0.0078125
        k(   54) = (   0.1250000   0.2500000   0.3750000), wk =   0.0078125
        k(   55) = (   0.1250000   0.2500000  -0.5000000), wk =   0.0078125
        k(   56) = (   0.1250000   0.2500000  -0.3750000), wk =   0.0078125
        k(   57) = (   0.1250000   0.2500000  -0.2500000), wk =   0.0078125
        k(   58) = (   0.1250000   0.2500000  -0.1250000), wk =   0.0078125
        k(   59) = (   0.1250000   0.3750000   0.0000000), wk =   0.0078125
        k(   60) = (   0.1250000   0.3750000   0.1250000), wk =   0.0078125
        k(   61) = (   0.1250000   0.3750000   0.2500000), wk =   0.0078125
        k(   62) = (   0.1250000   0.3750000   0.3750000), wk =   0.0078125
        k(   63) = (   0.1250000   0.3750000  -0.5000000), wk =   0.0078125
        k(   64) = (   0.1250000   0.3750000  -0.3750000), wk =   0.0078125
        k(   65) = (   0.1250000   0.3750000  -0.2500000), wk =   0.0078125
        k(   66) = (   0.1250000   0.3750000  -0.1250000), wk =   0.0078125
        k(   67) = (   0.1250000  -0.5000000  -0.0000000), wk =   0.0078125
        k(   68) = (   0.1250000  -0.5000000   0.1250000), wk =   0.0078125
        k(   69) = (   0.1250000  -0.5000000   0.2500000), wk =   0.0078125
        k(   70) = (   0.1250000  -0.5000000   0.3750000), wk =   0.0078125
        k(   71) = (   0.1250000  -0.5000000  -0.5000000), wk =   0.0078125
        k(   72) = (   0.1250000  -0.5000000  -0.3750000), wk =   0.0078125
        k(   73) = (   0.1250000  -0.5000000  -0.2500000), wk =   0.0078125
        k(   74) = (   0.1250000  -0.5000000  -0.1250000), wk =   0.0078125
        k(   75) = (   0.1250000  -0.3750000  -0.0000000), wk =   0.0078125
        k(   76) = (   0.1250000  -0.3750000   0.1250000), wk =   0.0078125
        k(   77) = (   0.1250000  -0.3750000   0.2500000), wk =   0.0078125
        k(   78) = (   0.1250000  -0.3750000   0.3750000), wk =   0.0078125
        k(   79) = (   0.1250000  -0.3750000  -0.5000000), wk =   0.0078125
        k(   80) = (   0.1250000  -0.3750000  -0.3750000), wk =   0.0078125
        k(   81) = (   0.1250000  -0.3750000  -0.2500000), wk =   0.0078125
        k(   82) = (   0.1250000  -0.3750000  -0.1250000), wk =   0.0078125
        k(   83) = (   0.1250000  -0.2500000  -0.0000000), wk =   0.0078125
        k(   84) = (   0.1250000  -0.2500000   0.1250000), wk =   0.0078125
        k(   85) = (   0.1250000  -0.2500000   0.2500000), wk =   0.0078125
        k(   86) = (   0.1250000  -0.2500000   0.3750000), wk =   0.0078125
        k(   87) = (   0.1250000  -0.2500000  -0.5000000), wk =   0.0078125
        k(   88) = (   0.1250000  -0.2500000  -0.3750000), wk =   0.0078125
        k(   89) = (   0.1250000  -0.2500000  -0.2500000), wk =   0.0078125
        k(   90) = (   0.1250000  -0.2500000  -0.1250000), wk =   0.0078125
        k(   91) = (   0.1250000  -0.1250000  -0.0000000), wk =   0.0078125
        k(   92) = (   0.1250000  -0.1250000   0.1250000), wk =   0.0078125
        k(   93) = (   0.1250000  -0.1250000   0.2500000), wk =   0.0078125
        k(   94) = (   0.1250000  -0.1250000   0.3750000), wk =   0.0078125
        k(   95) = (   0.1250000  -0.1250000  -0.5000000), wk =   0.0078125
        k(   96) = (   0.1250000  -0.1250000  -0.3750000), wk =   0.0078125
        k(   97) = (   0.1250000  -0.1250000  -0.2500000), wk =   0.0078125
        k(   98) = (   0.1250000  -0.1250000  -0.1250000), wk =   0.0078125
        k(   99) = (   0.2500000  -0.0000000  -0.0000000), wk =   0.0078125
        k(  100) = (   0.2500000   0.0000000   0.1250000), wk =   0.0078125
        k(  101) = (   0.2500000  -0.0000000   0.2500000), wk =   0.0078125
        k(  102) = (   0.2500000  -0.0000000   0.3750000), wk =   0.0078125
        k(  103) = (   0.2500000   0.0000000  -0.5000000), wk =   0.0078125
        k(  104) = (   0.2500000  -0.0000000  -0.3750000), wk =   0.0078125
        k(  105) = (   0.2500000   0.0000000  -0.2500000), wk =   0.0078125
        k(  106) = (   0.2500000   0.0000000  -0.1250000), wk =   0.0078125
        k(  107) = (   0.2500000   0.1250000  -0.0000000), wk =   0.0078125
        k(  108) = (   0.2500000   0.1250000   0.1250000), wk =   0.0078125
        k(  109) = (   0.2500000   0.1250000   0.2500000), wk =   0.0078125
        k(  110) = (   0.2500000   0.1250000   0.3750000), wk =   0.0078125
        k(  111) = (   0.2500000   0.1250000  -0.5000000), wk =   0.0078125
        k(  112) = (   0.2500000   0.1250000  -0.3750000), wk =   0.0078125
        k(  113) = (   0.2500000   0.1250000  -0.2500000), wk =   0.0078125
        k(  114) = (   0.2500000   0.1250000  -0.1250000), wk =   0.0078125
        k(  115) = (   0.2500000   0.2500000  -0.0000000), wk =   0.0078125
        k(  116) = (   0.2500000   0.2500000   0.1250000), wk =   0.0078125
        k(  117) = (   0.2500000   0.2500000   0.2500000), wk =   0.0078125
        k(  118) = (   0.2500000   0.2500000   0.3750000), wk =   0.0078125
        k(  119) = (   0.2500000   0.2500000  -0.5000000), wk =   0.0078125
        k(  120) = (   0.2500000   0.2500000  -0.3750000), wk =   0.0078125
        k(  121) = (   0.2500000   0.2500000  -0.2500000), wk =   0.0078125
        k(  122) = (   0.2500000   0.2500000  -0.1250000), wk =   0.0078125
        k(  123) = (   0.2500000   0.3750000  -0.0000000), wk =   0.0078125
        k(  124) = (   0.2500000   0.3750000   0.1250000), wk =   0.0078125
        k(  125) = (   0.2500000   0.3750000   0.2500000), wk =   0.0078125
        k(  126) = (   0.2500000   0.3750000   0.3750000), wk =   0.0078125
        k(  127) = (   0.2500000   0.3750000  -0.5000000), wk =   0.0078125
        k(  128) = (   0.2500000   0.3750000  -0.3750000), wk =   0.0078125
        k(  129) = (   0.2500000   0.3750000  -0.2500000), wk =   0.0078125
        k(  130) = (   0.2500000   0.3750000  -0.1250000), wk =   0.0078125
        k(  131) = (   0.2500000  -0.5000000  -0.0000000), wk =   0.0078125
        k(  132) = (   0.2500000  -0.5000000   0.1250000), wk =   0.0078125
        k(  133) = (   0.2500000  -0.5000000   0.2500000), wk =   0.0078125
        k(  134) = (   0.2500000  -0.5000000   0.3750000), wk =   0.0078125
        k(  135) = (   0.2500000  -0.5000000  -0.5000000), wk =   0.0078125
        k(  136) = (   0.2500000  -0.5000000  -0.3750000), wk =   0.0078125
        k(  137) = (   0.2500000  -0.5000000  -0.2500000), wk =   0.0078125
        k(  138) = (   0.2500000  -0.5000000  -0.1250000), wk =   0.0078125
        k(  139) = (   0.2500000  -0.3750000  -0.0000000), wk =   0.0078125
        k(  140) = (   0.2500000  -0.3750000   0.1250000), wk =   0.0078125
        k(  141) = (   0.2500000  -0.3750000   0.2500000), wk =   0.0078125
        k(  142) = (   0.2500000  -0.3750000   0.3750000), wk =   0.0078125
        k(  143) = (   0.2500000  -0.3750000  -0.5000000), wk =   0.0078125
        k(  144) = (   0.2500000  -0.3750000  -0.3750000), wk =   0.0078125
        k(  145) = (   0.2500000  -0.3750000  -0.2500000), wk =   0.0078125
        k(  146) = (   0.2500000  -0.3750000  -0.1250000), wk =   0.0078125
        k(  147) = (   0.2500000  -0.2500000  -0.0000000), wk =   0.0078125
        k(  148) = (   0.2500000  -0.2500000   0.1250000), wk =   0.0078125
        k(  149) = (   0.2500000  -0.2500000   0.2500000), wk =   0.0078125
        k(  150) = (   0.2500000  -0.2500000   0.3750000), wk =   0.0078125
        k(  151) = (   0.2500000  -0.2500000  -0.5000000), wk =   0.0078125
        k(  152) = (   0.2500000  -0.2500000  -0.3750000), wk =   0.0078125
        k(  153) = (   0.2500000  -0.2500000  -0.2500000), wk =   0.0078125
        k(  154) = (   0.2500000  -0.2500000  -0.1250000), wk =   0.0078125
        k(  155) = (   0.2500000  -0.1250000  -0.0000000), wk =   0.0078125
        k(  156) = (   0.2500000  -0.1250000   0.1250000), wk =   0.0078125
        k(  157) = (   0.2500000  -0.1250000   0.2500000), wk =   0.0078125
        k(  158) = (   0.2500000  -0.1250000   0.3750000), wk =   0.0078125
        k(  159) = (   0.2500000  -0.1250000  -0.5000000), wk =   0.0078125
        k(  160) = (   0.2500000  -0.1250000  -0.3750000), wk =   0.0078125
        k(  161) = (   0.2500000  -0.1250000  -0.2500000), wk =   0.0078125
        k(  162) = (   0.2500000  -0.1250000  -0.1250000), wk =   0.0078125
        k(  163) = (   0.3750000  -0.0000000   0.0000000), wk =   0.0078125
        k(  164) = (   0.3750000   0.0000000   0.1250000), wk =   0.0078125
        k(  165) = (   0.3750000   0.0000000   0.2500000), wk =   0.0078125
        k(  166) = (   0.3750000   0.0000000   0.3750000), wk =   0.0078125
        k(  167) = (   0.3750000   0.0000000  -0.5000000), wk =   0.0078125
        k(  168) = (   0.3750000  -0.0000000  -0.3750000), wk =   0.0078125
        k(  169) = (   0.3750000  -0.0000000  -0.2500000), wk =   0.0078125
        k(  170) = (   0.3750000  -0.0000000  -0.1250000), wk =   0.0078125
        k(  171) = (   0.3750000   0.1250000  -0.0000000), wk =   0.0078125
        k(  172) = (   0.3750000   0.1250000   0.1250000), wk =   0.0078125
        k(  173) = (   0.3750000   0.1250000   0.2500000), wk =   0.0078125
        k(  174) = (   0.3750000   0.1250000   0.3750000), wk =   0.0078125
        k(  175) = (   0.3750000   0.1250000  -0.5000000), wk =   0.0078125
        k(  176) = (   0.3750000   0.1250000  -0.3750000), wk =   0.0078125
        k(  177) = (   0.3750000   0.1250000  -0.2500000), wk =   0.0078125
        k(  178) = (   0.3750000   0.1250000  -0.1250000), wk =   0.0078125
        k(  179) = (   0.3750000   0.2500000  -0.0000000), wk =   0.0078125
        k(  180) = (   0.3750000   0.2500000   0.1250000), wk =   0.0078125
        k(  181) = (   0.3750000   0.2500000   0.2500000), wk =   0.0078125
        k(  182) = (   0.3750000   0.2500000   0.3750000), wk =   0.0078125
        k(  183) = (   0.3750000   0.2500000  -0.5000000), wk =   0.0078125
        k(  184) = (   0.3750000   0.2500000  -0.3750000), wk =   0.0078125
        k(  185) = (   0.3750000   0.2500000  -0.2500000), wk =   0.0078125
        k(  186) = (   0.3750000   0.2500000  -0.1250000), wk =   0.0078125
        k(  187) = (   0.3750000   0.3750000  -0.0000000), wk =   0.0078125
        k(  188) = (   0.3750000   0.3750000   0.1250000), wk =   0.0078125
        k(  189) = (   0.3750000   0.3750000   0.2500000), wk =   0.0078125
        k(  190) = (   0.3750000   0.3750000   0.3750000), wk =   0.0078125
        k(  191) = (   0.3750000   0.3750000  -0.5000000), wk =   0.0078125
        k(  192) = (   0.3750000   0.3750000  -0.3750000), wk =   0.0078125
        k(  193) = (   0.3750000   0.3750000  -0.2500000), wk =   0.0078125
        k(  194) = (   0.3750000   0.3750000  -0.1250000), wk =   0.0078125
        k(  195) = (   0.3750000  -0.5000000  -0.0000000), wk =   0.0078125
        k(  196) = (   0.3750000  -0.5000000   0.1250000), wk =   0.0078125
        k(  197) = (   0.3750000  -0.5000000   0.2500000), wk =   0.0078125
        k(  198) = (   0.3750000  -0.5000000   0.3750000), wk =   0.0078125
        k(  199) = (   0.3750000  -0.5000000  -0.5000000), wk =   0.0078125
        k(  200) = (   0.3750000  -0.5000000  -0.3750000), wk =   0.0078125
        k(  201) = (   0.3750000  -0.5000000  -0.2500000), wk =   0.0078125
        k(  202) = (   0.3750000  -0.5000000  -0.1250000), wk =   0.0078125
        k(  203) = (   0.3750000  -0.3750000   0.0000000), wk =   0.0078125
        k(  204) = (   0.3750000  -0.3750000   0.1250000), wk =   0.0078125
        k(  205) = (   0.3750000  -0.3750000   0.2500000), wk =   0.0078125
        k(  206) = (   0.3750000  -0.3750000   0.3750000), wk =   0.0078125
        k(  207) = (   0.3750000  -0.3750000  -0.5000000), wk =   0.0078125
        k(  208) = (   0.3750000  -0.3750000  -0.3750000), wk =   0.0078125
        k(  209) = (   0.3750000  -0.3750000  -0.2500000), wk =   0.0078125
        k(  210) = (   0.3750000  -0.3750000  -0.1250000), wk =   0.0078125
        k(  211) = (   0.3750000  -0.2500000  -0.0000000), wk =   0.0078125
        k(  212) = (   0.3750000  -0.2500000   0.1250000), wk =   0.0078125
        k(  213) = (   0.3750000  -0.2500000   0.2500000), wk =   0.0078125
        k(  214) = (   0.3750000  -0.2500000   0.3750000), wk =   0.0078125
        k(  215) = (   0.3750000  -0.2500000  -0.5000000), wk =   0.0078125
        k(  216) = (   0.3750000  -0.2500000  -0.3750000), wk =   0.0078125
        k(  217) = (   0.3750000  -0.2500000  -0.2500000), wk =   0.0078125
        k(  218) = (   0.3750000  -0.2500000  -0.1250000), wk =   0.0078125
        k(  219) = (   0.3750000  -0.1250000  -0.0000000), wk =   0.0078125
        k(  220) = (   0.3750000  -0.1250000   0.1250000), wk =   0.0078125
        k(  221) = (   0.3750000  -0.1250000   0.2500000), wk =   0.0078125
        k(  222) = (   0.3750000  -0.1250000   0.3750000), wk =   0.0078125
        k(  223) = (   0.3750000  -0.1250000  -0.5000000), wk =   0.0078125
        k(  224) = (   0.3750000  -0.1250000  -0.3750000), wk =   0.0078125
        k(  225) = (   0.3750000  -0.1250000  -0.2500000), wk =   0.0078125
        k(  226) = (   0.3750000  -0.1250000  -0.1250000), wk =   0.0078125
        k(  227) = (  -0.5000000   0.0000000   0.0000000), wk =   0.0039062
        k(  228) = (  -0.5000000  -0.0000000   0.1250000), wk =   0.0078125
        k(  229) = (  -0.5000000  -0.0000000   0.2500000), wk =   0.0078125
        k(  230) = (  -0.5000000  -0.0000000   0.3750000), wk =   0.0078125
        k(  231) = (  -0.5000000   0.0000000  -0.5000000), wk =   0.0039062
        k(  232) = (  -0.5000000   0.1250000  -0.0000000), wk =   0.0078125
        k(  233) = (  -0.5000000   0.1250000   0.1250000), wk =   0.0078125
        k(  234) = (  -0.5000000   0.1250000   0.2500000), wk =   0.0078125
        k(  235) = (  -0.5000000   0.1250000   0.3750000), wk =   0.0078125
        k(  236) = (  -0.5000000   0.1250000  -0.5000000), wk =   0.0078125
        k(  237) = (  -0.5000000   0.1250000  -0.3750000), wk =   0.0078125
        k(  238) = (  -0.5000000   0.1250000  -0.2500000), wk =   0.0078125
        k(  239) = (  -0.5000000   0.1250000  -0.1250000), wk =   0.0078125
        k(  240) = (  -0.5000000   0.2500000   0.0000000), wk =   0.0078125
        k(  241) = (  -0.5000000   0.2500000   0.1250000), wk =   0.0078125
        k(  242) = (  -0.5000000   0.2500000   0.2500000), wk =   0.0078125
        k(  243) = (  -0.5000000   0.2500000   0.3750000), wk =   0.0078125
        k(  244) = (  -0.5000000   0.2500000  -0.5000000), wk =   0.0078125
        k(  245) = (  -0.5000000   0.2500000  -0.3750000), wk =   0.0078125
        k(  246) = (  -0.5000000   0.2500000  -0.2500000), wk =   0.0078125
        k(  247) = (  -0.5000000   0.2500000  -0.1250000), wk =   0.0078125
        k(  248) = (  -0.5000000   0.3750000   0.0000000), wk =   0.0078125
        k(  249) = (  -0.5000000   0.3750000   0.1250000), wk =   0.0078125
        k(  250) = (  -0.5000000   0.3750000   0.2500000), wk =   0.0078125
        k(  251) = (  -0.5000000   0.3750000   0.3750000), wk =   0.0078125
        k(  252) = (  -0.5000000   0.3750000  -0.5000000), wk =   0.0078125
        k(  253) = (  -0.5000000   0.3750000  -0.3750000), wk =   0.0078125
        k(  254) = (  -0.5000000   0.3750000  -0.2500000), wk =   0.0078125
        k(  255) = (  -0.5000000   0.3750000  -0.1250000), wk =   0.0078125
        k(  256) = (  -0.5000000  -0.5000000   0.0000000), wk =   0.0039062
        k(  257) = (  -0.5000000  -0.5000000   0.1250000), wk =   0.0078125
        k(  258) = (  -0.5000000  -0.5000000   0.2500000), wk =   0.0078125
        k(  259) = (  -0.5000000  -0.5000000   0.3750000), wk =   0.0078125
        k(  260) = (  -0.5000000  -0.5000000  -0.5000000), wk =   0.0039062

     Dense  grid:    74631 G-vectors     FFT dimensions: (  54,  54,  64)

     Smooth grid:    29091 G-vectors     FFT dimensions: (  40,  40,  48)

     Dynamical RAM for                 wfc:       0.06 MB

     Dynamical RAM for     wfc (w. buffer):       3.64 MB

     Dynamical RAM for           str. fact:       0.14 MB

     Dynamical RAM for           local pot:       0.00 MB

     Dynamical RAM for          nlocal pot:       0.22 MB

     Dynamical RAM for                qrad:       5.49 MB

     Dynamical RAM for          rho,v,vnew:       0.48 MB

     Dynamical RAM for               rhoin:       0.16 MB

     Dynamical RAM for            rho*nmix:       1.14 MB

     Dynamical RAM for           G-vectors:       0.28 MB

     Dynamical RAM for          h,s,v(r/c):       0.05 MB

     Dynamical RAM for          <psi|beta>:       0.02 MB

     Dynamical RAM for                 psi:       0.22 MB

     Dynamical RAM for                hpsi:       0.22 MB

     Dynamical RAM for                spsi:       0.22 MB

     Dynamical RAM for      wfcinit/wfcrot:       0.13 MB

     Dynamical RAM for           addusdens:       3.74 MB

     Dynamical RAM for          addusforce:       3.88 MB

     Dynamical RAM for         addusstress:       3.94 MB

     Estimated static dynamical RAM per process >      12.21 MB

     Estimated max dynamical RAM per process >      16.16 MB

     Estimated total dynamical RAM >       1.01 GB

     Check: negative core charge=   -0.000003

     Initial potential from superposition of free atoms

     starting charge   31.39954, renormalised to   32.00000
     Starting wfcs are   18 randomized atomic wfcs

     total cpu time spent up to now is        0.9 secs

     Self-consistent Calculation

     iteration #  1     ecut=    80.00 Ry     beta= 0.50
     Davidson diagonalization with overlap
     ethr =  1.00E-02,  avg # of iterations =  2.0

     total cpu time spent up to now is        1.5 secs

     total energy              =    -314.92951937 Ry
     Harris-Foulkes estimate   =    -315.46571450 Ry
     estimated scf accuracy    <       0.84414927 Ry

     iteration #  2     ecut=    80.00 Ry     beta= 0.50
     Davidson diagonalization with overlap
     ethr =  2.64E-03,  avg # of iterations =  2.7

     total cpu time spent up to now is        2.3 secs

     total energy              =    -315.15433082 Ry
     Harris-Foulkes estimate   =    -315.25045133 Ry
     estimated scf accuracy    <       0.22070679 Ry

     iteration #  3     ecut=    80.00 Ry     beta= 0.50
     Davidson diagonalization with overlap
     ethr =  6.90E-04,  avg # of iterations =  2.0

     total cpu time spent up to now is        3.0 secs

     total energy              =    -315.19130654 Ry
     Harris-Foulkes estimate   =    -315.19427636 Ry
     estimated scf accuracy    <       0.00908173 Ry

     iteration #  4     ecut=    80.00 Ry     beta= 0.50
     Davidson diagonalization with overlap
     ethr =  2.84E-05,  avg # of iterations =  1.8

     total cpu time spent up to now is        3.5 secs

     total energy              =    -315.19181254 Ry
     Harris-Foulkes estimate   =    -315.19186957 Ry
     estimated scf accuracy    <       0.00050065 Ry

     iteration #  5     ecut=    80.00 Ry     beta= 0.50
     Davidson diagonalization with overlap
     ethr =  1.56E-06,  avg # of iterations =  2.0

     total cpu time spent up to now is        4.2 secs

     total energy              =    -315.19187068 Ry
     Harris-Foulkes estimate   =    -315.19188553 Ry
     estimated scf accuracy    <       0.00004498 Ry

     iteration #  6     ecut=    80.00 Ry     beta= 0.50
     Davidson diagonalization with overlap
     ethr =  1.41E-07,  avg # of iterations =  2.4

     total cpu time spent up to now is        4.9 secs

     total energy              =    -315.19188249 Ry
     Harris-Foulkes estimate   =    -315.19188245 Ry
     estimated scf accuracy    <       0.00000269 Ry

     iteration #  7     ecut=    80.00 Ry     beta= 0.50
     Davidson diagonalization with overlap
     ethr =  8.41E-09,  avg # of iterations =  2.0

     total cpu time spent up to now is        5.5 secs

     End of self-consistent calculation

          k = 0.0000 0.0000 0.0000 (  3647 PWs)   bands (ev):

   -66.1969 -66.1850 -33.2083 -33.1827 -33.1827 -33.1571 -33.1571 -33.1345
   -11.0738  -9.7000   2.0509   3.9977   3.9977   4.8851   4.8851   5.7045

     occupation numbers 
     1.0000   1.0000   1.0000   1.0000   1.0000   1.0000   1.0000   1.0000
     1.0000   1.0000   1.0000   1.0000   1.0000   1.0000   1.0000   1.0000

          k =-0.0000-0.0000 0.1028 (  3653 PWs)   bands (ev):

   -66.1964 -66.1855 -33.2058 -33.1817 -33.1817 -33.1581 -33.1581 -33.1376
   -11.0212  -9.7510   2.1223   4.0289   4.0289   4.8488   4.8488   5.3963

     occupation numbers 
     1.0000   1.0000   1.0000   1.0000   1.0000   1.0000   1.0000   1.0000
     1.0000   1.0000   1.0000   1.0000   1.0000   1.0000   1.0000   1.0000

          k =-0.0000-0.0000 0.2056 (  3647 PWs)   bands (ev):

   -66.1952 -66.1868 -33.1985 -33.1789 -33.1789 -33.1608 -33.1608 -33.1463
   -10.8715  -9.8973   2.3438   4.1187   4.1187   4.7163   4.7463   4.7463

     occupation numbers 
     1.0000   1.0000   1.0000   1.0000   1.0000   1.0000   1.0000   1.0000
     1.0000   1.0000   1.0000   1.0000   1.0000   1.0000   1.0000   1.0000

          k =-0.0000-0.0000 0.3085 (  3629 PWs)   bands (ev):

   -66.1932 -66.1887 -33.1872 -33.1747 -33.1747 -33.1649 -33.1649 -33.1590
   -10.6470 -10.1187   2.7283   3.9618   4.2564   4.2564   4.5960   4.5960

     occupation numbers 
     1.0000   1.0000   1.0000   1.0000   1.0000   1.0000   1.0000   1.0000
     1.0000   1.0000   1.0000   1.0000   1.0000   1.0000   1.0000   1.0000

          k = 0.0000 0.0000-0.4113 (  3646 PWs)   bands (ev):

   -66.1910 -66.1910 -33.1735 -33.1734 -33.1698 -33.1698 -33.1698 -33.1698
   -10.3823 -10.3822   3.2765   3.2765   4.4235   4.4235   4.4235   4.4235

     occupation numbers 
     1.0000   1.0000   1.0000   1.0000   1.0000   1.0000   1.0000   1.0000
     1.0000   1.0000   1.0000   1.0000   1.0000   1.0000   1.0000   1.0000

          k =-0.0000 0.1443-0.0000 (  3642 PWs)   bands (ev):

   -66.1964 -66.1853 -33.2056 -33.1846 -33.1840 -33.1602 -33.1569 -33.1368
   -10.9938  -9.7081   2.1739   3.7395   3.8804   4.5136   4.9516   5.5816

     occupation numbers 
     1.0000   1.0000   1.0000   1.0000   1.0000   1.0000   1.0000   1.0000
     1.0000   1.0000   1.0000   1.0000   1.0000   1.0000   1.0000   1.0000

          k =-0.0000 0.1443 0.1028 (  3639 PWs)   bands (ev):

   -66.1960 -66.1857 -33.2044 -33.1829 -33.1825 -33.1622 -33.1579 -33.1386
   -10.9435  -9.7543   2.2090   3.7979   3.9168   4.3889   4.9060   5.4573

     occupation numbers 
     1.0000   1.0000   1.0000   1.0000   1.0000   1.0000   1.0000   1.0000
     1.0000   1.0000   1.0000   1.0000   1.0000   1.0000   1.0000   1.0000

          k =-0.0000 0.1443 0.2056 (  3639 PWs)   bands (ev):

   -66.1948 -66.1869 -33.2006 -33.1800 -33.1769 -33.1678 -33.1608 -33.1438
   -10.8004  -9.8878   2.3343   3.8664   4.0224   4.1284   4.7786   5.1855

     occupation numbers 
     1.0000   1.0000   1.0000   1.0000   1.0000   1.0000   1.0000   1.0000
     1.0000   1.0000   1.0000   1.0000   1.0000   1.0000   1.0000   1.0000

          k =-0.0000 0.1443 0.3085 (  3630 PWs)   bands (ev):

   -66.1930 -66.1887 -33.1941 -33.1762 -33.1756 -33.1689 -33.1652 -33.1513
   -10.5872 -10.0919   2.5860   3.4601   4.1852   4.2869   4.5939   4.8807

     occupation numbers 
     1.0000   1.0000   1.0000   1.0000   1.0000   1.0000   1.0000   1.0000
     1.0000   1.0000   1.0000   1.0000   1.0000   1.0000   1.0000   1.0000

          k = 0.0000 0.1443-0.4113 (  3648 PWs)   bands (ev):

   -66.1909 -66.1908 -33.1855 -33.1855 -33.1704 -33.1704 -33.1600 -33.1600
   -10.3377 -10.3376   2.9749   2.9749   4.3850   4.3850   4.5738   4.5738

     occupation numbers 
     1.0000   1.0000   1.0000   1.0000   1.0000   1.0000   1.0000   1.0000
     1.0000   1.0000   1.0000   1.0000   1.0000   1.0000   1.0000   1.0000

          k = 0.0000 0.1443-0.3085 (  3630 PWs)   bands (ev):

   -66.1930 -66.1887 -33.1941 -33.1762 -33.1756 -33.1689 -33.1652 -33.1513
   -10.5872 -10.0919   2.5860   3.4601   4.1852   4.2869   4.5939   4.8807

     occupation numbers 
     1.0000   1.0000   1.0000   1.0000   1.0000   1.0000   1.0000   1.0000
     1.0000   1.0000   1.0000   1.0000   1.0000   1.0000   1.0000   1.0000

          k = 0.0000 0.1443-0.2056 (  3639 PWs)   bands (ev):

   -66.1948 -66.1869 -33.2006 -33.1800 -33.1769 -33.1678 -33.1608 -33.1438
   -10.8004  -9.8878   2.3343   3.8664   4.0224   4.1284   4.7786   5.1855

     occupation numbers 
     1.0000   1.0000   1.0000   1.0000   1.0000   1.0000   1.0000   1.0000
     1.0000   1.0000   1.0000   1.0000   1.0000   1.0000   1.0000   1.0000

          k = 0.0000 0.1443-0.1028 (  3639 PWs)   bands (ev):

   -66.1960 -66.1857 -33.2044 -33.1829 -33.1825 -33.1622 -33.1579 -33.1386
   -10.9435  -9.7543   2.2090   3.7979   3.9168   4.3889   4.9060   5.4573

     occupation numbers 
     1.0000   1.0000   1.0000   1.0000   1.0000   1.0000   1.0000   1.0000
     1.0000   1.0000   1.0000   1.0000   1.0000   1.0000   1.0000   1.0000

          k =-0.0000 0.2887-0.0000 (  3634 PWs)   bands (ev):

   -66.1950 -66.1862 -33.1984 -33.1892 -33.1870 -33.1676 -33.1566 -33.1432
   -10.7797  -9.7463   2.5208   3.0300   3.6526   4.0508   5.0579   5.2331

     occupation numbers 
     1.0000   1.0000   1.0000   1.0000   1.0000   1.0000   1.0000   1.0000
     1.0000   1.0000   1.0000   1.0000   1.0000   1.0000   1.0000   1.0000

          k =-0.0000 0.2887 0.1028 (  3633 PWs)   bands (ev):

   -66.1947 -66.1865 -33.2023 -33.1859 -33.1828 -33.1714 -33.1577 -33.1425
   -10.7361  -9.7795   2.3835   3.1815   3.6980   3.9370   4.9943   5.2689

     occupation numbers 
     1.0000   1.0000   1.0000   1.0000   1.0000   1.0000   1.0000   1.0000
     1.0000   1.0000   1.0000   1.0000   1.0000   1.0000   1.0000   1.0000

          k =-0.0000 0.2887 0.2056 (  3626 PWs)   bands (ev):

   -66.1937 -66.1875 -33.2053 -33.1825 -33.1810 -33.1714 -33.1610 -33.1425
   -10.6132  -9.8776   2.2385   3.1279   3.8304   3.9920   4.8188   5.2549

     occupation numbers 
     1.0000   1.0000   1.0000   1.0000   1.0000   1.0000   1.0000   1.0000
     1.0000   1.0000   1.0000   1.0000   1.0000   1.0000   1.0000   1.0000

          k =-0.0000 0.2887 0.3085 (  3635 PWs)   bands (ev):

   -66.1923 -66.1889 -33.2044 -33.1907 -33.1776 -33.1659 -33.1609 -33.1455
   -10.4331 -10.0331   2.2444   2.7627   4.0367   4.3624   4.5697   5.0816

     occupation numbers 
     1.0000   1.0000   1.0000   1.0000   1.0000   1.0000   1.0000   1.0000
     1.0000   1.0000   1.0000   1.0000   1.0000   1.0000   1.0000   1.0000

          k = 0.0000 0.2887-0.4113 (  3626 PWs)   bands (ev):

   -66.1906 -66.1906 -33.1992 -33.1992 -33.1717 -33.1717 -33.1518 -33.1518
   -10.2280 -10.2280   2.4295   2.4295   4.2945   4.2945   4.7619   4.7619

     occupation numbers 
     1.0000   1.0000   1.0000   1.0000   1.0000   1.0000   1.0000   1.0000
     1.0000   1.0000   1.0000   1.0000   1.0000   1.0000   1.0000   1.0000

          k = 0.0000 0.2887-0.3085 (  3635 PWs)   bands (ev):

   -66.1923 -66.1889 -33.2044 -33.1907 -33.1776 -33.1659 -33.1609 -33.1455
   -10.4331 -10.0331   2.2444   2.7627   4.0367   4.3624   4.5697   5.0816

     occupation numbers 
     1.0000   1.0000   1.0000   1.0000   1.0000   1.0000   1.0000   1.0000
     1.0000   1.0000   1.0000   1.0000   1.0000   1.0000   1.0000   1.0000

          k = 0.0000 0.2887-0.2056 (  3626 PWs)   bands (ev):

   -66.1937 -66.1875 -33.2053 -33.1825 -33.1810 -33.1714 -33.1610 -33.1425
   -10.6132  -9.8776   2.2385   3.1279   3.8304   3.9920   4.8188   5.2549

     occupation numbers 
     1.0000   1.0000   1.0000   1.0000   1.0000   1.0000   1.0000   1.0000
     1.0000   1.0000   1.0000   1.0000   1.0000   1.0000   1.0000   1.0000

          k =-0.0000 0.2887-0.1028 (  3633 PWs)   bands (ev):

   -66.1947 -66.1865 -33.2022 -33.1859 -33.1828 -33.1714 -33.1577 -33.1425
   -10.7361  -9.7795   2.3835   3.1815   3.6980   3.9370   4.9943   5.2689

     occupation numbers 
     1.0000   1.0000   1.0000   1.0000   1.0000   1.0000   1.0000   1.0000
     1.0000   1.0000   1.0000   1.0000   1.0000   1.0000   1.0000   1.0000

          k =-0.0000 0.4330-0.0000 (  3632 PWs)   bands (ev):

   -66.1932 -66.1874 -33.1946 -33.1899 -33.1878 -33.1750 -33.1564 -33.1520
   -10.5103  -9.8366   2.3680   3.0148   3.4666   3.7762   4.7435   5.1243

     occupation numbers 
     1.0000   1.0000   1.0000   1.0000   1.0000   1.0000   1.0000   1.0000
     1.0000   1.0000   1.0000   1.0000   1.0000   1.0000   1.0000   1.0000

          k =-0.0000 0.4330 0.1028 (  3623 PWs)   bands (ev):

   -66.1930 -66.1876 -33.2024 -33.1886 -33.1819 -33.1770 -33.1577 -33.1487
   -10.4770  -9.8528   2.1904   3.0877   3.5183   3.6682   4.9317   5.0460

     occupation numbers 
     1.0000   1.0000   1.0000   1.0000   1.0000   1.0000   1.0000   1.0000
     1.0000   1.0000   1.0000   1.0000   1.0000   1.0000   1.0000   1.0000

          k =-0.0000 0.4330 0.2056 (  3627 PWs)   bands (ev):

   -66.1924 -66.1883 -33.2094 -33.1920 -33.1850 -33.1654 -33.1613 -33.1443
   -10.3849  -9.9039   1.9611   2.7446   3.6695   3.9638   4.8317   5.1391

     occupation numbers 
     1.0000   1.0000   1.0000   1.0000   1.0000   1.0000   1.0000   1.0000
     1.0000   1.0000   1.0000   1.0000   1.0000   1.0000   1.0000   1.0000

          k =-0.0000 0.4330 0.3085 (  3614 PWs)   bands (ev):

   -66.1914 -66.1892 -33.2120 -33.2023 -33.1795 -33.1667 -33.1546 -33.1435
   -10.2549  -9.9928   1.8772   2.3009   3.9071   4.4309   4.5324   5.1155

     occupation numbers 
     1.0000   1.0000   1.0000   1.0000   1.0000   1.0000   1.0000   1.0000
     1.0000   1.0000   1.0000   1.0000   1.0000   1.0000   1.0000   1.0000

          k = 0.0000 0.4330-0.4113 (  3622 PWs)   bands (ev):

   -66.1903 -66.1903 -33.2095 -33.2095 -33.1731 -33.1731 -33.1470 -33.1470
   -10.1153 -10.1153   1.9915   1.9915   4.2071   4.2072   4.8510   4.8510

     occupation numbers 
     1.0000   1.0000   1.0000   1.0000   1.0000   1.0000   1.0000   1.0000
     1.0000   1.0000   1.0000   1.0000   1.0000   1.0000   1.0000   1.0000

          k = 0.0000 0.4330-0.3085 (  3614 PWs)   bands (ev):

   -66.1914 -66.1892 -33.2120 -33.2023 -33.1795 -33.1667 -33.1546 -33.1435
   -10.2549  -9.9928   1.8772   2.3009   3.9071   4.4309   4.5324   5.1155

     occupation numbers 
     1.0000   1.0000   1.0000   1.0000   1.0000   1.0000   1.0000   1.0000
     1.0000   1.0000   1.0000   1.0000   1.0000   1.0000   1.0000   1.0000

          k =-0.0000 0.4330-0.2056 (  3627 PWs)   bands (ev):

   -66.1924 -66.1883 -33.2094 -33.1921 -33.1850 -33.1654 -33.1613 -33.1443
   -10.3849  -9.9039   1.9611   2.7446   3.6695   3.9638   4.8317   5.1391

     occupation numbers 
     1.0000   1.0000   1.0000   1.0000   1.0000   1.0000   1.0000   1.0000
     1.0000   1.0000   1.0000   1.0000   1.0000   1.0000   1.0000   1.0000

          k =-0.0000 0.4330-0.1028 (  3623 PWs)   bands (ev):

   -66.1930 -66.1876 -33.2024 -33.1886 -33.1819 -33.1770 -33.1577 -33.1487
   -10.4770  -9.8528   2.1904   3.0877   3.5183   3.6682   4.9317   5.0460

     occupation numbers 
     1.0000   1.0000   1.0000   1.0000   1.0000   1.0000   1.0000   1.0000
     1.0000   1.0000   1.0000   1.0000   1.0000   1.0000   1.0000   1.0000

          k = 0.0000-0.5774 0.0000 (  3634 PWs)   bands (ev):

   -66.1922 -66.1882 -33.1964 -33.1911 -33.1820 -33.1781 -33.1576 -33.1564
   -10.3540  -9.9176   2.1189   3.3432   3.3972   3.6788   4.4183   5.1448

     occupation numbers 
     1.0000   1.0000   1.0000   1.0000   1.0000   1.0000   1.0000   1.0000
     1.0000   1.0000   1.0000   1.0000   1.0000   1.0000   1.0000   1.0000

          k = 0.0000-0.5774 0.1028 (  3622 PWs)   bands (ev):

   -66.1920 -66.1884 -33.2030 -33.1897 -33.1849 -33.1740 -33.1577 -33.1527
   -10.3282  -9.9236   1.9935   3.2666   3.4511   3.5449   4.7394   5.0609

     occupation numbers 
     1.0000   1.0000   1.0000   1.0000   1.0000   1.0000   1.0000   1.0000
     1.0000   1.0000   1.0000   1.0000   1.0000   1.0000   1.0000   1.0000

          k = 0.0000-0.5774 0.2056 (  3624 PWs)   bands (ev):

   -66.1916 -66.1888 -33.2109 -33.1966 -33.1860 -33.1620 -33.1614 -33.1462
   -10.2579  -9.9459   1.7962   2.6594   3.6087   3.9775   4.8324   5.0642

     occupation numbers 
     1.0000   1.0000   1.0000   1.0000   1.0000   1.0000   1.0000   1.0000
     1.0000   1.0000   1.0000   1.0000   1.0000   1.0000   1.0000   1.0000

          k = 0.0000-0.5774 0.3085 (  3630 PWs)   bands (ev):

   -66.1910 -66.1895 -33.2147 -33.2069 -33.1803 -33.1670 -33.1519 -33.1434
   -10.1628  -9.9926   1.7148   2.1520   3.8571   4.4571   4.5148   5.1079

     occupation numbers 
     1.0000   1.0000   1.0000   1.0000   1.0000   1.0000   1.0000   1.0000
     1.0000   1.0000   1.0000   1.0000   1.0000   1.0000   1.0000   1.0000

          k = 0.0000-0.5774-0.4113 (  3632 PWs)   bands (ev):

   -66.1902 -66.1902 -33.2133 -33.2133 -33.1737 -33.1737 -33.1454 -33.1454
   -10.0676 -10.0676   1.8273   1.8273   4.1719   4.1719   4.8720   4.8720

     occupation numbers 
     1.0000   1.0000   1.0000   1.0000   1.0000   1.0000   1.0000   1.0000
     1.0000   1.0000   1.0000   1.0000   1.0000   1.0000   1.0000   1.0000

          k = 0.1250 0.0722-0.0000 (  3642 PWs)   bands (ev):

   -66.1964 -66.1853 -33.2056 -33.1846 -33.1840 -33.1602 -33.1569 -33.1368
   -10.9938  -9.7081   2.1739   3.7395   3.8804   4.5136   4.9516   5.5816

     occupation numbers 
     1.0000   1.0000   1.0000   1.0000   1.0000   1.0000   1.0000   1.0000
     1.0000   1.0000   1.0000   1.0000   1.0000   1.0000   1.0000   1.0000

          k = 0.1250 0.0722 0.1028 (  3639 PWs)   bands (ev):

   -66.1960 -66.1857 -33.2044 -33.1829 -33.1825 -33.1622 -33.1579 -33.1386
   -10.9435  -9.7543   2.2090   3.7979   3.9168   4.3889   4.9060   5.4573

     occupation numbers 
     1.0000   1.0000   1.0000   1.0000   1.0000   1.0000   1.0000   1.0000
     1.0000   1.0000   1.0000   1.0000   1.0000   1.0000   1.0000   1.0000

          k = 0.1250 0.0722 0.2056 (  3639 PWs)   bands (ev):

   -66.1948 -66.1869 -33.2006 -33.1800 -33.1769 -33.1678 -33.1608 -33.1438
   -10.8004  -9.8878   2.3343   3.8664   4.0224   4.1284   4.7786   5.1855

     occupation numbers 
     1.0000   1.0000   1.0000   1.0000   1.0000   1.0000   1.0000   1.0000
     1.0000   1.0000   1.0000   1.0000   1.0000   1.0000   1.0000   1.0000

          k = 0.1250 0.0722 0.3085 (  3630 PWs)   bands (ev):

   -66.1930 -66.1887 -33.1941 -33.1762 -33.1756 -33.1689 -33.1652 -33.1513
   -10.5872 -10.0919   2.5860   3.4601   4.1852   4.2869   4.5939   4.8807

     occupation numbers 
     1.0000   1.0000   1.0000   1.0000   1.0000   1.0000   1.0000   1.0000
     1.0000   1.0000   1.0000   1.0000   1.0000   1.0000   1.0000   1.0000

          k = 0.1250 0.0722-0.4113 (  3648 PWs)   bands (ev):

   -66.1909 -66.1908 -33.1855 -33.1855 -33.1704 -33.1704 -33.1600 -33.1600
   -10.3377 -10.3376   2.9748   2.9749   4.3850   4.3850   4.5738   4.5738

     occupation numbers 
     1.0000   1.0000   1.0000   1.0000   1.0000   1.0000   1.0000   1.0000
     1.0000   1.0000   1.0000   1.0000   1.0000   1.0000   1.0000   1.0000

          k = 0.1250 0.0722-0.3085 (  3630 PWs)   bands (ev):

   -66.1930 -66.1887 -33.1941 -33.1762 -33.1756 -33.1689 -33.1652 -33.1513
   -10.5872 -10.0919   2.5860   3.4601   4.1852   4.2869   4.5939   4.8807

     occupation numbers 
     1.0000   1.0000   1.0000   1.0000   1.0000   1.0000   1.0000   1.0000
     1.0000   1.0000   1.0000   1.0000   1.0000   1.0000   1.0000   1.0000

          k = 0.1250 0.0722-0.2056 (  3639 PWs)   bands (ev):

   -66.1948 -66.1869 -33.2006 -33.1800 -33.1769 -33.1678 -33.1608 -33.1438
   -10.8004  -9.8878   2.3343   3.8664   4.0224   4.1284   4.7786   5.1855

     occupation numbers 
     1.0000   1.0000   1.0000   1.0000   1.0000   1.0000   1.0000   1.0000
     1.0000   1.0000   1.0000   1.0000   1.0000   1.0000   1.0000   1.0000

          k = 0.1250 0.0722-0.1028 (  3639 PWs)   bands (ev):

   -66.1960 -66.1857 -33.2044 -33.1829 -33.1825 -33.1622 -33.1579 -33.1386
   -10.9435  -9.7543   2.2090   3.7979   3.9168   4.3889   4.9060   5.4573

     occupation numbers 
     1.0000   1.0000   1.0000   1.0000   1.0000   1.0000   1.0000   1.0000
     1.0000   1.0000   1.0000   1.0000   1.0000   1.0000   1.0000   1.0000

          k = 0.1250 0.2165-0.0000 (  3653 PWs)   bands (ev):

   -66.1954 -66.1859 -33.2006 -33.1871 -33.1870 -33.1652 -33.1569 -33.1411
   -10.8464  -9.7315   2.4097   3.3466   3.5217   4.2819   4.9780   5.3462

     occupation numbers 
     1.0000   1.0000   1.0000   1.0000   1.0000   1.0000   1.0000   1.0000
     1.0000   1.0000   1.0000   1.0000   1.0000   1.0000   1.0000   1.0000

          k = 0.1250 0.2165 0.1028 (  3633 PWs)   bands (ev):

   -66.1951 -66.1863 -33.2025 -33.1858 -33.1824 -33.1685 -33.1580 -33.1411
   -10.8006  -9.7688   2.3573   3.3468   3.6672   4.1466   4.9165   5.3516

     occupation numbers 
     1.0000   1.0000   1.0000   1.0000   1.0000   1.0000   1.0000   1.0000
     1.0000   1.0000   1.0000   1.0000   1.0000   1.0000   1.0000   1.0000

          k = 0.1250 0.2165 0.2056 (  3633 PWs)   bands (ev):

   -66.1940 -66.1873 -33.2038 -33.1830 -33.1763 -33.1730 -33.1612 -33.1424
   -10.6710  -9.8781   2.3033   3.2472   3.9659   4.0010   4.7463   5.2874

     occupation numbers 
     1.0000   1.0000   1.0000   1.0000   1.0000   1.0000   1.0000   1.0000
     1.0000   1.0000   1.0000   1.0000   1.0000   1.0000   1.0000   1.0000

          k = 0.1250 0.2165 0.3085 (  3633 PWs)   bands (ev):

   -66.1925 -66.1888 -33.2015 -33.1870 -33.1772 -33.1661 -33.1627 -33.1465
   -10.4800 -10.0491   2.3692   2.9312   4.0303   4.3947   4.5057   5.0889

     occupation numbers 
     1.0000   1.0000   1.0000   1.0000   1.0000   1.0000   1.0000   1.0000
     1.0000   1.0000   1.0000   1.0000   1.0000   1.0000   1.0000   1.0000

          k = 0.1250 0.2165-0.4113 (  3634 PWs)   bands (ev):

   -66.1907 -66.1907 -33.1956 -33.1956 -33.1717 -33.1717 -33.1535 -33.1535
   -10.2605 -10.2605   2.5912   2.5912   4.2460   4.2460   4.7754   4.7754

     occupation numbers 
     1.0000   1.0000   1.0000   1.0000   1.0000   1.0000   1.0000   1.0000
     1.0000   1.0000   1.0000   1.0000   1.0000   1.0000   1.0000   1.0000

          k = 0.1250 0.2165-0.3085 (  3633 PWs)   bands (ev):

   -66.1925 -66.1888 -33.2015 -33.1870 -33.1772 -33.1661 -33.1627 -33.1465
   -10.4800 -10.0491   2.3692   2.9312   4.0303   4.3947   4.5057   5.0889

     occupation numbers 
     1.0000   1.0000   1.0000   1.0000   1.0000   1.0000   1.0000   1.0000
     1.0000   1.0000   1.0000   1.0000   1.0000   1.0000   1.0000   1.0000

          k = 0.1250 0.2165-0.2056 (  3633 PWs)   bands (ev):

   -66.1940 -66.1873 -33.2038 -33.1830 -33.1763 -33.1730 -33.1612 -33.1424
   -10.6710  -9.8781   2.3033   3.2472   3.9659   4.0010   4.7463   5.2874

     occupation numbers 
     1.0000   1.0000   1.0000   1.0000   1.0000   1.0000   1.0000   1.0000
     1.0000   1.0000   1.0000   1.0000   1.0000   1.0000   1.0000   1.0000

          k = 0.1250 0.2165-0.1028 (  3633 PWs)   bands (ev):

   -66.1951 -66.1863 -33.2025 -33.1858 -33.1824 -33.1685 -33.1580 -33.1411
   -10.8006  -9.7688   2.3573   3.3468   3.6672   4.1466   4.9165   5.3516

     occupation numbers 
     1.0000   1.0000   1.0000   1.0000   1.0000   1.0000   1.0000   1.0000
     1.0000   1.0000   1.0000   1.0000   1.0000   1.0000   1.0000   1.0000

          k = 0.1250 0.3608-0.0000 (  3639 PWs)   bands (ev):

   -66.1938 -66.1870 -33.1931 -33.1914 -33.1888 -33.1724 -33.1571 -33.1490
   -10.6006  -9.7992   2.6323   2.8383   3.3467   4.0137   4.9239   4.9997

     occupation numbers 
     1.0000   1.0000   1.0000   1.0000   1.0000   1.0000   1.0000   1.0000
     1.0000   1.0000   1.0000   1.0000   1.0000   1.0000   1.0000   1.0000

          k = 0.1250 0.3608 0.1028 (  3637 PWs)   bands (ev):

   -66.1936 -66.1872 -33.2012 -33.1901 -33.1793 -33.1769 -33.1583 -33.1464
   -10.5636  -9.8213   2.4387   2.8232   3.6219   3.8279   4.9079   5.0745

     occupation numbers 
     1.0000   1.0000   1.0000   1.0000   1.0000   1.0000   1.0000   1.0000
     1.0000   1.0000   1.0000   1.0000   1.0000   1.0000   1.0000   1.0000

          k = 0.1250 0.3608 0.2056 (  3629 PWs)   bands (ev):

   -66.1928 -66.1880 -33.2074 -33.1899 -33.1842 -33.1667 -33.1619 -33.1433
   -10.4602  -9.8886   2.1893   2.7079   3.6294   4.1091   4.6758   5.2328

     occupation numbers 
     1.0000   1.0000   1.0000   1.0000   1.0000   1.0000   1.0000   1.0000
     1.0000   1.0000   1.0000   1.0000   1.0000   1.0000   1.0000   1.0000

          k = 0.1250 0.3608 0.3085 (  3628 PWs)   bands (ev):

   -66.1917 -66.1891 -33.2092 -33.1988 -33.1800 -33.1674 -33.1558 -33.1435
   -10.3120 -10.0008   2.0896   2.4283   3.7313   4.3500   4.5848   5.2047

     occupation numbers 
     1.0000   1.0000   1.0000   1.0000   1.0000   1.0000   1.0000   1.0000
     1.0000   1.0000   1.0000   1.0000   1.0000   1.0000   1.0000   1.0000

          k = 0.1250 0.3608-0.4113 (  3618 PWs)   bands (ev):

   -66.1904 -66.1904 -33.2061 -33.2061 -33.1737 -33.1737 -33.1478 -33.1478
   -10.1490 -10.1489   2.1794   2.1794   4.0106   4.0106   4.9713   4.9713

     occupation numbers 
     1.0000   1.0000   1.0000   1.0000   1.0000   1.0000   1.0000   1.0000
     1.0000   1.0000   1.0000   1.0000   1.0000   1.0000   1.0000   1.0000

          k = 0.1250 0.3608-0.3085 (  3628 PWs)   bands (ev):

   -66.1917 -66.1891 -33.2092 -33.1988 -33.1800 -33.1674 -33.1558 -33.1435
   -10.3120 -10.0008   2.0896   2.4283   3.7313   4.3500   4.5848   5.2047

     occupation numbers 
     1.0000   1.0000   1.0000   1.0000   1.0000   1.0000   1.0000   1.0000
     1.0000   1.0000   1.0000   1.0000   1.0000   1.0000   1.0000   1.0000

          k = 0.1250 0.3608-0.2056 (  3629 PWs)   bands (ev):

   -66.1928 -66.1880 -33.2074 -33.1899 -33.1842 -33.1667 -33.1619 -33.1433
   -10.4602  -9.8886   2.1893   2.7079   3.6294   4.1091   4.6758   5.2328

     occupation numbers 
     1.0000   1.0000   1.0000   1.0000   1.0000   1.0000   1.0000   1.0000
     1.0000   1.0000   1.0000   1.0000   1.0000   1.0000   1.0000   1.0000

          k = 0.1250 0.3608-0.1028 (  3637 PWs)   bands (ev):

   -66.1936 -66.1872 -33.2012 -33.1901 -33.1793 -33.1769 -33.1583 -33.1464
   -10.5636  -9.8213   2.4387   2.8232   3.6219   3.8279   4.9079   5.0745

     occupation numbers 
     1.0000   1.0000   1.0000   1.0000   1.0000   1.0000   1.0000   1.0000
     1.0000   1.0000   1.0000   1.0000   1.0000   1.0000   1.0000   1.0000

          k = 0.1250 0.5052-0.0000 (  3625 PWs)   bands (ev):

   -66.1922 -66.1882 -33.1964 -33.1903 -33.1819 -33.1781 -33.1576 -33.1572
   -10.3604  -9.9113   2.1833   3.2957   3.3694   3.7337   4.4538   5.0143

     occupation numbers 
     1.0000   1.0000   1.0000   1.0000   1.0000   1.0000   1.0000   1.0000
     1.0000   1.0000   1.0000   1.0000   1.0000   1.0000   1.0000   1.0000

          k = 0.1250 0.5052 0.1028 (  3627 PWs)   bands (ev):

   -66.1920 -66.1884 -33.2014 -33.1917 -33.1847 -33.1729 -33.1586 -33.1527
   -10.3342  -9.9180   2.1073   3.0357   3.4166   3.7736   4.7373   4.9299

     occupation numbers 
     1.0000   1.0000   1.0000   1.0000   1.0000   1.0000   1.0000   1.0000
     1.0000   1.0000   1.0000   1.0000   1.0000   1.0000   1.0000   1.0000

          k = 0.1250 0.5052 0.2056 (  3618 PWs)   bands (ev):

   -66.1916 -66.1888 -33.2094 -33.1966 -33.1877 -33.1625 -33.1609 -33.1461
   -10.2628  -9.9418   1.9446   2.6557   3.2812   4.2629   4.6174   5.1141

     occupation numbers 
     1.0000   1.0000   1.0000   1.0000   1.0000   1.0000   1.0000   1.0000
     1.0000   1.0000   1.0000   1.0000   1.0000   1.0000   1.0000   1.0000

          k = 0.1250 0.5052 0.3085 (  3619 PWs)   bands (ev):

   -66.1910 -66.1895 -33.2135 -33.2064 -33.1821 -33.1683 -33.1510 -33.1431
   -10.1659  -9.9908   1.8528   2.2186   3.4924   4.2402   4.7227   5.2183

     occupation numbers 
     1.0000   1.0000   1.0000   1.0000   1.0000   1.0000   1.0000   1.0000
     1.0000   1.0000   1.0000   1.0000   1.0000   1.0000   1.0000   1.0000

          k = 0.1250 0.5052-0.4113 (  3622 PWs)   bands (ev):

   -66.1902 -66.1902 -33.2124 -33.2124 -33.1752 -33.1752 -33.1448 -33.1448
   -10.0684 -10.0683   1.9357   1.9357   3.8400   3.8400   5.0684   5.0684

     occupation numbers 
     1.0000   1.0000   1.0000   1.0000   1.0000   1.0000   1.0000   1.0000
     1.0000   1.0000   1.0000   1.0000   1.0000   1.0000   1.0000   1.0000

          k = 0.1250 0.5052-0.3085 (  3619 PWs)   bands (ev):

   -66.1910 -66.1895 -33.2135 -33.2064 -33.1821 -33.1683 -33.1510 -33.1431
   -10.1659  -9.9908   1.8528   2.2186   3.4924   4.2402   4.7227   5.2183

     occupation numbers 
     1.0000   1.0000   1.0000   1.0000   1.0000   1.0000   1.0000   1.0000
     1.0000   1.0000   1.0000   1.0000   1.0000   1.0000   1.0000   1.0000

          k = 0.1250 0.5052-0.2056 (  3618 PWs)   bands (ev):

   -66.1916 -66.1888 -33.2094 -33.1966 -33.1877 -33.1625 -33.1609 -33.1461
   -10.2628  -9.9418   1.9446   2.6557   3.2812   4.2629   4.6174   5.1141

     occupation numbers 
     1.0000   1.0000   1.0000   1.0000   1.0000   1.0000   1.0000   1.0000
     1.0000   1.0000   1.0000   1.0000   1.0000   1.0000   1.0000   1.0000

          k = 0.1250 0.5052-0.1028 (  3627 PWs)   bands (ev):

   -66.1920 -66.1884 -33.2014 -33.1917 -33.1847 -33.1729 -33.1586 -33.1527
   -10.3342  -9.9180   2.1073   3.0357   3.4166   3.7736   4.7373   4.9299

     occupation numbers 
     1.0000   1.0000   1.0000   1.0000   1.0000   1.0000   1.0000   1.0000
     1.0000   1.0000   1.0000   1.0000   1.0000   1.0000   1.0000   1.0000

          k = 0.1250-0.5052 0.0000 (  3625 PWs)   bands (ev):

   -66.1922 -66.1882 -33.1964 -33.1903 -33.1819 -33.1781 -33.1576 -33.1572
   -10.3604  -9.9113   2.1833   3.2957   3.3694   3.7337   4.4538   5.0143

     occupation numbers 
     1.0000   1.0000   1.0000   1.0000   1.0000   1.0000   1.0000   1.0000
     1.0000   1.0000   1.0000   1.0000   1.0000   1.0000   1.0000   1.0000

          k = 0.1250-0.5052 0.1028 (  3627 PWs)   bands (ev):

   -66.1920 -66.1884 -33.2014 -33.1917 -33.1847 -33.1729 -33.1586 -33.1527
   -10.3342  -9.9180   2.1073   3.0357   3.4166   3.7736   4.7373   4.9299

     occupation numbers 
     1.0000   1.0000   1.0000   1.0000   1.0000   1.0000   1.0000   1.0000
     1.0000   1.0000   1.0000   1.0000   1.0000   1.0000   1.0000   1.0000

          k = 0.1250-0.5052 0.2056 (  3618 PWs)   bands (ev):

   -66.1916 -66.1888 -33.2094 -33.1966 -33.1877 -33.1625 -33.1609 -33.1461
   -10.2628  -9.9418   1.9446   2.6557   3.2812   4.2629   4.6174   5.1141

     occupation numbers 
     1.0000   1.0000   1.0000   1.0000   1.0000   1.0000   1.0000   1.0000
     1.0000   1.0000   1.0000   1.0000   1.0000   1.0000   1.0000   1.0000

          k = 0.1250-0.5052 0.3085 (  3619 PWs)   bands (ev):

   -66.1910 -66.1895 -33.2135 -33.2064 -33.1821 -33.1683 -33.1510 -33.1431
   -10.1659  -9.9908   1.8528   2.2186   3.4924   4.2402   4.7227   5.2183

     occupation numbers 
     1.0000   1.0000   1.0000   1.0000   1.0000   1.0000   1.0000   1.0000
     1.0000   1.0000   1.0000   1.0000   1.0000   1.0000   1.0000   1.0000

          k = 0.1250-0.5052-0.4113 (  3622 PWs)   bands (ev):

   -66.1902 -66.1902 -33.2124 -33.2124 -33.1752 -33.1752 -33.1448 -33.1448
   -10.0684 -10.0683   1.9357   1.9357   3.8400   3.8400   5.0684   5.0684

     occupation numbers 
     1.0000   1.0000   1.0000   1.0000   1.0000   1.0000   1.0000   1.0000
     1.0000   1.0000   1.0000   1.0000   1.0000   1.0000   1.0000   1.0000

          k = 0.1250-0.5052-0.3085 (  3619 PWs)   bands (ev):

   -66.1910 -66.1895 -33.2135 -33.2064 -33.1821 -33.1683 -33.1510 -33.1431
   -10.1659  -9.9908   1.8528   2.2186   3.4924   4.2402   4.7227   5.2183

     occupation numbers 
     1.0000   1.0000   1.0000   1.0000   1.0000   1.0000   1.0000   1.0000
     1.0000   1.0000   1.0000   1.0000   1.0000   1.0000   1.0000   1.0000

          k = 0.1250-0.5052-0.2056 (  3618 PWs)   bands (ev):

   -66.1916 -66.1888 -33.2094 -33.1966 -33.1877 -33.1625 -33.1609 -33.1461
   -10.2628  -9.9418   1.9446   2.6557   3.2812   4.2629   4.6174   5.1141

     occupation numbers 
     1.0000   1.0000   1.0000   1.0000   1.0000   1.0000   1.0000   1.0000
     1.0000   1.0000   1.0000   1.0000   1.0000   1.0000   1.0000   1.0000

          k = 0.1250-0.5052-0.1028 (  3627 PWs)   bands (ev):

   -66.1920 -66.1884 -33.2014 -33.1917 -33.1847 -33.1729 -33.1586 -33.1527
   -10.3342  -9.9180   2.1073   3.0357   3.4166   3.7736   4.7373   4.9299

     occupation numbers 
     1.0000   1.0000   1.0000   1.0000   1.0000   1.0000   1.0000   1.0000
     1.0000   1.0000   1.0000   1.0000   1.0000   1.0000   1.0000   1.0000

          k = 0.1250-0.3608 0.0000 (  3639 PWs)   bands (ev):

   -66.1938 -66.1870 -33.1931 -33.1914 -33.1888 -33.1724 -33.1571 -33.1490
   -10.6006  -9.7992   2.6323   2.8383   3.3467   4.0137   4.9239   4.9997

     occupation numbers 
     1.0000   1.0000   1.0000   1.0000   1.0000   1.0000   1.0000   1.0000
     1.0000   1.0000   1.0000   1.0000   1.0000   1.0000   1.0000   1.0000

          k = 0.1250-0.3608 0.1028 (  3637 PWs)   bands (ev):

   -66.1936 -66.1872 -33.2012 -33.1901 -33.1793 -33.1769 -33.1583 -33.1464
   -10.5636  -9.8213   2.4387   2.8232   3.6219   3.8279   4.9079   5.0745

     occupation numbers 
     1.0000   1.0000   1.0000   1.0000   1.0000   1.0000   1.0000   1.0000
     1.0000   1.0000   1.0000   1.0000   1.0000   1.0000   1.0000   1.0000

          k = 0.1250-0.3608 0.2056 (  3629 PWs)   bands (ev):

   -66.1928 -66.1880 -33.2074 -33.1899 -33.1842 -33.1667 -33.1619 -33.1433
   -10.4602  -9.8886   2.1893   2.7079   3.6294   4.1091   4.6758   5.2328

     occupation numbers 
     1.0000   1.0000   1.0000   1.0000   1.0000   1.0000   1.0000   1.0000
     1.0000   1.0000   1.0000   1.0000   1.0000   1.0000   1.0000   1.0000

          k = 0.1250-0.3608 0.3085 (  3628 PWs)   bands (ev):

   -66.1917 -66.1891 -33.2092 -33.1988 -33.1800 -33.1674 -33.1558 -33.1435
   -10.3120 -10.0008   2.0896   2.4283   3.7313   4.3500   4.5848   5.2047

     occupation numbers 
[...]
     1.0000   1.0000   1.0000   1.0000   1.0000   1.0000   1.0000   1.0000

          k =-0.5000-0.1443 0.1028 (  3627 PWs)   bands (ev):

   -66.1920 -66.1884 -33.2014 -33.1917 -33.1847 -33.1729 -33.1586 -33.1527
   -10.3342  -9.9180   2.1073   3.0357   3.4166   3.7736   4.7373   4.9299

     occupation numbers 
     1.0000   1.0000   1.0000   1.0000   1.0000   1.0000   1.0000   1.0000
     1.0000   1.0000   1.0000   1.0000   1.0000   1.0000   1.0000   1.0000

          k =-0.5000-0.1443 0.2056 (  3618 PWs)   bands (ev):

   -66.1916 -66.1888 -33.2094 -33.1966 -33.1877 -33.1625 -33.1609 -33.1461
   -10.2628  -9.9418   1.9446   2.6557   3.2812   4.2629   4.6174   5.1141

     occupation numbers 
     1.0000   1.0000   1.0000   1.0000   1.0000   1.0000   1.0000   1.0000
     1.0000   1.0000   1.0000   1.0000   1.0000   1.0000   1.0000   1.0000

          k =-0.5000-0.1443 0.3085 (  3619 PWs)   bands (ev):

   -66.1910 -66.1895 -33.2135 -33.2064 -33.1821 -33.1683 -33.1510 -33.1431
   -10.1659  -9.9908   1.8528   2.2186   3.4924   4.2402   4.7227   5.2183

     occupation numbers 
     1.0000   1.0000   1.0000   1.0000   1.0000   1.0000   1.0000   1.0000
     1.0000   1.0000   1.0000   1.0000   1.0000   1.0000   1.0000   1.0000

          k =-0.5000-0.1443-0.4113 (  3622 PWs)   bands (ev):

   -66.1902 -66.1902 -33.2124 -33.2124 -33.1752 -33.1752 -33.1448 -33.1448
   -10.0684 -10.0683   1.9357   1.9357   3.8400   3.8400   5.0684   5.0684

     occupation numbers 
     1.0000   1.0000   1.0000   1.0000   1.0000   1.0000   1.0000   1.0000
     1.0000   1.0000   1.0000   1.0000   1.0000   1.0000   1.0000   1.0000

          k =-0.5000-0.1443-0.3085 (  3619 PWs)   bands (ev):

   -66.1910 -66.1895 -33.2135 -33.2064 -33.1821 -33.1683 -33.1510 -33.1431
   -10.1659  -9.9908   1.8528   2.2186   3.4924   4.2402   4.7227   5.2183

     occupation numbers 
     1.0000   1.0000   1.0000   1.0000   1.0000   1.0000   1.0000   1.0000
     1.0000   1.0000   1.0000   1.0000   1.0000   1.0000   1.0000   1.0000

          k =-0.5000-0.1443-0.2056 (  3618 PWs)   bands (ev):

   -66.1916 -66.1888 -33.2094 -33.1966 -33.1877 -33.1625 -33.1609 -33.1461
   -10.2628  -9.9418   1.9446   2.6557   3.2812   4.2629   4.6174   5.1141

     occupation numbers 
     1.0000   1.0000   1.0000   1.0000   1.0000   1.0000   1.0000   1.0000
     1.0000   1.0000   1.0000   1.0000   1.0000   1.0000   1.0000   1.0000

          k =-0.5000-0.1443-0.1028 (  3627 PWs)   bands (ev):

   -66.1920 -66.1884 -33.2014 -33.1917 -33.1847 -33.1729 -33.1586 -33.1527
   -10.3342  -9.9180   2.1073   3.0357   3.4166   3.7736   4.7373   4.9299

     occupation numbers 
     1.0000   1.0000   1.0000   1.0000   1.0000   1.0000   1.0000   1.0000
     1.0000   1.0000   1.0000   1.0000   1.0000   1.0000   1.0000   1.0000

          k =-0.5000 0.0000 0.0000 (  3611 PWs)   bands (ev):

   -66.1922 -66.1882 -33.1964 -33.1897 -33.1818 -33.1779 -33.1581 -33.1576
   -10.3666  -9.9052   2.2598   3.2202   3.3325   3.8386   4.4887   4.8605

     occupation numbers 
     1.0000   1.0000   1.0000   1.0000   1.0000   1.0000   1.0000   1.0000
     1.0000   1.0000   1.0000   1.0000   1.0000   1.0000   1.0000   1.0000

          k =-0.5000 0.0000 0.1028 (  3629 PWs)   bands (ev):

   -66.1920 -66.1884 -33.1985 -33.1953 -33.1841 -33.1719 -33.1595 -33.1527
   -10.3400  -9.9124   2.2966   2.7384   3.5274   3.8635   4.7418   4.7776

     occupation numbers 
     1.0000   1.0000   1.0000   1.0000   1.0000   1.0000   1.0000   1.0000
     1.0000   1.0000   1.0000   1.0000   1.0000   1.0000   1.0000   1.0000

          k =-0.5000 0.0000 0.2056 (  3634 PWs)   bands (ev):

   -66.1916 -66.1888 -33.2074 -33.1973 -33.1891 -33.1636 -33.1598 -33.1460
   -10.2675  -9.9378   2.3268   2.3362   3.1832   4.3837   4.4615   5.1232

     occupation numbers 
     1.0000   1.0000   1.0000   1.0000   1.0000   1.0000   1.0000   1.0000
     1.0000   1.0000   1.0000   1.0000   1.0000   1.0000   1.0000   1.0000

          k =-0.5000 0.0000 0.3085 (  3622 PWs)   bands (ev):

   -66.1910 -66.1895 -33.2120 -33.2060 -33.1838 -33.1696 -33.1501 -33.1428
   -10.1688  -9.9890   2.0949   2.2114   3.2224   3.9908   4.8906   5.2767

     occupation numbers 
     1.0000   1.0000   1.0000   1.0000   1.0000   1.0000   1.0000   1.0000
     1.0000   1.0000   1.0000   1.0000   1.0000   1.0000   1.0000   1.0000

          k =-0.5000 0.0000-0.4113 (  3614 PWs)   bands (ev):

   -66.1902 -66.1902 -33.2115 -33.2115 -33.1767 -33.1767 -33.1442 -33.1442
   -10.0691 -10.0690   2.0693   2.0693   3.5558   3.5558   5.1921   5.1921

     occupation numbers 
     1.0000   1.0000   1.0000   1.0000   1.0000   1.0000   1.0000   1.0000
     1.0000   1.0000   1.0000   1.0000   1.0000   1.0000   1.0000   1.0000

          k =-0.5000 0.0000-0.3085 (  3622 PWs)   bands (ev):

   -66.1910 -66.1895 -33.2120 -33.2060 -33.1838 -33.1696 -33.1501 -33.1428
   -10.1688  -9.9890   2.0949   2.2114   3.2224   3.9908   4.8906   5.2767

     occupation numbers 
     1.0000   1.0000   1.0000   1.0000   1.0000   1.0000   1.0000   1.0000
     1.0000   1.0000   1.0000   1.0000   1.0000   1.0000   1.0000   1.0000

          k =-0.5000 0.0000-0.2056 (  3634 PWs)   bands (ev):

   -66.1916 -66.1888 -33.2074 -33.1973 -33.1891 -33.1636 -33.1598 -33.1460
   -10.2675  -9.9378   2.3268   2.3362   3.1832   4.3837   4.4615   5.1232

     occupation numbers 
     1.0000   1.0000   1.0000   1.0000   1.0000   1.0000   1.0000   1.0000
     1.0000   1.0000   1.0000   1.0000   1.0000   1.0000   1.0000   1.0000

          k =-0.5000 0.0000-0.1028 (  3629 PWs)   bands (ev):

   -66.1920 -66.1884 -33.1985 -33.1953 -33.1841 -33.1719 -33.1595 -33.1527
   -10.3400  -9.9124   2.2966   2.7384   3.5274   3.8635   4.7418   4.7776

     occupation numbers 
     1.0000   1.0000   1.0000   1.0000   1.0000   1.0000   1.0000   1.0000
     1.0000   1.0000   1.0000   1.0000   1.0000   1.0000   1.0000   1.0000

          k =-0.5000 0.1443 0.0000 (  3625 PWs)   bands (ev):

   -66.1922 -66.1882 -33.1964 -33.1903 -33.1819 -33.1781 -33.1576 -33.1572
   -10.3604  -9.9113   2.1833   3.2957   3.3694   3.7337   4.4538   5.0143

     occupation numbers 
     1.0000   1.0000   1.0000   1.0000   1.0000   1.0000   1.0000   1.0000
     1.0000   1.0000   1.0000   1.0000   1.0000   1.0000   1.0000   1.0000

          k =-0.5000 0.1443 0.1028 (  3627 PWs)   bands (ev):

   -66.1920 -66.1884 -33.2014 -33.1917 -33.1847 -33.1729 -33.1586 -33.1527
   -10.3342  -9.9180   2.1073   3.0357   3.4166   3.7736   4.7373   4.9299

     occupation numbers 
     1.0000   1.0000   1.0000   1.0000   1.0000   1.0000   1.0000   1.0000
     1.0000   1.0000   1.0000   1.0000   1.0000   1.0000   1.0000   1.0000

          k =-0.5000 0.1443 0.2056 (  3618 PWs)   bands (ev):

   -66.1916 -66.1888 -33.2094 -33.1966 -33.1877 -33.1625 -33.1609 -33.1461
   -10.2628  -9.9418   1.9447   2.6557   3.2812   4.2629   4.6174   5.1141

     occupation numbers 
     1.0000   1.0000   1.0000   1.0000   1.0000   1.0000   1.0000   1.0000
     1.0000   1.0000   1.0000   1.0000   1.0000   1.0000   1.0000   1.0000

          k =-0.5000 0.1443 0.3085 (  3619 PWs)   bands (ev):

   -66.1910 -66.1895 -33.2135 -33.2064 -33.1821 -33.1683 -33.1510 -33.1431
   -10.1659  -9.9908   1.8528   2.2186   3.4924   4.2402   4.7227   5.2183

     occupation numbers 
     1.0000   1.0000   1.0000   1.0000   1.0000   1.0000   1.0000   1.0000
     1.0000   1.0000   1.0000   1.0000   1.0000   1.0000   1.0000   1.0000

          k =-0.5000 0.1443-0.4113 (  3622 PWs)   bands (ev):

   -66.1902 -66.1902 -33.2124 -33.2124 -33.1752 -33.1752 -33.1448 -33.1448
   -10.0684 -10.0683   1.9357   1.9357   3.8400   3.8400   5.0684   5.0684

     occupation numbers 
     1.0000   1.0000   1.0000   1.0000   1.0000   1.0000   1.0000   1.0000
     1.0000   1.0000   1.0000   1.0000   1.0000   1.0000   1.0000   1.0000

          k =-0.5000 0.1443-0.3085 (  3619 PWs)   bands (ev):

   -66.1910 -66.1895 -33.2135 -33.2064 -33.1821 -33.1683 -33.1510 -33.1431
   -10.1659  -9.9908   1.8528   2.2186   3.4924   4.2402   4.7227   5.2183

     occupation numbers 
     1.0000   1.0000   1.0000   1.0000   1.0000   1.0000   1.0000   1.0000
     1.0000   1.0000   1.0000   1.0000   1.0000   1.0000   1.0000   1.0000

          k =-0.5000 0.1443-0.2056 (  3618 PWs)   bands (ev):

   -66.1916 -66.1888 -33.2094 -33.1966 -33.1877 -33.1625 -33.1609 -33.1461
   -10.2628  -9.9418   1.9447   2.6557   3.2812   4.2629   4.6174   5.1141

     occupation numbers 
     1.0000   1.0000   1.0000   1.0000   1.0000   1.0000   1.0000   1.0000
     1.0000   1.0000   1.0000   1.0000   1.0000   1.0000   1.0000   1.0000

          k =-0.5000 0.1443-0.1028 (  3627 PWs)   bands (ev):

   -66.1920 -66.1884 -33.2014 -33.1917 -33.1847 -33.1729 -33.1586 -33.1527
   -10.3342  -9.9180   2.1073   3.0357   3.4166   3.7736   4.7373   4.9299

     occupation numbers 
     1.0000   1.0000   1.0000   1.0000   1.0000   1.0000   1.0000   1.0000
     1.0000   1.0000   1.0000   1.0000   1.0000   1.0000   1.0000   1.0000

          k =-0.5000-0.8660 0.0000 (  3634 PWs)   bands (ev):

   -66.1922 -66.1882 -33.1964 -33.1911 -33.1820 -33.1781 -33.1576 -33.1564
   -10.3540  -9.9176   2.1189   3.3432   3.3972   3.6788   4.4183   5.1448

     occupation numbers 
     1.0000   1.0000   1.0000   1.0000   1.0000   1.0000   1.0000   1.0000
     1.0000   1.0000   1.0000   1.0000   1.0000   1.0000   1.0000   1.0000

          k =-0.5000-0.8660 0.1028 (  3622 PWs)   bands (ev):

   -66.1920 -66.1884 -33.2030 -33.1897 -33.1849 -33.1740 -33.1577 -33.1527
   -10.3281  -9.9236   1.9935   3.2666   3.4511   3.5449   4.7394   5.0609

     occupation numbers 
     1.0000   1.0000   1.0000   1.0000   1.0000   1.0000   1.0000   1.0000
     1.0000   1.0000   1.0000   1.0000   1.0000   1.0000   1.0000   1.0000

          k =-0.5000-0.8660 0.2056 (  3624 PWs)   bands (ev):

   -66.1916 -66.1888 -33.2109 -33.1966 -33.1860 -33.1620 -33.1614 -33.1462
   -10.2579  -9.9459   1.7962   2.6594   3.6087   3.9775   4.8323   5.0642

     occupation numbers 
     1.0000   1.0000   1.0000   1.0000   1.0000   1.0000   1.0000   1.0000
     1.0000   1.0000   1.0000   1.0000   1.0000   1.0000   1.0000   1.0000

          k =-0.5000-0.8660 0.3085 (  3630 PWs)   bands (ev):

   -66.1910 -66.1895 -33.2147 -33.2069 -33.1803 -33.1670 -33.1519 -33.1434
   -10.1628  -9.9926   1.7148   2.1520   3.8571   4.4572   4.5148   5.1079

     occupation numbers 
     1.0000   1.0000   1.0000   1.0000   1.0000   1.0000   1.0000   1.0000
     1.0000   1.0000   1.0000   1.0000   1.0000   1.0000   1.0000   1.0000

          k =-0.5000-0.8660-0.4113 (  3632 PWs)   bands (ev):

   -66.1902 -66.1902 -33.2133 -33.2133 -33.1737 -33.1737 -33.1454 -33.1454
   -10.0676 -10.0676   1.8273   1.8273   4.1719   4.1719   4.8720   4.8721

     occupation numbers 
     1.0000   1.0000   1.0000   1.0000   1.0000   1.0000   1.0000   1.0000
     1.0000   1.0000   1.0000   1.0000   1.0000   1.0000   1.0000   1.0000

     highest occupied level (ev):     5.7045

!    total energy              =    -315.19188304 Ry
     Harris-Foulkes estimate   =    -315.19188289 Ry
     estimated scf accuracy    <       0.00000010 Ry

     The total energy is the sum of the following terms:

     one-electron contribution =    -207.24574808 Ry
     hartree contribution      =     110.60413978 Ry
     xc contribution           =     -48.10208791 Ry
     ewald contribution        =    -170.44818684 Ry

     convergence has been achieved in   7 iterations

     Forces acting on atoms (cartesian axes, Ry/au):

     atom    1 type  2   force =     0.00000024   -0.00000008    0.01339183
     atom    2 type  2   force =    -0.00000010    0.00000084    0.01339203
     atom    3 type  1   force =     0.00000108    0.00000062   -0.01339084
     atom    4 type  1   force =    -0.00000121   -0.00000139   -0.01339302
     The non-local contrib.  to forces
     atom    1 type  2   force =    -0.00000026   -0.00000244   -0.01936344
     atom    2 type  2   force =    -0.00000039    0.00000348   -0.01936236
     atom    3 type  1   force =     0.00000073   -0.00000294   -0.08873125
     atom    4 type  1   force =     0.00000085   -0.00000062   -0.08873239
     The ionic contribution  to forces
     atom    1 type  2   force =    -0.00000584    0.00002246    0.58796353
     atom    2 type  2   force =    -0.00000212   -0.00000057    0.58796245
     atom    3 type  1   force =     0.00000272   -0.00001510   -0.58796213
     atom    4 type  1   force =     0.00000523   -0.00000679   -0.58796385
     The local contribution  to forces
     atom    1 type  2   force =     0.00000531   -0.00002013   -0.55513216
     atom    2 type  2   force =     0.00000301   -0.00000171   -0.55513400
     atom    3 type  1   force =    -0.00000344    0.00001781    0.66337373
     atom    4 type  1   force =    -0.00000574    0.00000635    0.66337709
     The core correction contribution to forces
     atom    1 type  2   force =     0.00000000    0.00000000   -0.00016728
     atom    2 type  2   force =     0.00000000   -0.00000003   -0.00016730
     atom    3 type  1   force =     0.00000000    0.00000000    0.00000000
     atom    4 type  1   force =     0.00000000    0.00000000    0.00000000
     The Hubbard contrib.    to forces
     atom    1 type  2   force =     0.00000000    0.00000000    0.00000000
     atom    2 type  2   force =     0.00000000    0.00000000    0.00000000
     atom    3 type  1   force =     0.00000000    0.00000000    0.00000000
     atom    4 type  1   force =     0.00000000    0.00000000    0.00000000
     The SCF correction term to forces
     atom    1 type  2   force =     0.00000000    0.00000000    0.00000000
     atom    2 type  2   force =     0.00000000    0.00000000    0.00000000
     atom    3 type  1   force =     0.00000000    0.00000000    0.00000000
     atom    4 type  1   force =     0.00000000    0.00000000    0.00000000

     Total force =     0.000000     Total SCF correction =     0.000000


     Computing stress (Cartesian axis) and pressure

          total   stress  (Ry/bohr**3)                   (kbar)     P=   -1.57
  -0.00000933   0.00000000  -0.00000001         -1.37      0.00     -0.00
   0.00000000  -0.00000934  -0.00000001          0.00     -1.37     -0.00
  -0.00000001  -0.00000001  -0.00001338         -0.00     -0.00     -1.97

     kinetic stress (kbar)  20257.24     -0.00     -0.00
                               -0.00  20257.24     -0.00
                               -0.00     -0.00  20291.34

     local   stress (kbar)  -3060.40     -0.02     -0.01
                               -0.02  -3060.45      0.01
                               -0.01      0.01 -19588.17

     nonloc. stress (kbar)   5534.66      0.00      0.00
                                0.00   5534.66      0.00
                                0.00      0.00   5530.30

     hartree stress (kbar)  15683.03      0.01      0.00
                                0.01  15683.05     -0.00
                                0.00     -0.00  22811.71

     exc-cor stress (kbar)  -7198.38     -0.00      0.00
                               -0.00  -7198.38      0.00
                                0.00      0.00  -7195.47

     corecor stress (kbar)   -265.00      0.00      0.00
                                0.00   -265.00      0.00
                                0.00      0.00   -265.19

     ewald   stress (kbar) -30952.52      0.01      0.00
                                0.01 -30952.49     -0.00
                                0.00     -0.00 -21586.48

     hubbard stress (kbar)      0.00      0.00      0.00
                                0.00      0.00      0.00
                                0.00      0.00      0.00

     london  stress (kbar)      0.00      0.00      0.00
                                0.00      0.00      0.00
                                0.00      0.00      0.00

     DFT-D3  stress (kbar)      0.00      0.00      0.00
                                0.00      0.00      0.00
                                0.00      0.00      0.00

     XDM     stress (kbar)      0.00      0.00      0.00
                                0.00      0.00      0.00
                                0.00      0.00      0.00

     dft-nl  stress (kbar)      0.00      0.00      0.00
                                0.00      0.00      0.00
                                0.00      0.00      0.00

     TS-vdW  stress (kbar)      0.00      0.00      0.00
                                0.00      0.00      0.00
                                0.00      0.00      0.00



     Writing output data file ZnO.save/
 
     init_run     :      0.35s CPU      0.59s WALL (       1 calls)
     electrons    :      4.27s CPU      4.64s WALL (       1 calls)
     forces       :      0.12s CPU      0.13s WALL (       1 calls)
     stress       :      0.23s CPU      0.24s WALL (       1 calls)

     Called by init_run:
     wfcinit      :      0.21s CPU      0.30s WALL (       1 calls)
     wfcinit:atom :      0.00s CPU      0.00s WALL (      65 calls)
     wfcinit:wfcr :      0.20s CPU      0.28s WALL (      65 calls)
     potinit      :      0.05s CPU      0.07s WALL (       1 calls)
     hinit0       :      0.07s CPU      0.16s WALL (       1 calls)

     Called by electrons:
     c_bands      :      3.50s CPU      3.81s WALL (       7 calls)
     sum_band     :      0.54s CPU      0.57s WALL (       7 calls)
     v_of_rho     :      0.20s CPU      0.22s WALL (       8 calls)
     v_h          :      0.00s CPU      0.00s WALL (       8 calls)
     v_xc         :      0.25s CPU      0.27s WALL (      10 calls)
     newd         :      0.03s CPU      0.05s WALL (       8 calls)
     mix_rho      :      0.00s CPU      0.01s WALL (       7 calls)

     Called by c_bands:
     init_us_2    :      0.07s CPU      0.08s WALL (    1105 calls)
     cegterg      :      3.13s CPU      3.33s WALL (     455 calls)

     Called by sum_band:
     sum_band:bec :      0.00s CPU      0.01s WALL (     455 calls)
     addusdens    :      0.03s CPU      0.04s WALL (       7 calls)

     Called by *egterg:
     h_psi        :      1.92s CPU      2.00s WALL (    1476 calls)
     s_psi        :      0.07s CPU      0.08s WALL (    1476 calls)
     g_psi        :      0.00s CPU      0.00s WALL (     956 calls)
     cdiaghg      :      0.80s CPU      0.93s WALL (    1411 calls)
     cegterg:over :      0.25s CPU      0.30s WALL (     956 calls)
     cegterg:upda :      0.11s CPU      0.12s WALL (     956 calls)
     cegterg:last :      0.06s CPU      0.06s WALL (     455 calls)
     cdiaghg:chol :      0.07s CPU      0.09s WALL (    1411 calls)
     cdiaghg:inve :      0.02s CPU      0.02s WALL (    1411 calls)
     cdiaghg:para :      0.08s CPU      0.09s WALL (    2822 calls)

     Called by h_psi:
     h_psi:pot    :      1.92s CPU      2.00s WALL (    1476 calls)
     h_psi:calbec :      0.14s CPU      0.15s WALL (    1476 calls)
     vloc_psi     :      1.70s CPU      1.76s WALL (    1476 calls)
     add_vuspsi   :      0.08s CPU      0.08s WALL (    1476 calls)

     General routines
     calbec       :      0.21s CPU      0.23s WALL (    2256 calls)
     fft          :      0.03s CPU      0.07s WALL (     127 calls)
     ffts         :      0.00s CPU      0.00s WALL (      15 calls)
     fftw         :      1.95s CPU      2.02s WALL (   44792 calls)
     interpolate  :      0.00s CPU      0.01s WALL (       8 calls)
 
     Parallel routines
     fft_scatt_xy :      0.27s CPU      0.28s WALL (   44934 calls)
     fft_scatt_yz :      1.09s CPU      1.14s WALL (   44934 calls)
 
     PWSCF        :      5.20s CPU      6.86s WALL

 
   This run was terminated on:  20:52:31  15Jun2022            

=------------------------------------------------------------------------------=
   JOB DONE.
=------------------------------------------------------------------------------=
