
     Program PWSCF v.6.4.1 starts on 15Jun2022 at 23:24:58 

     This program is part of the open-source Quantum ESPRESSO suite
     for quantum simulation of materials; please cite
         "P. Giannozzi et al., J. Phys.:Condens. Matter 21 395502 (2009);
         "P. Giannozzi et al., J. Phys.:Condens. Matter 29 465901 (2017);
          URL http://www.quantum-espresso.org", 
     in publications or presentations arising from this work. More details at
     http://www.quantum-espresso.org/quote

     Parallel version (MPI), running on    64 processors

     MPI processes distributed on     1 nodes
     K-points division:     npool     =       4
     R & G space division:  proc/nbgrp/npool/nimage =      16
     Waiting for input...
     Reading input from standard input
Warning: card &IONS ignored
Warning: card   UPSCALE           = 100.D0, ignored
Warning: card / ignored
Warning: card &CELL ignored
Warning: card   CELL_DYNAMICS     = 'BFGS' ignored
Warning: card   PRESS_CONV_THR    = 0.5D0 ignored
Warning: card   CELL_DOFREE = 'ALL' ignored
Warning: card / ignored

     Current dimensions of program PWSCF are:
     Max number of different atomic species (ntypx) = 10
     Max number of k-points (npk) =  40000
     Max angular momentum in pseudopotentials (lmaxx) =  3

     Subspace diagonalization in iterative solution of the eigenvalue problem:
     one sub-group per band group will be used
     scalapack distributed-memory algorithm (size of sub-group:  2*  2 procs)

 
     Parallelization info
     --------------------
     sticks:   dense  smooth     PW     G-vecs:    dense   smooth      PW
     Min         103      55     17                 4868     1893     331
     Max         105      56     19                 4872     1896     333
     Sum        1663     889    283                77921    30315    5315
 


     bravais-lattice index     =            0
     lattice parameter (alat)  =       6.3410  a.u.
     unit-cell volume          =     313.8098 (a.u.)^3
     number of atoms/cell      =            4
     number of atomic types    =            3
     number of electrons       =        42.00
     number of Kohn-Sham states=           21
     kinetic-energy cutoff     =      80.0000  Ry
     charge density cutoff     =     600.0000  Ry
     convergence threshold     =      1.0E-06
     mixing beta               =       0.5000
     number of iterations used =            8  plain     mixing
     Exchange-correlation      = SLA  PW   PSX  PSC ( 1  4 10  8 0 0)
     Using LIBXC version       =    4   3   4

     celldm(1)=   6.340969  celldm(2)=   0.000000  celldm(3)=   0.000000
     celldm(4)=   0.000000  celldm(5)=   0.000000  celldm(6)=   0.000000

     crystal axes: (cart. coord. in units of alat)
               a(1) = (   1.000000   0.000000  -0.000000 )  
               a(2) = (  -0.500000   0.866025   0.000000 )  
               a(3) = (  -0.000000   0.000000   1.421246 )  

     reciprocal axes: (cart. coord. in units 2 pi/alat)
               b(1) = (  1.000000  0.577350  0.000000 )  
               b(2) = ( -0.000000  1.154701 -0.000000 )  
               b(3) = (  0.000000 -0.000000  0.703608 )  


     PseudoPot. # 1 for Mg read from file:
     ./GBRV_PBEsol/mg_pbesol_v1.4.uspp.F.UPF
     MD5 check sum: 4059f37963cf5867752dbf5ab2400678
     Pseudo is Ultrasoft, Zval = 10.0
     Generated by new atomic code, or converted to UPF format
     Using radial grid of  821 points,  7 beta functions with: 
                l(1) =   0
                l(2) =   0
                l(3) =   0
                l(4) =   1
                l(5) =   1
                l(6) =   2
                l(7) =   2
     Q(r) pseudized with  8 coefficients,  rinner =    1.200   1.200   1.200
                                                       1.200   1.200

     PseudoPot. # 2 for Zn read from file:
     ./GBRV_PBEsol/zn_pbesol_v1.uspp.F.UPF
     MD5 check sum: 7d8615e52efe7c1e2b1899de8658bae2
     Pseudo is Ultrasoft, Zval = 20.0
     Generated by new atomic code, or converted to UPF format
     Using radial grid of  943 points,  6 beta functions with: 
                l(1) =   0
                l(2) =   0
                l(3) =   1
                l(4) =   1
                l(5) =   2
                l(6) =   2
     Q(r) pseudized with  8 coefficients,  rinner =    1.100   1.100   1.100
                                                       1.100   1.100

     PseudoPot. # 3 for O  read from file:
     ./GBRV_PBEsol/o_pbesol_v1.2.uspp.F.UPF
     MD5 check sum: 501638753501ef6325af9037351f7734
     Pseudo is Ultrasoft + core correction, Zval =  6.0
     Generated by new atomic code, or converted to UPF format
     Using radial grid of  737 points,  5 beta functions with: 
                l(1) =   0
                l(2) =   0
                l(3) =   1
                l(4) =   1
                l(5) =   2
     Q(r) pseudized with  8 coefficients,  rinner =    0.900   0.900   0.900
                                                       0.900   0.900

     atomic species   valence    mass     pseudopotential
        Mg            10.00    24.30500     Mg( 1.00)
        Zn            20.00    65.38000     Zn( 1.00)
        O              6.00    15.99900     O ( 1.00)

     No symmetry found


                                    s                        frac. trans.

      isym =  1     identity                                     

 cryst.   s( 1) = (     1          0          0      )
                  (     0          1          0      )
                  (     0          0          1      )

 cart.    s( 1) = (  1.0000000 -0.0000000  0.0000000 )
                  (  0.0000000  1.0000000  0.0000000 )
                  ( -0.0000000  0.0000000  1.0000000 )


   Cartesian axes

     site n.     atom                  positions (alat units)
         1           O   tau(   1) = (   0.5000002   0.2886756   0.0104402  )
         2           O   tau(   2) = (  -0.0000000   0.5773494   0.7210629  )
         3           Zn  tau(   3) = (   0.4999999   0.2886749   0.6168119  )
         4           Mg  tau(   4) = (  -0.0000005   0.5773511   1.3321030  )

   Crystallographic axes

     site n.     atom                  positions (cryst. coord.)
         1           O   tau(   1) = (  0.6666670  0.3333337  0.0073459  )
         2           O   tau(   2) = (  0.3333329  0.6666657  0.5073458  )
         3           Zn  tau(   3) = (  0.6666664  0.3333329  0.4339939  )
         4           Mg  tau(   4) = (  0.3333337  0.6666677  0.9372785  )

     number of k points=   260
                       cart. coord. in units 2pi/alat
        k(    1) = (   0.0000000   0.0000000   0.0000000), wk =   0.0039062
        k(    2) = (   0.0000000  -0.0000000   0.0879510), wk =   0.0078125
        k(    3) = (   0.0000000  -0.0000000   0.1759020), wk =   0.0078125
        k(    4) = (   0.0000000  -0.0000000   0.2638531), wk =   0.0078125
        k(    5) = (  -0.0000001   0.0000000  -0.3518041), wk =   0.0039062
        k(    6) = (  -0.0000000   0.1443376  -0.0000000), wk =   0.0078125
        k(    7) = (  -0.0000000   0.1443376   0.0879510), wk =   0.0078125
        k(    8) = (  -0.0000000   0.1443376   0.1759020), wk =   0.0078125
        k(    9) = (   0.0000000   0.1443376   0.2638531), wk =   0.0078125
        k(   10) = (  -0.0000001   0.1443376  -0.3518041), wk =   0.0078125
        k(   11) = (  -0.0000001   0.1443376  -0.2638531), wk =   0.0078125
        k(   12) = (  -0.0000001   0.1443376  -0.1759021), wk =   0.0078125
        k(   13) = (  -0.0000001   0.1443376  -0.0879510), wk =   0.0078125
        k(   14) = (  -0.0000001   0.2886752  -0.0000000), wk =   0.0078125
        k(   15) = (  -0.0000001   0.2886752   0.0879510), wk =   0.0078125
        k(   16) = (  -0.0000000   0.2886751   0.1759020), wk =   0.0078125
        k(   17) = (  -0.0000000   0.2886751   0.2638531), wk =   0.0078125
        k(   18) = (  -0.0000001   0.2886752  -0.3518041), wk =   0.0078125
        k(   19) = (  -0.0000001   0.2886752  -0.2638531), wk =   0.0078125
        k(   20) = (  -0.0000001   0.2886752  -0.1759021), wk =   0.0078125
        k(   21) = (  -0.0000001   0.2886752  -0.0879510), wk =   0.0078125
        k(   22) = (  -0.0000001   0.4330128  -0.0000000), wk =   0.0078125
        k(   23) = (  -0.0000001   0.4330127   0.0879510), wk =   0.0078125
        k(   24) = (  -0.0000001   0.4330127   0.1759020), wk =   0.0078125
        k(   25) = (  -0.0000001   0.4330127   0.2638531), wk =   0.0078125
        k(   26) = (  -0.0000002   0.4330128  -0.3518041), wk =   0.0078125
        k(   27) = (  -0.0000002   0.4330128  -0.2638531), wk =   0.0078125
        k(   28) = (  -0.0000001   0.4330128  -0.1759021), wk =   0.0078125
        k(   29) = (  -0.0000001   0.4330128  -0.0879510), wk =   0.0078125
        k(   30) = (   0.0000002  -0.5773503   0.0000000), wk =   0.0039062
        k(   31) = (   0.0000002  -0.5773503   0.0879510), wk =   0.0078125
        k(   32) = (   0.0000002  -0.5773504   0.1759021), wk =   0.0078125
        k(   33) = (   0.0000002  -0.5773504   0.2638531), wk =   0.0078125
        k(   34) = (   0.0000001  -0.5773503  -0.3518041), wk =   0.0039062
        k(   35) = (   0.1250000   0.0721688   0.0000000), wk =   0.0078125
        k(   36) = (   0.1250000   0.0721688   0.0879511), wk =   0.0078125
        k(   37) = (   0.1250000   0.0721687   0.1759021), wk =   0.0078125
        k(   38) = (   0.1250000   0.0721687   0.2638531), wk =   0.0078125
        k(   39) = (   0.1249999   0.0721688  -0.3518041), wk =   0.0078125
        k(   40) = (   0.1249999   0.0721688  -0.2638530), wk =   0.0078125
        k(   41) = (   0.1250000   0.0721688  -0.1759020), wk =   0.0078125
        k(   42) = (   0.1250000   0.0721688  -0.0879510), wk =   0.0078125
        k(   43) = (   0.1249999   0.2165063   0.0000000), wk =   0.0078125
        k(   44) = (   0.1250000   0.2165063   0.0879511), wk =   0.0078125
        k(   45) = (   0.1250000   0.2165063   0.1759021), wk =   0.0078125
        k(   46) = (   0.1250000   0.2165063   0.2638531), wk =   0.0078125
        k(   47) = (   0.1249999   0.2165064  -0.3518041), wk =   0.0078125
        k(   48) = (   0.1249999   0.2165064  -0.2638530), wk =   0.0078125
        k(   49) = (   0.1249999   0.2165064  -0.1759020), wk =   0.0078125
        k(   50) = (   0.1249999   0.2165064  -0.0879510), wk =   0.0078125
        k(   51) = (   0.1249999   0.3608439   0.0000000), wk =   0.0078125
        k(   52) = (   0.1249999   0.3608439   0.0879510), wk =   0.0078125
        k(   53) = (   0.1249999   0.3608439   0.1759021), wk =   0.0078125
        k(   54) = (   0.1249999   0.3608439   0.2638531), wk =   0.0078125
        k(   55) = (   0.1249998   0.3608440  -0.3518041), wk =   0.0078125
        k(   56) = (   0.1249999   0.3608440  -0.2638530), wk =   0.0078125
        k(   57) = (   0.1249999   0.3608439  -0.1759020), wk =   0.0078125
        k(   58) = (   0.1249999   0.3608439  -0.0879510), wk =   0.0078125
        k(   59) = (   0.1249999   0.5051815   0.0000000), wk =   0.0078125
        k(   60) = (   0.1249999   0.5051815   0.0879510), wk =   0.0078125
        k(   61) = (   0.1249999   0.5051815   0.1759021), wk =   0.0078125
        k(   62) = (   0.1249999   0.5051815   0.2638531), wk =   0.0078125
        k(   63) = (   0.1249998   0.5051815  -0.3518041), wk =   0.0078125
        k(   64) = (   0.1249998   0.5051815  -0.2638531), wk =   0.0078125
        k(   65) = (   0.1249998   0.5051815  -0.1759020), wk =   0.0078125
        k(   66) = (   0.1249999   0.5051815  -0.0879510), wk =   0.0078125
        k(   67) = (   0.1250001  -0.5051816   0.0000001), wk =   0.0078125
        k(   68) = (   0.1250001  -0.5051816   0.0879511), wk =   0.0078125
        k(   69) = (   0.1250002  -0.5051816   0.1759021), wk =   0.0078125
        k(   70) = (   0.1250002  -0.5051816   0.2638531), wk =   0.0078125
        k(   71) = (   0.1250001  -0.5051815  -0.3518040), wk =   0.0078125
        k(   72) = (   0.1250001  -0.5051815  -0.2638530), wk =   0.0078125
        k(   73) = (   0.1250001  -0.5051816  -0.1759020), wk =   0.0078125
        k(   74) = (   0.1250001  -0.5051816  -0.0879510), wk =   0.0078125
        k(   75) = (   0.1250001  -0.3608440   0.0000001), wk =   0.0078125
        k(   76) = (   0.1250001  -0.3608440   0.0879511), wk =   0.0078125
        k(   77) = (   0.1250001  -0.3608440   0.1759021), wk =   0.0078125
        k(   78) = (   0.1250001  -0.3608440   0.2638531), wk =   0.0078125
        k(   79) = (   0.1250000  -0.3608440  -0.3518040), wk =   0.0078125
        k(   80) = (   0.1250001  -0.3608440  -0.2638530), wk =   0.0078125
        k(   81) = (   0.1250001  -0.3608440  -0.1759020), wk =   0.0078125
        k(   82) = (   0.1250001  -0.3608440  -0.0879510), wk =   0.0078125
        k(   83) = (   0.1250001  -0.2165064   0.0000000), wk =   0.0078125
        k(   84) = (   0.1250001  -0.2165064   0.0879511), wk =   0.0078125
        k(   85) = (   0.1250001  -0.2165064   0.1759021), wk =   0.0078125
        k(   86) = (   0.1250001  -0.2165064   0.2638531), wk =   0.0078125
        k(   87) = (   0.1250000  -0.2165064  -0.3518040), wk =   0.0078125
        k(   88) = (   0.1250000  -0.2165064  -0.2638530), wk =   0.0078125
        k(   89) = (   0.1250000  -0.2165064  -0.1759020), wk =   0.0078125
        k(   90) = (   0.1250000  -0.2165064  -0.0879510), wk =   0.0078125
        k(   91) = (   0.1250000  -0.0721688   0.0000000), wk =   0.0078125
        k(   92) = (   0.1250000  -0.0721688   0.0879511), wk =   0.0078125
        k(   93) = (   0.1250000  -0.0721688   0.1759021), wk =   0.0078125
        k(   94) = (   0.1250001  -0.0721688   0.2638531), wk =   0.0078125
        k(   95) = (   0.1250000  -0.0721688  -0.3518041), wk =   0.0078125
        k(   96) = (   0.1250000  -0.0721688  -0.2638530), wk =   0.0078125
        k(   97) = (   0.1250000  -0.0721688  -0.1759020), wk =   0.0078125
        k(   98) = (   0.1250000  -0.0721688  -0.0879510), wk =   0.0078125
        k(   99) = (   0.2500000   0.1443375   0.0000001), wk =   0.0078125
        k(  100) = (   0.2500000   0.1443375   0.0879511), wk =   0.0078125
        k(  101) = (   0.2500000   0.1443375   0.1759021), wk =   0.0078125
        k(  102) = (   0.2500000   0.1443375   0.2638531), wk =   0.0078125
        k(  103) = (   0.2499999   0.1443376  -0.3518040), wk =   0.0078125
        k(  104) = (   0.2499999   0.1443375  -0.2638530), wk =   0.0078125
        k(  105) = (   0.2499999   0.1443375  -0.1759020), wk =   0.0078125
        k(  106) = (   0.2499999   0.1443375  -0.0879510), wk =   0.0078125
        k(  107) = (   0.2499999   0.2886751   0.0000001), wk =   0.0078125
        k(  108) = (   0.2499999   0.2886751   0.0879511), wk =   0.0078125
        k(  109) = (   0.2500000   0.2886751   0.1759021), wk =   0.0078125
        k(  110) = (   0.2500000   0.2886751   0.2638531), wk =   0.0078125
        k(  111) = (   0.2499999   0.2886751  -0.3518040), wk =   0.0078125
        k(  112) = (   0.2499999   0.2886751  -0.2638530), wk =   0.0078125
        k(  113) = (   0.2499999   0.2886751  -0.1759020), wk =   0.0078125
        k(  114) = (   0.2499999   0.2886751  -0.0879510), wk =   0.0078125
        k(  115) = (   0.2499999   0.4330127   0.0000001), wk =   0.0078125
        k(  116) = (   0.2499999   0.4330127   0.0879511), wk =   0.0078125
        k(  117) = (   0.2499999   0.4330127   0.1759021), wk =   0.0078125
        k(  118) = (   0.2499999   0.4330127   0.2638531), wk =   0.0078125
        k(  119) = (   0.2499998   0.4330127  -0.3518040), wk =   0.0078125
        k(  120) = (   0.2499998   0.4330127  -0.2638530), wk =   0.0078125
        k(  121) = (   0.2499999   0.4330127  -0.1759020), wk =   0.0078125
        k(  122) = (   0.2499999   0.4330127  -0.0879510), wk =   0.0078125
        k(  123) = (   0.2499998   0.5773503   0.0000001), wk =   0.0078125
        k(  124) = (   0.2499999   0.5773503   0.0879511), wk =   0.0078125
        k(  125) = (   0.2499999   0.5773503   0.1759021), wk =   0.0078125
        k(  126) = (   0.2499999   0.5773502   0.2638531), wk =   0.0078125
        k(  127) = (   0.2499998   0.5773503  -0.3518040), wk =   0.0078125
        k(  128) = (   0.2499998   0.5773503  -0.2638530), wk =   0.0078125
        k(  129) = (   0.2499998   0.5773503  -0.1759020), wk =   0.0078125
        k(  130) = (   0.2499998   0.5773503  -0.0879510), wk =   0.0078125
        k(  131) = (   0.2500001  -0.4330128   0.0000001), wk =   0.0078125
        k(  132) = (   0.2500001  -0.4330128   0.0879511), wk =   0.0078125
        k(  133) = (   0.2500001  -0.4330128   0.1759021), wk =   0.0078125
        k(  134) = (   0.2500002  -0.4330128   0.2638532), wk =   0.0078125
        k(  135) = (   0.2500001  -0.4330128  -0.3518040), wk =   0.0078125
        k(  136) = (   0.2500001  -0.4330128  -0.2638530), wk =   0.0078125
        k(  137) = (   0.2500001  -0.4330128  -0.1759020), wk =   0.0078125
        k(  138) = (   0.2500001  -0.4330128  -0.0879509), wk =   0.0078125
        k(  139) = (   0.2500001  -0.2886752   0.0000001), wk =   0.0078125
        k(  140) = (   0.2500001  -0.2886752   0.0879511), wk =   0.0078125
        k(  141) = (   0.2500001  -0.2886752   0.1759021), wk =   0.0078125
        k(  142) = (   0.2500001  -0.2886753   0.2638532), wk =   0.0078125
        k(  143) = (   0.2500000  -0.2886752  -0.3518040), wk =   0.0078125
        k(  144) = (   0.2500000  -0.2886752  -0.2638530), wk =   0.0078125
        k(  145) = (   0.2500000  -0.2886752  -0.1759020), wk =   0.0078125
        k(  146) = (   0.2500001  -0.2886752  -0.0879509), wk =   0.0078125
        k(  147) = (   0.2500000  -0.1443376   0.0000001), wk =   0.0078125
        k(  148) = (   0.2500001  -0.1443377   0.0879511), wk =   0.0078125
        k(  149) = (   0.2500001  -0.1443377   0.1759021), wk =   0.0078125
        k(  150) = (   0.2500001  -0.1443377   0.2638532), wk =   0.0078125
        k(  151) = (   0.2500000  -0.1443376  -0.3518040), wk =   0.0078125
        k(  152) = (   0.2500000  -0.1443376  -0.2638530), wk =   0.0078125
        k(  153) = (   0.2500000  -0.1443376  -0.1759020), wk =   0.0078125
        k(  154) = (   0.2500000  -0.1443376  -0.0879509), wk =   0.0078125
        k(  155) = (   0.2500000  -0.0000001   0.0000001), wk =   0.0078125
        k(  156) = (   0.2500000  -0.0000001   0.0879511), wk =   0.0078125
        k(  157) = (   0.2500000  -0.0000001   0.1759021), wk =   0.0078125
        k(  158) = (   0.2500000  -0.0000001   0.2638532), wk =   0.0078125
        k(  159) = (   0.2499999  -0.0000000  -0.3518040), wk =   0.0078125
        k(  160) = (   0.2500000  -0.0000000  -0.2638530), wk =   0.0078125
        k(  161) = (   0.2500000  -0.0000000  -0.1759020), wk =   0.0078125
        k(  162) = (   0.2500000  -0.0000001  -0.0879509), wk =   0.0078125
        k(  163) = (   0.3749999   0.2165063   0.0000001), wk =   0.0078125
        k(  164) = (   0.3750000   0.2165063   0.0879511), wk =   0.0078125
        k(  165) = (   0.3750000   0.2165063   0.1759022), wk =   0.0078125
        k(  166) = (   0.3750000   0.2165063   0.2638532), wk =   0.0078125
        k(  167) = (   0.3749999   0.2165063  -0.3518040), wk =   0.0078125
        k(  168) = (   0.3749999   0.2165063  -0.2638530), wk =   0.0078125
        k(  169) = (   0.3749999   0.2165063  -0.1759019), wk =   0.0078125
        k(  170) = (   0.3749999   0.2165063  -0.0879509), wk =   0.0078125
        k(  171) = (   0.3749999   0.3608439   0.0000001), wk =   0.0078125
        k(  172) = (   0.3749999   0.3608439   0.0879511), wk =   0.0078125
        k(  173) = (   0.3749999   0.3608438   0.1759022), wk =   0.0078125
        k(  174) = (   0.3749999   0.3608438   0.2638532), wk =   0.0078125
        k(  175) = (   0.3749998   0.3608439  -0.3518040), wk =   0.0078125
        k(  176) = (   0.3749999   0.3608439  -0.2638530), wk =   0.0078125
        k(  177) = (   0.3749999   0.3608439  -0.1759019), wk =   0.0078125
        k(  178) = (   0.3749999   0.3608439  -0.0879509), wk =   0.0078125
        k(  179) = (   0.3749999   0.5051814   0.0000001), wk =   0.0078125
        k(  180) = (   0.3749999   0.5051814   0.0879511), wk =   0.0078125
        k(  181) = (   0.3749999   0.5051814   0.1759021), wk =   0.0078125
        k(  182) = (   0.3749999   0.5051814   0.2638532), wk =   0.0078125
        k(  183) = (   0.3749998   0.5051815  -0.3518040), wk =   0.0078125
        k(  184) = (   0.3749998   0.5051815  -0.2638530), wk =   0.0078125
        k(  185) = (   0.3749998   0.5051815  -0.1759019), wk =   0.0078125
        k(  186) = (   0.3749999   0.5051815  -0.0879509), wk =   0.0078125
        k(  187) = (   0.3749998   0.6495190   0.0000001), wk =   0.0078125
        k(  188) = (   0.3749998   0.6495190   0.0879511), wk =   0.0078125
        k(  189) = (   0.3749999   0.6495190   0.1759021), wk =   0.0078125
        k(  190) = (   0.3749999   0.6495190   0.2638532), wk =   0.0078125
        k(  191) = (   0.3749998   0.6495191  -0.3518040), wk =   0.0078125
        k(  192) = (   0.3749998   0.6495191  -0.2638530), wk =   0.0078125
        k(  193) = (   0.3749998   0.6495190  -0.1759020), wk =   0.0078125
        k(  194) = (   0.3749998   0.6495190  -0.0879509), wk =   0.0078125
        k(  195) = (   0.3750001  -0.3608441   0.0000001), wk =   0.0078125
        k(  196) = (   0.3750001  -0.3608441   0.0879512), wk =   0.0078125
        k(  197) = (   0.3750001  -0.3608441   0.1759022), wk =   0.0078125
        k(  198) = (   0.3750001  -0.3608441   0.2638532), wk =   0.0078125
        k(  199) = (   0.3750000  -0.3608440  -0.3518040), wk =   0.0078125
        k(  200) = (   0.3750001  -0.3608440  -0.2638529), wk =   0.0078125
        k(  201) = (   0.3750001  -0.3608440  -0.1759019), wk =   0.0078125
        k(  202) = (   0.3750001  -0.3608440  -0.0879509), wk =   0.0078125
        k(  203) = (   0.3750001  -0.2165065   0.0000001), wk =   0.0078125
        k(  204) = (   0.3750001  -0.2165065   0.0879512), wk =   0.0078125
        k(  205) = (   0.3750001  -0.2165065   0.1759022), wk =   0.0078125
        k(  206) = (   0.3750001  -0.2165065   0.2638532), wk =   0.0078125
        k(  207) = (   0.3750000  -0.2165064  -0.3518040), wk =   0.0078125
        k(  208) = (   0.3750000  -0.2165064  -0.2638529), wk =   0.0078125
        k(  209) = (   0.3750000  -0.2165065  -0.1759019), wk =   0.0078125
        k(  210) = (   0.3750000  -0.2165065  -0.0879509), wk =   0.0078125
        k(  211) = (   0.3750000  -0.0721689   0.0000001), wk =   0.0078125
        k(  212) = (   0.3750000  -0.0721689   0.0879511), wk =   0.0078125
        k(  213) = (   0.3750000  -0.0721689   0.1759022), wk =   0.0078125
        k(  214) = (   0.3750001  -0.0721689   0.2638532), wk =   0.0078125
        k(  215) = (   0.3750000  -0.0721689  -0.3518040), wk =   0.0078125
        k(  216) = (   0.3750000  -0.0721689  -0.2638530), wk =   0.0078125
        k(  217) = (   0.3750000  -0.0721689  -0.1759019), wk =   0.0078125
        k(  218) = (   0.3750000  -0.0721689  -0.0879509), wk =   0.0078125
        k(  219) = (   0.3750000   0.0721687   0.0000001), wk =   0.0078125
        k(  220) = (   0.3750000   0.0721687   0.0879511), wk =   0.0078125
        k(  221) = (   0.3750000   0.0721687   0.1759022), wk =   0.0078125
        k(  222) = (   0.3750000   0.0721687   0.2638532), wk =   0.0078125
        k(  223) = (   0.3749999   0.0721687  -0.3518040), wk =   0.0078125
        k(  224) = (   0.3749999   0.0721687  -0.2638530), wk =   0.0078125
        k(  225) = (   0.3750000   0.0721687  -0.1759019), wk =   0.0078125
        k(  226) = (   0.3750000   0.0721687  -0.0879509), wk =   0.0078125
        k(  227) = (  -0.4999999  -0.2886750  -0.0000001), wk =   0.0039062
        k(  228) = (  -0.4999999  -0.2886750   0.0879509), wk =   0.0078125
        k(  229) = (  -0.4999999  -0.2886751   0.1759019), wk =   0.0078125
        k(  230) = (  -0.4999999  -0.2886751   0.2638529), wk =   0.0078125
        k(  231) = (  -0.5000000  -0.2886750  -0.3518042), wk =   0.0039062
        k(  232) = (  -0.5000000  -0.1443375  -0.0000002), wk =   0.0078125
        k(  233) = (  -0.4999999  -0.1443375   0.0879509), wk =   0.0078125
        k(  234) = (  -0.4999999  -0.1443375   0.1759019), wk =   0.0078125
        k(  235) = (  -0.4999999  -0.1443375   0.2638529), wk =   0.0078125
        k(  236) = (  -0.5000000  -0.1443374  -0.3518042), wk =   0.0078125
        k(  237) = (  -0.5000000  -0.1443374  -0.2638532), wk =   0.0078125
        k(  238) = (  -0.5000000  -0.1443374  -0.1759022), wk =   0.0078125
        k(  239) = (  -0.5000000  -0.1443374  -0.0879512), wk =   0.0078125
        k(  240) = (  -0.5000000   0.0000001  -0.0000002), wk =   0.0078125
        k(  241) = (  -0.5000000   0.0000001   0.0879509), wk =   0.0078125
        k(  242) = (  -0.5000000   0.0000001   0.1759019), wk =   0.0078125
        k(  243) = (  -0.5000000   0.0000001   0.2638529), wk =   0.0078125
        k(  244) = (  -0.5000001   0.0000002  -0.3518043), wk =   0.0078125
        k(  245) = (  -0.5000000   0.0000002  -0.2638532), wk =   0.0078125
        k(  246) = (  -0.5000000   0.0000001  -0.1759022), wk =   0.0078125
        k(  247) = (  -0.5000000   0.0000001  -0.0879512), wk =   0.0078125
        k(  248) = (  -0.5000000   0.1443377  -0.0000002), wk =   0.0078125
        k(  249) = (  -0.5000000   0.1443377   0.0879509), wk =   0.0078125
        k(  250) = (  -0.5000000   0.1443377   0.1759019), wk =   0.0078125
        k(  251) = (  -0.5000000   0.1443377   0.2638529), wk =   0.0078125
        k(  252) = (  -0.5000001   0.1443377  -0.3518043), wk =   0.0078125
        k(  253) = (  -0.5000001   0.1443377  -0.2638532), wk =   0.0078125
        k(  254) = (  -0.5000001   0.1443377  -0.1759022), wk =   0.0078125
        k(  255) = (  -0.5000001   0.1443377  -0.0879512), wk =   0.0078125
        k(  256) = (  -0.4999998  -0.8660254  -0.0000001), wk =   0.0039062
        k(  257) = (  -0.4999998  -0.8660254   0.0879509), wk =   0.0078125
        k(  258) = (  -0.4999997  -0.8660254   0.1759019), wk =   0.0078125
        k(  259) = (  -0.4999997  -0.8660254   0.2638529), wk =   0.0078125
        k(  260) = (  -0.4999998  -0.8660253  -0.3518042), wk =   0.0039062

                       cryst. coord.
        k(    1) = (   0.0000000   0.0000000   0.0000000), wk =   0.0039062
        k(    2) = (  -0.0000000   0.0000000   0.1250000), wk =   0.0078125
        k(    3) = (  -0.0000000   0.0000000   0.2500000), wk =   0.0078125
        k(    4) = (   0.0000000   0.0000000   0.3750000), wk =   0.0078125
        k(    5) = (   0.0000000  -0.0000000  -0.5000000), wk =   0.0039062
        k(    6) = (   0.0000000   0.1250000   0.0000000), wk =   0.0078125
        k(    7) = (   0.0000000   0.1250000   0.1250000), wk =   0.0078125
        k(    8) = (   0.0000000   0.1250000   0.2500000), wk =   0.0078125
        k(    9) = (   0.0000000   0.1250000   0.3750000), wk =   0.0078125
        k(   10) = (   0.0000000   0.1250000  -0.5000000), wk =   0.0078125
        k(   11) = (   0.0000000   0.1250000  -0.3750000), wk =   0.0078125
        k(   12) = (   0.0000000   0.1250000  -0.2500000), wk =   0.0078125
        k(   13) = (   0.0000000   0.1250000  -0.1250000), wk =   0.0078125
        k(   14) = (   0.0000000   0.2500000   0.0000000), wk =   0.0078125
        k(   15) = (   0.0000000   0.2500000   0.1250000), wk =   0.0078125
        k(   16) = (   0.0000000   0.2500000   0.2500000), wk =   0.0078125
        k(   17) = (   0.0000000   0.2500000   0.3750000), wk =   0.0078125
        k(   18) = (   0.0000000   0.2500000  -0.5000000), wk =   0.0078125
        k(   19) = (   0.0000000   0.2500000  -0.3750000), wk =   0.0078125
        k(   20) = (   0.0000000   0.2500000  -0.2500000), wk =   0.0078125
        k(   21) = (   0.0000000   0.2500000  -0.1250000), wk =   0.0078125
        k(   22) = (   0.0000000   0.3750000   0.0000000), wk =   0.0078125
        k(   23) = (   0.0000000   0.3750000   0.1250000), wk =   0.0078125
        k(   24) = (   0.0000000   0.3750000   0.2500000), wk =   0.0078125
        k(   25) = (   0.0000000   0.3750000   0.3750000), wk =   0.0078125
        k(   26) = (  -0.0000000   0.3750000  -0.5000000), wk =   0.0078125
        k(   27) = (   0.0000000   0.3750000  -0.3750000), wk =   0.0078125
        k(   28) = (   0.0000000   0.3750000  -0.2500000), wk =   0.0078125
        k(   29) = (   0.0000000   0.3750000  -0.1250000), wk =   0.0078125
        k(   30) = (  -0.0000000  -0.5000000  -0.0000000), wk =   0.0039062
        k(   31) = (   0.0000000  -0.5000000   0.1250000), wk =   0.0078125
        k(   32) = (  -0.0000000  -0.5000000   0.2500000), wk =   0.0078125
        k(   33) = (  -0.0000000  -0.5000000   0.3750000), wk =   0.0078125
        k(   34) = (  -0.0000000  -0.5000000  -0.5000000), wk =   0.0039062
        k(   35) = (   0.1250000  -0.0000000  -0.0000000), wk =   0.0078125
        k(   36) = (   0.1250000  -0.0000000   0.1250000), wk =   0.0078125
        k(   37) = (   0.1250000  -0.0000000   0.2500000), wk =   0.0078125
        k(   38) = (   0.1250000   0.0000000   0.3750000), wk =   0.0078125
        k(   39) = (   0.1250000   0.0000000  -0.5000000), wk =   0.0078125
        k(   40) = (   0.1250000  -0.0000000  -0.3750000), wk =   0.0078125
        k(   41) = (   0.1250000   0.0000000  -0.2500000), wk =   0.0078125
        k(   42) = (   0.1250000  -0.0000000  -0.1250000), wk =   0.0078125
        k(   43) = (   0.1250000   0.1250000  -0.0000000), wk =   0.0078125
        k(   44) = (   0.1250000   0.1250000   0.1250000), wk =   0.0078125
        k(   45) = (   0.1250000   0.1250000   0.2500000), wk =   0.0078125
        k(   46) = (   0.1250000   0.1250000   0.3750000), wk =   0.0078125
        k(   47) = (   0.1250000   0.1250000  -0.5000000), wk =   0.0078125
        k(   48) = (   0.1250000   0.1250000  -0.3750000), wk =   0.0078125
        k(   49) = (   0.1250000   0.1250000  -0.2500000), wk =   0.0078125
        k(   50) = (   0.1250000   0.1250000  -0.1250000), wk =   0.0078125
        k(   51) = (   0.1250000   0.2500000  -0.0000000), wk =   0.0078125
        k(   52) = (   0.1250000   0.2500000   0.1250000), wk =   0.0078125
        k(   53) = (   0.1250000   0.2500000   0.2500000), wk =   0.0078125
        k(   54) = (   0.1250000   0.2500000   0.3750000), wk =   0.0078125
        k(   55) = (   0.1250000   0.2500000  -0.5000000), wk =   0.0078125
        k(   56) = (   0.1250000   0.2500000  -0.3750000), wk =   0.0078125
        k(   57) = (   0.1250000   0.2500000  -0.2500000), wk =   0.0078125
        k(   58) = (   0.1250000   0.2500000  -0.1250000), wk =   0.0078125
        k(   59) = (   0.1250000   0.3750000  -0.0000000), wk =   0.0078125
        k(   60) = (   0.1250000   0.3750000   0.1250000), wk =   0.0078125
        k(   61) = (   0.1250000   0.3750000   0.2500000), wk =   0.0078125
        k(   62) = (   0.1250000   0.3750000   0.3750000), wk =   0.0078125
        k(   63) = (   0.1250000   0.3750000  -0.5000000), wk =   0.0078125
        k(   64) = (   0.1250000   0.3750000  -0.3750000), wk =   0.0078125
        k(   65) = (   0.1250000   0.3750000  -0.2500000), wk =   0.0078125
        k(   66) = (   0.1250000   0.3750000  -0.1250000), wk =   0.0078125
        k(   67) = (   0.1250000  -0.5000000   0.0000000), wk =   0.0078125
        k(   68) = (   0.1250000  -0.5000000   0.1250000), wk =   0.0078125
        k(   69) = (   0.1250000  -0.5000000   0.2500000), wk =   0.0078125
        k(   70) = (   0.1250000  -0.5000000   0.3750000), wk =   0.0078125
        k(   71) = (   0.1250000  -0.5000000  -0.5000000), wk =   0.0078125
        k(   72) = (   0.1250000  -0.5000000  -0.3750000), wk =   0.0078125
        k(   73) = (   0.1250000  -0.5000000  -0.2500000), wk =   0.0078125
        k(   74) = (   0.1250000  -0.5000000  -0.1250000), wk =   0.0078125
        k(   75) = (   0.1250000  -0.3750000  -0.0000000), wk =   0.0078125
        k(   76) = (   0.1250000  -0.3750000   0.1250000), wk =   0.0078125
        k(   77) = (   0.1250000  -0.3750000   0.2500000), wk =   0.0078125
        k(   78) = (   0.1250000  -0.3750000   0.3750000), wk =   0.0078125
        k(   79) = (   0.1250000  -0.3750000  -0.5000000), wk =   0.0078125
        k(   80) = (   0.1250000  -0.3750000  -0.3750000), wk =   0.0078125
        k(   81) = (   0.1250000  -0.3750000  -0.2500000), wk =   0.0078125
        k(   82) = (   0.1250000  -0.3750000  -0.1250000), wk =   0.0078125
        k(   83) = (   0.1250000  -0.2500000  -0.0000000), wk =   0.0078125
        k(   84) = (   0.1250000  -0.2500000   0.1250000), wk =   0.0078125
        k(   85) = (   0.1250000  -0.2500000   0.2500000), wk =   0.0078125
        k(   86) = (   0.1250000  -0.2500000   0.3750000), wk =   0.0078125
        k(   87) = (   0.1250000  -0.2500000  -0.5000000), wk =   0.0078125
        k(   88) = (   0.1250000  -0.2500000  -0.3750000), wk =   0.0078125
        k(   89) = (   0.1250000  -0.2500000  -0.2500000), wk =   0.0078125
        k(   90) = (   0.1250000  -0.2500000  -0.1250000), wk =   0.0078125
        k(   91) = (   0.1250000  -0.1250000  -0.0000000), wk =   0.0078125
        k(   92) = (   0.1250000  -0.1250000   0.1250000), wk =   0.0078125
        k(   93) = (   0.1250000  -0.1250000   0.2500000), wk =   0.0078125
        k(   94) = (   0.1250000  -0.1250000   0.3750000), wk =   0.0078125
        k(   95) = (   0.1250000  -0.1250000  -0.5000000), wk =   0.0078125
        k(   96) = (   0.1250000  -0.1250000  -0.3750000), wk =   0.0078125
        k(   97) = (   0.1250000  -0.1250000  -0.2500000), wk =   0.0078125
        k(   98) = (   0.1250000  -0.1250000  -0.1250000), wk =   0.0078125
        k(   99) = (   0.2500000  -0.0000000  -0.0000000), wk =   0.0078125
        k(  100) = (   0.2500000  -0.0000000   0.1250000), wk =   0.0078125
        k(  101) = (   0.2500000  -0.0000000   0.2500000), wk =   0.0078125
        k(  102) = (   0.2500000  -0.0000000   0.3750000), wk =   0.0078125
        k(  103) = (   0.2500000   0.0000000  -0.5000000), wk =   0.0078125
        k(  104) = (   0.2500000  -0.0000000  -0.3750000), wk =   0.0078125
        k(  105) = (   0.2500000  -0.0000000  -0.2500000), wk =   0.0078125
        k(  106) = (   0.2500000  -0.0000000  -0.1250000), wk =   0.0078125
        k(  107) = (   0.2500000   0.1250000  -0.0000000), wk =   0.0078125
        k(  108) = (   0.2500000   0.1250000   0.1250000), wk =   0.0078125
        k(  109) = (   0.2500000   0.1250000   0.2500000), wk =   0.0078125
        k(  110) = (   0.2500000   0.1250000   0.3750000), wk =   0.0078125
        k(  111) = (   0.2500000   0.1250000  -0.5000000), wk =   0.0078125
        k(  112) = (   0.2500000   0.1250000  -0.3750000), wk =   0.0078125
        k(  113) = (   0.2500000   0.1250000  -0.2500000), wk =   0.0078125
        k(  114) = (   0.2500000   0.1250000  -0.1250000), wk =   0.0078125
        k(  115) = (   0.2500000   0.2500000  -0.0000000), wk =   0.0078125
        k(  116) = (   0.2500000   0.2500000   0.1250000), wk =   0.0078125
        k(  117) = (   0.2500000   0.2500000   0.2500000), wk =   0.0078125
        k(  118) = (   0.2500000   0.2500000   0.3750000), wk =   0.0078125
        k(  119) = (   0.2500000   0.2500000  -0.5000000), wk =   0.0078125
        k(  120) = (   0.2500000   0.2500000  -0.3750000), wk =   0.0078125
        k(  121) = (   0.2500000   0.2500000  -0.2500000), wk =   0.0078125
        k(  122) = (   0.2500000   0.2500000  -0.1250000), wk =   0.0078125
        k(  123) = (   0.2500000   0.3750000   0.0000000), wk =   0.0078125
        k(  124) = (   0.2500000   0.3750000   0.1250000), wk =   0.0078125
        k(  125) = (   0.2500000   0.3750000   0.2500000), wk =   0.0078125
        k(  126) = (   0.2500000   0.3750000   0.3750000), wk =   0.0078125
        k(  127) = (   0.2500000   0.3750000  -0.5000000), wk =   0.0078125
        k(  128) = (   0.2500000   0.3750000  -0.3750000), wk =   0.0078125
        k(  129) = (   0.2500000   0.3750000  -0.2500000), wk =   0.0078125
        k(  130) = (   0.2500000   0.3750000  -0.1250000), wk =   0.0078125
        k(  131) = (   0.2500000  -0.5000000  -0.0000000), wk =   0.0078125
        k(  132) = (   0.2500000  -0.5000000   0.1250000), wk =   0.0078125
        k(  133) = (   0.2500000  -0.5000000   0.2500000), wk =   0.0078125
        k(  134) = (   0.2500000  -0.5000000   0.3750000), wk =   0.0078125
        k(  135) = (   0.2500000  -0.5000000  -0.5000000), wk =   0.0078125
        k(  136) = (   0.2500000  -0.5000000  -0.3750000), wk =   0.0078125
        k(  137) = (   0.2500000  -0.5000000  -0.2500000), wk =   0.0078125
        k(  138) = (   0.2500000  -0.5000000  -0.1250000), wk =   0.0078125
        k(  139) = (   0.2500000  -0.3750000   0.0000000), wk =   0.0078125
        k(  140) = (   0.2500000  -0.3750000   0.1250000), wk =   0.0078125
        k(  141) = (   0.2500000  -0.3750000   0.2500000), wk =   0.0078125
        k(  142) = (   0.2500000  -0.3750000   0.3750000), wk =   0.0078125
        k(  143) = (   0.2500000  -0.3750000  -0.5000000), wk =   0.0078125
        k(  144) = (   0.2500000  -0.3750000  -0.3750000), wk =   0.0078125
        k(  145) = (   0.2500000  -0.3750000  -0.2500000), wk =   0.0078125
        k(  146) = (   0.2500000  -0.3750000  -0.1250000), wk =   0.0078125
        k(  147) = (   0.2500000  -0.2500000  -0.0000000), wk =   0.0078125
        k(  148) = (   0.2500000  -0.2500000   0.1250000), wk =   0.0078125
        k(  149) = (   0.2500000  -0.2500000   0.2500000), wk =   0.0078125
        k(  150) = (   0.2500000  -0.2500000   0.3750000), wk =   0.0078125
        k(  151) = (   0.2500000  -0.2500000  -0.5000000), wk =   0.0078125
        k(  152) = (   0.2500000  -0.2500000  -0.3750000), wk =   0.0078125
        k(  153) = (   0.2500000  -0.2500000  -0.2500000), wk =   0.0078125
        k(  154) = (   0.2500000  -0.2500000  -0.1250000), wk =   0.0078125
        k(  155) = (   0.2500000  -0.1250000  -0.0000000), wk =   0.0078125
        k(  156) = (   0.2500000  -0.1250000   0.1250000), wk =   0.0078125
        k(  157) = (   0.2500000  -0.1250000   0.2500000), wk =   0.0078125
        k(  158) = (   0.2500000  -0.1250000   0.3750000), wk =   0.0078125
        k(  159) = (   0.2500000  -0.1250000  -0.5000000), wk =   0.0078125
        k(  160) = (   0.2500000  -0.1250000  -0.3750000), wk =   0.0078125
        k(  161) = (   0.2500000  -0.1250000  -0.2500000), wk =   0.0078125
        k(  162) = (   0.2500000  -0.1250000  -0.1250000), wk =   0.0078125
        k(  163) = (   0.3750000   0.0000000  -0.0000000), wk =   0.0078125
        k(  164) = (   0.3750000   0.0000000   0.1250000), wk =   0.0078125
        k(  165) = (   0.3750000   0.0000000   0.2500000), wk =   0.0078125
        k(  166) = (   0.3750000  -0.0000000   0.3750000), wk =   0.0078125
        k(  167) = (   0.3750000   0.0000000  -0.5000000), wk =   0.0078125
        k(  168) = (   0.3750000   0.0000000  -0.3750000), wk =   0.0078125
        k(  169) = (   0.3750000  -0.0000000  -0.2500000), wk =   0.0078125
        k(  170) = (   0.3750000  -0.0000000  -0.1250000), wk =   0.0078125
        k(  171) = (   0.3750000   0.1250000  -0.0000000), wk =   0.0078125
        k(  172) = (   0.3750000   0.1250000   0.1250000), wk =   0.0078125
        k(  173) = (   0.3750000   0.1250000   0.2500000), wk =   0.0078125
        k(  174) = (   0.3750000   0.1250000   0.3750000), wk =   0.0078125
        k(  175) = (   0.3750000   0.1250000  -0.5000000), wk =   0.0078125
        k(  176) = (   0.3750000   0.1250000  -0.3750000), wk =   0.0078125
        k(  177) = (   0.3750000   0.1250000  -0.2500000), wk =   0.0078125
        k(  178) = (   0.3750000   0.1250000  -0.1250000), wk =   0.0078125
        k(  179) = (   0.3750000   0.2500000  -0.0000000), wk =   0.0078125
        k(  180) = (   0.3750000   0.2500000   0.1250000), wk =   0.0078125
        k(  181) = (   0.3750000   0.2500000   0.2500000), wk =   0.0078125
        k(  182) = (   0.3750000   0.2500000   0.3750000), wk =   0.0078125
        k(  183) = (   0.3750000   0.2500000  -0.5000000), wk =   0.0078125
        k(  184) = (   0.3750000   0.2500000  -0.3750000), wk =   0.0078125
        k(  185) = (   0.3750000   0.2500000  -0.2500000), wk =   0.0078125
        k(  186) = (   0.3750000   0.2500000  -0.1250000), wk =   0.0078125
        k(  187) = (   0.3750000   0.3750000   0.0000000), wk =   0.0078125
        k(  188) = (   0.3750000   0.3750000   0.1250000), wk =   0.0078125
        k(  189) = (   0.3750000   0.3750000   0.2500000), wk =   0.0078125
        k(  190) = (   0.3750000   0.3750000   0.3750000), wk =   0.0078125
        k(  191) = (   0.3750000   0.3750000  -0.5000000), wk =   0.0078125
        k(  192) = (   0.3750000   0.3750000  -0.3750000), wk =   0.0078125
        k(  193) = (   0.3750000   0.3750000  -0.2500000), wk =   0.0078125
        k(  194) = (   0.3750000   0.3750000  -0.1250000), wk =   0.0078125
        k(  195) = (   0.3750000  -0.5000000  -0.0000000), wk =   0.0078125
        k(  196) = (   0.3750000  -0.5000000   0.1250000), wk =   0.0078125
        k(  197) = (   0.3750000  -0.5000000   0.2500000), wk =   0.0078125
        k(  198) = (   0.3750000  -0.5000000   0.3750000), wk =   0.0078125
        k(  199) = (   0.3750000  -0.5000000  -0.5000000), wk =   0.0078125
        k(  200) = (   0.3750000  -0.5000000  -0.3750000), wk =   0.0078125
        k(  201) = (   0.3750000  -0.5000000  -0.2500000), wk =   0.0078125
        k(  202) = (   0.3750000  -0.5000000  -0.1250000), wk =   0.0078125
        k(  203) = (   0.3750000  -0.3750000  -0.0000000), wk =   0.0078125
        k(  204) = (   0.3750000  -0.3750000   0.1250000), wk =   0.0078125
        k(  205) = (   0.3750000  -0.3750000   0.2500000), wk =   0.0078125
        k(  206) = (   0.3750000  -0.3750000   0.3750000), wk =   0.0078125
        k(  207) = (   0.3750000  -0.3750000  -0.5000000), wk =   0.0078125
        k(  208) = (   0.3750000  -0.3750000  -0.3750000), wk =   0.0078125
        k(  209) = (   0.3750000  -0.3750000  -0.2500000), wk =   0.0078125
        k(  210) = (   0.3750000  -0.3750000  -0.1250000), wk =   0.0078125
        k(  211) = (   0.3750000  -0.2500000   0.0000000), wk =   0.0078125
        k(  212) = (   0.3750000  -0.2500000   0.1250000), wk =   0.0078125
        k(  213) = (   0.3750000  -0.2500000   0.2500000), wk =   0.0078125
        k(  214) = (   0.3750000  -0.2500000   0.3750000), wk =   0.0078125
        k(  215) = (   0.3750000  -0.2500000  -0.5000000), wk =   0.0078125
        k(  216) = (   0.3750000  -0.2500000  -0.3750000), wk =   0.0078125
        k(  217) = (   0.3750000  -0.2500000  -0.2500000), wk =   0.0078125
        k(  218) = (   0.3750000  -0.2500000  -0.1250000), wk =   0.0078125
        k(  219) = (   0.3750000  -0.1250000   0.0000000), wk =   0.0078125
        k(  220) = (   0.3750000  -0.1250000   0.1250000), wk =   0.0078125
        k(  221) = (   0.3750000  -0.1250000   0.2500000), wk =   0.0078125
        k(  222) = (   0.3750000  -0.1250000   0.3750000), wk =   0.0078125
        k(  223) = (   0.3750000  -0.1250000  -0.5000000), wk =   0.0078125
        k(  224) = (   0.3750000  -0.1250000  -0.3750000), wk =   0.0078125
        k(  225) = (   0.3750000  -0.1250000  -0.2500000), wk =   0.0078125
        k(  226) = (   0.3750000  -0.1250000  -0.1250000), wk =   0.0078125
        k(  227) = (  -0.5000000   0.0000000   0.0000000), wk =   0.0039062
        k(  228) = (  -0.5000000   0.0000000   0.1250000), wk =   0.0078125
        k(  229) = (  -0.5000000   0.0000000   0.2500000), wk =   0.0078125
        k(  230) = (  -0.5000000   0.0000000   0.3750000), wk =   0.0078125
        k(  231) = (  -0.5000000   0.0000000  -0.5000000), wk =   0.0039062
        k(  232) = (  -0.5000000   0.1250000   0.0000000), wk =   0.0078125
        k(  233) = (  -0.5000000   0.1250000   0.1250000), wk =   0.0078125
        k(  234) = (  -0.5000000   0.1250000   0.2500000), wk =   0.0078125
        k(  235) = (  -0.5000000   0.1250000   0.3750000), wk =   0.0078125
        k(  236) = (  -0.5000000   0.1250000  -0.5000000), wk =   0.0078125
        k(  237) = (  -0.5000000   0.1250000  -0.3750000), wk =   0.0078125
        k(  238) = (  -0.5000000   0.1250000  -0.2500000), wk =   0.0078125
        k(  239) = (  -0.5000000   0.1250000  -0.1250000), wk =   0.0078125
        k(  240) = (  -0.5000000   0.2500000   0.0000000), wk =   0.0078125
        k(  241) = (  -0.5000000   0.2500000   0.1250000), wk =   0.0078125
        k(  242) = (  -0.5000000   0.2500000   0.2500000), wk =   0.0078125
        k(  243) = (  -0.5000000   0.2500000   0.3750000), wk =   0.0078125
        k(  244) = (  -0.5000000   0.2500000  -0.5000000), wk =   0.0078125
        k(  245) = (  -0.5000000   0.2500000  -0.3750000), wk =   0.0078125
        k(  246) = (  -0.5000000   0.2500000  -0.2500000), wk =   0.0078125
        k(  247) = (  -0.5000000   0.2500000  -0.1250000), wk =   0.0078125
        k(  248) = (  -0.5000000   0.3750000  -0.0000000), wk =   0.0078125
        k(  249) = (  -0.5000000   0.3750000   0.1250000), wk =   0.0078125
        k(  250) = (  -0.5000000   0.3750000   0.2500000), wk =   0.0078125
        k(  251) = (  -0.5000000   0.3750000   0.3750000), wk =   0.0078125
        k(  252) = (  -0.5000000   0.3750000  -0.5000000), wk =   0.0078125
        k(  253) = (  -0.5000000   0.3750000  -0.3750000), wk =   0.0078125
        k(  254) = (  -0.5000000   0.3750000  -0.2500000), wk =   0.0078125
        k(  255) = (  -0.5000000   0.3750000  -0.1250000), wk =   0.0078125
        k(  256) = (  -0.5000000  -0.5000000   0.0000000), wk =   0.0039062
        k(  257) = (  -0.5000000  -0.5000000   0.1250000), wk =   0.0078125
        k(  258) = (  -0.5000000  -0.5000000   0.2500000), wk =   0.0078125
        k(  259) = (  -0.5000000  -0.5000000   0.3750000), wk =   0.0078125
        k(  260) = (  -0.5000000  -0.5000000  -0.5000000), wk =   0.0039062

     Dense  grid:    77921 G-vectors     FFT dimensions: (  50,  50,  72)

     Smooth grid:    30315 G-vectors     FFT dimensions: (  40,  40,  54)

     Dynamical RAM for                 wfc:       0.08 MB

     Dynamical RAM for     wfc (w. buffer):       5.01 MB

     Dynamical RAM for           str. fact:       0.22 MB

     Dynamical RAM for           local pot:       0.00 MB

     Dynamical RAM for          nlocal pot:       0.23 MB

     Dynamical RAM for                qrad:       7.93 MB

     Dynamical RAM for          rho,v,vnew:       0.51 MB

     Dynamical RAM for               rhoin:       0.17 MB

     Dynamical RAM for            rho*nmix:       1.19 MB

     Dynamical RAM for           G-vectors:       0.29 MB

     Dynamical RAM for          h,s,v(r/c):       0.08 MB

     Dynamical RAM for          <psi|beta>:       0.02 MB

     Dynamical RAM for                 psi:       0.30 MB

     Dynamical RAM for                hpsi:       0.30 MB

     Dynamical RAM for                spsi:       0.30 MB

     Dynamical RAM for      wfcinit/wfcrot:       0.20 MB

     Dynamical RAM for           addusdens:       3.90 MB

     Dynamical RAM for          addusforce:       4.05 MB

     Dynamical RAM for         addusstress:       4.11 MB

     Estimated static dynamical RAM per process >      16.33 MB

     Estimated max dynamical RAM per process >      20.44 MB

     Estimated total dynamical RAM >       1.28 GB

     Check: negative core charge=   -0.000003

     Initial potential from superposition of free atoms

     starting charge   41.69964, renormalised to   42.00000
     Starting wfcs are   26 randomized atomic wfcs

     total cpu time spent up to now is        1.3 secs

     Self-consistent Calculation

     iteration #  1     ecut=    80.00 Ry     beta= 0.50
     Davidson diagonalization with overlap
     ethr =  1.00E-02,  avg # of iterations =  2.0

     total cpu time spent up to now is        2.1 secs

     total energy              =    -650.62458747 Ry
     Harris-Foulkes estimate   =    -651.45437306 Ry
     estimated scf accuracy    <       1.24359278 Ry

     iteration #  2     ecut=    80.00 Ry     beta= 0.50
     Davidson diagonalization with overlap
     ethr =  2.96E-03,  avg # of iterations =  3.0

     total cpu time spent up to now is        3.3 secs

     total energy              =    -651.01528656 Ry
     Harris-Foulkes estimate   =    -651.29909410 Ry
     estimated scf accuracy    <       0.65224840 Ry

     iteration #  3     ecut=    80.00 Ry     beta= 0.50
     Davidson diagonalization with overlap
     ethr =  1.55E-03,  avg # of iterations =  2.0

     total cpu time spent up to now is        4.2 secs

     total energy              =    -651.12558751 Ry
     Harris-Foulkes estimate   =    -651.12904076 Ry
     estimated scf accuracy    <       0.01016186 Ry

     iteration #  4     ecut=    80.00 Ry     beta= 0.50
     Davidson diagonalization with overlap
     ethr =  2.42E-05,  avg # of iterations =  2.9

     total cpu time spent up to now is        5.3 secs

     total energy              =    -651.12642049 Ry
     Harris-Foulkes estimate   =    -651.12742214 Ry
     estimated scf accuracy    <       0.00240771 Ry

     iteration #  5     ecut=    80.00 Ry     beta= 0.50
     Davidson diagonalization with overlap
     ethr =  5.73E-06,  avg # of iterations =  2.8

     total cpu time spent up to now is        6.3 secs

     total energy              =    -651.12689975 Ry
     Harris-Foulkes estimate   =    -651.12694938 Ry
     estimated scf accuracy    <       0.00019827 Ry

     iteration #  6     ecut=    80.00 Ry     beta= 0.50
     Davidson diagonalization with overlap
     ethr =  4.72E-07,  avg # of iterations =  2.5

     total cpu time spent up to now is        7.3 secs

     total energy              =    -651.12693200 Ry
     Harris-Foulkes estimate   =    -651.12692762 Ry
     estimated scf accuracy    <       0.00001199 Ry

     iteration #  7     ecut=    80.00 Ry     beta= 0.50
     Davidson diagonalization with overlap
     ethr =  2.86E-08,  avg # of iterations =  2.0

     total cpu time spent up to now is        8.1 secs

     End of self-consistent calculation

          k = 0.0000 0.0000 0.0000 (  3763 PWs)   bands (ev):

  -115.7190 -70.0943 -70.0682 -70.0682 -65.0865 -32.0939 -32.0480 -32.0480
   -10.2891  -9.1222   1.6318   1.6318   2.5369   2.8829   2.8829   2.9328
     5.6439   5.6439   6.8859   7.0557   7.0557

     occupation numbers 
     1.0000   1.0000   1.0000   1.0000   1.0000   1.0000   1.0000   1.0000
     1.0000   1.0000   1.0000   1.0000   1.0000   1.0000   1.0000   1.0000
     1.0000   1.0000   1.0000   1.0000   1.0000

          k = 0.0000-0.0000 0.0880 (  3751 PWs)   bands (ev):

  -115.7190 -70.0942 -70.0682 -70.0682 -65.0865 -32.0940 -32.0480 -32.0480
   -10.2595  -9.1545   1.6316   1.6316   2.3574   2.8751   2.8751   3.1480
     5.6678   5.6678   6.6262   7.0439   7.0439

     occupation numbers 
     1.0000   1.0000   1.0000   1.0000   1.0000   1.0000   1.0000   1.0000
     1.0000   1.0000   1.0000   1.0000   1.0000   1.0000   1.0000   1.0000
     1.0000   1.0000   1.0000   1.0000   1.0000

          k = 0.0000-0.0000 0.1759 (  3758 PWs)   bands (ev):

  -115.7190 -70.0942 -70.0682 -70.0682 -65.0865 -32.0941 -32.0480 -32.0480
   -10.1798  -9.2411   1.6314   1.6314   2.1304   2.8567   2.8567   3.4695
     5.7272   5.7272   6.1600   7.0137   7.0137

     occupation numbers 
     1.0000   1.0000   1.0000   1.0000   1.0000   1.0000   1.0000   1.0000
     1.0000   1.0000   1.0000   1.0000   1.0000   1.0000   1.0000   1.0000
     1.0000   1.0000   1.0000   1.0000   1.0000

          k = 0.0000-0.0000 0.2639 (  3794 PWs)   bands (ev):

  -115.7190 -70.0943 -70.0682 -70.0682 -65.0865 -32.0943 -32.0480 -32.0480
   -10.0817  -9.3462   1.6311   1.6311   1.9831   2.8387   2.8387   3.7295
     5.7811   5.7889   5.7889   6.9807   6.9807

     occupation numbers 
     1.0000   1.0000   1.0000   1.0000   1.0000   1.0000   1.0000   1.0000
     1.0000   1.0000   1.0000   1.0000   1.0000   1.0000   1.0000   1.0000
     1.0000   1.0000   1.0000   1.0000   1.0000

          k =-0.0000 0.0000-0.3518 (  3782 PWs)   bands (ev):

  -115.7190 -70.0943 -70.0682 -70.0682 -65.0865 -32.0943 -32.0480 -32.0480
   -10.0315  -9.3992   1.6310   1.6310   1.9333   2.8314   2.8314   3.8347
     5.6326   5.8154   5.8154   6.9660   6.9660

     occupation numbers 
     1.0000   1.0000   1.0000   1.0000   1.0000   1.0000   1.0000   1.0000
     1.0000   1.0000   1.0000   1.0000   1.0000   1.0000   1.0000   1.0000
     1.0000   1.0000   1.0000   1.0000   1.0000

          k =-0.0000 0.1443-0.0000 (  3781 PWs)   bands (ev):

  -115.7190 -70.0943 -70.0684 -70.0682 -65.0863 -32.0936 -32.0517 -32.0488
   -10.2085  -9.0979   1.5980   1.7115   2.4600   2.8767   2.8962   3.1424
     5.2925   5.5677   6.3640   6.8026   6.8959

     occupation numbers 
     1.0000   1.0000   1.0000   1.0000   1.0000   1.0000   1.0000   1.0000
     1.0000   1.0000   1.0000   1.0000   1.0000   1.0000   1.0000   1.0000
     1.0000   1.0000   1.0000   1.0000   1.0000

          k =-0.0000 0.1443 0.0880 (  3768 PWs)   bands (ev):

  -115.7190 -70.0942 -70.0684 -70.0682 -65.0863 -32.0936 -32.0517 -32.0488
   -10.1809  -9.1270   1.5961   1.7121   2.3478   2.8101   2.8682   3.3489
     5.3330   5.5907   6.2025   6.8384   6.8848

     occupation numbers 
     1.0000   1.0000   1.0000   1.0000   1.0000   1.0000   1.0000   1.0000
     1.0000   1.0000   1.0000   1.0000   1.0000   1.0000   1.0000   1.0000
     1.0000   1.0000   1.0000   1.0000   1.0000

          k =-0.0000 0.1443 0.1759 (  3783 PWs)   bands (ev):

  -115.7190 -70.0943 -70.0684 -70.0683 -65.0863 -32.0938 -32.0517 -32.0488
   -10.1068  -9.2046   1.5907   1.7121   2.1470   2.7354   2.8491   3.6570
     5.3937   5.6578   5.9209   6.8438   6.8688

     occupation numbers 
     1.0000   1.0000   1.0000   1.0000   1.0000   1.0000   1.0000   1.0000
     1.0000   1.0000   1.0000   1.0000   1.0000   1.0000   1.0000   1.0000
     1.0000   1.0000   1.0000   1.0000   1.0000

          k = 0.0000 0.1443 0.2639 (  3770 PWs)   bands (ev):

  -115.7190 -70.0942 -70.0684 -70.0683 -65.0863 -32.0939 -32.0517 -32.0488
   -10.0167  -9.2982   1.5831   1.7116   2.0041   2.6848   2.8310   3.9020
     5.3385   5.7341   5.8161   6.7924   6.8461

     occupation numbers 
     1.0000   1.0000   1.0000   1.0000   1.0000   1.0000   1.0000   1.0000
     1.0000   1.0000   1.0000   1.0000   1.0000   1.0000   1.0000   1.0000
     1.0000   1.0000   1.0000   1.0000   1.0000

          k =-0.0000 0.1443-0.3518 (  3760 PWs)   bands (ev):

  -115.7190 -70.0942 -70.0684 -70.0682 -65.0863 -32.0939 -32.0517 -32.0488
    -9.9715  -9.3449   1.5780   1.7108   1.9567   2.6650   2.8240   4.0078
     5.2416   5.7730   5.8406   6.7628   6.8345

     occupation numbers 
     1.0000   1.0000   1.0000   1.0000   1.0000   1.0000   1.0000   1.0000
     1.0000   1.0000   1.0000   1.0000   1.0000   1.0000   1.0000   1.0000
     1.0000   1.0000   1.0000   1.0000   1.0000

          k =-0.0000 0.1443-0.2639 (  3770 PWs)   bands (ev):

  -115.7190 -70.0942 -70.0684 -70.0683 -65.0863 -32.0939 -32.0517 -32.0488
   -10.0167  -9.2982   1.5814   1.7103   2.0060   2.6834   2.8321   3.9213
     5.2723   5.7460   5.8434   6.7784   6.8729

     occupation numbers 
     1.0000   1.0000   1.0000   1.0000   1.0000   1.0000   1.0000   1.0000
     1.0000   1.0000   1.0000   1.0000   1.0000   1.0000   1.0000   1.0000
     1.0000   1.0000   1.0000   1.0000   1.0000

          k =-0.0000 0.1443-0.1759 (  3783 PWs)   bands (ev):

  -115.7190 -70.0943 -70.0684 -70.0683 -65.0863 -32.0938 -32.0517 -32.0488
   -10.1068  -9.2045   1.5898   1.7103   2.1471   2.7333   2.8506   3.6779
     5.3289   5.6727   5.9313   6.8260   6.9145

     occupation numbers 
     1.0000   1.0000   1.0000   1.0000   1.0000   1.0000   1.0000   1.0000
     1.0000   1.0000   1.0000   1.0000   1.0000   1.0000   1.0000   1.0000
     1.0000   1.0000   1.0000   1.0000   1.0000

          k =-0.0000 0.1443-0.0880 (  3768 PWs)   bands (ev):

  -115.7190 -70.0942 -70.0684 -70.0682 -65.0863 -32.0936 -32.0517 -32.0488
   -10.1809  -9.1269   1.5961   1.7108   2.3453   2.8079   2.8693   3.3631
     5.3072   5.6003   6.1776   6.8732   6.8870

     occupation numbers 
     1.0000   1.0000   1.0000   1.0000   1.0000   1.0000   1.0000   1.0000
     1.0000   1.0000   1.0000   1.0000   1.0000   1.0000   1.0000   1.0000
     1.0000   1.0000   1.0000   1.0000   1.0000

          k =-0.0000 0.2887-0.0000 (  3792 PWs)   bands (ev):

  -115.7190 -70.0942 -70.0690 -70.0684 -65.0859 -32.0927 -32.0607 -32.0508
   -10.0016  -9.0466   1.5590   1.9245   2.3682   2.8666   2.9270   3.5855
     4.5532   5.3460   5.3590   6.5428   6.5532

     occupation numbers 
     1.0000   1.0000   1.0000   1.0000   1.0000   1.0000   1.0000   1.0000
     1.0000   1.0000   1.0000   1.0000   1.0000   1.0000   1.0000   1.0000
     1.0000   1.0000   1.0000   1.0000   1.0000

          k =-0.0000 0.2887 0.0880 (  3789 PWs)   bands (ev):

  -115.7190 -70.0942 -70.0690 -70.0684 -65.0859 -32.0928 -32.0607 -32.0508
    -9.9797  -9.0665   1.5531   1.9255   2.3160   2.7915   2.8573   3.6642
     4.6893   5.3322   5.3756   6.5224   6.5739

     occupation numbers 
     1.0000   1.0000   1.0000   1.0000   1.0000   1.0000   1.0000   1.0000
     1.0000   1.0000   1.0000   1.0000   1.0000   1.0000   1.0000   1.0000
     1.0000   1.0000   1.0000   1.0000   1.0000

          k =-0.0000 0.2887 0.1759 (  3780 PWs)   bands (ev):

  -115.7190 -70.0942 -70.0689 -70.0684 -65.0859 -32.0929 -32.0607 -32.0508
    -9.9221  -9.1192   1.5397   1.9252   2.1716   2.5853   2.8375   3.8443
     4.8368   5.3154   5.4684   6.4487   6.6704

     occupation numbers 
     1.0000   1.0000   1.0000   1.0000   1.0000   1.0000   1.0000   1.0000
     1.0000   1.0000   1.0000   1.0000   1.0000   1.0000   1.0000   1.0000
     1.0000   1.0000   1.0000   1.0000   1.0000

          k =-0.0000 0.2887 0.2639 (  3781 PWs)   bands (ev):

  -115.7190 -70.0942 -70.0689 -70.0684 -65.0859 -32.0930 -32.0607 -32.0508
    -9.8551  -9.1812   1.5215   1.9238   2.0379   2.4525   2.8192   4.0049
     4.7327   5.5338   5.5860   6.3483   6.7176

     occupation numbers 
     1.0000   1.0000   1.0000   1.0000   1.0000   1.0000   1.0000   1.0000
     1.0000   1.0000   1.0000   1.0000   1.0000   1.0000   1.0000   1.0000
     1.0000   1.0000   1.0000   1.0000   1.0000

          k =-0.0000 0.2887-0.3518 (  3796 PWs)   bands (ev):

  -115.7190 -70.0942 -70.0690 -70.0684 -65.0859 -32.0931 -32.0607 -32.0508
    -9.8233  -9.2110   1.5089   1.9220   1.9916   2.4055   2.8129   4.1405
     4.5678   5.6561   5.6609   6.2841   6.7451

     occupation numbers 
     1.0000   1.0000   1.0000   1.0000   1.0000   1.0000   1.0000   1.0000
     1.0000   1.0000   1.0000   1.0000   1.0000   1.0000   1.0000   1.0000
     1.0000   1.0000   1.0000   1.0000   1.0000

          k =-0.0000 0.2887-0.2639 (  3781 PWs)   bands (ev):

  -115.7190 -70.0942 -70.0689 -70.0684 -65.0859 -32.0930 -32.0607 -32.0508
    -9.8552  -9.1811   1.5169   1.9210   2.0377   2.4522   2.8216   4.1756
     4.5025   5.5324   5.6099   6.3216   6.8018

     occupation numbers 
     1.0000   1.0000   1.0000   1.0000   1.0000   1.0000   1.0000   1.0000
     1.0000   1.0000   1.0000   1.0000   1.0000   1.0000   1.0000   1.0000
     1.0000   1.0000   1.0000   1.0000   1.0000

          k =-0.0000 0.2887-0.1759 (  3780 PWs)   bands (ev):

  -115.7190 -70.0942 -70.0689 -70.0684 -65.0859 -32.0929 -32.0607 -32.0508
    -9.9222  -9.1189   1.5389   1.9214   2.1568   2.5866   2.8408   4.0283
     4.5713   5.3149   5.4942   6.4189   6.7916

     occupation numbers 
     1.0000   1.0000   1.0000   1.0000   1.0000   1.0000   1.0000   1.0000
     1.0000   1.0000   1.0000   1.0000   1.0000   1.0000   1.0000   1.0000
     1.0000   1.0000   1.0000   1.0000   1.0000

          k =-0.0000 0.2887-0.0880 (  3789 PWs)   bands (ev):

  -115.7190 -70.0942 -70.0690 -70.0684 -65.0859 -32.0928 -32.0607 -32.0508
    -9.9798  -9.0663   1.5552   1.9228   2.2979   2.7829   2.8596   3.7894
     4.5624   5.2765   5.3909   6.5043   6.6726

     occupation numbers 
     1.0000   1.0000   1.0000   1.0000   1.0000   1.0000   1.0000   1.0000
     1.0000   1.0000   1.0000   1.0000   1.0000   1.0000   1.0000   1.0000
     1.0000   1.0000   1.0000   1.0000   1.0000

          k =-0.0000 0.4330-0.0000 (  3784 PWs)   bands (ev):

  -115.7190 -70.0942 -70.0695 -70.0685 -65.0854 -32.0918 -32.0696 -32.0528
    -9.7694  -9.0128   1.6023   2.1739   2.3235   2.8737   2.9285   3.7660
     4.1938   4.6244   5.0381   6.1795   6.2462

     occupation numbers 
     1.0000   1.0000   1.0000   1.0000   1.0000   1.0000   1.0000   1.0000
     1.0000   1.0000   1.0000   1.0000   1.0000   1.0000   1.0000   1.0000
     1.0000   1.0000   1.0000   1.0000   1.0000

          k =-0.0000 0.4330 0.0880 (  3778 PWs)   bands (ev):

  -115.7190 -70.0942 -70.0695 -70.0685 -65.0854 -32.0919 -32.0696 -32.0528
    -9.7560  -9.0204   1.5865   2.1737   2.2925   2.8358   2.8648   3.5416
     4.3358   4.8497   5.0763   6.2144   6.2356

     occupation numbers 
     1.0000   1.0000   1.0000   1.0000   1.0000   1.0000   1.0000   1.0000
     1.0000   1.0000   1.0000   1.0000   1.0000   1.0000   1.0000   1.0000
     1.0000   1.0000   1.0000   1.0000   1.0000

          k =-0.0000 0.4330 0.1759 (  3787 PWs)   bands (ev):

  -115.7190 -70.0942 -70.0695 -70.0685 -65.0854 -32.0920 -32.0696 -32.0528
    -9.7223  -9.0402   1.5611   2.1703   2.1856   2.5645   2.8467   3.4821
     4.3764   5.1907   5.2034   6.1131   6.4584

     occupation numbers 
     1.0000   1.0000   1.0000   1.0000   1.0000   1.0000   1.0000   1.0000
     1.0000   1.0000   1.0000   1.0000   1.0000   1.0000   1.0000   1.0000
     1.0000   1.0000   1.0000   1.0000   1.0000

          k =-0.0000 0.4330 0.2639 (  3777 PWs)   bands (ev):

  -115.7190 -70.0942 -70.0695 -70.0685 -65.0854 -32.0921 -32.0696 -32.0528
    -9.6860  -9.0626   1.5358   2.0665   2.1654   2.3531   2.8307   3.5060
     4.3333   5.3445   5.5214   5.9709   6.6686

     occupation numbers 
     1.0000   1.0000   1.0000   1.0000   1.0000   1.0000   1.0000   1.0000
     1.0000   1.0000   1.0000   1.0000   1.0000   1.0000   1.0000   1.0000
     1.0000   1.0000   1.0000   1.0000   1.0000

          k =-0.0000 0.4330-0.3518 (  3790 PWs)   bands (ev):

  -115.7190 -70.0942 -70.0695 -70.0685 -65.0854 -32.0922 -32.0696 -32.0528
    -9.6701  -9.0727   1.5253   2.0059   2.1620   2.2873   2.8255   3.5432
     4.2877   5.4457   5.6263   5.8735   6.7777

     occupation numbers 
     1.0000   1.0000   1.0000   1.0000   1.0000   1.0000   1.0000   1.0000
     1.0000   1.0000   1.0000   1.0000   1.0000   1.0000   1.0000   1.0000
     1.0000   1.0000   1.0000   1.0000   1.0000

          k =-0.0000 0.4330-0.2639 (  3777 PWs)   bands (ev):

  -115.7190 -70.0942 -70.0695 -70.0685 -65.0854 -32.0921 -32.0696 -32.0528
    -9.6861  -9.0624   1.5439   2.0338   2.1622   2.3645   2.8336   3.5804
     4.2733   5.3654   5.4449   5.9482   6.7637

     occupation numbers 
     1.0000   1.0000   1.0000   1.0000   1.0000   1.0000   1.0000   1.0000
     1.0000   1.0000   1.0000   1.0000   1.0000   1.0000   1.0000   1.0000
     1.0000   1.0000   1.0000   1.0000   1.0000

          k =-0.0000 0.4330-0.1759 (  3787 PWs)   bands (ev):

  -115.7190 -70.0942 -70.0695 -70.0685 -65.0854 -32.0920 -32.0696 -32.0528
    -9.7225  -9.0399   1.5793   2.1270   2.1658   2.5677   2.8507   3.6268
     4.3079   5.0509   5.2103   6.0909   6.5968

     occupation numbers 
     1.0000   1.0000   1.0000   1.0000   1.0000   1.0000   1.0000   1.0000
     1.0000   1.0000   1.0000   1.0000   1.0000   1.0000   1.0000   1.0000
     1.0000   1.0000   1.0000   1.0000   1.0000

          k =-0.0000 0.4330-0.0880 (  3778 PWs)   bands (ev):

  -115.7190 -70.0942 -70.0695 -70.0685 -65.0854 -32.0919 -32.0696 -32.0528
    -9.7561  -9.0202   1.6018   2.1706   2.2495   2.8041   2.8676   3.7218
     4.3582   4.6121   5.0873   6.2016   6.3456

     occupation numbers 
     1.0000   1.0000   1.0000   1.0000   1.0000   1.0000   1.0000   1.0000
     1.0000   1.0000   1.0000   1.0000   1.0000   1.0000   1.0000   1.0000
     1.0000   1.0000   1.0000   1.0000   1.0000

          k = 0.0000-0.5774 0.0000 (  3798 PWs)   bands (ev):

  -115.7190 -70.0941 -70.0697 -70.0686 -65.0852 -32.0915 -32.0733 -32.0537
    -9.6611  -9.0083   1.6606   2.2887   2.3236   2.8867   2.8911   3.5252
     4.2323   4.5754   4.8719   5.9359   6.1422

     occupation numbers 
     1.0000   1.0000   1.0000   1.0000   1.0000   1.0000   1.0000   1.0000
     1.0000   1.0000   1.0000   1.0000   1.0000   1.0000   1.0000   1.0000
     1.0000   1.0000   1.0000   1.0000   1.0000

          k = 0.0000-0.5774 0.0880 (  3794 PWs)   bands (ev):

  -115.7190 -70.0941 -70.0697 -70.0686 -65.0852 -32.0915 -32.0733 -32.0537
    -9.6531  -9.0089   1.6469   2.2773   2.2856   2.8421   2.8846   3.3266
     4.2037   4.8482   4.9165   6.0753   6.1024

     occupation numbers 
     1.0000   1.0000   1.0000   1.0000   1.0000   1.0000   1.0000   1.0000
     1.0000   1.0000   1.0000   1.0000   1.0000   1.0000   1.0000   1.0000
     1.0000   1.0000   1.0000   1.0000   1.0000

          k = 0.0000-0.5774 0.1759 (  3788 PWs)   bands (ev):

  -115.7190 -70.0941 -70.0697 -70.0686 -65.0852 -32.0916 -32.0733 -32.0537
    -9.6336  -9.0107   1.6088   2.1853   2.2780   2.6234   2.8696   3.1458
     4.2006   5.0371   5.2503   5.9927   6.3997

     occupation numbers 
     1.0000   1.0000   1.0000   1.0000   1.0000   1.0000   1.0000   1.0000
     1.0000   1.0000   1.0000   1.0000   1.0000   1.0000   1.0000   1.0000
     1.0000   1.0000   1.0000   1.0000   1.0000

          k = 0.0000-0.5774 0.2639 (  3800 PWs)   bands (ev):

  -115.7190 -70.0942 -70.0697 -70.0686 -65.0852 -32.0917 -32.0733 -32.0537
    -9.6135  -9.0130   1.5647   2.1113   2.2702   2.3689   2.8557   3.1088
     4.2041   5.1922   5.5533   5.8476   6.6928

     occupation numbers 
     1.0000   1.0000   1.0000   1.0000   1.0000   1.0000   1.0000   1.0000
     1.0000   1.0000   1.0000   1.0000   1.0000   1.0000   1.0000   1.0000
     1.0000   1.0000   1.0000   1.0000   1.0000

          k = 0.0000-0.5774-0.3518 (  3792 PWs)   bands (ev):

  -115.7190 -70.0941 -70.0697 -70.0686 -65.0852 -32.0918 -32.0733 -32.0537
    -9.6050  -9.0141   1.5453   2.0807   2.2670   2.2743   2.8503   3.1035
     4.2053   5.2811   5.6692   5.7626   6.8020

     occupation numbers 
     1.0000   1.0000   1.0000   1.0000   1.0000   1.0000   1.0000   1.0000
     1.0000   1.0000   1.0000   1.0000   1.0000   1.0000   1.0000   1.0000
     1.0000   1.0000   1.0000   1.0000   1.0000

          k = 0.1250 0.0722 0.0000 (  3781 PWs)   bands (ev):

  -115.7190 -70.0943 -70.0684 -70.0682 -65.0863 -32.0936 -32.0517 -32.0488
   -10.2085  -9.0979   1.5980   1.7115   2.4600   2.8767   2.8962   3.1424
     5.2925   5.5677   6.3640   6.8026   6.8959

     occupation numbers 
     1.0000   1.0000   1.0000   1.0000   1.0000   1.0000   1.0000   1.0000
     1.0000   1.0000   1.0000   1.0000   1.0000   1.0000   1.0000   1.0000
     1.0000   1.0000   1.0000   1.0000   1.0000

          k = 0.1250 0.0722 0.0880 (  3768 PWs)   bands (ev):

  -115.7190 -70.0942 -70.0684 -70.0682 -65.0863 -32.0936 -32.0517 -32.0488
   -10.1809  -9.1269   1.5961   1.7108   2.3453   2.8079   2.8693   3.3631
     5.3072   5.6003   6.1776   6.8732   6.8870

     occupation numbers 
     1.0000   1.0000   1.0000   1.0000   1.0000   1.0000   1.0000   1.0000
     1.0000   1.0000   1.0000   1.0000   1.0000   1.0000   1.0000   1.0000
     1.0000   1.0000   1.0000   1.0000   1.0000

          k = 0.1250 0.0722 0.1759 (  3783 PWs)   bands (ev):

  -115.7190 -70.0943 -70.0684 -70.0683 -65.0863 -32.0938 -32.0517 -32.0488
   -10.1068  -9.2045   1.5898   1.7103   2.1471   2.7333   2.8506   3.6779
     5.3289   5.6727   5.9313   6.8260   6.9145

     occupation numbers 
     1.0000   1.0000   1.0000   1.0000   1.0000   1.0000   1.0000   1.0000
     1.0000   1.0000   1.0000   1.0000   1.0000   1.0000   1.0000   1.0000
     1.0000   1.0000   1.0000   1.0000   1.0000

          k = 0.1250 0.0722 0.2639 (  3770 PWs)   bands (ev):

  -115.7190 -70.0942 -70.0684 -70.0683 -65.0863 -32.0939 -32.0517 -32.0488
   -10.0167  -9.2982   1.5814   1.7103   2.0060   2.6834   2.8321   3.9213
     5.2723   5.7460   5.8434   6.7784   6.8729

     occupation numbers 
     1.0000   1.0000   1.0000   1.0000   1.0000   1.0000   1.0000   1.0000
     1.0000   1.0000   1.0000   1.0000   1.0000   1.0000   1.0000   1.0000
     1.0000   1.0000   1.0000   1.0000   1.0000

          k = 0.1250 0.0722-0.3518 (  3760 PWs)   bands (ev):

  -115.7190 -70.0942 -70.0684 -70.0683 -65.0863 -32.0939 -32.0517 -32.0488
    -9.9715  -9.3449   1.5780   1.7108   1.9567   2.6650   2.8240   4.0078
     5.2416   5.7730   5.8406   6.7628   6.8345

     occupation numbers 
     1.0000   1.0000   1.0000   1.0000   1.0000   1.0000   1.0000   1.0000
     1.0000   1.0000   1.0000   1.0000   1.0000   1.0000   1.0000   1.0000
     1.0000   1.0000   1.0000   1.0000   1.0000

          k = 0.1250 0.0722-0.2639 (  3770 PWs)   bands (ev):

  -115.7190 -70.0942 -70.0684 -70.0683 -65.0863 -32.0939 -32.0517 -32.0488
   -10.0167  -9.2982   1.5831   1.7116   2.0041   2.6848   2.8310   3.9020
     5.3385   5.7341   5.8161   6.7924   6.8461

     occupation numbers 
     1.0000   1.0000   1.0000   1.0000   1.0000   1.0000   1.0000   1.0000
     1.0000   1.0000   1.0000   1.0000   1.0000   1.0000   1.0000   1.0000
     1.0000   1.0000   1.0000   1.0000   1.0000

          k = 0.1250 0.0722-0.1759 (  3783 PWs)   bands (ev):

  -115.7190 -70.0943 -70.0684 -70.0683 -65.0863 -32.0938 -32.0517 -32.0488
   -10.1068  -9.2046   1.5907   1.7121   2.1470   2.7354   2.8491   3.6570
     5.3937   5.6578   5.9209   6.8438   6.8688

     occupation numbers 
     1.0000   1.0000   1.0000   1.0000   1.0000   1.0000   1.0000   1.0000
     1.0000   1.0000   1.0000   1.0000   1.0000   1.0000   1.0000   1.0000
     1.0000   1.0000   1.0000   1.0000   1.0000

          k = 0.1250 0.0722-0.0880 (  3768 PWs)   bands (ev):

  -115.7190 -70.0942 -70.0684 -70.0682 -65.0863 -32.0936 -32.0517 -32.0488
   -10.1809  -9.1270   1.5961   1.7121   2.3478   2.8101   2.8682   3.3489
     5.3330   5.5907   6.2025   6.8384   6.8848

     occupation numbers 
     1.0000   1.0000   1.0000   1.0000   1.0000   1.0000   1.0000   1.0000
     1.0000   1.0000   1.0000   1.0000   1.0000   1.0000   1.0000   1.0000
     1.0000   1.0000   1.0000   1.0000   1.0000

          k = 0.1250 0.2165 0.0000 (  3797 PWs)   bands (ev):

  -115.7190 -70.0942 -70.0688 -70.0684 -65.0860 -32.0930 -32.0577 -32.0506
   -10.0645  -9.0602   1.5752   1.8478   2.3932   2.8609   2.9207   3.4615
     4.8213   5.2643   5.7461   6.5235   6.6778

     occupation numbers 
     1.0000   1.0000   1.0000   1.0000   1.0000   1.0000   1.0000   1.0000
     1.0000   1.0000   1.0000   1.0000   1.0000   1.0000   1.0000   1.0000
     1.0000   1.0000   1.0000   1.0000   1.0000

          k = 0.1250 0.2165 0.0880 (  3796 PWs)   bands (ev):

  -115.7190 -70.0942 -70.0688 -70.0684 -65.0860 -32.0930 -32.0577 -32.0506
   -10.0408  -9.0830   1.5713   1.8467   2.3245   2.7878   2.8527   3.6352
     4.8609   5.3084   5.6637   6.5150   6.7309

     occupation numbers 
     1.0000   1.0000   1.0000   1.0000   1.0000   1.0000   1.0000   1.0000
     1.0000   1.0000   1.0000   1.0000   1.0000   1.0000   1.0000   1.0000
     1.0000   1.0000   1.0000   1.0000   1.0000

          k = 0.1250 0.2165 0.1759 (  3782 PWs)   bands (ev):

  -115.7190 -70.0942 -70.0688 -70.0684 -65.0860 -32.0931 -32.0577 -32.0506
    -9.9777  -9.1436   1.5592   1.8436   2.1696   2.6212   2.8320   3.8949
     4.8943   5.4384   5.5826   6.4532   6.8123

     occupation numbers 
     1.0000   1.0000   1.0000   1.0000   1.0000   1.0000   1.0000   1.0000
     1.0000   1.0000   1.0000   1.0000   1.0000   1.0000   1.0000   1.0000
     1.0000   1.0000   1.0000   1.0000   1.0000

          k = 0.1250 0.2165 0.2639 (  3779 PWs)   bands (ev):

  -115.7190 -70.0942 -70.0688 -70.0684 -65.0860 -32.0933 -32.0577 -32.0506
    -9.9033  -9.2157   1.5419   1.8395   2.0410   2.5142   2.8121   4.0872
     4.8208   5.5606   5.6905   6.3693   6.8185

     occupation numbers 
     1.0000   1.0000   1.0000   1.0000   1.0000   1.0000   1.0000   1.0000
     1.0000   1.0000   1.0000   1.0000   1.0000   1.0000   1.0000   1.0000
     1.0000   1.0000   1.0000   1.0000   1.0000

          k = 0.1250 0.2165-0.3518 (  3780 PWs)   bands (ev):

  -115.7190 -70.0942 -70.0688 -70.0684 -65.0860 -32.0933 -32.0577 -32.0506
    -9.8673  -9.2508   1.5328   1.8373   1.9961   2.4763   2.8041   4.1645
     4.7631   5.6044   5.7879   6.3282   6.7965

     occupation numbers 
     1.0000   1.0000   1.0000   1.0000   1.0000   1.0000   1.0000   1.0000
     1.0000   1.0000   1.0000   1.0000   1.0000   1.0000   1.0000   1.0000
     1.0000   1.0000   1.0000   1.0000   1.0000

          k = 0.1250 0.2165-0.2639 (  3779 PWs)   bands (ev):

  -115.7190 -70.0942 -70.0688 -70.0684 -65.0860 -32.0933 -32.0577 -32.0506
    -9.9033  -9.2157   1.5419   1.8395   2.0410   2.5142   2.8121   4.0872
     4.8208   5.5606   5.6905   6.3693   6.8185

     occupation numbers 
     1.0000   1.0000   1.0000   1.0000   1.0000   1.0000   1.0000   1.0000
     1.0000   1.0000   1.0000   1.0000   1.0000   1.0000   1.0000   1.0000
     1.0000   1.0000   1.0000   1.0000   1.0000

          k = 0.1250 0.2165-0.1759 (  3782 PWs)   bands (ev):

  -115.7190 -70.0942 -70.0688 -70.0684 -65.0860 -32.0931 -32.0577 -32.0506
    -9.9777  -9.1436   1.5592   1.8436   2.1696   2.6212   2.8320   3.8949
     4.8943   5.4384   5.5826   6.4532   6.8123

     occupation numbers 
     1.0000   1.0000   1.0000   1.0000   1.0000   1.0000   1.0000   1.0000
     1.0000   1.0000   1.0000   1.0000   1.0000   1.0000   1.0000   1.0000
     1.0000   1.0000   1.0000   1.0000   1.0000

          k = 0.1250 0.2165-0.0880 (  3796 PWs)   bands (ev):

  -115.7190 -70.0942 -70.0688 -70.0684 -65.0860 -32.0930 -32.0577 -32.0506
   -10.0408  -9.0830   1.5713   1.8467   2.3245   2.7878   2.8527   3.6352
     4.8609   5.3084   5.6637   6.5150   6.7309

     occupation numbers 
     1.0000   1.0000   1.0000   1.0000   1.0000   1.0000   1.0000   1.0000
     1.0000   1.0000   1.0000   1.0000   1.0000   1.0000   1.0000   1.0000
     1.0000   1.0000   1.0000   1.0000   1.0000

          k = 0.1250 0.3608 0.0000 (  3789 PWs)   bands (ev):

  -115.7190 -70.0942 -70.0692 -70.0686 -65.0855 -32.0921 -32.0658 -32.0534
    -9.8423  -9.0194   1.6233   2.0591   2.3546   2.8464   2.9402   3.8990
     4.2343   4.6991   5.1765   6.1197   6.3531

     occupation numbers 
     1.0000   1.0000   1.0000   1.0000   1.0000   1.0000   1.0000   1.0000
     1.0000   1.0000   1.0000   1.0000   1.0000   1.0000   1.0000   1.0000
     1.0000   1.0000   1.0000   1.0000   1.0000

          k = 0.1250 0.3608 0.0880 (  3792 PWs)   bands (ev):

  -115.7190 -70.0942 -70.0692 -70.0686 -65.0855 -32.0922 -32.0658 -32.0534
    -9.8259  -9.0312   1.6148   2.0533   2.3178   2.8113   2.8408   3.7774
     4.4025   4.8665   5.1618   6.0763   6.4312

     occupation numbers 
     1.0000   1.0000   1.0000   1.0000   1.0000   1.0000   1.0000   1.0000
     1.0000   1.0000   1.0000   1.0000   1.0000   1.0000   1.0000   1.0000
     1.0000   1.0000   1.0000   1.0000   1.0000

          k = 0.1250 0.3608 0.1759 (  3793 PWs)   bands (ev):

  -115.7190 -70.0942 -70.0692 -70.0686 -65.0855 -32.0923 -32.0658 -32.0534
    -9.7838  -9.0622   1.5992   2.0226   2.2244   2.5631   2.8162   3.7829
     4.4665   5.1169   5.2841   5.9820   6.6161

     occupation numbers 
     1.0000   1.0000   1.0000   1.0000   1.0000   1.0000   1.0000   1.0000
     1.0000   1.0000   1.0000   1.0000   1.0000   1.0000   1.0000   1.0000
     1.0000   1.0000   1.0000   1.0000   1.0000

          k = 0.1250 0.3608 0.2639 (  3799 PWs)   bands (ev):

  -115.7190 -70.0942 -70.0693 -70.0686 -65.0855 -32.0924 -32.0658 -32.0534
    -9.7372  -9.0977   1.5792   1.9649   2.1511   2.3859   2.7962   3.8406
     4.4189   5.2355   5.5708   5.8815   6.7672

     occupation numbers 
     1.0000   1.0000   1.0000   1.0000   1.0000   1.0000   1.0000   1.0000
     1.0000   1.0000   1.0000   1.0000   1.0000   1.0000   1.0000   1.0000
     1.0000   1.0000   1.0000   1.0000   1.0000

          k = 0.1250 0.3608-0.3518 (  3788 PWs)   bands (ev):

  -115.7190 -70.0942 -70.0692 -70.0686 -65.0855 -32.0924 -32.0658 -32.0534
    -9.7161  -9.1142   1.5679   1.9313   2.1272   2.3297   2.7888   3.9010
     4.3470   5.3414   5.5791   5.8978   6.8312

     occupation numbers 
     1.0000   1.0000   1.0000   1.0000   1.0000   1.0000   1.0000   1.0000
     1.0000   1.0000   1.0000   1.0000   1.0000   1.0000   1.0000   1.0000
     1.0000   1.0000   1.0000   1.0000   1.0000

          k = 0.1250 0.3608-0.2639 (  3799 PWs)   bands (ev):

  -115.7190 -70.0942 -70.0693 -70.0686 -65.0855 -32.0924 -32.0658 -32.0534
    -9.7373  -9.0976   1.5820   1.9540   2.1475   2.3906   2.7977   3.9328
     4.3138   5.2465   5.5414   5.8840   6.8117

     occupation numbers 
     1.0000   1.0000   1.0000   1.0000   1.0000   1.0000   1.0000   1.0000
     1.0000   1.0000   1.0000   1.0000   1.0000   1.0000   1.0000   1.0000
     1.0000   1.0000   1.0000   1.0000   1.0000

          k = 0.1250 0.3608-0.1759 (  3793 PWs)   bands (ev):

  -115.7190 -70.0942 -70.0692 -70.0686 -65.0855 -32.0923 -32.0658 -32.0534
    -9.7839  -9.0620   1.6080   2.0069   2.2089   2.5683   2.8182   3.9285
     4.3236   5.0934   5.2594   5.9984   6.6734

     occupation numbers 
     1.0000   1.0000   1.0000   1.0000   1.0000   1.0000   1.0000   1.0000
     1.0000   1.0000   1.0000   1.0000   1.0000   1.0000   1.0000   1.0000
     1.0000   1.0000   1.0000   1.0000   1.0000

          k = 0.1250 0.3608-0.0880 (  3792 PWs)   bands (ev):

  -115.7190 -70.0942 -70.0692 -70.0686 -65.0855 -32.0922 -32.0658 -32.0534
    -9.8260  -9.0311   1.6226   2.0455   2.3012   2.8034   2.8406   3.9358
     4.2847   4.8083   5.1507   6.1062   6.4626

     occupation numbers 
     1.0000   1.0000   1.0000   1.0000   1.0000   1.0000   1.0000   1.0000
     1.0000   1.0000   1.0000   1.0000   1.0000   1.0000   1.0000   1.0000
     1.0000   1.0000   1.0000   1.0000   1.0000

          k = 0.1250 0.5052 0.0000 (  3801 PWs)   bands (ev):

  -115.7190 -70.0942 -70.0696 -70.0687 -65.0852 -32.0915 -32.0716 -32.0554
    -9.6647  -9.0063   1.7464   2.2368   2.3634   2.8671   2.9074   3.5964
     4.2489   4.5594   4.7727   5.8860   5.9967

     occupation numbers 
     1.0000   1.0000   1.0000   1.0000   1.0000   1.0000   1.0000   1.0000
     1.0000   1.0000   1.0000   1.0000   1.0000   1.0000   1.0000   1.0000
     1.0000   1.0000   1.0000   1.0000   1.0000

          k = 0.1250 0.5052 0.0880 (  3795 PWs)   bands (ev):

  -115.7190 -70.0941 -70.0696 -70.0687 -65.0852 -32.0915 -32.0716 -32.0554
    -9.6564  -9.0074   1.7283   2.2237   2.3433   2.8411   2.8795   3.3837
     4.1883   4.7095   5.0074   5.8490   6.0972

     occupation numbers 
     1.0000   1.0000   1.0000   1.0000   1.0000   1.0000   1.0000   1.0000
     1.0000   1.0000   1.0000   1.0000   1.0000   1.0000   1.0000   1.0000
     1.0000   1.0000   1.0000   1.0000   1.0000

          k = 0.1250 0.5052 0.1759 (  3799 PWs)   bands (ev):

  -115.7190 -70.0941 -70.0696 -70.0687 -65.0852 -32.0916 -32.0716 -32.0554
    -9.6361  -9.0102   1.6957   2.1629   2.3063   2.6128   2.8535   3.2350
     4.2206   4.7594   5.4068   5.7735   6.4007

     occupation numbers 
     1.0000   1.0000   1.0000   1.0000   1.0000   1.0000   1.0000   1.0000
     1.0000   1.0000   1.0000   1.0000   1.0000   1.0000   1.0000   1.0000
[...]
    -9.6362  -9.0101   1.7189   2.1110   2.3048   2.6155   2.8487   3.3023
     4.2116   4.7292   5.3569   5.7845   6.4521

     occupation numbers 
     1.0000   1.0000   1.0000   1.0000   1.0000   1.0000   1.0000   1.0000
     1.0000   1.0000   1.0000   1.0000   1.0000   1.0000   1.0000   1.0000
     1.0000   1.0000   1.0000   1.0000   1.0000

          k =-0.5000-0.1443-0.0880 (  3795 PWs)   bands (ev):

  -115.7190 -70.0941 -70.0696 -70.0687 -65.0852 -32.0915 -32.0716 -32.0554
    -9.6565  -9.0073   1.7453   2.1940   2.3369   2.8347   2.8618   3.4669
     4.2194   4.6194   4.9746   5.8856   6.1175

     occupation numbers 
     1.0000   1.0000   1.0000   1.0000   1.0000   1.0000   1.0000   1.0000
     1.0000   1.0000   1.0000   1.0000   1.0000   1.0000   1.0000   1.0000
     1.0000   1.0000   1.0000   1.0000   1.0000

          k =-0.5000 0.0000-0.0000 (  3785 PWs)   bands (ev):

  -115.7190 -70.0941 -70.0694 -70.0689 -65.0852 -32.0915 -32.0693 -32.0577
    -9.6682  -9.0043   1.8571   2.1714   2.3839   2.8523   2.9346   3.8396
     3.9467   4.6081   4.7981   5.6595   5.9850

     occupation numbers 
     1.0000   1.0000   1.0000   1.0000   1.0000   1.0000   1.0000   1.0000
     1.0000   1.0000   1.0000   1.0000   1.0000   1.0000   1.0000   1.0000
     1.0000   1.0000   1.0000   1.0000   1.0000

          k =-0.5000 0.0000 0.0880 (  3795 PWs)   bands (ev):

  -115.7190 -70.0941 -70.0694 -70.0689 -65.0852 -32.0915 -32.0693 -32.0577
    -9.6597  -9.0057   1.8567   2.1365   2.3605   2.8228   2.8774   3.6788
     3.9092   4.7269   5.0007   5.6202   6.1159

     occupation numbers 
     1.0000   1.0000   1.0000   1.0000   1.0000   1.0000   1.0000   1.0000
     1.0000   1.0000   1.0000   1.0000   1.0000   1.0000   1.0000   1.0000
     1.0000   1.0000   1.0000   1.0000   1.0000

          k =-0.5000 0.0000 0.1759 (  3807 PWs)   bands (ev):

  -115.7190 -70.0942 -70.0694 -70.0689 -65.0852 -32.0916 -32.0693 -32.0577
    -9.6387  -9.0096   1.8537   2.0467   2.3175   2.6050   2.8410   3.4998
     4.0197   4.6798   5.3770   5.5963   6.4427

     occupation numbers 
     1.0000   1.0000   1.0000   1.0000   1.0000   1.0000   1.0000   1.0000
     1.0000   1.0000   1.0000   1.0000   1.0000   1.0000   1.0000   1.0000
     1.0000   1.0000   1.0000   1.0000   1.0000

          k =-0.5000 0.0000 0.2639 (  3804 PWs)   bands (ev):

  -115.7190 -70.0942 -70.0694 -70.0689 -65.0852 -32.0918 -32.0693 -32.0577
    -9.6169  -9.0140   1.8447   1.9549   2.2804   2.3795   2.8260   3.4537
     4.1452   4.6756   5.2455   5.8816   6.7739

     occupation numbers 
     1.0000   1.0000   1.0000   1.0000   1.0000   1.0000   1.0000   1.0000
     1.0000   1.0000   1.0000   1.0000   1.0000   1.0000   1.0000   1.0000
     1.0000   1.0000   1.0000   1.0000   1.0000

          k =-0.5000 0.0000-0.3518 (  3806 PWs)   bands (ev):

  -115.7190 -70.0942 -70.0694 -70.0689 -65.0852 -32.0918 -32.0693 -32.0577
    -9.6077  -9.0161   1.8376   1.9171   2.2535   2.3096   2.8209   3.4460
     4.1987   4.7043   5.1419   5.9981   6.9113

     occupation numbers 
     1.0000   1.0000   1.0000   1.0000   1.0000   1.0000   1.0000   1.0000
     1.0000   1.0000   1.0000   1.0000   1.0000   1.0000   1.0000   1.0000
     1.0000   1.0000   1.0000   1.0000   1.0000

          k =-0.5000 0.0000-0.2639 (  3804 PWs)   bands (ev):

  -115.7190 -70.0942 -70.0694 -70.0689 -65.0852 -32.0918 -32.0693 -32.0577
    -9.6169  -9.0140   1.8447   1.9549   2.2804   2.3795   2.8260   3.4537
     4.1452   4.6756   5.2455   5.8816   6.7739

     occupation numbers 
     1.0000   1.0000   1.0000   1.0000   1.0000   1.0000   1.0000   1.0000
     1.0000   1.0000   1.0000   1.0000   1.0000   1.0000   1.0000   1.0000
     1.0000   1.0000   1.0000   1.0000   1.0000

          k =-0.5000 0.0000-0.1759 (  3807 PWs)   bands (ev):

  -115.7190 -70.0942 -70.0694 -70.0689 -65.0852 -32.0916 -32.0693 -32.0577
    -9.6387  -9.0096   1.8537   2.0467   2.3175   2.6050   2.8410   3.4998
     4.0197   4.6798   5.3770   5.5963   6.4427

     occupation numbers 
     1.0000   1.0000   1.0000   1.0000   1.0000   1.0000   1.0000   1.0000
     1.0000   1.0000   1.0000   1.0000   1.0000   1.0000   1.0000   1.0000
     1.0000   1.0000   1.0000   1.0000   1.0000

          k =-0.5000 0.0000-0.0880 (  3795 PWs)   bands (ev):

  -115.7190 -70.0941 -70.0694 -70.0689 -65.0852 -32.0915 -32.0693 -32.0577
    -9.6597  -9.0057   1.8567   2.1365   2.3605   2.8228   2.8774   3.6788
     3.9092   4.7269   5.0007   5.6202   6.1159

     occupation numbers 
     1.0000   1.0000   1.0000   1.0000   1.0000   1.0000   1.0000   1.0000
     1.0000   1.0000   1.0000   1.0000   1.0000   1.0000   1.0000   1.0000
     1.0000   1.0000   1.0000   1.0000   1.0000

          k =-0.5000 0.1443-0.0000 (  3801 PWs)   bands (ev):

  -115.7190 -70.0942 -70.0696 -70.0687 -65.0852 -32.0915 -32.0716 -32.0554
    -9.6647  -9.0063   1.7464   2.2368   2.3634   2.8671   2.9074   3.5964
     4.2489   4.5594   4.7727   5.8860   5.9967

     occupation numbers 
     1.0000   1.0000   1.0000   1.0000   1.0000   1.0000   1.0000   1.0000
     1.0000   1.0000   1.0000   1.0000   1.0000   1.0000   1.0000   1.0000
     1.0000   1.0000   1.0000   1.0000   1.0000

          k =-0.5000 0.1443 0.0880 (  3795 PWs)   bands (ev):

  -115.7190 -70.0941 -70.0696 -70.0687 -65.0852 -32.0915 -32.0716 -32.0554
    -9.6565  -9.0073   1.7453   2.1940   2.3369   2.8347   2.8618   3.4669
     4.2194   4.6194   4.9746   5.8856   6.1175

     occupation numbers 
     1.0000   1.0000   1.0000   1.0000   1.0000   1.0000   1.0000   1.0000
     1.0000   1.0000   1.0000   1.0000   1.0000   1.0000   1.0000   1.0000
     1.0000   1.0000   1.0000   1.0000   1.0000

          k =-0.5000 0.1443 0.1759 (  3799 PWs)   bands (ev):

  -115.7190 -70.0941 -70.0696 -70.0687 -65.0852 -32.0916 -32.0716 -32.0554
    -9.6362  -9.0101   1.7189   2.1110   2.3048   2.6155   2.8487   3.3023
     4.2116   4.7292   5.3569   5.7845   6.4521

     occupation numbers 
     1.0000   1.0000   1.0000   1.0000   1.0000   1.0000   1.0000   1.0000
     1.0000   1.0000   1.0000   1.0000   1.0000   1.0000   1.0000   1.0000
     1.0000   1.0000   1.0000   1.0000   1.0000

          k =-0.5000 0.1443 0.2639 (  3802 PWs)   bands (ev):

  -115.7190 -70.0942 -70.0696 -70.0687 -65.0852 -32.0917 -32.0716 -32.0554
    -9.6153  -9.0134   1.6748   2.0503   2.2791   2.3843   2.8367   3.2476
     4.2297   4.8737   5.4449   5.8353   6.7590

     occupation numbers 
     1.0000   1.0000   1.0000   1.0000   1.0000   1.0000   1.0000   1.0000
     1.0000   1.0000   1.0000   1.0000   1.0000   1.0000   1.0000   1.0000
     1.0000   1.0000   1.0000   1.0000   1.0000

          k =-0.5000 0.1443-0.3518 (  3810 PWs)   bands (ev):

  -115.7190 -70.0942 -70.0696 -70.0687 -65.0852 -32.0918 -32.0715 -32.0554
    -9.6064  -9.0151   1.6491   2.0412   2.2500   2.3088   2.8326   3.2277
     4.2430   4.9767   5.3574   5.9337   6.8668

     occupation numbers 
     1.0000   1.0000   1.0000   1.0000   1.0000   1.0000   1.0000   1.0000
     1.0000   1.0000   1.0000   1.0000   1.0000   1.0000   1.0000   1.0000
     1.0000   1.0000   1.0000   1.0000   1.0000

          k =-0.5000 0.1443-0.2639 (  3802 PWs)   bands (ev):

  -115.7190 -70.0942 -70.0696 -70.0687 -65.0852 -32.0917 -32.0716 -32.0554
    -9.6152  -9.0136   1.6611   2.0891   2.2770   2.3708   2.8386   3.2181
     4.2442   4.8806   5.4508   5.8541   6.7237

     occupation numbers 
     1.0000   1.0000   1.0000   1.0000   1.0000   1.0000   1.0000   1.0000
     1.0000   1.0000   1.0000   1.0000   1.0000   1.0000   1.0000   1.0000
     1.0000   1.0000   1.0000   1.0000   1.0000

          k =-0.5000 0.1443-0.1759 (  3799 PWs)   bands (ev):

  -115.7190 -70.0941 -70.0696 -70.0687 -65.0852 -32.0916 -32.0716 -32.0554
    -9.6361  -9.0102   1.6957   2.1629   2.3063   2.6128   2.8535   3.2350
     4.2206   4.7594   5.4068   5.7735   6.4007

     occupation numbers 
     1.0000   1.0000   1.0000   1.0000   1.0000   1.0000   1.0000   1.0000
     1.0000   1.0000   1.0000   1.0000   1.0000   1.0000   1.0000   1.0000
     1.0000   1.0000   1.0000   1.0000   1.0000

          k =-0.5000 0.1443-0.0880 (  3795 PWs)   bands (ev):

  -115.7190 -70.0941 -70.0696 -70.0687 -65.0852 -32.0915 -32.0716 -32.0554
    -9.6564  -9.0074   1.7283   2.2237   2.3433   2.8411   2.8795   3.3837
     4.1883   4.7095   5.0074   5.8490   6.0972

     occupation numbers 
     1.0000   1.0000   1.0000   1.0000   1.0000   1.0000   1.0000   1.0000
     1.0000   1.0000   1.0000   1.0000   1.0000   1.0000   1.0000   1.0000
     1.0000   1.0000   1.0000   1.0000   1.0000

          k =-0.5000-0.8660-0.0000 (  3798 PWs)   bands (ev):

  -115.7190 -70.0941 -70.0697 -70.0686 -65.0852 -32.0915 -32.0733 -32.0537
    -9.6611  -9.0083   1.6606   2.2887   2.3236   2.8867   2.8911   3.5252
     4.2323   4.5754   4.8719   5.9358   6.1422

     occupation numbers 
     1.0000   1.0000   1.0000   1.0000   1.0000   1.0000   1.0000   1.0000
     1.0000   1.0000   1.0000   1.0000   1.0000   1.0000   1.0000   1.0000
     1.0000   1.0000   1.0000   1.0000   1.0000

          k =-0.5000-0.8660 0.0880 (  3794 PWs)   bands (ev):

  -115.7190 -70.0941 -70.0697 -70.0686 -65.0852 -32.0915 -32.0733 -32.0537
    -9.6531  -9.0089   1.6469   2.2773   2.2856   2.8421   2.8846   3.3266
     4.2037   4.8482   4.9165   6.0753   6.1023

     occupation numbers 
     1.0000   1.0000   1.0000   1.0000   1.0000   1.0000   1.0000   1.0000
     1.0000   1.0000   1.0000   1.0000   1.0000   1.0000   1.0000   1.0000
     1.0000   1.0000   1.0000   1.0000   1.0000

          k =-0.5000-0.8660 0.1759 (  3788 PWs)   bands (ev):

  -115.7190 -70.0941 -70.0697 -70.0686 -65.0852 -32.0916 -32.0733 -32.0537
    -9.6336  -9.0107   1.6088   2.1853   2.2780   2.6234   2.8696   3.1458
     4.2006   5.0371   5.2503   5.9927   6.3997

     occupation numbers 
     1.0000   1.0000   1.0000   1.0000   1.0000   1.0000   1.0000   1.0000
     1.0000   1.0000   1.0000   1.0000   1.0000   1.0000   1.0000   1.0000
     1.0000   1.0000   1.0000   1.0000   1.0000

          k =-0.5000-0.8660 0.2639 (  3800 PWs)   bands (ev):

  -115.7190 -70.0942 -70.0697 -70.0686 -65.0852 -32.0917 -32.0733 -32.0537
    -9.6135  -9.0130   1.5647   2.1113   2.2702   2.3689   2.8557   3.1088
     4.2041   5.1922   5.5533   5.8476   6.6928

     occupation numbers 
     1.0000   1.0000   1.0000   1.0000   1.0000   1.0000   1.0000   1.0000
     1.0000   1.0000   1.0000   1.0000   1.0000   1.0000   1.0000   1.0000
     1.0000   1.0000   1.0000   1.0000   1.0000

          k =-0.5000-0.8660-0.3518 (  3792 PWs)   bands (ev):

  -115.7190 -70.0941 -70.0697 -70.0686 -65.0852 -32.0918 -32.0733 -32.0537
    -9.6050  -9.0141   1.5453   2.0807   2.2670   2.2743   2.8503   3.1035
     4.2053   5.2811   5.6692   5.7626   6.8020

     occupation numbers 
     1.0000   1.0000   1.0000   1.0000   1.0000   1.0000   1.0000   1.0000
     1.0000   1.0000   1.0000   1.0000   1.0000   1.0000   1.0000   1.0000
     1.0000   1.0000   1.0000   1.0000   1.0000

     highest occupied level (ev):     7.0557

!    total energy              =    -651.12693338 Ry
     Harris-Foulkes estimate   =    -651.12693284 Ry
     estimated scf accuracy    <       0.00000078 Ry

     The total energy is the sum of the following terms:

     one-electron contribution =    -531.65710376 Ry
     hartree contribution      =     279.38399711 Ry
     xc contribution           =     -73.07595141 Ry
     ewald contribution        =    -325.77787532 Ry

     convergence has been achieved in   7 iterations

     Forces acting on atoms (cartesian axes, Ry/au):

     atom    1 type  3   force =     0.00000084    0.00000012    0.00236606
     atom    2 type  3   force =     0.00000022    0.00000107    0.00945934
     atom    3 type  2   force =     0.00000005    0.00000004   -0.00846421
     atom    4 type  1   force =    -0.00000112   -0.00000123   -0.00336119
     The non-local contrib.  to forces
     atom    1 type  3   force =    -0.00000088   -0.00000146    0.19555974
     atom    2 type  3   force =     0.00000090    0.00000100   -0.01850327
     atom    3 type  2   force =     0.00000174   -0.00000433    0.26644583
     atom    4 type  1   force =    -0.00000034   -0.00000150    0.08869052
     The ionic contribution  to forces
     atom    1 type  3   force =     0.00000384    0.00002757   -5.36386368
     atom    2 type  3   force =    -0.00001539    0.00001496    3.29001149
     atom    3 type  2   force =     0.00001578   -0.00002562    1.81963407
     atom    4 type  1   force =    -0.00000424   -0.00001691    0.25421812
     The local contribution  to forces
     atom    1 type  3   force =    -0.00000256   -0.00002581    5.17231322
     atom    2 type  3   force =     0.00001447   -0.00001434   -3.26316341
     atom    3 type  2   force =    -0.00001778    0.00002885   -2.09319522
     atom    4 type  1   force =     0.00000445    0.00001795   -0.34667010
     The core correction contribution to forces
     atom    1 type  3   force =     0.00000002   -0.00000000   -0.00148722
     atom    2 type  3   force =    -0.00000000   -0.00000001    0.00061392
     atom    3 type  2   force =     0.00000000    0.00000000    0.00000000
     atom    4 type  1   force =     0.00000000    0.00000000    0.00000000
     The Hubbard contrib.    to forces
     atom    1 type  3   force =     0.00000000    0.00000000    0.00000000
     atom    2 type  3   force =     0.00000000    0.00000000    0.00000000
     atom    3 type  2   force =     0.00000000    0.00000000    0.00000000
     atom    4 type  1   force =     0.00000000    0.00000000    0.00000000
     The SCF correction term to forces
     atom    1 type  3   force =     0.00000000    0.00000000    0.00000000
     atom    2 type  3   force =     0.00000000    0.00000000    0.00000000
     atom    3 type  2   force =     0.00000000    0.00000000    0.00000000
     atom    4 type  1   force =     0.00000000    0.00000000    0.00000000

     Total force =     0.000000     Total SCF correction =     0.000000


     Computing stress (Cartesian axis) and pressure

          total   stress  (Ry/bohr**3)                   (kbar)     P=   -1.04
  -0.00000491  -0.00000000   0.00000001         -0.72     -0.00      0.00
  -0.00000000  -0.00000491   0.00000000         -0.00     -0.72      0.00
   0.00000001   0.00000000  -0.00001148          0.00      0.00     -1.69

     kinetic stress (kbar)  26852.66     -0.00      0.00
                               -0.00  26852.66     -0.00
                                0.00     -0.00  27017.75

     local   stress (kbar) -15527.77      0.00      0.04
                                0.00 -15527.78     -0.03
                                0.04     -0.03   -650.25

     nonloc. stress (kbar)   1818.99      0.00     -0.00
                                0.00   1818.99      0.00
                               -0.00      0.00   1745.29

     hartree stress (kbar)  45909.24     -0.00     -0.02
                               -0.00  45909.24      0.01
                               -0.02      0.01  39148.73

     exc-cor stress (kbar) -10630.62      0.00     -0.00
                                0.00 -10630.62      0.00
                               -0.00      0.00 -10634.19

     corecor stress (kbar)   -253.28      0.00     -0.00
                                0.00   -253.28     -0.00
                               -0.00     -0.00   -253.57

     ewald   stress (kbar) -48169.95     -0.00     -0.02
                               -0.00 -48169.94      0.02
                               -0.02      0.02 -56375.45

     hubbard stress (kbar)      0.00      0.00      0.00
                                0.00      0.00      0.00
                                0.00      0.00      0.00

     london  stress (kbar)      0.00      0.00      0.00
                                0.00      0.00      0.00
                                0.00      0.00      0.00

     DFT-D3  stress (kbar)      0.00      0.00      0.00
                                0.00      0.00      0.00
                                0.00      0.00      0.00

     XDM     stress (kbar)      0.00      0.00      0.00
                                0.00      0.00      0.00
                                0.00      0.00      0.00

     dft-nl  stress (kbar)      0.00      0.00      0.00
                                0.00      0.00      0.00
                                0.00      0.00      0.00

     TS-vdW  stress (kbar)      0.00      0.00      0.00
                                0.00      0.00      0.00
                                0.00      0.00      0.00



     Writing output data file ZnO.save/
 
     init_run     :      0.53s CPU      0.91s WALL (       1 calls)
     electrons    :      6.37s CPU      6.90s WALL (       1 calls)
     forces       :      0.16s CPU      0.17s WALL (       1 calls)
     stress       :      0.29s CPU      0.32s WALL (       1 calls)

     Called by init_run:
     wfcinit      :      0.35s CPU      0.52s WALL (       1 calls)
     wfcinit:atom :      0.00s CPU      0.00s WALL (      65 calls)
     wfcinit:wfcr :      0.34s CPU      0.50s WALL (      65 calls)
     potinit      :      0.07s CPU      0.08s WALL (       1 calls)
     hinit0       :      0.09s CPU      0.25s WALL (       1 calls)

     Called by electrons:
     c_bands      :      5.32s CPU      5.70s WALL (       7 calls)
     sum_band     :      0.78s CPU      0.86s WALL (       7 calls)
     v_of_rho     :      0.22s CPU      0.23s WALL (       8 calls)
     v_h          :      0.00s CPU      0.00s WALL (       8 calls)
     v_xc         :      0.27s CPU      0.28s WALL (      10 calls)
     newd         :      0.05s CPU      0.07s WALL (       8 calls)
     mix_rho      :      0.01s CPU      0.05s WALL (       7 calls)

     Called by c_bands:
     init_us_2    :      0.09s CPU      0.09s WALL (    1105 calls)
     cegterg      :      5.00s CPU      5.24s WALL (     455 calls)

     Called by sum_band:
     sum_band:bec :      0.01s CPU      0.01s WALL (     455 calls)
     addusdens    :      0.05s CPU      0.09s WALL (       7 calls)

     Called by *egterg:
     h_psi        :      3.08s CPU      3.21s WALL (    1662 calls)
     s_psi        :      0.10s CPU      0.10s WALL (    1662 calls)
     g_psi        :      0.01s CPU      0.01s WALL (    1142 calls)
     cdiaghg      :      1.40s CPU      1.60s WALL (    1597 calls)
     cegterg:over :      0.35s CPU      0.40s WALL (    1142 calls)
     cegterg:upda :      0.17s CPU      0.17s WALL (    1142 calls)
     cegterg:last :      0.09s CPU      0.10s WALL (     455 calls)
     cdiaghg:chol :      0.11s CPU      0.16s WALL (    1597 calls)
     cdiaghg:inve :      0.02s CPU      0.03s WALL (    1597 calls)
     cdiaghg:para :      0.18s CPU      0.19s WALL (    3194 calls)

     Called by h_psi:
     h_psi:pot    :      3.07s CPU      3.20s WALL (    1662 calls)
     h_psi:calbec :      0.18s CPU      0.19s WALL (    1662 calls)
     vloc_psi     :      2.78s CPU      2.90s WALL (    1662 calls)
     add_vuspsi   :      0.10s CPU      0.11s WALL (    1662 calls)

     General routines
     calbec       :      0.28s CPU      0.29s WALL (    2442 calls)
     fft          :      0.04s CPU      0.08s WALL (     127 calls)
     ffts         :      0.00s CPU      0.01s WALL (      15 calls)
     fftw         :      3.18s CPU      3.30s WALL (   60299 calls)
     interpolate  :      0.00s CPU      0.01s WALL (       8 calls)
 
     Parallel routines
     fft_scatt_xy :      0.49s CPU      0.51s WALL (   60441 calls)
     fft_scatt_yz :      1.61s CPU      1.68s WALL (   60441 calls)
 
     PWSCF        :      7.90s CPU      9.77s WALL

 
   This run was terminated on:  23:25: 7  15Jun2022            

=------------------------------------------------------------------------------=
   JOB DONE.
=------------------------------------------------------------------------------=
