
     Program PWSCF v.6.4.1 starts on 15Jun2022 at 23:23:56 

     This program is part of the open-source Quantum ESPRESSO suite
     for quantum simulation of materials; please cite
         "P. Giannozzi et al., J. Phys.:Condens. Matter 21 395502 (2009);
         "P. Giannozzi et al., J. Phys.:Condens. Matter 29 465901 (2017);
          URL http://www.quantum-espresso.org", 
     in publications or presentations arising from this work. More details at
     http://www.quantum-espresso.org/quote

     Parallel version (MPI), running on    64 processors

     MPI processes distributed on     1 nodes
     K-points division:     npool     =       4
     R & G space division:  proc/nbgrp/npool/nimage =      16
     Waiting for input...
     Reading input from standard input
Warning: card &IONS ignored
Warning: card   UPSCALE           = 100.D0, ignored
Warning: card / ignored
Warning: card &CELL ignored
Warning: card   CELL_DYNAMICS     = 'BFGS' ignored
Warning: card   PRESS_CONV_THR    = 0.5D0 ignored
Warning: card   CELL_DOFREE = 'ALL' ignored
Warning: card / ignored

     Current dimensions of program PWSCF are:
     Max number of different atomic species (ntypx) = 10
     Max number of k-points (npk) =  40000
     Max angular momentum in pseudopotentials (lmaxx) =  3

     Subspace diagonalization in iterative solution of the eigenvalue problem:
     one sub-group per band group will be used
     scalapack distributed-memory algorithm (size of sub-group:  2*  2 procs)

 
     Parallelization info
     --------------------
     sticks:   dense  smooth     PW     G-vecs:    dense   smooth      PW
     Min          98      52     15                 4952     1932     329
     Max          99      53     16                 4957     1937     338
     Sum        1573     847    253                79263    30973    5371
 


     bravais-lattice index     =            0
     lattice parameter (alat)  =       6.1787  a.u.
     unit-cell volume          =     319.7655 (a.u.)^3
     number of atoms/cell      =            4
     number of atomic types    =            3
     number of electrons       =        42.00
     number of Kohn-Sham states=           21
     kinetic-energy cutoff     =      80.0000  Ry
     charge density cutoff     =     600.0000  Ry
     convergence threshold     =      1.0E-06
     mixing beta               =       0.5000
     number of iterations used =            8  plain     mixing
     Exchange-correlation      = SLA  PW   PSX  PSC ( 1  4 10  8 0 0)
     Using LIBXC version       =    4   3   4

     celldm(1)=   6.178713  celldm(2)=   0.000000  celldm(3)=   0.000000
     celldm(4)=   0.000000  celldm(5)=   0.000000  celldm(6)=   0.000000

     crystal axes: (cart. coord. in units of alat)
               a(1) = (   1.000000   0.000000   0.000000 )  
               a(2) = (  -0.500000   0.866025   0.000000 )  
               a(3) = (   0.000000   0.000000   1.565333 )  

     reciprocal axes: (cart. coord. in units 2 pi/alat)
               b(1) = (  1.000000  0.577350 -0.000000 )  
               b(2) = ( -0.000000  1.154701 -0.000000 )  
               b(3) = ( -0.000000 -0.000000  0.638842 )  


     PseudoPot. # 1 for Mg read from file:
     ./GBRV_PBEsol/mg_pbesol_v1.4.uspp.F.UPF
     MD5 check sum: 4059f37963cf5867752dbf5ab2400678
     Pseudo is Ultrasoft, Zval = 10.0
     Generated by new atomic code, or converted to UPF format
     Using radial grid of  821 points,  7 beta functions with: 
                l(1) =   0
                l(2) =   0
                l(3) =   0
                l(4) =   1
                l(5) =   1
                l(6) =   2
                l(7) =   2
     Q(r) pseudized with  8 coefficients,  rinner =    1.200   1.200   1.200
                                                       1.200   1.200

     PseudoPot. # 2 for Zn read from file:
     ./GBRV_PBEsol/zn_pbesol_v1.uspp.F.UPF
     MD5 check sum: 7d8615e52efe7c1e2b1899de8658bae2
     Pseudo is Ultrasoft, Zval = 20.0
     Generated by new atomic code, or converted to UPF format
     Using radial grid of  943 points,  6 beta functions with: 
                l(1) =   0
                l(2) =   0
                l(3) =   1
                l(4) =   1
                l(5) =   2
                l(6) =   2
     Q(r) pseudized with  8 coefficients,  rinner =    1.100   1.100   1.100
                                                       1.100   1.100

     PseudoPot. # 3 for O  read from file:
     ./GBRV_PBEsol/o_pbesol_v1.2.uspp.F.UPF
     MD5 check sum: 501638753501ef6325af9037351f7734
     Pseudo is Ultrasoft + core correction, Zval =  6.0
     Generated by new atomic code, or converted to UPF format
     Using radial grid of  737 points,  5 beta functions with: 
                l(1) =   0
                l(2) =   0
                l(3) =   1
                l(4) =   1
                l(5) =   2
     Q(r) pseudized with  8 coefficients,  rinner =    0.900   0.900   0.900
                                                       0.900   0.900

     atomic species   valence    mass     pseudopotential
        Mg            10.00    24.30500     Mg( 1.00)
        Zn            20.00    65.38000     Zn( 1.00)
        O              6.00    15.99900     O ( 1.00)

     No symmetry found


                                    s                        frac. trans.

      isym =  1     identity                                     

 cryst.   s( 1) = (     1          0          0      )
                  (     0          1          0      )
                  (     0          0          1      )

 cart.    s( 1) = (  1.0000000  0.0000000 -0.0000000 )
                  (  0.0000000  1.0000000 -0.0000000 )
                  ( -0.0000000 -0.0000000  1.0000000 )


   Cartesian axes

     site n.     atom                  positions (alat units)
         1           O   tau(   1) = (   0.5000002   0.2886755   0.0114988  )
         2           O   tau(   2) = (   0.0000002   0.5773496   0.7941654  )
         3           Zn  tau(   3) = (   0.5000001   0.2886750   0.6167320  )
         4           Mg  tau(   4) = (  -0.0000000   0.5773514   1.4045403  )

   Crystallographic axes

     site n.     atom                  positions (cryst. coord.)
         1           O   tau(   1) = (  0.6666670  0.3333337  0.0073459  )
         2           O   tau(   2) = (  0.3333329  0.6666657  0.5073458  )
         3           Zn  tau(   3) = (  0.6666664  0.3333329  0.3939939  )
         4           Mg  tau(   4) = (  0.3333337  0.6666677  0.8972785  )

     number of k points=   260
                       cart. coord. in units 2pi/alat
        k(    1) = (   0.0000000   0.0000000   0.0000000), wk =   0.0039062
        k(    2) = (  -0.0000000  -0.0000000   0.0798552), wk =   0.0078125
        k(    3) = (  -0.0000000  -0.0000000   0.1597104), wk =   0.0078125
        k(    4) = (  -0.0000000  -0.0000001   0.2395656), wk =   0.0078125
        k(    5) = (   0.0000000   0.0000001  -0.3194208), wk =   0.0039062
        k(    6) = (  -0.0000000   0.1443376  -0.0000000), wk =   0.0078125
        k(    7) = (  -0.0000000   0.1443376   0.0798552), wk =   0.0078125
        k(    8) = (  -0.0000000   0.1443375   0.1597103), wk =   0.0078125
        k(    9) = (  -0.0000000   0.1443375   0.2395655), wk =   0.0078125
        k(   10) = (   0.0000000   0.1443377  -0.3194208), wk =   0.0078125
        k(   11) = (   0.0000000   0.1443376  -0.2395656), wk =   0.0078125
        k(   12) = (   0.0000000   0.1443376  -0.1597104), wk =   0.0078125
        k(   13) = (  -0.0000000   0.1443376  -0.0798552), wk =   0.0078125
        k(   14) = (  -0.0000000   0.2886751  -0.0000001), wk =   0.0078125
        k(   15) = (  -0.0000000   0.2886751   0.0798551), wk =   0.0078125
        k(   16) = (  -0.0000000   0.2886751   0.1597103), wk =   0.0078125
        k(   17) = (  -0.0000001   0.2886751   0.2395655), wk =   0.0078125
        k(   18) = (   0.0000000   0.2886752  -0.3194208), wk =   0.0078125
        k(   19) = (  -0.0000000   0.2886752  -0.2395656), wk =   0.0078125
        k(   20) = (  -0.0000000   0.2886752  -0.1597104), wk =   0.0078125
        k(   21) = (  -0.0000000   0.2886752  -0.0798553), wk =   0.0078125
        k(   22) = (  -0.0000000   0.4330127  -0.0000001), wk =   0.0078125
        k(   23) = (  -0.0000001   0.4330127   0.0798551), wk =   0.0078125
        k(   24) = (  -0.0000001   0.4330127   0.1597103), wk =   0.0078125
        k(   25) = (  -0.0000001   0.4330127   0.2395655), wk =   0.0078125
        k(   26) = (  -0.0000000   0.4330128  -0.3194208), wk =   0.0078125
        k(   27) = (  -0.0000000   0.4330128  -0.2395657), wk =   0.0078125
        k(   28) = (  -0.0000000   0.4330128  -0.1597105), wk =   0.0078125
        k(   29) = (  -0.0000000   0.4330127  -0.0798553), wk =   0.0078125
        k(   30) = (   0.0000001  -0.5773503   0.0000001), wk =   0.0039062
        k(   31) = (   0.0000000  -0.5773503   0.0798553), wk =   0.0078125
        k(   32) = (   0.0000000  -0.5773503   0.1597105), wk =   0.0078125
        k(   33) = (   0.0000000  -0.5773504   0.2395657), wk =   0.0078125
        k(   34) = (   0.0000001  -0.5773502  -0.3194206), wk =   0.0039062
        k(   35) = (   0.1250000   0.0721688  -0.0000000), wk =   0.0078125
        k(   36) = (   0.1250000   0.0721688   0.0798552), wk =   0.0078125
        k(   37) = (   0.1250000   0.0721687   0.1597103), wk =   0.0078125
        k(   38) = (   0.1250000   0.0721687   0.2395655), wk =   0.0078125
        k(   39) = (   0.1250000   0.0721689  -0.3194208), wk =   0.0078125
        k(   40) = (   0.1250000   0.0721688  -0.2395656), wk =   0.0078125
        k(   41) = (   0.1250000   0.0721688  -0.1597104), wk =   0.0078125
        k(   42) = (   0.1250000   0.0721688  -0.0798552), wk =   0.0078125
        k(   43) = (   0.1250000   0.2165063  -0.0000001), wk =   0.0078125
        k(   44) = (   0.1250000   0.2165063   0.0798551), wk =   0.0078125
        k(   45) = (   0.1250000   0.2165063   0.1597103), wk =   0.0078125
        k(   46) = (   0.1250000   0.2165063   0.2395655), wk =   0.0078125
        k(   47) = (   0.1250000   0.2165064  -0.3194208), wk =   0.0078125
        k(   48) = (   0.1250000   0.2165064  -0.2395656), wk =   0.0078125
        k(   49) = (   0.1250000   0.2165064  -0.1597104), wk =   0.0078125
        k(   50) = (   0.1250000   0.2165064  -0.0798552), wk =   0.0078125
        k(   51) = (   0.1250000   0.3608439  -0.0000001), wk =   0.0078125
        k(   52) = (   0.1250000   0.3608439   0.0798551), wk =   0.0078125
        k(   53) = (   0.1249999   0.3608439   0.1597103), wk =   0.0078125
        k(   54) = (   0.1249999   0.3608439   0.2395655), wk =   0.0078125
        k(   55) = (   0.1250000   0.3608440  -0.3194208), wk =   0.0078125
        k(   56) = (   0.1250000   0.3608440  -0.2395657), wk =   0.0078125
        k(   57) = (   0.1250000   0.3608440  -0.1597105), wk =   0.0078125
        k(   58) = (   0.1250000   0.3608439  -0.0798553), wk =   0.0078125
        k(   59) = (   0.1250000   0.5051815  -0.0000001), wk =   0.0078125
        k(   60) = (   0.1249999   0.5051815   0.0798551), wk =   0.0078125
        k(   61) = (   0.1249999   0.5051815   0.1597103), wk =   0.0078125
        k(   62) = (   0.1249999   0.5051814   0.2395654), wk =   0.0078125
        k(   63) = (   0.1250000   0.5051816  -0.3194209), wk =   0.0078125
        k(   64) = (   0.1250000   0.5051816  -0.2395657), wk =   0.0078125
        k(   65) = (   0.1250000   0.5051815  -0.1597105), wk =   0.0078125
        k(   66) = (   0.1250000   0.5051815  -0.0798553), wk =   0.0078125
        k(   67) = (   0.1250000  -0.5051815   0.0000001), wk =   0.0078125
        k(   68) = (   0.1250000  -0.5051815   0.0798553), wk =   0.0078125
        k(   69) = (   0.1250000  -0.5051816   0.1597105), wk =   0.0078125
        k(   70) = (   0.1250000  -0.5051816   0.2395657), wk =   0.0078125
        k(   71) = (   0.1250001  -0.5051814  -0.3194206), wk =   0.0078125
        k(   72) = (   0.1250001  -0.5051815  -0.2395655), wk =   0.0078125
        k(   73) = (   0.1250001  -0.5051815  -0.1597103), wk =   0.0078125
        k(   74) = (   0.1250001  -0.5051815  -0.0798551), wk =   0.0078125
        k(   75) = (   0.1250000  -0.3608439   0.0000001), wk =   0.0078125
        k(   76) = (   0.1250000  -0.3608440   0.0798553), wk =   0.0078125
        k(   77) = (   0.1250000  -0.3608440   0.1597104), wk =   0.0078125
        k(   78) = (   0.1250000  -0.3608440   0.2395656), wk =   0.0078125
        k(   79) = (   0.1250001  -0.3608439  -0.3194207), wk =   0.0078125
        k(   80) = (   0.1250001  -0.3608439  -0.2395655), wk =   0.0078125
        k(   81) = (   0.1250001  -0.3608439  -0.1597103), wk =   0.0078125
        k(   82) = (   0.1250000  -0.3608439  -0.0798551), wk =   0.0078125
        k(   83) = (   0.1250000  -0.2165064   0.0000000), wk =   0.0078125
        k(   84) = (   0.1250000  -0.2165064   0.0798552), wk =   0.0078125
        k(   85) = (   0.1250000  -0.2165064   0.1597104), wk =   0.0078125
        k(   86) = (   0.1250000  -0.2165064   0.2395656), wk =   0.0078125
        k(   87) = (   0.1250001  -0.2165063  -0.3194207), wk =   0.0078125
        k(   88) = (   0.1250000  -0.2165063  -0.2395655), wk =   0.0078125
        k(   89) = (   0.1250000  -0.2165063  -0.1597103), wk =   0.0078125
        k(   90) = (   0.1250000  -0.2165064  -0.0798552), wk =   0.0078125
        k(   91) = (   0.1250000  -0.0721688   0.0000000), wk =   0.0078125
        k(   92) = (   0.1250000  -0.0721688   0.0798552), wk =   0.0078125
        k(   93) = (   0.1250000  -0.0721688   0.1597104), wk =   0.0078125
        k(   94) = (   0.1250000  -0.0721689   0.2395656), wk =   0.0078125
        k(   95) = (   0.1250000  -0.0721687  -0.3194207), wk =   0.0078125
        k(   96) = (   0.1250000  -0.0721687  -0.2395656), wk =   0.0078125
        k(   97) = (   0.1250000  -0.0721688  -0.1597104), wk =   0.0078125
        k(   98) = (   0.1250000  -0.0721688  -0.0798552), wk =   0.0078125
        k(   99) = (   0.2500000   0.1443375  -0.0000001), wk =   0.0078125
        k(  100) = (   0.2500000   0.1443375   0.0798551), wk =   0.0078125
        k(  101) = (   0.2500000   0.1443375   0.1597103), wk =   0.0078125
        k(  102) = (   0.2500000   0.1443375   0.2395655), wk =   0.0078125
        k(  103) = (   0.2500000   0.1443376  -0.3194208), wk =   0.0078125
        k(  104) = (   0.2500000   0.1443376  -0.2395656), wk =   0.0078125
        k(  105) = (   0.2500000   0.1443376  -0.1597104), wk =   0.0078125
        k(  106) = (   0.2500000   0.1443376  -0.0798552), wk =   0.0078125
        k(  107) = (   0.2500000   0.2886751  -0.0000001), wk =   0.0078125
        k(  108) = (   0.2500000   0.2886751   0.0798551), wk =   0.0078125
        k(  109) = (   0.2500000   0.2886751   0.1597103), wk =   0.0078125
        k(  110) = (   0.2499999   0.2886751   0.2395655), wk =   0.0078125
        k(  111) = (   0.2500000   0.2886752  -0.3194208), wk =   0.0078125
        k(  112) = (   0.2500000   0.2886752  -0.2395656), wk =   0.0078125
        k(  113) = (   0.2500000   0.2886752  -0.1597105), wk =   0.0078125
        k(  114) = (   0.2500000   0.2886751  -0.0798553), wk =   0.0078125
        k(  115) = (   0.2500000   0.4330127  -0.0000001), wk =   0.0078125
        k(  116) = (   0.2499999   0.4330127   0.0798551), wk =   0.0078125
        k(  117) = (   0.2499999   0.4330127   0.1597103), wk =   0.0078125
        k(  118) = (   0.2499999   0.4330126   0.2395654), wk =   0.0078125
        k(  119) = (   0.2500000   0.4330128  -0.3194209), wk =   0.0078125
        k(  120) = (   0.2500000   0.4330128  -0.2395657), wk =   0.0078125
        k(  121) = (   0.2500000   0.4330127  -0.1597105), wk =   0.0078125
        k(  122) = (   0.2500000   0.4330127  -0.0798553), wk =   0.0078125
        k(  123) = (   0.2499999   0.5773503  -0.0000001), wk =   0.0078125
        k(  124) = (   0.2499999   0.5773502   0.0798550), wk =   0.0078125
        k(  125) = (   0.2499999   0.5773502   0.1597102), wk =   0.0078125
        k(  126) = (   0.2499999   0.5773502   0.2395654), wk =   0.0078125
        k(  127) = (   0.2500000   0.5773503  -0.3194209), wk =   0.0078125
        k(  128) = (   0.2500000   0.5773503  -0.2395657), wk =   0.0078125
        k(  129) = (   0.2500000   0.5773503  -0.1597105), wk =   0.0078125
        k(  130) = (   0.2500000   0.5773503  -0.0798553), wk =   0.0078125
        k(  131) = (   0.2500000  -0.4330127   0.0000001), wk =   0.0078125
        k(  132) = (   0.2500000  -0.4330128   0.0798553), wk =   0.0078125
        k(  133) = (   0.2500000  -0.4330128   0.1597105), wk =   0.0078125
        k(  134) = (   0.2500000  -0.4330128   0.2395656), wk =   0.0078125
        k(  135) = (   0.2500001  -0.4330127  -0.3194207), wk =   0.0078125
        k(  136) = (   0.2500001  -0.4330127  -0.2395655), wk =   0.0078125
        k(  137) = (   0.2500001  -0.4330127  -0.1597103), wk =   0.0078125
        k(  138) = (   0.2500001  -0.4330127  -0.0798551), wk =   0.0078125
        k(  139) = (   0.2500000  -0.2886752   0.0000000), wk =   0.0078125
        k(  140) = (   0.2500000  -0.2886752   0.0798552), wk =   0.0078125
        k(  141) = (   0.2500000  -0.2886752   0.1597104), wk =   0.0078125
        k(  142) = (   0.2500000  -0.2886752   0.2395656), wk =   0.0078125
        k(  143) = (   0.2500001  -0.2886751  -0.3194207), wk =   0.0078125
        k(  144) = (   0.2500001  -0.2886751  -0.2395655), wk =   0.0078125
        k(  145) = (   0.2500000  -0.2886751  -0.1597103), wk =   0.0078125
        k(  146) = (   0.2500000  -0.2886752  -0.0798551), wk =   0.0078125
        k(  147) = (   0.2500000  -0.1443376   0.0000000), wk =   0.0078125
        k(  148) = (   0.2500000  -0.1443376   0.0798552), wk =   0.0078125
        k(  149) = (   0.2500000  -0.1443376   0.1597104), wk =   0.0078125
        k(  150) = (   0.2500000  -0.1443377   0.2395656), wk =   0.0078125
        k(  151) = (   0.2500000  -0.1443375  -0.3194207), wk =   0.0078125
        k(  152) = (   0.2500000  -0.1443375  -0.2395656), wk =   0.0078125
        k(  153) = (   0.2500000  -0.1443376  -0.1597104), wk =   0.0078125
        k(  154) = (   0.2500000  -0.1443376  -0.0798552), wk =   0.0078125
        k(  155) = (   0.2500000  -0.0000000  -0.0000000), wk =   0.0078125
        k(  156) = (   0.2500000  -0.0000000   0.0798552), wk =   0.0078125
        k(  157) = (   0.2500000  -0.0000001   0.1597104), wk =   0.0078125
        k(  158) = (   0.2500000  -0.0000001   0.2395655), wk =   0.0078125
        k(  159) = (   0.2500000   0.0000001  -0.3194208), wk =   0.0078125
        k(  160) = (   0.2500000   0.0000000  -0.2395656), wk =   0.0078125
        k(  161) = (   0.2500000   0.0000000  -0.1597104), wk =   0.0078125
        k(  162) = (   0.2500000  -0.0000000  -0.0798552), wk =   0.0078125
        k(  163) = (   0.3750000   0.2165063  -0.0000001), wk =   0.0078125
        k(  164) = (   0.3750000   0.2165063   0.0798551), wk =   0.0078125
        k(  165) = (   0.3750000   0.2165063   0.1597103), wk =   0.0078125
        k(  166) = (   0.3750000   0.2165063   0.2395655), wk =   0.0078125
        k(  167) = (   0.3750000   0.2165064  -0.3194208), wk =   0.0078125
        k(  168) = (   0.3750000   0.2165064  -0.2395656), wk =   0.0078125
        k(  169) = (   0.3750000   0.2165064  -0.1597105), wk =   0.0078125
        k(  170) = (   0.3750000   0.2165063  -0.0798553), wk =   0.0078125
        k(  171) = (   0.3750000   0.3608439  -0.0000001), wk =   0.0078125
        k(  172) = (   0.3750000   0.3608439   0.0798551), wk =   0.0078125
        k(  173) = (   0.3749999   0.3608439   0.1597103), wk =   0.0078125
        k(  174) = (   0.3749999   0.3608438   0.2395655), wk =   0.0078125
        k(  175) = (   0.3750000   0.3608440  -0.3194209), wk =   0.0078125
        k(  176) = (   0.3750000   0.3608440  -0.2395657), wk =   0.0078125
        k(  177) = (   0.3750000   0.3608439  -0.1597105), wk =   0.0078125
        k(  178) = (   0.3750000   0.3608439  -0.0798553), wk =   0.0078125
        k(  179) = (   0.3750000   0.5051815  -0.0000001), wk =   0.0078125
        k(  180) = (   0.3749999   0.5051815   0.0798550), wk =   0.0078125
        k(  181) = (   0.3749999   0.5051814   0.1597102), wk =   0.0078125
        k(  182) = (   0.3749999   0.5051814   0.2395654), wk =   0.0078125
        k(  183) = (   0.3750000   0.5051815  -0.3194209), wk =   0.0078125
        k(  184) = (   0.3750000   0.5051815  -0.2395657), wk =   0.0078125
        k(  185) = (   0.3750000   0.5051815  -0.1597105), wk =   0.0078125
        k(  186) = (   0.3750000   0.5051815  -0.0798553), wk =   0.0078125
        k(  187) = (   0.3749999   0.6495190  -0.0000002), wk =   0.0078125
        k(  188) = (   0.3749999   0.6495190   0.0798550), wk =   0.0078125
        k(  189) = (   0.3749999   0.6495190   0.1597102), wk =   0.0078125
        k(  190) = (   0.3749999   0.6495190   0.2395654), wk =   0.0078125
        k(  191) = (   0.3750000   0.6495191  -0.3194209), wk =   0.0078125
        k(  192) = (   0.3750000   0.6495191  -0.2395657), wk =   0.0078125
        k(  193) = (   0.3750000   0.6495191  -0.1597106), wk =   0.0078125
        k(  194) = (   0.3749999   0.6495191  -0.0798554), wk =   0.0078125
        k(  195) = (   0.3750000  -0.3608440   0.0000000), wk =   0.0078125
        k(  196) = (   0.3750000  -0.3608440   0.0798552), wk =   0.0078125
        k(  197) = (   0.3750000  -0.3608440   0.1597104), wk =   0.0078125
        k(  198) = (   0.3750000  -0.3608440   0.2395656), wk =   0.0078125
        k(  199) = (   0.3750001  -0.3608439  -0.3194207), wk =   0.0078125
        k(  200) = (   0.3750001  -0.3608439  -0.2395655), wk =   0.0078125
        k(  201) = (   0.3750001  -0.3608439  -0.1597103), wk =   0.0078125
        k(  202) = (   0.3750000  -0.3608440  -0.0798551), wk =   0.0078125
        k(  203) = (   0.3750000  -0.2165064   0.0000000), wk =   0.0078125
        k(  204) = (   0.3750000  -0.2165064   0.0798552), wk =   0.0078125
        k(  205) = (   0.3750000  -0.2165064   0.1597104), wk =   0.0078125
        k(  206) = (   0.3750000  -0.2165065   0.2395656), wk =   0.0078125
        k(  207) = (   0.3750001  -0.2165063  -0.3194207), wk =   0.0078125
        k(  208) = (   0.3750000  -0.2165063  -0.2395655), wk =   0.0078125
        k(  209) = (   0.3750000  -0.2165064  -0.1597104), wk =   0.0078125
        k(  210) = (   0.3750000  -0.2165064  -0.0798552), wk =   0.0078125
        k(  211) = (   0.3750000  -0.0721688  -0.0000000), wk =   0.0078125
        k(  212) = (   0.3750000  -0.0721688   0.0798552), wk =   0.0078125
        k(  213) = (   0.3750000  -0.0721689   0.1597104), wk =   0.0078125
        k(  214) = (   0.3750000  -0.0721689   0.2395655), wk =   0.0078125
        k(  215) = (   0.3750000  -0.0721687  -0.3194208), wk =   0.0078125
        k(  216) = (   0.3750000  -0.0721688  -0.2395656), wk =   0.0078125
        k(  217) = (   0.3750000  -0.0721688  -0.1597104), wk =   0.0078125
        k(  218) = (   0.3750000  -0.0721688  -0.0798552), wk =   0.0078125
        k(  219) = (   0.3750000   0.0721688  -0.0000000), wk =   0.0078125
        k(  220) = (   0.3750000   0.0721687   0.0798551), wk =   0.0078125
        k(  221) = (   0.3750000   0.0721687   0.1597103), wk =   0.0078125
        k(  222) = (   0.3750000   0.0721687   0.2395655), wk =   0.0078125
        k(  223) = (   0.3750000   0.0721688  -0.3194208), wk =   0.0078125
        k(  224) = (   0.3750000   0.0721688  -0.2395656), wk =   0.0078125
        k(  225) = (   0.3750000   0.0721688  -0.1597104), wk =   0.0078125
        k(  226) = (   0.3750000   0.0721688  -0.0798552), wk =   0.0078125
        k(  227) = (  -0.5000000  -0.2886751   0.0000001), wk =   0.0039062
        k(  228) = (  -0.5000000  -0.2886751   0.0798553), wk =   0.0078125
        k(  229) = (  -0.5000000  -0.2886751   0.1597105), wk =   0.0078125
        k(  230) = (  -0.5000000  -0.2886752   0.2395657), wk =   0.0078125
        k(  231) = (  -0.4999999  -0.2886750  -0.3194206), wk =   0.0039062
        k(  232) = (  -0.5000000  -0.1443375   0.0000001), wk =   0.0078125
        k(  233) = (  -0.5000000  -0.1443375   0.0798553), wk =   0.0078125
        k(  234) = (  -0.5000000  -0.1443376   0.1597105), wk =   0.0078125
        k(  235) = (  -0.5000000  -0.1443376   0.2395656), wk =   0.0078125
        k(  236) = (  -0.5000000  -0.1443374  -0.3194207), wk =   0.0078125
        k(  237) = (  -0.5000000  -0.1443375  -0.2395655), wk =   0.0078125
        k(  238) = (  -0.5000000  -0.1443375  -0.1597103), wk =   0.0078125
        k(  239) = (  -0.5000000  -0.1443375  -0.0798551), wk =   0.0078125
        k(  240) = (  -0.5000000   0.0000000   0.0000000), wk =   0.0078125
        k(  241) = (  -0.5000000   0.0000000   0.0798552), wk =   0.0078125
        k(  242) = (  -0.5000000   0.0000000   0.1597104), wk =   0.0078125
        k(  243) = (  -0.5000000  -0.0000000   0.2395656), wk =   0.0078125
        k(  244) = (  -0.5000000   0.0000001  -0.3194207), wk =   0.0078125
        k(  245) = (  -0.5000000   0.0000001  -0.2395655), wk =   0.0078125
        k(  246) = (  -0.5000000   0.0000001  -0.1597103), wk =   0.0078125
        k(  247) = (  -0.5000000   0.0000001  -0.0798551), wk =   0.0078125
        k(  248) = (  -0.5000000   0.1443376   0.0000000), wk =   0.0078125
        k(  249) = (  -0.5000000   0.1443376   0.0798552), wk =   0.0078125
        k(  250) = (  -0.5000000   0.1443376   0.1597104), wk =   0.0078125
        k(  251) = (  -0.5000000   0.1443376   0.2395656), wk =   0.0078125
        k(  252) = (  -0.5000000   0.1443377  -0.3194207), wk =   0.0078125
        k(  253) = (  -0.5000000   0.1443377  -0.2395656), wk =   0.0078125
        k(  254) = (  -0.5000000   0.1443377  -0.1597104), wk =   0.0078125
        k(  255) = (  -0.5000000   0.1443376  -0.0798552), wk =   0.0078125
        k(  256) = (  -0.4999999  -0.8660254   0.0000002), wk =   0.0039062
        k(  257) = (  -0.4999999  -0.8660254   0.0798554), wk =   0.0078125
        k(  258) = (  -0.4999999  -0.8660254   0.1597106), wk =   0.0078125
        k(  259) = (  -0.4999999  -0.8660254   0.2395658), wk =   0.0078125
        k(  260) = (  -0.4999999  -0.8660253  -0.3194205), wk =   0.0039062

                       cryst. coord.
        k(    1) = (   0.0000000   0.0000000   0.0000000), wk =   0.0039062
        k(    2) = (  -0.0000000  -0.0000000   0.1250000), wk =   0.0078125
        k(    3) = (  -0.0000000  -0.0000000   0.2500000), wk =   0.0078125
        k(    4) = (  -0.0000000  -0.0000000   0.3750000), wk =   0.0078125
        k(    5) = (   0.0000000   0.0000000  -0.5000000), wk =   0.0039062
        k(    6) = (  -0.0000000   0.1250000  -0.0000000), wk =   0.0078125
        k(    7) = (  -0.0000000   0.1250000   0.1250000), wk =   0.0078125
        k(    8) = (   0.0000000   0.1250000   0.2500000), wk =   0.0078125
        k(    9) = (  -0.0000000   0.1250000   0.3750000), wk =   0.0078125
        k(   10) = (   0.0000000   0.1250000  -0.5000000), wk =   0.0078125
        k(   11) = (   0.0000000   0.1250000  -0.3750000), wk =   0.0078125
        k(   12) = (  -0.0000000   0.1250000  -0.2500000), wk =   0.0078125
        k(   13) = (   0.0000000   0.1250000  -0.1250000), wk =   0.0078125
        k(   14) = (  -0.0000000   0.2500000  -0.0000000), wk =   0.0078125
        k(   15) = (  -0.0000000   0.2500000   0.1250000), wk =   0.0078125
        k(   16) = (  -0.0000000   0.2500000   0.2500000), wk =   0.0078125
        k(   17) = (   0.0000000   0.2500000   0.3750000), wk =   0.0078125
        k(   18) = (  -0.0000000   0.2500000  -0.5000000), wk =   0.0078125
        k(   19) = (   0.0000000   0.2500000  -0.3750000), wk =   0.0078125
        k(   20) = (   0.0000000   0.2500000  -0.2500000), wk =   0.0078125
        k(   21) = (   0.0000000   0.2500000  -0.1250000), wk =   0.0078125
        k(   22) = (  -0.0000000   0.3750000  -0.0000000), wk =   0.0078125
        k(   23) = (  -0.0000000   0.3750000   0.1250000), wk =   0.0078125
        k(   24) = (   0.0000000   0.3750000   0.2500000), wk =   0.0078125
        k(   25) = (  -0.0000000   0.3750000   0.3750000), wk =   0.0078125
        k(   26) = (  -0.0000000   0.3750000  -0.5000000), wk =   0.0078125
        k(   27) = (  -0.0000000   0.3750000  -0.3750000), wk =   0.0078125
        k(   28) = (   0.0000000   0.3750000  -0.2500000), wk =   0.0078125
        k(   29) = (  -0.0000000   0.3750000  -0.1250000), wk =   0.0078125
        k(   30) = (   0.0000000  -0.5000000   0.0000000), wk =   0.0039062
        k(   31) = (   0.0000000  -0.5000000   0.1250000), wk =   0.0078125
        k(   32) = (  -0.0000000  -0.5000000   0.2500000), wk =   0.0078125
        k(   33) = (  -0.0000000  -0.5000000   0.3750000), wk =   0.0078125
        k(   34) = (   0.0000000  -0.5000000  -0.5000000), wk =   0.0039062
        k(   35) = (   0.1250000  -0.0000000  -0.0000000), wk =   0.0078125
        k(   36) = (   0.1250000   0.0000000   0.1250000), wk =   0.0078125
        k(   37) = (   0.1250000   0.0000000   0.2500000), wk =   0.0078125
        k(   38) = (   0.1250000   0.0000000   0.3750000), wk =   0.0078125
        k(   39) = (   0.1250000   0.0000000  -0.5000000), wk =   0.0078125
        k(   40) = (   0.1250000  -0.0000000  -0.3750000), wk =   0.0078125
        k(   41) = (   0.1250000  -0.0000000  -0.2500000), wk =   0.0078125
        k(   42) = (   0.1250000   0.0000000  -0.1250000), wk =   0.0078125
        k(   43) = (   0.1250000   0.1250000  -0.0000000), wk =   0.0078125
        k(   44) = (   0.1250000   0.1250000   0.1250000), wk =   0.0078125
        k(   45) = (   0.1250000   0.1250000   0.2500000), wk =   0.0078125
        k(   46) = (   0.1250000   0.1250000   0.3750000), wk =   0.0078125
        k(   47) = (   0.1250000   0.1250000  -0.5000000), wk =   0.0078125
        k(   48) = (   0.1250000   0.1250000  -0.3750000), wk =   0.0078125
        k(   49) = (   0.1250000   0.1250000  -0.2500000), wk =   0.0078125
        k(   50) = (   0.1250000   0.1250000  -0.1250000), wk =   0.0078125
        k(   51) = (   0.1250000   0.2500000   0.0000000), wk =   0.0078125
        k(   52) = (   0.1250000   0.2500000   0.1250000), wk =   0.0078125
        k(   53) = (   0.1250000   0.2500000   0.2500000), wk =   0.0078125
        k(   54) = (   0.1250000   0.2500000   0.3750000), wk =   0.0078125
        k(   55) = (   0.1250000   0.2500000  -0.5000000), wk =   0.0078125
        k(   56) = (   0.1250000   0.2500000  -0.3750000), wk =   0.0078125
        k(   57) = (   0.1250000   0.2500000  -0.2500000), wk =   0.0078125
        k(   58) = (   0.1250000   0.2500000  -0.1250000), wk =   0.0078125
        k(   59) = (   0.1250000   0.3750000  -0.0000000), wk =   0.0078125
        k(   60) = (   0.1250000   0.3750000   0.1250000), wk =   0.0078125
        k(   61) = (   0.1250000   0.3750000   0.2500000), wk =   0.0078125
        k(   62) = (   0.1250000   0.3750000   0.3750000), wk =   0.0078125
        k(   63) = (   0.1250000   0.3750000  -0.5000000), wk =   0.0078125
        k(   64) = (   0.1250000   0.3750000  -0.3750000), wk =   0.0078125
        k(   65) = (   0.1250000   0.3750000  -0.2500000), wk =   0.0078125
        k(   66) = (   0.1250000   0.3750000  -0.1250000), wk =   0.0078125
        k(   67) = (   0.1250000  -0.5000000   0.0000000), wk =   0.0078125
        k(   68) = (   0.1250000  -0.5000000   0.1250000), wk =   0.0078125
        k(   69) = (   0.1250000  -0.5000000   0.2500000), wk =   0.0078125
        k(   70) = (   0.1250000  -0.5000000   0.3750000), wk =   0.0078125
        k(   71) = (   0.1250000  -0.5000000  -0.5000000), wk =   0.0078125
        k(   72) = (   0.1250000  -0.5000000  -0.3750000), wk =   0.0078125
        k(   73) = (   0.1250000  -0.5000000  -0.2500000), wk =   0.0078125
        k(   74) = (   0.1250000  -0.5000000  -0.1250000), wk =   0.0078125
        k(   75) = (   0.1250000  -0.3750000   0.0000000), wk =   0.0078125
        k(   76) = (   0.1250000  -0.3750000   0.1250000), wk =   0.0078125
        k(   77) = (   0.1250000  -0.3750000   0.2500000), wk =   0.0078125
        k(   78) = (   0.1250000  -0.3750000   0.3750000), wk =   0.0078125
        k(   79) = (   0.1250000  -0.3750000  -0.5000000), wk =   0.0078125
        k(   80) = (   0.1250000  -0.3750000  -0.3750000), wk =   0.0078125
        k(   81) = (   0.1250000  -0.3750000  -0.2500000), wk =   0.0078125
        k(   82) = (   0.1250000  -0.3750000  -0.1250000), wk =   0.0078125
        k(   83) = (   0.1250000  -0.2500000   0.0000000), wk =   0.0078125
        k(   84) = (   0.1250000  -0.2500000   0.1250000), wk =   0.0078125
        k(   85) = (   0.1250000  -0.2500000   0.2500000), wk =   0.0078125
        k(   86) = (   0.1250000  -0.2500000   0.3750000), wk =   0.0078125
        k(   87) = (   0.1250000  -0.2500000  -0.5000000), wk =   0.0078125
        k(   88) = (   0.1250000  -0.2500000  -0.3750000), wk =   0.0078125
        k(   89) = (   0.1250000  -0.2500000  -0.2500000), wk =   0.0078125
        k(   90) = (   0.1250000  -0.2500000  -0.1250000), wk =   0.0078125
        k(   91) = (   0.1250000  -0.1250000  -0.0000000), wk =   0.0078125
        k(   92) = (   0.1250000  -0.1250000   0.1250000), wk =   0.0078125
        k(   93) = (   0.1250000  -0.1250000   0.2500000), wk =   0.0078125
        k(   94) = (   0.1250000  -0.1250000   0.3750000), wk =   0.0078125
        k(   95) = (   0.1250000  -0.1250000  -0.5000000), wk =   0.0078125
        k(   96) = (   0.1250000  -0.1250000  -0.3750000), wk =   0.0078125
        k(   97) = (   0.1250000  -0.1250000  -0.2500000), wk =   0.0078125
        k(   98) = (   0.1250000  -0.1250000  -0.1250000), wk =   0.0078125
        k(   99) = (   0.2500000  -0.0000000  -0.0000000), wk =   0.0078125
        k(  100) = (   0.2500000   0.0000000   0.1250000), wk =   0.0078125
        k(  101) = (   0.2500000   0.0000000   0.2500000), wk =   0.0078125
        k(  102) = (   0.2500000   0.0000000   0.3750000), wk =   0.0078125
        k(  103) = (   0.2500000  -0.0000000  -0.5000000), wk =   0.0078125
        k(  104) = (   0.2500000  -0.0000000  -0.3750000), wk =   0.0078125
        k(  105) = (   0.2500000   0.0000000  -0.2500000), wk =   0.0078125
        k(  106) = (   0.2500000   0.0000000  -0.1250000), wk =   0.0078125
        k(  107) = (   0.2500000   0.1250000  -0.0000000), wk =   0.0078125
        k(  108) = (   0.2500000   0.1250000   0.1250000), wk =   0.0078125
        k(  109) = (   0.2500000   0.1250000   0.2500000), wk =   0.0078125
        k(  110) = (   0.2500000   0.1250000   0.3750000), wk =   0.0078125
        k(  111) = (   0.2500000   0.1250000  -0.5000000), wk =   0.0078125
        k(  112) = (   0.2500000   0.1250000  -0.3750000), wk =   0.0078125
        k(  113) = (   0.2500000   0.1250000  -0.2500000), wk =   0.0078125
        k(  114) = (   0.2500000   0.1250000  -0.1250000), wk =   0.0078125
        k(  115) = (   0.2500000   0.2500000  -0.0000000), wk =   0.0078125
        k(  116) = (   0.2500000   0.2500000   0.1250000), wk =   0.0078125
        k(  117) = (   0.2500000   0.2500000   0.2500000), wk =   0.0078125
        k(  118) = (   0.2500000   0.2500000   0.3750000), wk =   0.0078125
        k(  119) = (   0.2500000   0.2500000  -0.5000000), wk =   0.0078125
        k(  120) = (   0.2500000   0.2500000  -0.3750000), wk =   0.0078125
        k(  121) = (   0.2500000   0.2500000  -0.2500000), wk =   0.0078125
        k(  122) = (   0.2500000   0.2500000  -0.1250000), wk =   0.0078125
        k(  123) = (   0.2500000   0.3750000  -0.0000000), wk =   0.0078125
        k(  124) = (   0.2500000   0.3750000   0.1250000), wk =   0.0078125
        k(  125) = (   0.2500000   0.3750000   0.2500000), wk =   0.0078125
        k(  126) = (   0.2500000   0.3750000   0.3750000), wk =   0.0078125
        k(  127) = (   0.2500000   0.3750000  -0.5000000), wk =   0.0078125
        k(  128) = (   0.2500000   0.3750000  -0.3750000), wk =   0.0078125
        k(  129) = (   0.2500000   0.3750000  -0.2500000), wk =   0.0078125
        k(  130) = (   0.2500000   0.3750000  -0.1250000), wk =   0.0078125
        k(  131) = (   0.2500000  -0.5000000   0.0000000), wk =   0.0078125
        k(  132) = (   0.2500000  -0.5000000   0.1250000), wk =   0.0078125
        k(  133) = (   0.2500000  -0.5000000   0.2500000), wk =   0.0078125
        k(  134) = (   0.2500000  -0.5000000   0.3750000), wk =   0.0078125
        k(  135) = (   0.2500000  -0.5000000  -0.5000000), wk =   0.0078125
        k(  136) = (   0.2500000  -0.5000000  -0.3750000), wk =   0.0078125
        k(  137) = (   0.2500000  -0.5000000  -0.2500000), wk =   0.0078125
        k(  138) = (   0.2500000  -0.5000000  -0.1250000), wk =   0.0078125
        k(  139) = (   0.2500000  -0.3750000   0.0000000), wk =   0.0078125
        k(  140) = (   0.2500000  -0.3750000   0.1250000), wk =   0.0078125
        k(  141) = (   0.2500000  -0.3750000   0.2500000), wk =   0.0078125
        k(  142) = (   0.2500000  -0.3750000   0.3750000), wk =   0.0078125
        k(  143) = (   0.2500000  -0.3750000  -0.5000000), wk =   0.0078125
        k(  144) = (   0.2500000  -0.3750000  -0.3750000), wk =   0.0078125
        k(  145) = (   0.2500000  -0.3750000  -0.2500000), wk =   0.0078125
        k(  146) = (   0.2500000  -0.3750000  -0.1250000), wk =   0.0078125
        k(  147) = (   0.2500000  -0.2500000  -0.0000000), wk =   0.0078125
        k(  148) = (   0.2500000  -0.2500000   0.1250000), wk =   0.0078125
        k(  149) = (   0.2500000  -0.2500000   0.2500000), wk =   0.0078125
        k(  150) = (   0.2500000  -0.2500000   0.3750000), wk =   0.0078125
        k(  151) = (   0.2500000  -0.2500000  -0.5000000), wk =   0.0078125
        k(  152) = (   0.2500000  -0.2500000  -0.3750000), wk =   0.0078125
        k(  153) = (   0.2500000  -0.2500000  -0.2500000), wk =   0.0078125
        k(  154) = (   0.2500000  -0.2500000  -0.1250000), wk =   0.0078125
        k(  155) = (   0.2500000  -0.1250000  -0.0000000), wk =   0.0078125
        k(  156) = (   0.2500000  -0.1250000   0.1250000), wk =   0.0078125
        k(  157) = (   0.2500000  -0.1250000   0.2500000), wk =   0.0078125
        k(  158) = (   0.2500000  -0.1250000   0.3750000), wk =   0.0078125
        k(  159) = (   0.2500000  -0.1250000  -0.5000000), wk =   0.0078125
        k(  160) = (   0.2500000  -0.1250000  -0.3750000), wk =   0.0078125
        k(  161) = (   0.2500000  -0.1250000  -0.2500000), wk =   0.0078125
        k(  162) = (   0.2500000  -0.1250000  -0.1250000), wk =   0.0078125
        k(  163) = (   0.3750000  -0.0000000  -0.0000000), wk =   0.0078125
        k(  164) = (   0.3750000   0.0000000   0.1250000), wk =   0.0078125
        k(  165) = (   0.3750000   0.0000000   0.2500000), wk =   0.0078125
        k(  166) = (   0.3750000  -0.0000000   0.3750000), wk =   0.0078125
        k(  167) = (   0.3750000  -0.0000000  -0.5000000), wk =   0.0078125
        k(  168) = (   0.3750000   0.0000000  -0.3750000), wk =   0.0078125
        k(  169) = (   0.3750000   0.0000000  -0.2500000), wk =   0.0078125
        k(  170) = (   0.3750000   0.0000000  -0.1250000), wk =   0.0078125
        k(  171) = (   0.3750000   0.1250000  -0.0000000), wk =   0.0078125
        k(  172) = (   0.3750000   0.1250000   0.1250000), wk =   0.0078125
        k(  173) = (   0.3750000   0.1250000   0.2500000), wk =   0.0078125
        k(  174) = (   0.3750000   0.1250000   0.3750000), wk =   0.0078125
        k(  175) = (   0.3750000   0.1250000  -0.5000000), wk =   0.0078125
        k(  176) = (   0.3750000   0.1250000  -0.3750000), wk =   0.0078125
        k(  177) = (   0.3750000   0.1250000  -0.2500000), wk =   0.0078125
        k(  178) = (   0.3750000   0.1250000  -0.1250000), wk =   0.0078125
        k(  179) = (   0.3750000   0.2500000  -0.0000000), wk =   0.0078125
        k(  180) = (   0.3750000   0.2500000   0.1250000), wk =   0.0078125
        k(  181) = (   0.3750000   0.2500000   0.2500000), wk =   0.0078125
        k(  182) = (   0.3750000   0.2500000   0.3750000), wk =   0.0078125
        k(  183) = (   0.3750000   0.2500000  -0.5000000), wk =   0.0078125
        k(  184) = (   0.3750000   0.2500000  -0.3750000), wk =   0.0078125
        k(  185) = (   0.3750000   0.2500000  -0.2500000), wk =   0.0078125
        k(  186) = (   0.3750000   0.2500000  -0.1250000), wk =   0.0078125
        k(  187) = (   0.3750000   0.3750000  -0.0000000), wk =   0.0078125
        k(  188) = (   0.3750000   0.3750000   0.1250000), wk =   0.0078125
        k(  189) = (   0.3750000   0.3750000   0.2500000), wk =   0.0078125
        k(  190) = (   0.3750000   0.3750000   0.3750000), wk =   0.0078125
        k(  191) = (   0.3750000   0.3750000  -0.5000000), wk =   0.0078125
        k(  192) = (   0.3750000   0.3750000  -0.3750000), wk =   0.0078125
        k(  193) = (   0.3750000   0.3750000  -0.2500000), wk =   0.0078125
        k(  194) = (   0.3750000   0.3750000  -0.1250000), wk =   0.0078125
        k(  195) = (   0.3750000  -0.5000000   0.0000000), wk =   0.0078125
        k(  196) = (   0.3750000  -0.5000000   0.1250000), wk =   0.0078125
        k(  197) = (   0.3750000  -0.5000000   0.2500000), wk =   0.0078125
        k(  198) = (   0.3750000  -0.5000000   0.3750000), wk =   0.0078125
        k(  199) = (   0.3750000  -0.5000000  -0.5000000), wk =   0.0078125
        k(  200) = (   0.3750000  -0.5000000  -0.3750000), wk =   0.0078125
        k(  201) = (   0.3750000  -0.5000000  -0.2500000), wk =   0.0078125
        k(  202) = (   0.3750000  -0.5000000  -0.1250000), wk =   0.0078125
        k(  203) = (   0.3750000  -0.3750000   0.0000000), wk =   0.0078125
        k(  204) = (   0.3750000  -0.3750000   0.1250000), wk =   0.0078125
        k(  205) = (   0.3750000  -0.3750000   0.2500000), wk =   0.0078125
        k(  206) = (   0.3750000  -0.3750000   0.3750000), wk =   0.0078125
        k(  207) = (   0.3750000  -0.3750000  -0.5000000), wk =   0.0078125
        k(  208) = (   0.3750000  -0.3750000  -0.3750000), wk =   0.0078125
        k(  209) = (   0.3750000  -0.3750000  -0.2500000), wk =   0.0078125
        k(  210) = (   0.3750000  -0.3750000  -0.1250000), wk =   0.0078125
        k(  211) = (   0.3750000  -0.2500000  -0.0000000), wk =   0.0078125
        k(  212) = (   0.3750000  -0.2500000   0.1250000), wk =   0.0078125
        k(  213) = (   0.3750000  -0.2500000   0.2500000), wk =   0.0078125
        k(  214) = (   0.3750000  -0.2500000   0.3750000), wk =   0.0078125
        k(  215) = (   0.3750000  -0.2500000  -0.5000000), wk =   0.0078125
        k(  216) = (   0.3750000  -0.2500000  -0.3750000), wk =   0.0078125
        k(  217) = (   0.3750000  -0.2500000  -0.2500000), wk =   0.0078125
        k(  218) = (   0.3750000  -0.2500000  -0.1250000), wk =   0.0078125
        k(  219) = (   0.3750000  -0.1250000  -0.0000000), wk =   0.0078125
        k(  220) = (   0.3750000  -0.1250000   0.1250000), wk =   0.0078125
        k(  221) = (   0.3750000  -0.1250000   0.2500000), wk =   0.0078125
        k(  222) = (   0.3750000  -0.1250000   0.3750000), wk =   0.0078125
        k(  223) = (   0.3750000  -0.1250000  -0.5000000), wk =   0.0078125
        k(  224) = (   0.3750000  -0.1250000  -0.3750000), wk =   0.0078125
        k(  225) = (   0.3750000  -0.1250000  -0.2500000), wk =   0.0078125
        k(  226) = (   0.3750000  -0.1250000  -0.1250000), wk =   0.0078125
        k(  227) = (  -0.5000000   0.0000000   0.0000000), wk =   0.0039062
        k(  228) = (  -0.5000000  -0.0000000   0.1250000), wk =   0.0078125
        k(  229) = (  -0.5000000  -0.0000000   0.2500000), wk =   0.0078125
        k(  230) = (  -0.5000000  -0.0000000   0.3750000), wk =   0.0078125
        k(  231) = (  -0.5000000  -0.0000000  -0.5000000), wk =   0.0039062
        k(  232) = (  -0.5000000   0.1250000   0.0000000), wk =   0.0078125
        k(  233) = (  -0.5000000   0.1250000   0.1250000), wk =   0.0078125
        k(  234) = (  -0.5000000   0.1250000   0.2500000), wk =   0.0078125
        k(  235) = (  -0.5000000   0.1250000   0.3750000), wk =   0.0078125
        k(  236) = (  -0.5000000   0.1250000  -0.5000000), wk =   0.0078125
        k(  237) = (  -0.5000000   0.1250000  -0.3750000), wk =   0.0078125
        k(  238) = (  -0.5000000   0.1250000  -0.2500000), wk =   0.0078125
        k(  239) = (  -0.5000000   0.1250000  -0.1250000), wk =   0.0078125
        k(  240) = (  -0.5000000   0.2500000   0.0000000), wk =   0.0078125
        k(  241) = (  -0.5000000   0.2500000   0.1250000), wk =   0.0078125
        k(  242) = (  -0.5000000   0.2500000   0.2500000), wk =   0.0078125
        k(  243) = (  -0.5000000   0.2500000   0.3750000), wk =   0.0078125
        k(  244) = (  -0.5000000   0.2500000  -0.5000000), wk =   0.0078125
        k(  245) = (  -0.5000000   0.2500000  -0.3750000), wk =   0.0078125
        k(  246) = (  -0.5000000   0.2500000  -0.2500000), wk =   0.0078125
        k(  247) = (  -0.5000000   0.2500000  -0.1250000), wk =   0.0078125
        k(  248) = (  -0.5000000   0.3750000  -0.0000000), wk =   0.0078125
        k(  249) = (  -0.5000000   0.3750000   0.1250000), wk =   0.0078125
        k(  250) = (  -0.5000000   0.3750000   0.2500000), wk =   0.0078125
        k(  251) = (  -0.5000000   0.3750000   0.3750000), wk =   0.0078125
        k(  252) = (  -0.5000000   0.3750000  -0.5000000), wk =   0.0078125
        k(  253) = (  -0.5000000   0.3750000  -0.3750000), wk =   0.0078125
        k(  254) = (  -0.5000000   0.3750000  -0.2500000), wk =   0.0078125
        k(  255) = (  -0.5000000   0.3750000  -0.1250000), wk =   0.0078125
        k(  256) = (  -0.5000000  -0.5000000   0.0000000), wk =   0.0039062
        k(  257) = (  -0.5000000  -0.5000000   0.1250000), wk =   0.0078125
        k(  258) = (  -0.5000000  -0.5000000   0.2500000), wk =   0.0078125
        k(  259) = (  -0.5000000  -0.5000000   0.3750000), wk =   0.0078125
        k(  260) = (  -0.5000000  -0.5000000  -0.5000000), wk =   0.0039062

     Dense  grid:    79263 G-vectors     FFT dimensions: (  50,  50,  75)

     Smooth grid:    30973 G-vectors     FFT dimensions: (  36,  36,  60)

     Dynamical RAM for                 wfc:       0.08 MB

     Dynamical RAM for     wfc (w. buffer):       5.10 MB

     Dynamical RAM for           str. fact:       0.23 MB

     Dynamical RAM for           local pot:       0.00 MB

     Dynamical RAM for          nlocal pot:       0.23 MB

     Dynamical RAM for                qrad:       7.73 MB

     Dynamical RAM for          rho,v,vnew:       0.51 MB

     Dynamical RAM for               rhoin:       0.17 MB

     Dynamical RAM for            rho*nmix:       1.21 MB

     Dynamical RAM for           G-vectors:       0.30 MB

     Dynamical RAM for          h,s,v(r/c):       0.08 MB

     Dynamical RAM for          <psi|beta>:       0.02 MB

     Dynamical RAM for                 psi:       0.31 MB

     Dynamical RAM for                hpsi:       0.31 MB

     Dynamical RAM for                spsi:       0.31 MB

     Dynamical RAM for      wfcinit/wfcrot:       0.21 MB

     Dynamical RAM for           addusdens:       3.97 MB

     Dynamical RAM for          addusforce:       4.12 MB

     Dynamical RAM for         addusstress:       4.19 MB

     Estimated static dynamical RAM per process >      16.26 MB

     Estimated max dynamical RAM per process >      20.44 MB

     Estimated total dynamical RAM >       1.28 GB

     Check: negative core charge=   -0.000003

     Initial potential from superposition of free atoms

     starting charge   41.69964, renormalised to   42.00000
     Starting wfcs are   26 randomized atomic wfcs

     total cpu time spent up to now is        1.5 secs

     Self-consistent Calculation

     iteration #  1     ecut=    80.00 Ry     beta= 0.50
     Davidson diagonalization with overlap
     ethr =  1.00E-02,  avg # of iterations =  2.0

     total cpu time spent up to now is        2.3 secs

     total energy              =    -650.62393781 Ry
     Harris-Foulkes estimate   =    -651.46364267 Ry
     estimated scf accuracy    <       1.25955417 Ry

     iteration #  2     ecut=    80.00 Ry     beta= 0.50
     Davidson diagonalization with overlap
     ethr =  3.00E-03,  avg # of iterations =  3.0

     total cpu time spent up to now is        3.3 secs

     total energy              =    -651.01719298 Ry
     Harris-Foulkes estimate   =    -651.30486359 Ry
     estimated scf accuracy    <       0.65988508 Ry

     iteration #  3     ecut=    80.00 Ry     beta= 0.50
     Davidson diagonalization with overlap
     ethr =  1.57E-03,  avg # of iterations =  2.0

     total cpu time spent up to now is        4.2 secs

     total energy              =    -651.12985829 Ry
     Harris-Foulkes estimate   =    -651.13302582 Ry
     estimated scf accuracy    <       0.00991572 Ry

     iteration #  4     ecut=    80.00 Ry     beta= 0.50
     Davidson diagonalization with overlap
     ethr =  2.36E-05,  avg # of iterations =  2.0

     total cpu time spent up to now is        5.1 secs

     total energy              =    -651.13090367 Ry
     Harris-Foulkes estimate   =    -651.13112226 Ry
     estimated scf accuracy    <       0.00059740 Ry

     iteration #  5     ecut=    80.00 Ry     beta= 0.50
     Davidson diagonalization with overlap
     ethr =  1.42E-06,  avg # of iterations =  2.0

     total cpu time spent up to now is        5.9 secs

     total energy              =    -651.13101566 Ry
     Harris-Foulkes estimate   =    -651.13100788 Ry
     estimated scf accuracy    <       0.00004369 Ry

     iteration #  6     ecut=    80.00 Ry     beta= 0.50
     Davidson diagonalization with overlap
     ethr =  1.04E-07,  avg # of iterations =  2.3

     total cpu time spent up to now is        6.8 secs

     total energy              =    -651.13101995 Ry
     Harris-Foulkes estimate   =    -651.13102041 Ry
     estimated scf accuracy    <       0.00000801 Ry

     iteration #  7     ecut=    80.00 Ry     beta= 0.50
     Davidson diagonalization with overlap
     ethr =  1.91E-08,  avg # of iterations =  3.0

     total cpu time spent up to now is        7.8 secs

     total energy              =    -651.13102179 Ry
     Harris-Foulkes estimate   =    -651.13102218 Ry
     estimated scf accuracy    <       0.00000284 Ry

     iteration #  8     ecut=    80.00 Ry     beta= 0.50
     Davidson diagonalization with overlap
     ethr =  6.77E-09,  avg # of iterations =  2.6

     total cpu time spent up to now is        8.7 secs

     End of self-consistent calculation

          k = 0.0000 0.0000 0.0000 (  3861 PWs)   bands (ev):

  -115.8808 -70.2454 -70.2344 -70.2344 -65.3139 -32.3090 -32.2812 -32.2812
   -10.4499  -9.5253   1.5907   1.5907   1.9987   2.5016   2.7094   2.7094
     5.5817   5.5817   6.6704   6.8763   6.8763

     occupation numbers 
     1.0000   1.0000   1.0000   1.0000   1.0000   1.0000   1.0000   1.0000
     1.0000   1.0000   1.0000   1.0000   1.0000   1.0000   1.0000   1.0000
     1.0000   1.0000   1.0000   1.0000   1.0000

          k =-0.0000-0.0000 0.0799 (  3891 PWs)   bands (ev):

  -115.8808 -70.2455 -70.2344 -70.2344 -65.3139 -32.3090 -32.2812 -32.2812
   -10.4264  -9.5524   1.5904   1.5904   1.8894   2.6576   2.7063   2.7063
     5.5944   5.5944   6.4438   6.8688   6.8688

     occupation numbers 
     1.0000   1.0000   1.0000   1.0000   1.0000   1.0000   1.0000   1.0000
     1.0000   1.0000   1.0000   1.0000   1.0000   1.0000   1.0000   1.0000
     1.0000   1.0000   1.0000   1.0000   1.0000

          k =-0.0000-0.0000 0.1597 (  3892 PWs)   bands (ev):

  -115.8808 -70.2454 -70.2344 -70.2344 -65.3139 -32.3091 -32.2812 -32.2812
   -10.3624  -9.6249   1.5895   1.5895   1.7304   2.6991   2.6991   2.9399
     5.6257   5.6257   6.0161   6.8498   6.8498

     occupation numbers 
     1.0000   1.0000   1.0000   1.0000   1.0000   1.0000   1.0000   1.0000
     1.0000   1.0000   1.0000   1.0000   1.0000   1.0000   1.0000   1.0000
     1.0000   1.0000   1.0000   1.0000   1.0000

          k =-0.0000-0.0000 0.2396 (  3880 PWs)   bands (ev):

  -115.8808 -70.2454 -70.2344 -70.2344 -65.3139 -32.3091 -32.2812 -32.2812
   -10.2827  -9.7131   1.5887   1.5887   1.6239   2.6919   2.6919   3.1902
     5.6545   5.6578   5.6578   6.8299   6.8299

     occupation numbers 
     1.0000   1.0000   1.0000   1.0000   1.0000   1.0000   1.0000   1.0000
     1.0000   1.0000   1.0000   1.0000   1.0000   1.0000   1.0000   1.0000
     1.0000   1.0000   1.0000   1.0000   1.0000

          k = 0.0000 0.0000-0.3194 (  3820 PWs)   bands (ev):

  -115.8808 -70.2454 -70.2344 -70.2344 -65.3139 -32.3091 -32.2812 -32.2812
   -10.2414  -9.7580   1.5876   1.5884   1.5884   2.6890   2.6890   3.2950
     5.5103   5.6715   5.6715   6.8214   6.8214

     occupation numbers 
     1.0000   1.0000   1.0000   1.0000   1.0000   1.0000   1.0000   1.0000
     1.0000   1.0000   1.0000   1.0000   1.0000   1.0000   1.0000   1.0000
     1.0000   1.0000   1.0000   1.0000   1.0000

          k =-0.0000 0.1443-0.0000 (  3863 PWs)   bands (ev):

  -115.8808 -70.2454 -70.2347 -70.2345 -65.3136 -32.3085 -32.2857 -32.2822
   -10.3666  -9.4887   1.5444   1.6567   2.0646   2.5002   2.7051   2.8132
     5.1851   5.5021   6.1619   6.5953   6.7405

     occupation numbers 
     1.0000   1.0000   1.0000   1.0000   1.0000   1.0000   1.0000   1.0000
     1.0000   1.0000   1.0000   1.0000   1.0000   1.0000   1.0000   1.0000
     1.0000   1.0000   1.0000   1.0000   1.0000

          k =-0.0000 0.1443 0.0799 (  3866 PWs)   bands (ev):

  -115.8808 -70.2454 -70.2347 -70.2345 -65.3136 -32.3085 -32.2857 -32.2822
   -10.3446  -9.5133   1.5428   1.6569   1.9551   2.5420   2.7016   2.9115
     5.2108   5.5120   6.0714   6.5625   6.7360

     occupation numbers 
     1.0000   1.0000   1.0000   1.0000   1.0000   1.0000   1.0000   1.0000
     1.0000   1.0000   1.0000   1.0000   1.0000   1.0000   1.0000   1.0000
     1.0000   1.0000   1.0000   1.0000   1.0000

          k =-0.0000 0.1443 0.1597 (  3855 PWs)   bands (ev):

  -115.8808 -70.2454 -70.2347 -70.2345 -65.3136 -32.3086 -32.2857 -32.2822
   -10.2854  -9.5788   1.5365   1.6560   1.7863   2.5604   2.6942   3.1528
     5.2359   5.5481   5.8609   6.5261   6.7105

     occupation numbers 
     1.0000   1.0000   1.0000   1.0000   1.0000   1.0000   1.0000   1.0000
     1.0000   1.0000   1.0000   1.0000   1.0000   1.0000   1.0000   1.0000
     1.0000   1.0000   1.0000   1.0000   1.0000

          k =-0.0000 0.1443 0.2396 (  3850 PWs)   bands (ev):

  -115.8808 -70.2454 -70.2347 -70.2345 -65.3136 -32.3086 -32.2857 -32.2822
   -10.2126  -9.6580   1.5235   1.6546   1.6770   2.5543   2.6872   3.3846
     5.1875   5.5912   5.7401   6.4782   6.6770

     occupation numbers 
     1.0000   1.0000   1.0000   1.0000   1.0000   1.0000   1.0000   1.0000
     1.0000   1.0000   1.0000   1.0000   1.0000   1.0000   1.0000   1.0000
     1.0000   1.0000   1.0000   1.0000   1.0000

          k = 0.0000 0.1443-0.3194 (  3854 PWs)   bands (ev):

  -115.8808 -70.2454 -70.2347 -70.2345 -65.3136 -32.3086 -32.2857 -32.2822
   -10.1755  -9.6977   1.5106   1.6475   1.6535   2.5494   2.6846   3.4883
     5.1139   5.6155   5.7301   6.4656   6.6558

     occupation numbers 
     1.0000   1.0000   1.0000   1.0000   1.0000   1.0000   1.0000   1.0000
     1.0000   1.0000   1.0000   1.0000   1.0000   1.0000   1.0000   1.0000
     1.0000   1.0000   1.0000   1.0000   1.0000

          k = 0.0000 0.1443-0.2396 (  3850 PWs)   bands (ev):

  -115.8808 -70.2454 -70.2347 -70.2345 -65.3136 -32.3086 -32.2857 -32.2822
   -10.2126  -9.6580   1.5163   1.6533   1.6836   2.5534   2.6880   3.4004
     5.1324   5.6046   5.7493   6.5161   6.6614

     occupation numbers 
     1.0000   1.0000   1.0000   1.0000   1.0000   1.0000   1.0000   1.0000
     1.0000   1.0000   1.0000   1.0000   1.0000   1.0000   1.0000   1.0000
     1.0000   1.0000   1.0000   1.0000   1.0000

          k = 0.0000 0.1443-0.1597 (  3855 PWs)   bands (ev):

  -115.8808 -70.2454 -70.2347 -70.2345 -65.3136 -32.3086 -32.2856 -32.2822
   -10.2855  -9.5788   1.5312   1.6542   1.7893   2.5599   2.6953   3.1708
     5.1794   5.5658   5.8490   6.5887   6.6896

     occupation numbers 
     1.0000   1.0000   1.0000   1.0000   1.0000   1.0000   1.0000   1.0000
     1.0000   1.0000   1.0000   1.0000   1.0000   1.0000   1.0000   1.0000
     1.0000   1.0000   1.0000   1.0000   1.0000

          k =-0.0000 0.1443-0.0799 (  3866 PWs)   bands (ev):

  -115.8808 -70.2454 -70.2347 -70.2345 -65.3136 -32.3085 -32.2857 -32.2822
   -10.3447  -9.5133   1.5410   1.6556   1.9528   2.5443   2.7024   2.9219
     5.1839   5.5237   6.0370   6.6226   6.7220

     occupation numbers 
     1.0000   1.0000   1.0000   1.0000   1.0000   1.0000   1.0000   1.0000
     1.0000   1.0000   1.0000   1.0000   1.0000   1.0000   1.0000   1.0000
     1.0000   1.0000   1.0000   1.0000   1.0000

          k =-0.0000 0.2887-0.0000 (  3861 PWs)   bands (ev):

  -115.8807 -70.2453 -70.2354 -70.2347 -65.3129 -32.3074 -32.2963 -32.2846
   -10.1538  -9.4048   1.4702   1.8232   2.1721   2.5063   2.7090   3.1437
     4.3696   5.1563   5.2838   6.3306   6.4331

     occupation numbers 
     1.0000   1.0000   1.0000   1.0000   1.0000   1.0000   1.0000   1.0000
     1.0000   1.0000   1.0000   1.0000   1.0000   1.0000   1.0000   1.0000
     1.0000   1.0000   1.0000   1.0000   1.0000

          k =-0.0000 0.2887 0.0799 (  3860 PWs)   bands (ev):

  -115.8807 -70.2453 -70.2354 -70.2347 -65.3129 -32.3074 -32.2963 -32.2846
   -10.1366  -9.4224   1.4623   1.8233   2.1079   2.4602   2.7053   3.2076
     4.4817   5.1521   5.2982   6.2816   6.4225

     occupation numbers 
     1.0000   1.0000   1.0000   1.0000   1.0000   1.0000   1.0000   1.0000
     1.0000   1.0000   1.0000   1.0000   1.0000   1.0000   1.0000   1.0000
     1.0000   1.0000   1.0000   1.0000   1.0000

          k =-0.0000 0.2887 0.1597 (  3866 PWs)   bands (ev):

  -115.8807 -70.2453 -70.2354 -70.2347 -65.3129 -32.3075 -32.2963 -32.2846
   -10.0913  -9.4685   1.4439   1.8212   1.9398   2.4043   2.6982   3.3943
     4.6009   5.1640   5.3532   6.2315   6.3736

     occupation numbers 
     1.0000   1.0000   1.0000   1.0000   1.0000   1.0000   1.0000   1.0000
     1.0000   1.0000   1.0000   1.0000   1.0000   1.0000   1.0000   1.0000
     1.0000   1.0000   1.0000   1.0000   1.0000

          k =-0.0000 0.2887 0.2396 (  3857 PWs)   bands (ev):

  -115.8807 -70.2453 -70.2354 -70.2347 -65.3129 -32.3075 -32.2963 -32.2846
   -10.0379  -9.5227   1.4194   1.8095   1.8180   2.3641   2.6920   3.5745
     4.5438   5.3543   5.4229   6.1404   6.3086

     occupation numbers 
     1.0000   1.0000   1.0000   1.0000   1.0000   1.0000   1.0000   1.0000
     1.0000   1.0000   1.0000   1.0000   1.0000   1.0000   1.0000   1.0000
     1.0000   1.0000   1.0000   1.0000   1.0000

          k = 0.0000 0.2887-0.3194 (  3864 PWs)   bands (ev):

  -115.8807 -70.2453 -70.2354 -70.2347 -65.3129 -32.3075 -32.2963 -32.2846
   -10.0123  -9.5486   1.4028   1.7670   1.8157   2.3483   2.6902   3.7062
     4.4040   5.4651   5.4819   6.1137   6.2670

     occupation numbers 
     1.0000   1.0000   1.0000   1.0000   1.0000   1.0000   1.0000   1.0000
     1.0000   1.0000   1.0000   1.0000   1.0000   1.0000   1.0000   1.0000
     1.0000   1.0000   1.0000   1.0000   1.0000

          k =-0.0000 0.2887-0.2396 (  3857 PWs)   bands (ev):

  -115.8807 -70.2453 -70.2354 -70.2347 -65.3129 -32.3075 -32.2963 -32.2846
   -10.0381  -9.5224   1.4122   1.8062   1.8155   2.3648   2.6938   3.7229
     4.3231   5.3347   5.4463   6.2624   6.2822

     occupation numbers 
     1.0000   1.0000   1.0000   1.0000   1.0000   1.0000   1.0000   1.0000
     1.0000   1.0000   1.0000   1.0000   1.0000   1.0000   1.0000   1.0000
     1.0000   1.0000   1.0000   1.0000   1.0000

          k =-0.0000 0.2887-0.1597 (  3866 PWs)   bands (ev):

  -115.8807 -70.2453 -70.2354 -70.2347 -65.3129 -32.3075 -32.2963 -32.2846
   -10.0915  -9.4682   1.4404   1.8177   1.9166   2.4107   2.7007   3.5693
     4.3331   5.1558   5.3818   6.3407   6.3810

     occupation numbers 
     1.0000   1.0000   1.0000   1.0000   1.0000   1.0000   1.0000   1.0000
     1.0000   1.0000   1.0000   1.0000   1.0000   1.0000   1.0000   1.0000
     1.0000   1.0000   1.0000   1.0000   1.0000

          k =-0.0000 0.2887-0.0799 (  3860 PWs)   bands (ev):

  -115.8807 -70.2453 -70.2354 -70.2347 -65.3129 -32.3074 -32.2963 -32.2846
   -10.1367  -9.4222   1.4635   1.8208   2.0711   2.4710   2.7070   3.3221
     4.3411   5.1162   5.3163   6.3878   6.4015

     occupation numbers 
     1.0000   1.0000   1.0000   1.0000   1.0000   1.0000   1.0000   1.0000
     1.0000   1.0000   1.0000   1.0000   1.0000   1.0000   1.0000   1.0000
     1.0000   1.0000   1.0000   1.0000   1.0000

          k =-0.0000 0.4330-0.0000 (  3871 PWs)   bands (ev):

  -115.8807 -70.2453 -70.2361 -70.2349 -65.3123 -32.3082 -32.3051 -32.2870
    -9.9178  -9.3330   1.4669   1.9924   2.2388   2.5314   2.7540   3.3061
     3.9185   4.4604   5.0061   5.9051   6.1607

     occupation numbers 
     1.0000   1.0000   1.0000   1.0000   1.0000   1.0000   1.0000   1.0000
     1.0000   1.0000   1.0000   1.0000   1.0000   1.0000   1.0000   1.0000
     1.0000   1.0000   1.0000   1.0000   1.0000

          k =-0.0000 0.4330 0.0799 (  3863 PWs)   bands (ev):

  -115.8807 -70.2453 -70.2361 -70.2349 -65.3123 -32.3082 -32.3051 -32.2870
    -9.9078  -9.3410   1.4446   1.9911   2.2450   2.4679   2.7511   3.1476
     4.1196   4.5466   5.0298   5.8994   6.1388

     occupation numbers 
     1.0000   1.0000   1.0000   1.0000   1.0000   1.0000   1.0000   1.0000
     1.0000   1.0000   1.0000   1.0000   1.0000   1.0000   1.0000   1.0000
     1.0000   1.0000   1.0000   1.0000   1.0000

          k =-0.0000 0.4330 0.1597 (  3860 PWs)   bands (ev):

  -115.8807 -70.2453 -70.2361 -70.2349 -65.3123 -32.3082 -32.3051 -32.2870
    -9.8825  -9.3613   1.4089   1.9855   2.1451   2.3273   2.7462   3.1516
     4.1868   4.7948   5.1054   5.9785   6.0652

     occupation numbers 
     1.0000   1.0000   1.0000   1.0000   1.0000   1.0000   1.0000   1.0000
     1.0000   1.0000   1.0000   1.0000   1.0000   1.0000   1.0000   1.0000
     1.0000   1.0000   1.0000   1.0000   1.0000

          k =-0.0000 0.4330 0.2396 (  3874 PWs)   bands (ev):

  -115.8807 -70.2453 -70.2361 -70.2349 -65.3123 -32.3082 -32.3052 -32.2870
    -9.8551  -9.3839   1.3757   1.9789   1.9918   2.2644   2.7422   3.2250
     4.1050   5.1084   5.2016   5.9700   6.0497

     occupation numbers 
     1.0000   1.0000   1.0000   1.0000   1.0000   1.0000   1.0000   1.0000
     1.0000   1.0000   1.0000   1.0000   1.0000   1.0000   1.0000   1.0000
     1.0000   1.0000   1.0000   1.0000   1.0000

          k =-0.0000 0.4330-0.3194 (  3876 PWs)   bands (ev):

  -115.8807 -70.2453 -70.2361 -70.2349 -65.3123 -32.3082 -32.3052 -32.2870
    -9.8429  -9.3939   1.3639   1.9180   1.9752   2.2467   2.7414   3.3107
     4.0120   5.2139   5.2580   5.9132   6.1168

     occupation numbers 
     1.0000   1.0000   1.0000   1.0000   1.0000   1.0000   1.0000   1.0000
     1.0000   1.0000   1.0000   1.0000   1.0000   1.0000   1.0000   1.0000
     1.0000   1.0000   1.0000   1.0000   1.0000

          k =-0.0000 0.4330-0.2396 (  3874 PWs)   bands (ev):

  -115.8807 -70.2453 -70.2361 -70.2349 -65.3123 -32.3082 -32.3052 -32.2870
    -9.8553  -9.3835   1.3863   1.9412   1.9765   2.2724   2.7441   3.3835
     3.9617   5.0181   5.2208   5.9489   6.1818

     occupation numbers 
     1.0000   1.0000   1.0000   1.0000   1.0000   1.0000   1.0000   1.0000
     1.0000   1.0000   1.0000   1.0000   1.0000   1.0000   1.0000   1.0000
     1.0000   1.0000   1.0000   1.0000   1.0000

          k =-0.0000 0.4330-0.1597 (  3860 PWs)   bands (ev):

  -115.8807 -70.2453 -70.2361 -70.2349 -65.3123 -32.3082 -32.3051 -32.2870
    -9.8829  -9.3609   1.4302   1.9820   2.0347   2.3475   2.7488   3.4277
     3.9643   4.6728   5.1269   6.0410   6.1480

     occupation numbers 
     1.0000   1.0000   1.0000   1.0000   1.0000   1.0000   1.0000   1.0000
     1.0000   1.0000   1.0000   1.0000   1.0000   1.0000   1.0000   1.0000
     1.0000   1.0000   1.0000   1.0000   1.0000

          k =-0.0000 0.4330-0.0799 (  3863 PWs)   bands (ev):

  -115.8807 -70.2453 -70.2361 -70.2349 -65.3123 -32.3082 -32.3051 -32.2870
    -9.9080  -9.3407   1.4632   1.9886   2.1544   2.4554   2.7530   3.4382
     3.9184   4.4414   5.0428   6.0205   6.1239

     occupation numbers 
     1.0000   1.0000   1.0000   1.0000   1.0000   1.0000   1.0000   1.0000
     1.0000   1.0000   1.0000   1.0000   1.0000   1.0000   1.0000   1.0000
     1.0000   1.0000   1.0000   1.0000   1.0000

          k = 0.0000-0.5774 0.0000 (  3876 PWs)   bands (ev):

  -115.8807 -70.2452 -70.2364 -70.2349 -65.3120 -32.3120 -32.3052 -32.2880
    -9.8092  -9.3106   1.4999   2.0581   2.2794   2.5711   2.7974   2.9807
     4.0586   4.3463   4.8640   5.6032   6.0598

     occupation numbers 
     1.0000   1.0000   1.0000   1.0000   1.0000   1.0000   1.0000   1.0000
     1.0000   1.0000   1.0000   1.0000   1.0000   1.0000   1.0000   1.0000
     1.0000   1.0000   1.0000   1.0000   1.0000

          k = 0.0000-0.5774 0.0799 (  3882 PWs)   bands (ev):

  -115.8807 -70.2452 -70.2364 -70.2350 -65.3120 -32.3120 -32.3053 -32.2880
    -9.8038  -9.3129   1.4805   2.0547   2.2587   2.5102   2.7960   2.9331
     4.0399   4.4847   4.8961   5.6989   6.0279

     occupation numbers 
     1.0000   1.0000   1.0000   1.0000   1.0000   1.0000   1.0000   1.0000
     1.0000   1.0000   1.0000   1.0000   1.0000   1.0000   1.0000   1.0000
     1.0000   1.0000   1.0000   1.0000   1.0000

          k = 0.0000-0.5774 0.1597 (  3862 PWs)   bands (ev):

  -115.8807 -70.2452 -70.2364 -70.2349 -65.3120 -32.3120 -32.3053 -32.2880
    -9.7905  -9.3188   1.4327   2.0463   2.1895   2.3785   2.7928   2.8861
     3.9821   4.7954   4.9816   5.9035   5.9429

     occupation numbers 
     1.0000   1.0000   1.0000   1.0000   1.0000   1.0000   1.0000   1.0000
     1.0000   1.0000   1.0000   1.0000   1.0000   1.0000   1.0000   1.0000
     1.0000   1.0000   1.0000   1.0000   1.0000

          k = 0.0000-0.5774 0.2396 (  3870 PWs)   bands (ev):

  -115.8807 -70.2452 -70.2364 -70.2349 -65.3120 -32.3120 -32.3053 -32.2880
    -9.7768  -9.3252   1.3837   2.0381   2.0799   2.3051   2.7898   2.8719
     3.9325   5.0825   5.0846   5.8402   6.0730

     occupation numbers 
     1.0000   1.0000   1.0000   1.0000   1.0000   1.0000   1.0000   1.0000
     1.0000   1.0000   1.0000   1.0000   1.0000   1.0000   1.0000   1.0000
     1.0000   1.0000   1.0000   1.0000   1.0000

          k = 0.0000-0.5774-0.3194 (  3888 PWs)   bands (ev):

  -115.8807 -70.2453 -70.2364 -70.2350 -65.3120 -32.3120 -32.3053 -32.2880
    -9.7709  -9.3280   1.3632   2.0282   2.0347   2.2874   2.7886   2.8694
     3.9146   5.1362   5.1999   5.7886   6.1320

     occupation numbers 
     1.0000   1.0000   1.0000   1.0000   1.0000   1.0000   1.0000   1.0000
     1.0000   1.0000   1.0000   1.0000   1.0000   1.0000   1.0000   1.0000
     1.0000   1.0000   1.0000   1.0000   1.0000

          k = 0.1250 0.0722-0.0000 (  3863 PWs)   bands (ev):

  -115.8808 -70.2454 -70.2347 -70.2345 -65.3136 -32.3085 -32.2857 -32.2822
   -10.3666  -9.4887   1.5444   1.6567   2.0646   2.5002   2.7051   2.8132
     5.1851   5.5021   6.1619   6.5953   6.7405

     occupation numbers 
     1.0000   1.0000   1.0000   1.0000   1.0000   1.0000   1.0000   1.0000
     1.0000   1.0000   1.0000   1.0000   1.0000   1.0000   1.0000   1.0000
     1.0000   1.0000   1.0000   1.0000   1.0000

          k = 0.1250 0.0722 0.0799 (  3866 PWs)   bands (ev):

  -115.8808 -70.2454 -70.2347 -70.2345 -65.3136 -32.3085 -32.2857 -32.2822
   -10.3447  -9.5133   1.5410   1.6556   1.9528   2.5443   2.7024   2.9219
     5.1839   5.5237   6.0370   6.6226   6.7220

     occupation numbers 
     1.0000   1.0000   1.0000   1.0000   1.0000   1.0000   1.0000   1.0000
     1.0000   1.0000   1.0000   1.0000   1.0000   1.0000   1.0000   1.0000
     1.0000   1.0000   1.0000   1.0000   1.0000

          k = 0.1250 0.0722 0.1597 (  3855 PWs)   bands (ev):

  -115.8808 -70.2454 -70.2347 -70.2345 -65.3136 -32.3086 -32.2856 -32.2822
   -10.2855  -9.5788   1.5312   1.6542   1.7893   2.5599   2.6953   3.1708
     5.1794   5.5658   5.8490   6.5887   6.6896

     occupation numbers 
     1.0000   1.0000   1.0000   1.0000   1.0000   1.0000   1.0000   1.0000
     1.0000   1.0000   1.0000   1.0000   1.0000   1.0000   1.0000   1.0000
     1.0000   1.0000   1.0000   1.0000   1.0000

          k = 0.1250 0.0722 0.2396 (  3850 PWs)   bands (ev):

  -115.8808 -70.2454 -70.2347 -70.2345 -65.3136 -32.3086 -32.2857 -32.2822
   -10.2126  -9.6580   1.5163   1.6533   1.6836   2.5534   2.6880   3.4004
     5.1324   5.6046   5.7493   6.5161   6.6614

     occupation numbers 
     1.0000   1.0000   1.0000   1.0000   1.0000   1.0000   1.0000   1.0000
     1.0000   1.0000   1.0000   1.0000   1.0000   1.0000   1.0000   1.0000
     1.0000   1.0000   1.0000   1.0000   1.0000

          k = 0.1250 0.0722-0.3194 (  3854 PWs)   bands (ev):

  -115.8808 -70.2454 -70.2347 -70.2345 -65.3136 -32.3086 -32.2857 -32.2822
   -10.1755  -9.6977   1.5106   1.6475   1.6535   2.5494   2.6846   3.4883
     5.1139   5.6155   5.7301   6.4656   6.6558

     occupation numbers 
     1.0000   1.0000   1.0000   1.0000   1.0000   1.0000   1.0000   1.0000
     1.0000   1.0000   1.0000   1.0000   1.0000   1.0000   1.0000   1.0000
     1.0000   1.0000   1.0000   1.0000   1.0000

          k = 0.1250 0.0722-0.2396 (  3850 PWs)   bands (ev):

  -115.8808 -70.2454 -70.2347 -70.2345 -65.3136 -32.3086 -32.2857 -32.2822
   -10.2126  -9.6580   1.5235   1.6546   1.6770   2.5543   2.6872   3.3846
     5.1875   5.5912   5.7401   6.4782   6.6770

     occupation numbers 
     1.0000   1.0000   1.0000   1.0000   1.0000   1.0000   1.0000   1.0000
     1.0000   1.0000   1.0000   1.0000   1.0000   1.0000   1.0000   1.0000
     1.0000   1.0000   1.0000   1.0000   1.0000

          k = 0.1250 0.0722-0.1597 (  3855 PWs)   bands (ev):

  -115.8808 -70.2454 -70.2347 -70.2345 -65.3136 -32.3086 -32.2857 -32.2822
   -10.2854  -9.5788   1.5365   1.6560   1.7863   2.5604   2.6942   3.1528
     5.2359   5.5481   5.8609   6.5261   6.7105

     occupation numbers 
     1.0000   1.0000   1.0000   1.0000   1.0000   1.0000   1.0000   1.0000
     1.0000   1.0000   1.0000   1.0000   1.0000   1.0000   1.0000   1.0000
     1.0000   1.0000   1.0000   1.0000   1.0000

          k = 0.1250 0.0722-0.0799 (  3866 PWs)   bands (ev):

  -115.8808 -70.2454 -70.2347 -70.2345 -65.3136 -32.3085 -32.2857 -32.2822
   -10.3446  -9.5133   1.5428   1.6569   1.9551   2.5420   2.7016   2.9115
     5.2108   5.5120   6.0714   6.5625   6.7360

     occupation numbers 
     1.0000   1.0000   1.0000   1.0000   1.0000   1.0000   1.0000   1.0000
     1.0000   1.0000   1.0000   1.0000   1.0000   1.0000   1.0000   1.0000
     1.0000   1.0000   1.0000   1.0000   1.0000

          k = 0.1250 0.2165-0.0000 (  3877 PWs)   bands (ev):

  -115.8807 -70.2453 -70.2352 -70.2347 -65.3131 -32.3077 -32.2928 -32.2844
   -10.2182  -9.4285   1.5123   1.7409   2.1540   2.5060   2.6939   3.0492
     4.6679   5.1491   5.5763   6.3462   6.5165

     occupation numbers 
     1.0000   1.0000   1.0000   1.0000   1.0000   1.0000   1.0000   1.0000
     1.0000   1.0000   1.0000   1.0000   1.0000   1.0000   1.0000   1.0000
     1.0000   1.0000   1.0000   1.0000   1.0000

          k = 0.1250 0.2165 0.0799 (  3866 PWs)   bands (ev):

  -115.8807 -70.2453 -70.2352 -70.2346 -65.3131 -32.3077 -32.2928 -32.2844
   -10.1995  -9.4482   1.5072   1.7363   2.0623   2.4861   2.6912   3.1769
     4.6860   5.1831   5.5361   6.3395   6.5046

     occupation numbers 
     1.0000   1.0000   1.0000   1.0000   1.0000   1.0000   1.0000   1.0000
     1.0000   1.0000   1.0000   1.0000   1.0000   1.0000   1.0000   1.0000
     1.0000   1.0000   1.0000   1.0000   1.0000

          k = 0.1250 0.2165 0.1597 (  3866 PWs)   bands (ev):

  -115.8807 -70.2454 -70.2352 -70.2346 -65.3131 -32.3078 -32.2928 -32.2844
   -10.1497  -9.5005   1.4914   1.7198   1.9093   2.4502   2.6840   3.4162
     4.6966   5.2909   5.4865   6.3011   6.4535

     occupation numbers 
     1.0000   1.0000   1.0000   1.0000   1.0000   1.0000   1.0000   1.0000
     1.0000   1.0000   1.0000   1.0000   1.0000   1.0000   1.0000   1.0000
     1.0000   1.0000   1.0000   1.0000   1.0000

          k = 0.1250 0.2165 0.2396 (  3862 PWs)   bands (ev):

  -115.8807 -70.2453 -70.2352 -70.2346 -65.3131 -32.3078 -32.2928 -32.2844
   -10.0901  -9.5626   1.4682   1.6888   1.8211   2.4188   2.6768   3.6148
     4.6527   5.4074   5.5521   6.2271   6.3593

     occupation numbers 
     1.0000   1.0000   1.0000   1.0000   1.0000   1.0000   1.0000   1.0000
     1.0000   1.0000   1.0000   1.0000   1.0000   1.0000   1.0000   1.0000
     1.0000   1.0000   1.0000   1.0000   1.0000

          k = 0.1250 0.2165-0.3194 (  3844 PWs)   bands (ev):

  -115.8807 -70.2453 -70.2352 -70.2346 -65.3131 -32.3078 -32.2928 -32.2844
   -10.0608  -9.5930   1.4555   1.6711   1.8000   2.4064   2.6738   3.6931
     4.6186   5.4335   5.6571   6.1626   6.3095

     occupation numbers 
     1.0000   1.0000   1.0000   1.0000   1.0000   1.0000   1.0000   1.0000
     1.0000   1.0000   1.0000   1.0000   1.0000   1.0000   1.0000   1.0000
     1.0000   1.0000   1.0000   1.0000   1.0000

          k = 0.1250 0.2165-0.2396 (  3862 PWs)   bands (ev):

  -115.8807 -70.2453 -70.2352 -70.2346 -65.3131 -32.3078 -32.2928 -32.2844
   -10.0901  -9.5626   1.4682   1.6888   1.8211   2.4188   2.6768   3.6148
     4.6527   5.4074   5.5521   6.2271   6.3592

     occupation numbers 
     1.0000   1.0000   1.0000   1.0000   1.0000   1.0000   1.0000   1.0000
     1.0000   1.0000   1.0000   1.0000   1.0000   1.0000   1.0000   1.0000
     1.0000   1.0000   1.0000   1.0000   1.0000

          k = 0.1250 0.2165-0.1597 (  3866 PWs)   bands (ev):

  -115.8807 -70.2454 -70.2352 -70.2346 -65.3131 -32.3078 -32.2928 -32.2844
   -10.1497  -9.5005   1.4914   1.7198   1.9093   2.4502   2.6840   3.4162
     4.6966   5.2909   5.4865   6.3011   6.4535

     occupation numbers 
     1.0000   1.0000   1.0000   1.0000   1.0000   1.0000   1.0000   1.0000
     1.0000   1.0000   1.0000   1.0000   1.0000   1.0000   1.0000   1.0000
     1.0000   1.0000   1.0000   1.0000   1.0000

          k = 0.1250 0.2165-0.0799 (  3866 PWs)   bands (ev):

  -115.8807 -70.2453 -70.2352 -70.2346 -65.3131 -32.3077 -32.2928 -32.2844
   -10.1995  -9.4482   1.5072   1.7363   2.0623   2.4861   2.6912   3.1769
     4.6860   5.1831   5.5361   6.3395   6.5046

     occupation numbers 
     1.0000   1.0000   1.0000   1.0000   1.0000   1.0000   1.0000   1.0000
     1.0000   1.0000   1.0000   1.0000   1.0000   1.0000   1.0000   1.0000
     1.0000   1.0000   1.0000   1.0000   1.0000

          k = 0.1250 0.3608-0.0000 (  3857 PWs)   bands (ev):

  -115.8807 -70.2453 -70.2358 -70.2349 -65.3125 -32.3068 -32.3022 -32.2878
    -9.9916  -9.3516   1.5301   1.8723   2.2330   2.5275   2.7042   3.4568
     4.0264   4.5306   5.0784   5.9501   6.1790

     occupation numbers 
     1.0000   1.0000   1.0000   1.0000   1.0000   1.0000   1.0000   1.0000
     1.0000   1.0000   1.0000   1.0000   1.0000   1.0000   1.0000   1.0000
     1.0000   1.0000   1.0000   1.0000   1.0000

          k = 0.1250 0.3608 0.0799 (  3854 PWs)   bands (ev):

  -115.8807 -70.2453 -70.2358 -70.2349 -65.3125 -32.3068 -32.3022 -32.2878
    -9.9790  -9.3629   1.5163   1.8674   2.2051   2.4594   2.7033   3.3989
     4.1952   4.5978   5.0733   5.9133   6.1913

     occupation numbers 
     1.0000   1.0000   1.0000   1.0000   1.0000   1.0000   1.0000   1.0000
     1.0000   1.0000   1.0000   1.0000   1.0000   1.0000   1.0000   1.0000
     1.0000   1.0000   1.0000   1.0000   1.0000

          k = 0.1250 0.3608 0.1597 (  3867 PWs)   bands (ev):

  -115.8807 -70.2453 -70.2358 -70.2349 -65.3125 -32.3069 -32.3022 -32.2878
    -9.9467  -9.3921   1.4918   1.8400   2.0886   2.3599   2.7001   3.4531
     4.2619   4.8447   5.1021   5.8592   6.2062

     occupation numbers 
     1.0000   1.0000   1.0000   1.0000   1.0000   1.0000   1.0000   1.0000
     1.0000   1.0000   1.0000   1.0000   1.0000   1.0000   1.0000   1.0000
     1.0000   1.0000   1.0000   1.0000   1.0000

          k = 0.1250 0.3608 0.2396 (  3864 PWs)   bands (ev):

  -115.8807 -70.2453 -70.2358 -70.2349 -65.3125 -32.3069 -32.3022 -32.2878
    -9.9105  -9.4252   1.4648   1.7929   1.9893   2.3035   2.6963   3.5515
     4.1878   5.0600   5.2743   5.7948   6.1802

     occupation numbers 
     1.0000   1.0000   1.0000   1.0000   1.0000   1.0000   1.0000   1.0000
     1.0000   1.0000   1.0000   1.0000   1.0000   1.0000   1.0000   1.0000
     1.0000   1.0000   1.0000   1.0000   1.0000

          k = 0.1250 0.3608-0.3194 (  3860 PWs)   bands (ev):

  -115.8807 -70.2453 -70.2358 -70.2349 -65.3125 -32.3069 -32.3022 -32.2878
    -9.8939  -9.4404   1.4523   1.7634   1.9587   2.2856   2.6949   3.6550
     4.0743   5.1377   5.3558   5.8103   6.1478

     occupation numbers 
     1.0000   1.0000   1.0000   1.0000   1.0000   1.0000   1.0000   1.0000
     1.0000   1.0000   1.0000   1.0000   1.0000   1.0000   1.0000   1.0000
     1.0000   1.0000   1.0000   1.0000   1.0000

          k = 0.1250 0.3608-0.2396 (  3864 PWs)   bands (ev):

  -115.8807 -70.2453 -70.2358 -70.2349 -65.3125 -32.3069 -32.3022 -32.2878
    -9.9106  -9.4250   1.4702   1.7782   1.9814   2.3079   2.6972   3.7193
     3.9940   5.0815   5.2228   5.8414   6.2138

     occupation numbers 
     1.0000   1.0000   1.0000   1.0000   1.0000   1.0000   1.0000   1.0000
     1.0000   1.0000   1.0000   1.0000   1.0000   1.0000   1.0000   1.0000
     1.0000   1.0000   1.0000   1.0000   1.0000

          k = 0.1250 0.3608-0.1597 (  3867 PWs)   bands (ev):

  -115.8807 -70.2453 -70.2358 -70.2349 -65.3125 -32.3069 -32.3022 -32.2878
    -9.9469  -9.3918   1.5048   1.8194   2.0575   2.3725   2.7016   3.6895
     3.9871   4.8401   5.0948   5.9196   6.2369

     occupation numbers 
     1.0000   1.0000   1.0000   1.0000   1.0000   1.0000   1.0000   1.0000
     1.0000   1.0000   1.0000   1.0000   1.0000   1.0000   1.0000   1.0000
     1.0000   1.0000   1.0000   1.0000   1.0000

          k = 0.1250 0.3608-0.0799 (  3854 PWs)   bands (ev):

  -115.8807 -70.2453 -70.2358 -70.2349 -65.3125 -32.3068 -32.3022 -32.2878
    -9.9792  -9.3627   1.5277   1.8558   2.1660   2.4677   2.7047   3.5956
     3.9764   4.6021   5.0668   5.9757   6.1931

     occupation numbers 
     1.0000   1.0000   1.0000   1.0000   1.0000   1.0000   1.0000   1.0000
     1.0000   1.0000   1.0000   1.0000   1.0000   1.0000   1.0000   1.0000
     1.0000   1.0000   1.0000   1.0000   1.0000

          k = 0.1250 0.5052-0.0000 (  3872 PWs)   bands (ev):

  -115.8807 -70.2452 -70.2363 -70.2351 -65.3120 -32.3098 -32.3052 -32.2903
    -9.8129  -9.3090   1.5995   2.0207   2.2803   2.5671   2.7525   3.1575
     4.0473   4.3407   4.7006   5.6118   5.8699

     occupation numbers 
     1.0000   1.0000   1.0000   1.0000   1.0000   1.0000   1.0000   1.0000
     1.0000   1.0000   1.0000   1.0000   1.0000   1.0000   1.0000   1.0000
     1.0000   1.0000   1.0000   1.0000   1.0000

          k = 0.1250 0.5052 0.0799 (  3871 PWs)   bands (ev):

  -115.8807 -70.2452 -70.2363 -70.2351 -65.3120 -32.3098 -32.3052 -32.2903
    -9.8072  -9.3118   1.5735   2.0192   2.2809   2.5231   2.7501   3.0419
     4.0403   4.5265   4.7475   5.6270   5.8713

     occupation numbers 
     1.0000   1.0000   1.0000   1.0000   1.0000   1.0000   1.0000   1.0000
     1.0000   1.0000   1.0000   1.0000   1.0000   1.0000   1.0000   1.0000
     1.0000   1.0000   1.0000   1.0000   1.0000

          k = 0.1250 0.5052 0.1597 (  3862 PWs)   bands (ev):

[...]
    -9.7933  -9.3185   1.5526   1.9893   2.1464   2.3775   2.7678   3.1225
     3.9555   4.5995   4.9720   5.6998   5.9680

     occupation numbers 
     1.0000   1.0000   1.0000   1.0000   1.0000   1.0000   1.0000   1.0000
     1.0000   1.0000   1.0000   1.0000   1.0000   1.0000   1.0000   1.0000
     1.0000   1.0000   1.0000   1.0000   1.0000

          k =-0.5000-0.1443-0.0799 (  3871 PWs)   bands (ev):

  -115.8807 -70.2452 -70.2363 -70.2351 -65.3120 -32.3098 -32.3052 -32.2903
    -9.8073  -9.3116   1.5926   2.0096   2.2276   2.4952   2.7609   3.1724
     4.0146   4.4028   4.7731   5.7141   5.8457

     occupation numbers 
     1.0000   1.0000   1.0000   1.0000   1.0000   1.0000   1.0000   1.0000
     1.0000   1.0000   1.0000   1.0000   1.0000   1.0000   1.0000   1.0000
     1.0000   1.0000   1.0000   1.0000   1.0000

          k =-0.5000 0.0000 0.0000 (  3865 PWs)   bands (ev):

  -115.8807 -70.2452 -70.2360 -70.2353 -65.3120 -32.3073 -32.3048 -32.2932
    -9.8167  -9.3075   1.7573   1.9276   2.2490   2.5691   2.7563   3.5243
     3.7157   4.3523   4.6762   5.4891   5.7699

     occupation numbers 
     1.0000   1.0000   1.0000   1.0000   1.0000   1.0000   1.0000   1.0000
     1.0000   1.0000   1.0000   1.0000   1.0000   1.0000   1.0000   1.0000
     1.0000   1.0000   1.0000   1.0000   1.0000

          k =-0.5000 0.0000 0.0799 (  3849 PWs)   bands (ev):

  -115.8807 -70.2452 -70.2360 -70.2353 -65.3120 -32.3073 -32.3048 -32.2932
    -9.8107  -9.3105   1.7478   1.9138   2.2234   2.5034   2.7639   3.4345
     3.7352   4.5307   4.6910   5.4721   5.8231

     occupation numbers 
     1.0000   1.0000   1.0000   1.0000   1.0000   1.0000   1.0000   1.0000
     1.0000   1.0000   1.0000   1.0000   1.0000   1.0000   1.0000   1.0000
     1.0000   1.0000   1.0000   1.0000   1.0000

          k =-0.5000 0.0000 0.1597 (  3856 PWs)   bands (ev):

  -115.8807 -70.2452 -70.2360 -70.2353 -65.3120 -32.3073 -32.3048 -32.2932
    -9.7960  -9.3183   1.7210   1.8797   2.1582   2.3619   2.7749   3.3509
     3.7881   4.5615   5.0028   5.4006   5.9689

     occupation numbers 
     1.0000   1.0000   1.0000   1.0000   1.0000   1.0000   1.0000   1.0000
     1.0000   1.0000   1.0000   1.0000   1.0000   1.0000   1.0000   1.0000
     1.0000   1.0000   1.0000   1.0000   1.0000

          k =-0.5000-0.0000 0.2396 (  3868 PWs)   bands (ev):

  -115.8807 -70.2452 -70.2360 -70.2353 -65.3120 -32.3073 -32.3049 -32.2932
    -9.7806  -9.3267   1.6873   1.8433   2.0781   2.2645   2.7807   3.3329
     3.8348   4.5840   5.0981   5.4978   6.1024

     occupation numbers 
     1.0000   1.0000   1.0000   1.0000   1.0000   1.0000   1.0000   1.0000
     1.0000   1.0000   1.0000   1.0000   1.0000   1.0000   1.0000   1.0000
     1.0000   1.0000   1.0000   1.0000   1.0000

          k =-0.5000 0.0000-0.3194 (  3866 PWs)   bands (ev):

  -115.8807 -70.2452 -70.2360 -70.2353 -65.3120 -32.3073 -32.3049 -32.2932
    -9.7740  -9.3304   1.6708   1.8267   2.0417   2.2374   2.7823   3.3333
     3.8506   4.6223   5.0325   5.6142   6.1500

     occupation numbers 
     1.0000   1.0000   1.0000   1.0000   1.0000   1.0000   1.0000   1.0000
     1.0000   1.0000   1.0000   1.0000   1.0000   1.0000   1.0000   1.0000
     1.0000   1.0000   1.0000   1.0000   1.0000

          k =-0.5000 0.0000-0.2396 (  3868 PWs)   bands (ev):

  -115.8807 -70.2452 -70.2360 -70.2353 -65.3120 -32.3073 -32.3049 -32.2932
    -9.7806  -9.3267   1.6873   1.8433   2.0781   2.2645   2.7807   3.3329
     3.8348   4.5840   5.0981   5.4978   6.1024

     occupation numbers 
     1.0000   1.0000   1.0000   1.0000   1.0000   1.0000   1.0000   1.0000
     1.0000   1.0000   1.0000   1.0000   1.0000   1.0000   1.0000   1.0000
     1.0000   1.0000   1.0000   1.0000   1.0000

          k =-0.5000 0.0000-0.1597 (  3856 PWs)   bands (ev):

  -115.8807 -70.2452 -70.2360 -70.2353 -65.3120 -32.3073 -32.3048 -32.2932
    -9.7960  -9.3183   1.7210   1.8797   2.1582   2.3619   2.7749   3.3509
     3.7881   4.5615   5.0028   5.4006   5.9689

     occupation numbers 
     1.0000   1.0000   1.0000   1.0000   1.0000   1.0000   1.0000   1.0000
     1.0000   1.0000   1.0000   1.0000   1.0000   1.0000   1.0000   1.0000
     1.0000   1.0000   1.0000   1.0000   1.0000

          k =-0.5000 0.0000-0.0799 (  3849 PWs)   bands (ev):

  -115.8807 -70.2452 -70.2360 -70.2353 -65.3120 -32.3073 -32.3048 -32.2932
    -9.8107  -9.3105   1.7478   1.9138   2.2234   2.5034   2.7639   3.4345
     3.7352   4.5307   4.6910   5.4721   5.8231

     occupation numbers 
     1.0000   1.0000   1.0000   1.0000   1.0000   1.0000   1.0000   1.0000
     1.0000   1.0000   1.0000   1.0000   1.0000   1.0000   1.0000   1.0000
     1.0000   1.0000   1.0000   1.0000   1.0000

          k =-0.5000 0.1443 0.0000 (  3872 PWs)   bands (ev):

  -115.8807 -70.2452 -70.2363 -70.2351 -65.3120 -32.3098 -32.3052 -32.2903
    -9.8129  -9.3090   1.5995   2.0207   2.2803   2.5671   2.7525   3.1575
     4.0473   4.3407   4.7006   5.6118   5.8699

     occupation numbers 
     1.0000   1.0000   1.0000   1.0000   1.0000   1.0000   1.0000   1.0000
     1.0000   1.0000   1.0000   1.0000   1.0000   1.0000   1.0000   1.0000
     1.0000   1.0000   1.0000   1.0000   1.0000

          k =-0.5000 0.1443 0.0799 (  3871 PWs)   bands (ev):

  -115.8807 -70.2452 -70.2363 -70.2351 -65.3120 -32.3098 -32.3052 -32.2903
    -9.8073  -9.3116   1.5926   2.0096   2.2276   2.4952   2.7609   3.1724
     4.0146   4.4028   4.7731   5.7141   5.8457

     occupation numbers 
     1.0000   1.0000   1.0000   1.0000   1.0000   1.0000   1.0000   1.0000
     1.0000   1.0000   1.0000   1.0000   1.0000   1.0000   1.0000   1.0000
     1.0000   1.0000   1.0000   1.0000   1.0000

          k =-0.5000 0.1443 0.1597 (  3862 PWs)   bands (ev):

  -115.8807 -70.2452 -70.2363 -70.2351 -65.3120 -32.3098 -32.3052 -32.2903
    -9.7933  -9.3185   1.5526   1.9893   2.1464   2.3775   2.7678   3.1224
     3.9555   4.5995   4.9720   5.6998   5.9680

     occupation numbers 
     1.0000   1.0000   1.0000   1.0000   1.0000   1.0000   1.0000   1.0000
     1.0000   1.0000   1.0000   1.0000   1.0000   1.0000   1.0000   1.0000
     1.0000   1.0000   1.0000   1.0000   1.0000

          k =-0.5000 0.1443 0.2396 (  3870 PWs)   bands (ev):

  -115.8807 -70.2452 -70.2363 -70.2351 -65.3120 -32.3098 -32.3052 -32.2903
    -9.7787  -9.3259   1.5025   1.9682   2.0687   2.2952   2.7738   3.0820
     3.9247   4.7734   5.1335   5.6572   6.1128

     occupation numbers 
     1.0000   1.0000   1.0000   1.0000   1.0000   1.0000   1.0000   1.0000
     1.0000   1.0000   1.0000   1.0000   1.0000   1.0000   1.0000   1.0000
     1.0000   1.0000   1.0000   1.0000   1.0000

          k =-0.5000 0.1443-0.3194 (  3870 PWs)   bands (ev):

  -115.8807 -70.2452 -70.2363 -70.2351 -65.3120 -32.3098 -32.3053 -32.2903
    -9.7724  -9.3292   1.4763   1.9661   2.0397   2.2695   2.7775   3.0459
     3.9319   4.8757   5.1359   5.6835   6.1451

     occupation numbers 
     1.0000   1.0000   1.0000   1.0000   1.0000   1.0000   1.0000   1.0000
     1.0000   1.0000   1.0000   1.0000   1.0000   1.0000   1.0000   1.0000
     1.0000   1.0000   1.0000   1.0000   1.0000

          k =-0.5000 0.1443-0.2396 (  3870 PWs)   bands (ev):

  -115.8807 -70.2452 -70.2363 -70.2351 -65.3120 -32.3098 -32.3052 -32.2903
    -9.7786  -9.3261   1.4891   1.9913   2.0934   2.2869   2.7767   3.0102
     3.9695   4.7888   5.1567   5.6486   6.0714

     occupation numbers 
     1.0000   1.0000   1.0000   1.0000   1.0000   1.0000   1.0000   1.0000
     1.0000   1.0000   1.0000   1.0000   1.0000   1.0000   1.0000   1.0000
     1.0000   1.0000   1.0000   1.0000   1.0000

          k =-0.5000 0.1443-0.1597 (  3862 PWs)   bands (ev):

  -115.8807 -70.2452 -70.2363 -70.2351 -65.3120 -32.3098 -32.3052 -32.2903
    -9.7932  -9.3187   1.5293   2.0083   2.2185   2.3677   2.7668   2.9925
     4.0158   4.6585   4.9960   5.6470   5.9386

     occupation numbers 
     1.0000   1.0000   1.0000   1.0000   1.0000   1.0000   1.0000   1.0000
     1.0000   1.0000   1.0000   1.0000   1.0000   1.0000   1.0000   1.0000
     1.0000   1.0000   1.0000   1.0000   1.0000

          k =-0.5000 0.1443-0.0799 (  3871 PWs)   bands (ev):

  -115.8807 -70.2452 -70.2363 -70.2351 -65.3120 -32.3098 -32.3052 -32.2903
    -9.8072  -9.3118   1.5735   2.0192   2.2809   2.5231   2.7501   3.0419
     4.0403   4.5265   4.7475   5.6270   5.8713

     occupation numbers 
     1.0000   1.0000   1.0000   1.0000   1.0000   1.0000   1.0000   1.0000
     1.0000   1.0000   1.0000   1.0000   1.0000   1.0000   1.0000   1.0000
     1.0000   1.0000   1.0000   1.0000   1.0000

          k =-0.5000-0.8660 0.0000 (  3876 PWs)   bands (ev):

  -115.8807 -70.2452 -70.2364 -70.2349 -65.3120 -32.3120 -32.3052 -32.2880
    -9.8092  -9.3106   1.4999   2.0581   2.2794   2.5711   2.7974   2.9807
     4.0586   4.3463   4.8640   5.6032   6.0598

     occupation numbers 
     1.0000   1.0000   1.0000   1.0000   1.0000   1.0000   1.0000   1.0000
     1.0000   1.0000   1.0000   1.0000   1.0000   1.0000   1.0000   1.0000
     1.0000   1.0000   1.0000   1.0000   1.0000

          k =-0.5000-0.8660 0.0799 (  3882 PWs)   bands (ev):

  -115.8807 -70.2452 -70.2364 -70.2350 -65.3120 -32.3120 -32.3053 -32.2880
    -9.8038  -9.3129   1.4805   2.0547   2.2587   2.5102   2.7960   2.9331
     4.0398   4.4847   4.8961   5.6989   6.0279

     occupation numbers 
     1.0000   1.0000   1.0000   1.0000   1.0000   1.0000   1.0000   1.0000
     1.0000   1.0000   1.0000   1.0000   1.0000   1.0000   1.0000   1.0000
     1.0000   1.0000   1.0000   1.0000   1.0000

          k =-0.5000-0.8660 0.1597 (  3862 PWs)   bands (ev):

  -115.8807 -70.2452 -70.2364 -70.2349 -65.3120 -32.3120 -32.3053 -32.2880
    -9.7905  -9.3188   1.4327   2.0463   2.1895   2.3785   2.7928   2.8861
     3.9821   4.7954   4.9816   5.9035   5.9429

     occupation numbers 
     1.0000   1.0000   1.0000   1.0000   1.0000   1.0000   1.0000   1.0000
     1.0000   1.0000   1.0000   1.0000   1.0000   1.0000   1.0000   1.0000
     1.0000   1.0000   1.0000   1.0000   1.0000

          k =-0.5000-0.8660 0.2396 (  3870 PWs)   bands (ev):

  -115.8807 -70.2452 -70.2364 -70.2349 -65.3120 -32.3120 -32.3053 -32.2880
    -9.7768  -9.3252   1.3837   2.0381   2.0799   2.3051   2.7898   2.8719
     3.9325   5.0825   5.0846   5.8402   6.0730

     occupation numbers 
     1.0000   1.0000   1.0000   1.0000   1.0000   1.0000   1.0000   1.0000
     1.0000   1.0000   1.0000   1.0000   1.0000   1.0000   1.0000   1.0000
     1.0000   1.0000   1.0000   1.0000   1.0000

          k =-0.5000-0.8660-0.3194 (  3888 PWs)   bands (ev):

  -115.8807 -70.2453 -70.2364 -70.2350 -65.3120 -32.3120 -32.3053 -32.2880
    -9.7709  -9.3280   1.3632   2.0282   2.0347   2.2874   2.7886   2.8694
     3.9146   5.1362   5.1999   5.7886   6.1320

     occupation numbers 
     1.0000   1.0000   1.0000   1.0000   1.0000   1.0000   1.0000   1.0000
     1.0000   1.0000   1.0000   1.0000   1.0000   1.0000   1.0000   1.0000
     1.0000   1.0000   1.0000   1.0000   1.0000

     highest occupied level (ev):     6.8763

!    total energy              =    -651.13102231 Ry
     Harris-Foulkes estimate   =    -651.13102227 Ry
     estimated scf accuracy    <       0.00000008 Ry

     The total energy is the sum of the following terms:

     one-electron contribution =    -538.94295066 Ry
     hartree contribution      =     282.70569664 Ry
     xc contribution           =     -73.06862478 Ry
     ewald contribution        =    -321.82514352 Ry

     convergence has been achieved in   8 iterations

     Forces acting on atoms (cartesian axes, Ry/au):

     atom    1 type  3   force =    -0.00000025    0.00000003   -0.00619180
     atom    2 type  3   force =    -0.00000038    0.00000017    0.00683096
     atom    3 type  2   force =     0.00000050    0.00000091   -0.00430814
     atom    4 type  1   force =     0.00000013   -0.00000110    0.00366898
     The non-local contrib.  to forces
     atom    1 type  3   force =    -0.00000013   -0.00000080    0.16103851
     atom    2 type  3   force =     0.00000049    0.00000076   -0.10987980
     atom    3 type  2   force =     0.00000212   -0.00000314    0.13655215
     atom    4 type  1   force =     0.00000116   -0.00000013    0.01316867
     The ionic contribution  to forces
     atom    1 type  3   force =    -0.00000572    0.00002100   -7.20830562
     atom    2 type  3   force =    -0.00001144    0.00000753    6.55132207
     atom    3 type  2   force =     0.00001066   -0.00002161    0.94237315
     atom    4 type  1   force =     0.00000650   -0.00000691   -0.28538960
     The local contribution  to forces
     atom    1 type  3   force =     0.00000533   -0.00002007    7.04271472
     atom    2 type  3   force =     0.00001015   -0.00000764   -6.43580541
     atom    3 type  2   force =    -0.00001149    0.00002526   -1.08409096
     atom    4 type  1   force =    -0.00000737    0.00000631    0.27630302
     The core correction contribution to forces
     atom    1 type  3   force =     0.00000001   -0.00000001   -0.00154857
     atom    2 type  3   force =    -0.00000000   -0.00000001    0.00132219
     atom    3 type  2   force =     0.00000000    0.00000000    0.00000000
     atom    4 type  1   force =     0.00000000    0.00000000    0.00000000
     The Hubbard contrib.    to forces
     atom    1 type  3   force =     0.00000000    0.00000000    0.00000000
     atom    2 type  3   force =     0.00000000    0.00000000    0.00000000
     atom    3 type  2   force =     0.00000000    0.00000000    0.00000000
     atom    4 type  1   force =     0.00000000    0.00000000    0.00000000
     The SCF correction term to forces
     atom    1 type  3   force =     0.00000000    0.00000000    0.00000000
     atom    2 type  3   force =     0.00000000    0.00000000    0.00000000
     atom    3 type  2   force =     0.00000000    0.00000000    0.00000000
     atom    4 type  1   force =     0.00000000    0.00000000    0.00000000

     Total force =     0.000000     Total SCF correction =     0.000000


     Computing stress (Cartesian axis) and pressure

          total   stress  (Ry/bohr**3)                   (kbar)     P=   -0.13
   0.00000017  -0.00000000  -0.00000001          0.02     -0.00     -0.00
  -0.00000000   0.00000017  -0.00000001         -0.00      0.02     -0.00
  -0.00000001  -0.00000001  -0.00000294         -0.00     -0.00     -0.43

     kinetic stress (kbar)  26388.48      0.00     -0.00
                                0.00  26388.48     -0.00
                               -0.00     -0.00  26432.86

     local   stress (kbar) -18537.08     -0.01      0.02
                               -0.01 -18537.08     -0.06
                                0.02     -0.06   2610.42

     nonloc. stress (kbar)   1772.40      0.00      0.00
                                0.00   1772.40      0.00
                                0.00      0.00   1750.03

     hartree stress (kbar)  46743.58      0.00     -0.01
                                0.00  46743.58      0.02
                               -0.01      0.02  36568.89

     exc-cor stress (kbar) -10432.62      0.00      0.00
                                0.00 -10432.62      0.00
                                0.00      0.00 -10433.53

     corecor stress (kbar)   -248.64     -0.00      0.00
                               -0.00   -248.64      0.00
                                0.00      0.00   -248.73

     ewald   stress (kbar) -45686.10      0.00     -0.01
                                0.00 -45686.10      0.03
                               -0.01      0.03 -56680.38

     hubbard stress (kbar)      0.00      0.00      0.00
                                0.00      0.00      0.00
                                0.00      0.00      0.00

     london  stress (kbar)      0.00      0.00      0.00
                                0.00      0.00      0.00
                                0.00      0.00      0.00

     DFT-D3  stress (kbar)      0.00      0.00      0.00
                                0.00      0.00      0.00
                                0.00      0.00      0.00

     XDM     stress (kbar)      0.00      0.00      0.00
                                0.00      0.00      0.00
                                0.00      0.00      0.00

     dft-nl  stress (kbar)      0.00      0.00      0.00
                                0.00      0.00      0.00
                                0.00      0.00      0.00

     TS-vdW  stress (kbar)      0.00      0.00      0.00
                                0.00      0.00      0.00
                                0.00      0.00      0.00



     Writing output data file ZnO.save/
 
     init_run     :      0.49s CPU      1.08s WALL (       1 calls)
     electrons    :      6.71s CPU      7.22s WALL (       1 calls)
     forces       :      0.16s CPU      0.17s WALL (       1 calls)
     stress       :      0.29s CPU      0.31s WALL (       1 calls)

     Called by init_run:
     wfcinit      :      0.30s CPU      0.64s WALL (       1 calls)
     wfcinit:atom :      0.00s CPU      0.00s WALL (      65 calls)
     wfcinit:wfcr :      0.28s CPU      0.62s WALL (      65 calls)
     potinit      :      0.07s CPU      0.09s WALL (       1 calls)
     hinit0       :      0.10s CPU      0.30s WALL (       1 calls)

     Called by electrons:
     c_bands      :      5.61s CPU      6.00s WALL (       8 calls)
     sum_band     :      0.79s CPU      0.84s WALL (       8 calls)
     v_of_rho     :      0.25s CPU      0.26s WALL (       9 calls)
     v_h          :      0.00s CPU      0.00s WALL (       9 calls)
     v_xc         :      0.29s CPU      0.31s WALL (      11 calls)
     newd         :      0.06s CPU      0.08s WALL (       9 calls)
     mix_rho      :      0.01s CPU      0.05s WALL (       8 calls)

     Called by c_bands:
     init_us_2    :      0.10s CPU      0.10s WALL (    1235 calls)
     cegterg      :      5.24s CPU      5.50s WALL (     520 calls)

     Called by sum_band:
     sum_band:bec :      0.01s CPU      0.01s WALL (     520 calls)
     addusdens    :      0.05s CPU      0.06s WALL (       8 calls)

     Called by *egterg:
     h_psi        :      3.15s CPU      3.27s WALL (    1842 calls)
     s_psi        :      0.11s CPU      0.12s WALL (    1842 calls)
     g_psi        :      0.01s CPU      0.01s WALL (    1257 calls)
     cdiaghg      :      1.40s CPU      1.78s WALL (    1777 calls)
     cegterg:over :      0.39s CPU      0.45s WALL (    1257 calls)
     cegterg:upda :      0.19s CPU      0.20s WALL (    1257 calls)
     cegterg:last :      0.11s CPU      0.11s WALL (     520 calls)
     cdiaghg:chol :      0.07s CPU      0.14s WALL (    1777 calls)
     cdiaghg:inve :      0.03s CPU      0.05s WALL (    1777 calls)
     cdiaghg:para :      0.14s CPU      0.17s WALL (    3554 calls)

     Called by h_psi:
     h_psi:pot    :      3.14s CPU      3.26s WALL (    1842 calls)
     h_psi:calbec :      0.21s CPU      0.23s WALL (    1842 calls)
     vloc_psi     :      2.81s CPU      2.91s WALL (    1842 calls)
     add_vuspsi   :      0.12s CPU      0.12s WALL (    1842 calls)

     General routines
     calbec       :      0.33s CPU      0.35s WALL (    2687 calls)
     fft          :      0.05s CPU      0.11s WALL (     140 calls)
     ffts         :      0.00s CPU      0.00s WALL (      17 calls)
     fftw         :      3.20s CPU      3.32s WALL (   68958 calls)
     interpolate  :      0.00s CPU      0.01s WALL (       9 calls)
 
     Parallel routines
     fft_scatt_xy :      0.45s CPU      0.46s WALL (   69115 calls)
     fft_scatt_yz :      1.69s CPU      1.77s WALL (   69115 calls)
 
     PWSCF        :      7.93s CPU     10.36s WALL

 
   This run was terminated on:  23:24: 7  15Jun2022            

=------------------------------------------------------------------------------=
   JOB DONE.
=------------------------------------------------------------------------------=
