
     Program PWSCF v.6.4.1 starts on 16Jun2022 at 20:11:17 

     This program is part of the open-source Quantum ESPRESSO suite
     for quantum simulation of materials; please cite
         "P. Giannozzi et al., J. Phys.:Condens. Matter 21 395502 (2009);
         "P. Giannozzi et al., J. Phys.:Condens. Matter 29 465901 (2017);
          URL http://www.quantum-espresso.org", 
     in publications or presentations arising from this work. More details at
     http://www.quantum-espresso.org/quote

     Parallel version (MPI), running on    64 processors

     MPI processes distributed on     1 nodes
     K-points division:     npool     =       4
     R & G space division:  proc/nbgrp/npool/nimage =      16
     Waiting for input...
     Reading input from standard input
Warning: card &IONS ignored
Warning: card   UPSCALE           = 100.D0, ignored
Warning: card / ignored
Warning: card &CELL ignored
Warning: card   CELL_DYNAMICS     = 'BFGS' ignored
Warning: card   PRESS_CONV_THR    = 0.5D0 ignored
Warning: card   CELL_DOFREE = 'ALL' ignored
Warning: card / ignored

     Current dimensions of program PWSCF are:
     Max number of different atomic species (ntypx) = 10
     Max number of k-points (npk) =  40000
     Max angular momentum in pseudopotentials (lmaxx) =  3

     Subspace diagonalization in iterative solution of the eigenvalue problem:
     one sub-group per band group will be used
     scalapack distributed-memory algorithm (size of sub-group:  2*  2 procs)

 
     Parallelization info
     --------------------
     sticks:   dense  smooth     PW     G-vecs:    dense   smooth      PW
     Min         100      52     16                 4942     1924     334
     Max         104      53     18                 4944     1931     337
     Sum        1615     847    265                79077    30889    5359
 


     bravais-lattice index     =            0
     lattice parameter (alat)  =       6.2215  a.u.
     unit-cell volume          =     319.0409 (a.u.)^3
     number of atoms/cell      =            4
     number of atomic types    =            3
     number of electrons       =        42.00
     number of Kohn-Sham states=           21
     kinetic-energy cutoff     =      80.0000  Ry
     charge density cutoff     =     600.0000  Ry
     convergence threshold     =      1.0E-06
     mixing beta               =       0.5000
     number of iterations used =            8  plain     mixing
     Exchange-correlation      = SLA  PW   PSX  PSC ( 1  4 10  8 0 0)
     Using LIBXC version       =    4   3   4

     celldm(1)=   6.221479  celldm(2)=   0.000000  celldm(3)=   0.000000
     celldm(4)=   0.000000  celldm(5)=   0.000000  celldm(6)=   0.000000

     crystal axes: (cart. coord. in units of alat)
               a(1) = (   1.000000   0.000000   0.000000 )  
               a(2) = (  -0.500000   0.866025   0.000000 )  
               a(3) = (   0.000000   0.000000   1.529800 )  

     reciprocal axes: (cart. coord. in units 2 pi/alat)
               b(1) = (  1.000000  0.577350 -0.000000 )  
               b(2) = ( -0.000000  1.154701 -0.000000 )  
               b(3) = ( -0.000000 -0.000000  0.653680 )  


     PseudoPot. # 1 for Mg read from file:
     ./GBRV_PBEsol/mg_pbesol_v1.4.uspp.F.UPF
     MD5 check sum: 4059f37963cf5867752dbf5ab2400678
     Pseudo is Ultrasoft, Zval = 10.0
     Generated by new atomic code, or converted to UPF format
     Using radial grid of  821 points,  7 beta functions with: 
                l(1) =   0
                l(2) =   0
                l(3) =   0
                l(4) =   1
                l(5) =   1
                l(6) =   2
                l(7) =   2
     Q(r) pseudized with  8 coefficients,  rinner =    1.200   1.200   1.200
                                                       1.200   1.200

     PseudoPot. # 2 for Zn read from file:
     ./GBRV_PBEsol/zn_pbesol_v1.uspp.F.UPF
     MD5 check sum: 7d8615e52efe7c1e2b1899de8658bae2
     Pseudo is Ultrasoft, Zval = 20.0
     Generated by new atomic code, or converted to UPF format
     Using radial grid of  943 points,  6 beta functions with: 
                l(1) =   0
                l(2) =   0
                l(3) =   1
                l(4) =   1
                l(5) =   2
                l(6) =   2
     Q(r) pseudized with  8 coefficients,  rinner =    1.100   1.100   1.100
                                                       1.100   1.100

     PseudoPot. # 3 for O  read from file:
     ./GBRV_PBEsol/o_pbesol_v1.2.uspp.F.UPF
     MD5 check sum: 501638753501ef6325af9037351f7734
     Pseudo is Ultrasoft + core correction, Zval =  6.0
     Generated by new atomic code, or converted to UPF format
     Using radial grid of  737 points,  5 beta functions with: 
                l(1) =   0
                l(2) =   0
                l(3) =   1
                l(4) =   1
                l(5) =   2
     Q(r) pseudized with  8 coefficients,  rinner =    0.900   0.900   0.900
                                                       0.900   0.900

     atomic species   valence    mass     pseudopotential
        Mg            10.00    24.30500     Mg( 1.00)
        Zn            20.00    65.38000     Zn( 1.00)
        O              6.00    15.99900     O ( 1.00)

     No symmetry found


                                    s                        frac. trans.

      isym =  1     identity                                     

 cryst.   s( 1) = (     1          0          0      )
                  (     0          1          0      )
                  (     0          0          1      )

 cart.    s( 1) = (  1.0000000  0.0000000  0.0000000 )
                  ( -0.0000000  1.0000000 -0.0000000 )
                  ( -0.0000000 -0.0000000  1.0000000 )


   Cartesian axes

     site n.     atom                  positions (alat units)
         1           O   tau(   1) = (   0.5000002   0.2886755   0.0112377  )
         2           O   tau(   2) = (   0.0000001   0.5773494   0.7761378  )
         3           Zn  tau(   3) = (   0.5000000   0.2886748   0.6180301  )
         4           Mg  tau(   4) = (  -0.0000002   0.5773512   1.3879551  )

   Crystallographic axes

     site n.     atom                  positions (cryst. coord.)
         1           O   tau(   1) = (  0.6666670  0.3333337  0.0073459  )
         2           O   tau(   2) = (  0.3333329  0.6666657  0.5073458  )
         3           Zn  tau(   3) = (  0.6666664  0.3333329  0.4039939  )
         4           Mg  tau(   4) = (  0.3333337  0.6666677  0.9072785  )

     number of k points=   260
                       cart. coord. in units 2pi/alat
        k(    1) = (   0.0000000   0.0000000   0.0000000), wk =   0.0039062
        k(    2) = (  -0.0000000  -0.0000000   0.0817100), wk =   0.0078125
        k(    3) = (  -0.0000000  -0.0000000   0.1634200), wk =   0.0078125
        k(    4) = (  -0.0000000  -0.0000000   0.2451300), wk =   0.0078125
        k(    5) = (   0.0000000   0.0000000  -0.3268400), wk =   0.0039062
        k(    6) = (  -0.0000000   0.1443376  -0.0000000), wk =   0.0078125
        k(    7) = (  -0.0000000   0.1443376   0.0817100), wk =   0.0078125
        k(    8) = (  -0.0000000   0.1443376   0.1634200), wk =   0.0078125
        k(    9) = (  -0.0000000   0.1443376   0.2451300), wk =   0.0078125
        k(   10) = (  -0.0000000   0.1443376  -0.3268400), wk =   0.0078125
        k(   11) = (  -0.0000000   0.1443376  -0.2451300), wk =   0.0078125
        k(   12) = (  -0.0000000   0.1443376  -0.1634200), wk =   0.0078125
        k(   13) = (  -0.0000000   0.1443376  -0.0817100), wk =   0.0078125
        k(   14) = (  -0.0000000   0.2886752  -0.0000000), wk =   0.0078125
        k(   15) = (  -0.0000000   0.2886751   0.0817100), wk =   0.0078125
        k(   16) = (  -0.0000000   0.2886751   0.1634200), wk =   0.0078125
        k(   17) = (  -0.0000000   0.2886751   0.2451300), wk =   0.0078125
        k(   18) = (  -0.0000000   0.2886752  -0.3268401), wk =   0.0078125
        k(   19) = (  -0.0000000   0.2886752  -0.2451300), wk =   0.0078125
        k(   20) = (  -0.0000000   0.2886752  -0.1634200), wk =   0.0078125
        k(   21) = (  -0.0000000   0.2886752  -0.0817100), wk =   0.0078125
        k(   22) = (  -0.0000000   0.4330127  -0.0000000), wk =   0.0078125
        k(   23) = (  -0.0000000   0.4330127   0.0817100), wk =   0.0078125
        k(   24) = (  -0.0000000   0.4330127   0.1634200), wk =   0.0078125
        k(   25) = (  -0.0000000   0.4330127   0.2451300), wk =   0.0078125
        k(   26) = (  -0.0000000   0.4330128  -0.3268401), wk =   0.0078125
        k(   27) = (  -0.0000000   0.4330128  -0.2451301), wk =   0.0078125
        k(   28) = (  -0.0000000   0.4330127  -0.1634200), wk =   0.0078125
        k(   29) = (  -0.0000000   0.4330127  -0.0817100), wk =   0.0078125
        k(   30) = (   0.0000000  -0.5773503   0.0000000), wk =   0.0039062
        k(   31) = (   0.0000000  -0.5773503   0.0817100), wk =   0.0078125
        k(   32) = (   0.0000000  -0.5773503   0.1634201), wk =   0.0078125
        k(   33) = (   0.0000000  -0.5773503   0.2451301), wk =   0.0078125
        k(   34) = (   0.0000000  -0.5773503  -0.3268400), wk =   0.0039062
        k(   35) = (   0.1250000   0.0721688  -0.0000000), wk =   0.0078125
        k(   36) = (   0.1250000   0.0721688   0.0817100), wk =   0.0078125
        k(   37) = (   0.1250000   0.0721688   0.1634200), wk =   0.0078125
        k(   38) = (   0.1250000   0.0721688   0.2451300), wk =   0.0078125
        k(   39) = (   0.1250000   0.0721688  -0.3268400), wk =   0.0078125
        k(   40) = (   0.1250000   0.0721688  -0.2451300), wk =   0.0078125
        k(   41) = (   0.1250000   0.0721688  -0.1634200), wk =   0.0078125
        k(   42) = (   0.1250000   0.0721688  -0.0817100), wk =   0.0078125
        k(   43) = (   0.1250000   0.2165064  -0.0000000), wk =   0.0078125
        k(   44) = (   0.1250000   0.2165063   0.0817100), wk =   0.0078125
        k(   45) = (   0.1250000   0.2165063   0.1634200), wk =   0.0078125
        k(   46) = (   0.1250000   0.2165063   0.2451300), wk =   0.0078125
        k(   47) = (   0.1250000   0.2165064  -0.3268401), wk =   0.0078125
        k(   48) = (   0.1250000   0.2165064  -0.2451300), wk =   0.0078125
        k(   49) = (   0.1250000   0.2165064  -0.1634200), wk =   0.0078125
        k(   50) = (   0.1250000   0.2165064  -0.0817100), wk =   0.0078125
        k(   51) = (   0.1250000   0.3608439  -0.0000000), wk =   0.0078125
        k(   52) = (   0.1250000   0.3608439   0.0817100), wk =   0.0078125
        k(   53) = (   0.1250000   0.3608439   0.1634200), wk =   0.0078125
        k(   54) = (   0.1250000   0.3608439   0.2451300), wk =   0.0078125
        k(   55) = (   0.1250000   0.3608440  -0.3268401), wk =   0.0078125
        k(   56) = (   0.1250000   0.3608440  -0.2451301), wk =   0.0078125
        k(   57) = (   0.1250000   0.3608439  -0.1634200), wk =   0.0078125
        k(   58) = (   0.1250000   0.3608439  -0.0817100), wk =   0.0078125
        k(   59) = (   0.1250000   0.5051815  -0.0000000), wk =   0.0078125
        k(   60) = (   0.1250000   0.5051815   0.0817100), wk =   0.0078125
        k(   61) = (   0.1250000   0.5051815   0.1634200), wk =   0.0078125
        k(   62) = (   0.1250000   0.5051815   0.2451300), wk =   0.0078125
        k(   63) = (   0.1250000   0.5051815  -0.3268401), wk =   0.0078125
        k(   64) = (   0.1250000   0.5051815  -0.2451301), wk =   0.0078125
        k(   65) = (   0.1250000   0.5051815  -0.1634201), wk =   0.0078125
        k(   66) = (   0.1250000   0.5051815  -0.0817100), wk =   0.0078125
        k(   67) = (   0.1250000  -0.5051815   0.0000000), wk =   0.0078125
        k(   68) = (   0.1250000  -0.5051815   0.0817100), wk =   0.0078125
        k(   69) = (   0.1250000  -0.5051815   0.1634201), wk =   0.0078125
        k(   70) = (   0.1250000  -0.5051815   0.2451301), wk =   0.0078125
        k(   71) = (   0.1250000  -0.5051815  -0.3268400), wk =   0.0078125
        k(   72) = (   0.1250000  -0.5051815  -0.2451300), wk =   0.0078125
        k(   73) = (   0.1250000  -0.5051815  -0.1634200), wk =   0.0078125
        k(   74) = (   0.1250000  -0.5051815  -0.0817100), wk =   0.0078125
        k(   75) = (   0.1250000  -0.3608439   0.0000000), wk =   0.0078125
        k(   76) = (   0.1250000  -0.3608440   0.0817100), wk =   0.0078125
        k(   77) = (   0.1250000  -0.3608440   0.1634200), wk =   0.0078125
        k(   78) = (   0.1250000  -0.3608440   0.2451301), wk =   0.0078125
        k(   79) = (   0.1250000  -0.3608439  -0.3268400), wk =   0.0078125
        k(   80) = (   0.1250000  -0.3608439  -0.2451300), wk =   0.0078125
        k(   81) = (   0.1250000  -0.3608439  -0.1634200), wk =   0.0078125
        k(   82) = (   0.1250000  -0.3608439  -0.0817100), wk =   0.0078125
        k(   83) = (   0.1250000  -0.2165064   0.0000000), wk =   0.0078125
        k(   84) = (   0.1250000  -0.2165064   0.0817100), wk =   0.0078125
        k(   85) = (   0.1250000  -0.2165064   0.1634200), wk =   0.0078125
        k(   86) = (   0.1250000  -0.2165064   0.2451300), wk =   0.0078125
        k(   87) = (   0.1250000  -0.2165063  -0.3268400), wk =   0.0078125
        k(   88) = (   0.1250000  -0.2165063  -0.2451300), wk =   0.0078125
        k(   89) = (   0.1250000  -0.2165064  -0.1634200), wk =   0.0078125
        k(   90) = (   0.1250000  -0.2165064  -0.0817100), wk =   0.0078125
        k(   91) = (   0.1250000  -0.0721688   0.0000000), wk =   0.0078125
        k(   92) = (   0.1250000  -0.0721688   0.0817100), wk =   0.0078125
        k(   93) = (   0.1250000  -0.0721688   0.1634200), wk =   0.0078125
        k(   94) = (   0.1250000  -0.0721688   0.2451300), wk =   0.0078125
        k(   95) = (   0.1250000  -0.0721688  -0.3268400), wk =   0.0078125
        k(   96) = (   0.1250000  -0.0721688  -0.2451300), wk =   0.0078125
        k(   97) = (   0.1250000  -0.0721688  -0.1634200), wk =   0.0078125
        k(   98) = (   0.1250000  -0.0721688  -0.0817100), wk =   0.0078125
        k(   99) = (   0.2500000   0.1443376  -0.0000000), wk =   0.0078125
        k(  100) = (   0.2500000   0.1443376   0.0817100), wk =   0.0078125
        k(  101) = (   0.2500000   0.1443375   0.1634200), wk =   0.0078125
        k(  102) = (   0.2500000   0.1443375   0.2451300), wk =   0.0078125
        k(  103) = (   0.2500000   0.1443376  -0.3268400), wk =   0.0078125
        k(  104) = (   0.2500000   0.1443376  -0.2451300), wk =   0.0078125
        k(  105) = (   0.2500000   0.1443376  -0.1634200), wk =   0.0078125
        k(  106) = (   0.2500000   0.1443376  -0.0817100), wk =   0.0078125
        k(  107) = (   0.2500000   0.2886751  -0.0000000), wk =   0.0078125
        k(  108) = (   0.2500000   0.2886751   0.0817100), wk =   0.0078125
        k(  109) = (   0.2500000   0.2886751   0.1634200), wk =   0.0078125
        k(  110) = (   0.2500000   0.2886751   0.2451300), wk =   0.0078125
        k(  111) = (   0.2500000   0.2886752  -0.3268401), wk =   0.0078125
        k(  112) = (   0.2500000   0.2886752  -0.2451300), wk =   0.0078125
        k(  113) = (   0.2500000   0.2886752  -0.1634200), wk =   0.0078125
        k(  114) = (   0.2500000   0.2886751  -0.0817100), wk =   0.0078125
        k(  115) = (   0.2500000   0.4330127  -0.0000000), wk =   0.0078125
        k(  116) = (   0.2500000   0.4330127   0.0817100), wk =   0.0078125
        k(  117) = (   0.2500000   0.4330127   0.1634200), wk =   0.0078125
        k(  118) = (   0.2500000   0.4330127   0.2451300), wk =   0.0078125
        k(  119) = (   0.2500000   0.4330127  -0.3268401), wk =   0.0078125
        k(  120) = (   0.2500000   0.4330127  -0.2451301), wk =   0.0078125
        k(  121) = (   0.2500000   0.4330127  -0.1634200), wk =   0.0078125
        k(  122) = (   0.2500000   0.4330127  -0.0817100), wk =   0.0078125
        k(  123) = (   0.2500000   0.5773503  -0.0000000), wk =   0.0078125
        k(  124) = (   0.2500000   0.5773503   0.0817100), wk =   0.0078125
        k(  125) = (   0.2500000   0.5773503   0.1634200), wk =   0.0078125
        k(  126) = (   0.2500000   0.5773503   0.2451300), wk =   0.0078125
        k(  127) = (   0.2500000   0.5773503  -0.3268401), wk =   0.0078125
        k(  128) = (   0.2500000   0.5773503  -0.2451301), wk =   0.0078125
        k(  129) = (   0.2500000   0.5773503  -0.1634201), wk =   0.0078125
        k(  130) = (   0.2500000   0.5773503  -0.0817101), wk =   0.0078125
        k(  131) = (   0.2500000  -0.4330127   0.0000000), wk =   0.0078125
        k(  132) = (   0.2500000  -0.4330127   0.0817100), wk =   0.0078125
        k(  133) = (   0.2500000  -0.4330128   0.1634200), wk =   0.0078125
        k(  134) = (   0.2500000  -0.4330128   0.2451301), wk =   0.0078125
        k(  135) = (   0.2500000  -0.4330127  -0.3268400), wk =   0.0078125
        k(  136) = (   0.2500000  -0.4330127  -0.2451300), wk =   0.0078125
        k(  137) = (   0.2500000  -0.4330127  -0.1634200), wk =   0.0078125
        k(  138) = (   0.2500000  -0.4330127  -0.0817100), wk =   0.0078125
        k(  139) = (   0.2500000  -0.2886752   0.0000000), wk =   0.0078125
        k(  140) = (   0.2500000  -0.2886752   0.0817100), wk =   0.0078125
        k(  141) = (   0.2500000  -0.2886752   0.1634200), wk =   0.0078125
        k(  142) = (   0.2500000  -0.2886752   0.2451300), wk =   0.0078125
        k(  143) = (   0.2500000  -0.2886751  -0.3268400), wk =   0.0078125
        k(  144) = (   0.2500000  -0.2886751  -0.2451300), wk =   0.0078125
        k(  145) = (   0.2500000  -0.2886752  -0.1634200), wk =   0.0078125
        k(  146) = (   0.2500000  -0.2886752  -0.0817100), wk =   0.0078125
        k(  147) = (   0.2500000  -0.1443376   0.0000000), wk =   0.0078125
        k(  148) = (   0.2500000  -0.1443376   0.0817100), wk =   0.0078125
        k(  149) = (   0.2500000  -0.1443376   0.1634200), wk =   0.0078125
        k(  150) = (   0.2500000  -0.1443376   0.2451300), wk =   0.0078125
        k(  151) = (   0.2500000  -0.1443376  -0.3268400), wk =   0.0078125
        k(  152) = (   0.2500000  -0.1443376  -0.2451300), wk =   0.0078125
        k(  153) = (   0.2500000  -0.1443376  -0.1634200), wk =   0.0078125
        k(  154) = (   0.2500000  -0.1443376  -0.0817100), wk =   0.0078125
        k(  155) = (   0.2500000  -0.0000000  -0.0000000), wk =   0.0078125
        k(  156) = (   0.2500000  -0.0000000   0.0817100), wk =   0.0078125
        k(  157) = (   0.2500000  -0.0000000   0.1634200), wk =   0.0078125
        k(  158) = (   0.2500000  -0.0000000   0.2451300), wk =   0.0078125
        k(  159) = (   0.2500000   0.0000000  -0.3268400), wk =   0.0078125
        k(  160) = (   0.2500000   0.0000000  -0.2451300), wk =   0.0078125
        k(  161) = (   0.2500000   0.0000000  -0.1634200), wk =   0.0078125
        k(  162) = (   0.2500000  -0.0000000  -0.0817100), wk =   0.0078125
        k(  163) = (   0.3750000   0.2165063  -0.0000000), wk =   0.0078125
        k(  164) = (   0.3750000   0.2165063   0.0817100), wk =   0.0078125
        k(  165) = (   0.3750000   0.2165063   0.1634200), wk =   0.0078125
        k(  166) = (   0.3750000   0.2165063   0.2451300), wk =   0.0078125
        k(  167) = (   0.3750000   0.2165064  -0.3268401), wk =   0.0078125
        k(  168) = (   0.3750000   0.2165064  -0.2451300), wk =   0.0078125
        k(  169) = (   0.3750000   0.2165064  -0.1634200), wk =   0.0078125
        k(  170) = (   0.3750000   0.2165064  -0.0817100), wk =   0.0078125
        k(  171) = (   0.3750000   0.3608439  -0.0000000), wk =   0.0078125
        k(  172) = (   0.3750000   0.3608439   0.0817100), wk =   0.0078125
        k(  173) = (   0.3750000   0.3608439   0.1634200), wk =   0.0078125
        k(  174) = (   0.3750000   0.3608439   0.2451300), wk =   0.0078125
        k(  175) = (   0.3750000   0.3608440  -0.3268401), wk =   0.0078125
        k(  176) = (   0.3750000   0.3608439  -0.2451301), wk =   0.0078125
        k(  177) = (   0.3750000   0.3608439  -0.1634200), wk =   0.0078125
        k(  178) = (   0.3750000   0.3608439  -0.0817100), wk =   0.0078125
        k(  179) = (   0.3750000   0.5051815  -0.0000000), wk =   0.0078125
        k(  180) = (   0.3750000   0.5051815   0.0817100), wk =   0.0078125
        k(  181) = (   0.3750000   0.5051815   0.1634200), wk =   0.0078125
        k(  182) = (   0.3750000   0.5051815   0.2451300), wk =   0.0078125
        k(  183) = (   0.3750000   0.5051815  -0.3268401), wk =   0.0078125
        k(  184) = (   0.3750000   0.5051815  -0.2451301), wk =   0.0078125
        k(  185) = (   0.3750000   0.5051815  -0.1634201), wk =   0.0078125
        k(  186) = (   0.3750000   0.5051815  -0.0817100), wk =   0.0078125
        k(  187) = (   0.3750000   0.6495191  -0.0000000), wk =   0.0078125
        k(  188) = (   0.3750000   0.6495191   0.0817100), wk =   0.0078125
        k(  189) = (   0.3750000   0.6495191   0.1634200), wk =   0.0078125
        k(  190) = (   0.3750000   0.6495190   0.2451300), wk =   0.0078125
        k(  191) = (   0.3750000   0.6495191  -0.3268401), wk =   0.0078125
        k(  192) = (   0.3750000   0.6495191  -0.2451301), wk =   0.0078125
        k(  193) = (   0.3750000   0.6495191  -0.1634201), wk =   0.0078125
        k(  194) = (   0.3750000   0.6495191  -0.0817101), wk =   0.0078125
        k(  195) = (   0.3750000  -0.3608440   0.0000000), wk =   0.0078125
        k(  196) = (   0.3750000  -0.3608440   0.0817100), wk =   0.0078125
        k(  197) = (   0.3750000  -0.3608440   0.1634200), wk =   0.0078125
        k(  198) = (   0.3750000  -0.3608440   0.2451301), wk =   0.0078125
        k(  199) = (   0.3750000  -0.3608439  -0.3268400), wk =   0.0078125
        k(  200) = (   0.3750000  -0.3608439  -0.2451300), wk =   0.0078125
        k(  201) = (   0.3750000  -0.3608439  -0.1634200), wk =   0.0078125
        k(  202) = (   0.3750000  -0.3608440  -0.0817100), wk =   0.0078125
        k(  203) = (   0.3750000  -0.2165064   0.0000000), wk =   0.0078125
        k(  204) = (   0.3750000  -0.2165064   0.0817100), wk =   0.0078125
        k(  205) = (   0.3750000  -0.2165064   0.1634200), wk =   0.0078125
        k(  206) = (   0.3750000  -0.2165064   0.2451300), wk =   0.0078125
        k(  207) = (   0.3750000  -0.2165064  -0.3268400), wk =   0.0078125
        k(  208) = (   0.3750000  -0.2165064  -0.2451300), wk =   0.0078125
        k(  209) = (   0.3750000  -0.2165064  -0.1634200), wk =   0.0078125
        k(  210) = (   0.3750000  -0.2165064  -0.0817100), wk =   0.0078125
        k(  211) = (   0.3750000  -0.0721688   0.0000000), wk =   0.0078125
        k(  212) = (   0.3750000  -0.0721688   0.0817100), wk =   0.0078125
        k(  213) = (   0.3750000  -0.0721688   0.1634200), wk =   0.0078125
        k(  214) = (   0.3750000  -0.0721688   0.2451300), wk =   0.0078125
        k(  215) = (   0.3750000  -0.0721688  -0.3268400), wk =   0.0078125
        k(  216) = (   0.3750000  -0.0721688  -0.2451300), wk =   0.0078125
        k(  217) = (   0.3750000  -0.0721688  -0.1634200), wk =   0.0078125
        k(  218) = (   0.3750000  -0.0721688  -0.0817100), wk =   0.0078125
        k(  219) = (   0.3750000   0.0721688  -0.0000000), wk =   0.0078125
        k(  220) = (   0.3750000   0.0721688   0.0817100), wk =   0.0078125
        k(  221) = (   0.3750000   0.0721688   0.1634200), wk =   0.0078125
        k(  222) = (   0.3750000   0.0721687   0.2451300), wk =   0.0078125
        k(  223) = (   0.3750000   0.0721688  -0.3268400), wk =   0.0078125
        k(  224) = (   0.3750000   0.0721688  -0.2451300), wk =   0.0078125
        k(  225) = (   0.3750000   0.0721688  -0.1634200), wk =   0.0078125
        k(  226) = (   0.3750000   0.0721688  -0.0817100), wk =   0.0078125
        k(  227) = (  -0.5000000  -0.2886751   0.0000000), wk =   0.0039062
        k(  228) = (  -0.5000000  -0.2886751   0.0817100), wk =   0.0078125
        k(  229) = (  -0.5000000  -0.2886751   0.1634200), wk =   0.0078125
        k(  230) = (  -0.5000000  -0.2886751   0.2451300), wk =   0.0078125
        k(  231) = (  -0.5000000  -0.2886751  -0.3268400), wk =   0.0039062
        k(  232) = (  -0.5000000  -0.1443375   0.0000000), wk =   0.0078125
        k(  233) = (  -0.5000000  -0.1443376   0.0817100), wk =   0.0078125
        k(  234) = (  -0.5000000  -0.1443376   0.1634200), wk =   0.0078125
        k(  235) = (  -0.5000000  -0.1443376   0.2451300), wk =   0.0078125
        k(  236) = (  -0.5000000  -0.1443375  -0.3268400), wk =   0.0078125
        k(  237) = (  -0.5000000  -0.1443375  -0.2451300), wk =   0.0078125
        k(  238) = (  -0.5000000  -0.1443375  -0.1634200), wk =   0.0078125
        k(  239) = (  -0.5000000  -0.1443375  -0.0817100), wk =   0.0078125
        k(  240) = (  -0.5000000   0.0000000   0.0000000), wk =   0.0078125
        k(  241) = (  -0.5000000   0.0000000   0.0817100), wk =   0.0078125
        k(  242) = (  -0.5000000   0.0000000   0.1634200), wk =   0.0078125
        k(  243) = (  -0.5000000   0.0000000   0.2451300), wk =   0.0078125
        k(  244) = (  -0.5000000   0.0000001  -0.3268400), wk =   0.0078125
        k(  245) = (  -0.5000000   0.0000001  -0.2451300), wk =   0.0078125
        k(  246) = (  -0.5000000   0.0000000  -0.1634200), wk =   0.0078125
        k(  247) = (  -0.5000000   0.0000000  -0.0817100), wk =   0.0078125
        k(  248) = (  -0.5000000   0.1443376  -0.0000000), wk =   0.0078125
        k(  249) = (  -0.5000000   0.1443376   0.0817100), wk =   0.0078125
        k(  250) = (  -0.5000000   0.1443376   0.1634200), wk =   0.0078125
        k(  251) = (  -0.5000000   0.1443376   0.2451300), wk =   0.0078125
        k(  252) = (  -0.5000000   0.1443376  -0.3268400), wk =   0.0078125
        k(  253) = (  -0.5000000   0.1443376  -0.2451300), wk =   0.0078125
        k(  254) = (  -0.5000000   0.1443376  -0.1634200), wk =   0.0078125
        k(  255) = (  -0.5000000   0.1443376  -0.0817100), wk =   0.0078125
        k(  256) = (  -0.5000000  -0.8660254   0.0000001), wk =   0.0039062
        k(  257) = (  -0.5000000  -0.8660254   0.0817101), wk =   0.0078125
        k(  258) = (  -0.5000000  -0.8660254   0.1634201), wk =   0.0078125
        k(  259) = (  -0.5000000  -0.8660255   0.2451301), wk =   0.0078125
        k(  260) = (  -0.4999999  -0.8660254  -0.3268400), wk =   0.0039062

                       cryst. coord.
        k(    1) = (   0.0000000   0.0000000   0.0000000), wk =   0.0039062
        k(    2) = (  -0.0000000  -0.0000000   0.1250000), wk =   0.0078125
        k(    3) = (  -0.0000000  -0.0000000   0.2500000), wk =   0.0078125
        k(    4) = (  -0.0000000  -0.0000000   0.3750000), wk =   0.0078125
        k(    5) = (   0.0000000   0.0000000  -0.5000000), wk =   0.0039062
        k(    6) = (  -0.0000000   0.1250000   0.0000000), wk =   0.0078125
        k(    7) = (  -0.0000000   0.1250000   0.1250000), wk =   0.0078125
        k(    8) = (  -0.0000000   0.1250000   0.2500000), wk =   0.0078125
        k(    9) = (  -0.0000000   0.1250000   0.3750000), wk =   0.0078125
        k(   10) = (   0.0000000   0.1250000  -0.5000000), wk =   0.0078125
        k(   11) = (   0.0000000   0.1250000  -0.3750000), wk =   0.0078125
        k(   12) = (  -0.0000000   0.1250000  -0.2500000), wk =   0.0078125
        k(   13) = (  -0.0000000   0.1250000  -0.1250000), wk =   0.0078125
        k(   14) = (  -0.0000000   0.2500000   0.0000000), wk =   0.0078125
        k(   15) = (  -0.0000000   0.2500000   0.1250000), wk =   0.0078125
        k(   16) = (  -0.0000000   0.2500000   0.2500000), wk =   0.0078125
        k(   17) = (  -0.0000000   0.2500000   0.3750000), wk =   0.0078125
        k(   18) = (  -0.0000000   0.2500000  -0.5000000), wk =   0.0078125
        k(   19) = (  -0.0000000   0.2500000  -0.3750000), wk =   0.0078125
        k(   20) = (  -0.0000000   0.2500000  -0.2500000), wk =   0.0078125
        k(   21) = (   0.0000000   0.2500000  -0.1250000), wk =   0.0078125
        k(   22) = (  -0.0000000   0.3750000  -0.0000000), wk =   0.0078125
        k(   23) = (  -0.0000000   0.3750000   0.1250000), wk =   0.0078125
        k(   24) = (  -0.0000000   0.3750000   0.2500000), wk =   0.0078125
        k(   25) = (  -0.0000000   0.3750000   0.3750000), wk =   0.0078125
        k(   26) = (  -0.0000000   0.3750000  -0.5000000), wk =   0.0078125
        k(   27) = (   0.0000000   0.3750000  -0.3750000), wk =   0.0078125
        k(   28) = (  -0.0000000   0.3750000  -0.2500000), wk =   0.0078125
        k(   29) = (  -0.0000000   0.3750000  -0.1250000), wk =   0.0078125
        k(   30) = (   0.0000000  -0.5000000  -0.0000000), wk =   0.0039062
        k(   31) = (   0.0000000  -0.5000000   0.1250000), wk =   0.0078125
        k(   32) = (  -0.0000000  -0.5000000   0.2500000), wk =   0.0078125
        k(   33) = (   0.0000000  -0.5000000   0.3750000), wk =   0.0078125
        k(   34) = (   0.0000000  -0.5000000  -0.5000000), wk =   0.0039062
        k(   35) = (   0.1250000   0.0000000   0.0000000), wk =   0.0078125
        k(   36) = (   0.1250000   0.0000000   0.1250000), wk =   0.0078125
        k(   37) = (   0.1250000   0.0000000   0.2500000), wk =   0.0078125
        k(   38) = (   0.1250000   0.0000000   0.3750000), wk =   0.0078125
        k(   39) = (   0.1250000   0.0000000  -0.5000000), wk =   0.0078125
        k(   40) = (   0.1250000   0.0000000  -0.3750000), wk =   0.0078125
        k(   41) = (   0.1250000   0.0000000  -0.2500000), wk =   0.0078125
        k(   42) = (   0.1250000   0.0000000  -0.1250000), wk =   0.0078125
        k(   43) = (   0.1250000   0.1250000  -0.0000000), wk =   0.0078125
        k(   44) = (   0.1250000   0.1250000   0.1250000), wk =   0.0078125
        k(   45) = (   0.1250000   0.1250000   0.2500000), wk =   0.0078125
        k(   46) = (   0.1250000   0.1250000   0.3750000), wk =   0.0078125
        k(   47) = (   0.1250000   0.1250000  -0.5000000), wk =   0.0078125
        k(   48) = (   0.1250000   0.1250000  -0.3750000), wk =   0.0078125
        k(   49) = (   0.1250000   0.1250000  -0.2500000), wk =   0.0078125
        k(   50) = (   0.1250000   0.1250000  -0.1250000), wk =   0.0078125
        k(   51) = (   0.1250000   0.2500000  -0.0000000), wk =   0.0078125
        k(   52) = (   0.1250000   0.2500000   0.1250000), wk =   0.0078125
        k(   53) = (   0.1250000   0.2500000   0.2500000), wk =   0.0078125
        k(   54) = (   0.1250000   0.2500000   0.3750000), wk =   0.0078125
        k(   55) = (   0.1250000   0.2500000  -0.5000000), wk =   0.0078125
        k(   56) = (   0.1250000   0.2500000  -0.3750000), wk =   0.0078125
        k(   57) = (   0.1250000   0.2500000  -0.2500000), wk =   0.0078125
        k(   58) = (   0.1250000   0.2500000  -0.1250000), wk =   0.0078125
        k(   59) = (   0.1250000   0.3750000  -0.0000000), wk =   0.0078125
        k(   60) = (   0.1250000   0.3750000   0.1250000), wk =   0.0078125
        k(   61) = (   0.1250000   0.3750000   0.2500000), wk =   0.0078125
        k(   62) = (   0.1250000   0.3750000   0.3750000), wk =   0.0078125
        k(   63) = (   0.1250000   0.3750000  -0.5000000), wk =   0.0078125
        k(   64) = (   0.1250000   0.3750000  -0.3750000), wk =   0.0078125
        k(   65) = (   0.1250000   0.3750000  -0.2500000), wk =   0.0078125
        k(   66) = (   0.1250000   0.3750000  -0.1250000), wk =   0.0078125
        k(   67) = (   0.1250000  -0.5000000   0.0000000), wk =   0.0078125
        k(   68) = (   0.1250000  -0.5000000   0.1250000), wk =   0.0078125
        k(   69) = (   0.1250000  -0.5000000   0.2500000), wk =   0.0078125
        k(   70) = (   0.1250000  -0.5000000   0.3750000), wk =   0.0078125
        k(   71) = (   0.1250000  -0.5000000  -0.5000000), wk =   0.0078125
        k(   72) = (   0.1250000  -0.5000000  -0.3750000), wk =   0.0078125
        k(   73) = (   0.1250000  -0.5000000  -0.2500000), wk =   0.0078125
        k(   74) = (   0.1250000  -0.5000000  -0.1250000), wk =   0.0078125
        k(   75) = (   0.1250000  -0.3750000   0.0000000), wk =   0.0078125
        k(   76) = (   0.1250000  -0.3750000   0.1250000), wk =   0.0078125
        k(   77) = (   0.1250000  -0.3750000   0.2500000), wk =   0.0078125
        k(   78) = (   0.1250000  -0.3750000   0.3750000), wk =   0.0078125
        k(   79) = (   0.1250000  -0.3750000  -0.5000000), wk =   0.0078125
        k(   80) = (   0.1250000  -0.3750000  -0.3750000), wk =   0.0078125
        k(   81) = (   0.1250000  -0.3750000  -0.2500000), wk =   0.0078125
        k(   82) = (   0.1250000  -0.3750000  -0.1250000), wk =   0.0078125
        k(   83) = (   0.1250000  -0.2500000   0.0000000), wk =   0.0078125
        k(   84) = (   0.1250000  -0.2500000   0.1250000), wk =   0.0078125
        k(   85) = (   0.1250000  -0.2500000   0.2500000), wk =   0.0078125
        k(   86) = (   0.1250000  -0.2500000   0.3750000), wk =   0.0078125
        k(   87) = (   0.1250000  -0.2500000  -0.5000000), wk =   0.0078125
        k(   88) = (   0.1250000  -0.2500000  -0.3750000), wk =   0.0078125
        k(   89) = (   0.1250000  -0.2500000  -0.2500000), wk =   0.0078125
        k(   90) = (   0.1250000  -0.2500000  -0.1250000), wk =   0.0078125
        k(   91) = (   0.1250000  -0.1250000   0.0000000), wk =   0.0078125
        k(   92) = (   0.1250000  -0.1250000   0.1250000), wk =   0.0078125
        k(   93) = (   0.1250000  -0.1250000   0.2500000), wk =   0.0078125
        k(   94) = (   0.1250000  -0.1250000   0.3750000), wk =   0.0078125
        k(   95) = (   0.1250000  -0.1250000  -0.5000000), wk =   0.0078125
        k(   96) = (   0.1250000  -0.1250000  -0.3750000), wk =   0.0078125
        k(   97) = (   0.1250000  -0.1250000  -0.2500000), wk =   0.0078125
        k(   98) = (   0.1250000  -0.1250000  -0.1250000), wk =   0.0078125
        k(   99) = (   0.2500000   0.0000000   0.0000000), wk =   0.0078125
        k(  100) = (   0.2500000   0.0000000   0.1250000), wk =   0.0078125
        k(  101) = (   0.2500000   0.0000000   0.2500000), wk =   0.0078125
        k(  102) = (   0.2500000   0.0000000   0.3750000), wk =   0.0078125
        k(  103) = (   0.2500000   0.0000000  -0.5000000), wk =   0.0078125
        k(  104) = (   0.2500000   0.0000000  -0.3750000), wk =   0.0078125
        k(  105) = (   0.2500000   0.0000000  -0.2500000), wk =   0.0078125
        k(  106) = (   0.2500000   0.0000000  -0.1250000), wk =   0.0078125
        k(  107) = (   0.2500000   0.1250000   0.0000000), wk =   0.0078125
        k(  108) = (   0.2500000   0.1250000   0.1250000), wk =   0.0078125
        k(  109) = (   0.2500000   0.1250000   0.2500000), wk =   0.0078125
        k(  110) = (   0.2500000   0.1250000   0.3750000), wk =   0.0078125
        k(  111) = (   0.2500000   0.1250000  -0.5000000), wk =   0.0078125
        k(  112) = (   0.2500000   0.1250000  -0.3750000), wk =   0.0078125
        k(  113) = (   0.2500000   0.1250000  -0.2500000), wk =   0.0078125
        k(  114) = (   0.2500000   0.1250000  -0.1250000), wk =   0.0078125
        k(  115) = (   0.2500000   0.2500000  -0.0000000), wk =   0.0078125
        k(  116) = (   0.2500000   0.2500000   0.1250000), wk =   0.0078125
        k(  117) = (   0.2500000   0.2500000   0.2500000), wk =   0.0078125
        k(  118) = (   0.2500000   0.2500000   0.3750000), wk =   0.0078125
        k(  119) = (   0.2500000   0.2500000  -0.5000000), wk =   0.0078125
        k(  120) = (   0.2500000   0.2500000  -0.3750000), wk =   0.0078125
        k(  121) = (   0.2500000   0.2500000  -0.2500000), wk =   0.0078125
        k(  122) = (   0.2500000   0.2500000  -0.1250000), wk =   0.0078125
        k(  123) = (   0.2500000   0.3750000  -0.0000000), wk =   0.0078125
        k(  124) = (   0.2500000   0.3750000   0.1250000), wk =   0.0078125
        k(  125) = (   0.2500000   0.3750000   0.2500000), wk =   0.0078125
        k(  126) = (   0.2500000   0.3750000   0.3750000), wk =   0.0078125
        k(  127) = (   0.2500000   0.3750000  -0.5000000), wk =   0.0078125
        k(  128) = (   0.2500000   0.3750000  -0.3750000), wk =   0.0078125
        k(  129) = (   0.2500000   0.3750000  -0.2500000), wk =   0.0078125
        k(  130) = (   0.2500000   0.3750000  -0.1250000), wk =   0.0078125
        k(  131) = (   0.2500000  -0.5000000   0.0000000), wk =   0.0078125
        k(  132) = (   0.2500000  -0.5000000   0.1250000), wk =   0.0078125
        k(  133) = (   0.2500000  -0.5000000   0.2500000), wk =   0.0078125
        k(  134) = (   0.2500000  -0.5000000   0.3750000), wk =   0.0078125
        k(  135) = (   0.2500000  -0.5000000  -0.5000000), wk =   0.0078125
        k(  136) = (   0.2500000  -0.5000000  -0.3750000), wk =   0.0078125
        k(  137) = (   0.2500000  -0.5000000  -0.2500000), wk =   0.0078125
        k(  138) = (   0.2500000  -0.5000000  -0.1250000), wk =   0.0078125
        k(  139) = (   0.2500000  -0.3750000   0.0000000), wk =   0.0078125
        k(  140) = (   0.2500000  -0.3750000   0.1250000), wk =   0.0078125
        k(  141) = (   0.2500000  -0.3750000   0.2500000), wk =   0.0078125
        k(  142) = (   0.2500000  -0.3750000   0.3750000), wk =   0.0078125
        k(  143) = (   0.2500000  -0.3750000  -0.5000000), wk =   0.0078125
        k(  144) = (   0.2500000  -0.3750000  -0.3750000), wk =   0.0078125
        k(  145) = (   0.2500000  -0.3750000  -0.2500000), wk =   0.0078125
        k(  146) = (   0.2500000  -0.3750000  -0.1250000), wk =   0.0078125
        k(  147) = (   0.2500000  -0.2500000   0.0000000), wk =   0.0078125
        k(  148) = (   0.2500000  -0.2500000   0.1250000), wk =   0.0078125
        k(  149) = (   0.2500000  -0.2500000   0.2500000), wk =   0.0078125
        k(  150) = (   0.2500000  -0.2500000   0.3750000), wk =   0.0078125
        k(  151) = (   0.2500000  -0.2500000  -0.5000000), wk =   0.0078125
        k(  152) = (   0.2500000  -0.2500000  -0.3750000), wk =   0.0078125
        k(  153) = (   0.2500000  -0.2500000  -0.2500000), wk =   0.0078125
        k(  154) = (   0.2500000  -0.2500000  -0.1250000), wk =   0.0078125
        k(  155) = (   0.2500000  -0.1250000   0.0000000), wk =   0.0078125
        k(  156) = (   0.2500000  -0.1250000   0.1250000), wk =   0.0078125
        k(  157) = (   0.2500000  -0.1250000   0.2500000), wk =   0.0078125
        k(  158) = (   0.2500000  -0.1250000   0.3750000), wk =   0.0078125
        k(  159) = (   0.2500000  -0.1250000  -0.5000000), wk =   0.0078125
        k(  160) = (   0.2500000  -0.1250000  -0.3750000), wk =   0.0078125
        k(  161) = (   0.2500000  -0.1250000  -0.2500000), wk =   0.0078125
        k(  162) = (   0.2500000  -0.1250000  -0.1250000), wk =   0.0078125
        k(  163) = (   0.3750000   0.0000000   0.0000000), wk =   0.0078125
        k(  164) = (   0.3750000   0.0000000   0.1250000), wk =   0.0078125
        k(  165) = (   0.3750000   0.0000000   0.2500000), wk =   0.0078125
        k(  166) = (   0.3750000   0.0000000   0.3750000), wk =   0.0078125
        k(  167) = (   0.3750000   0.0000000  -0.5000000), wk =   0.0078125
        k(  168) = (   0.3750000   0.0000000  -0.3750000), wk =   0.0078125
        k(  169) = (   0.3750000   0.0000000  -0.2500000), wk =   0.0078125
        k(  170) = (   0.3750000   0.0000000  -0.1250000), wk =   0.0078125
        k(  171) = (   0.3750000   0.1250000  -0.0000000), wk =   0.0078125
        k(  172) = (   0.3750000   0.1250000   0.1250000), wk =   0.0078125
        k(  173) = (   0.3750000   0.1250000   0.2500000), wk =   0.0078125
        k(  174) = (   0.3750000   0.1250000   0.3750000), wk =   0.0078125
        k(  175) = (   0.3750000   0.1250000  -0.5000000), wk =   0.0078125
        k(  176) = (   0.3750000   0.1250000  -0.3750000), wk =   0.0078125
        k(  177) = (   0.3750000   0.1250000  -0.2500000), wk =   0.0078125
        k(  178) = (   0.3750000   0.1250000  -0.1250000), wk =   0.0078125
        k(  179) = (   0.3750000   0.2500000   0.0000000), wk =   0.0078125
        k(  180) = (   0.3750000   0.2500000   0.1250000), wk =   0.0078125
        k(  181) = (   0.3750000   0.2500000   0.2500000), wk =   0.0078125
        k(  182) = (   0.3750000   0.2500000   0.3750000), wk =   0.0078125
        k(  183) = (   0.3750000   0.2500000  -0.5000000), wk =   0.0078125
        k(  184) = (   0.3750000   0.2500000  -0.3750000), wk =   0.0078125
        k(  185) = (   0.3750000   0.2500000  -0.2500000), wk =   0.0078125
        k(  186) = (   0.3750000   0.2500000  -0.1250000), wk =   0.0078125
        k(  187) = (   0.3750000   0.3750000   0.0000000), wk =   0.0078125
        k(  188) = (   0.3750000   0.3750000   0.1250000), wk =   0.0078125
        k(  189) = (   0.3750000   0.3750000   0.2500000), wk =   0.0078125
        k(  190) = (   0.3750000   0.3750000   0.3750000), wk =   0.0078125
        k(  191) = (   0.3750000   0.3750000  -0.5000000), wk =   0.0078125
        k(  192) = (   0.3750000   0.3750000  -0.3750000), wk =   0.0078125
        k(  193) = (   0.3750000   0.3750000  -0.2500000), wk =   0.0078125
        k(  194) = (   0.3750000   0.3750000  -0.1250000), wk =   0.0078125
        k(  195) = (   0.3750000  -0.5000000   0.0000000), wk =   0.0078125
        k(  196) = (   0.3750000  -0.5000000   0.1250000), wk =   0.0078125
        k(  197) = (   0.3750000  -0.5000000   0.2500000), wk =   0.0078125
        k(  198) = (   0.3750000  -0.5000000   0.3750000), wk =   0.0078125
        k(  199) = (   0.3750000  -0.5000000  -0.5000000), wk =   0.0078125
        k(  200) = (   0.3750000  -0.5000000  -0.3750000), wk =   0.0078125
        k(  201) = (   0.3750000  -0.5000000  -0.2500000), wk =   0.0078125
        k(  202) = (   0.3750000  -0.5000000  -0.1250000), wk =   0.0078125
        k(  203) = (   0.3750000  -0.3750000   0.0000000), wk =   0.0078125
        k(  204) = (   0.3750000  -0.3750000   0.1250000), wk =   0.0078125
        k(  205) = (   0.3750000  -0.3750000   0.2500000), wk =   0.0078125
        k(  206) = (   0.3750000  -0.3750000   0.3750000), wk =   0.0078125
        k(  207) = (   0.3750000  -0.3750000  -0.5000000), wk =   0.0078125
        k(  208) = (   0.3750000  -0.3750000  -0.3750000), wk =   0.0078125
        k(  209) = (   0.3750000  -0.3750000  -0.2500000), wk =   0.0078125
        k(  210) = (   0.3750000  -0.3750000  -0.1250000), wk =   0.0078125
        k(  211) = (   0.3750000  -0.2500000   0.0000000), wk =   0.0078125
        k(  212) = (   0.3750000  -0.2500000   0.1250000), wk =   0.0078125
        k(  213) = (   0.3750000  -0.2500000   0.2500000), wk =   0.0078125
        k(  214) = (   0.3750000  -0.2500000   0.3750000), wk =   0.0078125
        k(  215) = (   0.3750000  -0.2500000  -0.5000000), wk =   0.0078125
        k(  216) = (   0.3750000  -0.2500000  -0.3750000), wk =   0.0078125
        k(  217) = (   0.3750000  -0.2500000  -0.2500000), wk =   0.0078125
        k(  218) = (   0.3750000  -0.2500000  -0.1250000), wk =   0.0078125
        k(  219) = (   0.3750000  -0.1250000   0.0000000), wk =   0.0078125
        k(  220) = (   0.3750000  -0.1250000   0.1250000), wk =   0.0078125
        k(  221) = (   0.3750000  -0.1250000   0.2500000), wk =   0.0078125
        k(  222) = (   0.3750000  -0.1250000   0.3750000), wk =   0.0078125
        k(  223) = (   0.3750000  -0.1250000  -0.5000000), wk =   0.0078125
        k(  224) = (   0.3750000  -0.1250000  -0.3750000), wk =   0.0078125
        k(  225) = (   0.3750000  -0.1250000  -0.2500000), wk =   0.0078125
        k(  226) = (   0.3750000  -0.1250000  -0.1250000), wk =   0.0078125
        k(  227) = (  -0.5000000  -0.0000000  -0.0000000), wk =   0.0039062
        k(  228) = (  -0.5000000  -0.0000000   0.1250000), wk =   0.0078125
        k(  229) = (  -0.5000000  -0.0000000   0.2500000), wk =   0.0078125
        k(  230) = (  -0.5000000  -0.0000000   0.3750000), wk =   0.0078125
        k(  231) = (  -0.5000000  -0.0000000  -0.5000000), wk =   0.0039062
        k(  232) = (  -0.5000000   0.1250000  -0.0000000), wk =   0.0078125
        k(  233) = (  -0.5000000   0.1250000   0.1250000), wk =   0.0078125
        k(  234) = (  -0.5000000   0.1250000   0.2500000), wk =   0.0078125
        k(  235) = (  -0.5000000   0.1250000   0.3750000), wk =   0.0078125
        k(  236) = (  -0.5000000   0.1250000  -0.5000000), wk =   0.0078125
        k(  237) = (  -0.5000000   0.1250000  -0.3750000), wk =   0.0078125
        k(  238) = (  -0.5000000   0.1250000  -0.2500000), wk =   0.0078125
        k(  239) = (  -0.5000000   0.1250000  -0.1250000), wk =   0.0078125
        k(  240) = (  -0.5000000   0.2500000  -0.0000000), wk =   0.0078125
        k(  241) = (  -0.5000000   0.2500000   0.1250000), wk =   0.0078125
        k(  242) = (  -0.5000000   0.2500000   0.2500000), wk =   0.0078125
        k(  243) = (  -0.5000000   0.2500000   0.3750000), wk =   0.0078125
        k(  244) = (  -0.5000000   0.2500000  -0.5000000), wk =   0.0078125
        k(  245) = (  -0.5000000   0.2500000  -0.3750000), wk =   0.0078125
        k(  246) = (  -0.5000000   0.2500000  -0.2500000), wk =   0.0078125
        k(  247) = (  -0.5000000   0.2500000  -0.1250000), wk =   0.0078125
        k(  248) = (  -0.5000000   0.3750000  -0.0000000), wk =   0.0078125
        k(  249) = (  -0.5000000   0.3750000   0.1250000), wk =   0.0078125
        k(  250) = (  -0.5000000   0.3750000   0.2500000), wk =   0.0078125
        k(  251) = (  -0.5000000   0.3750000   0.3750000), wk =   0.0078125
        k(  252) = (  -0.5000000   0.3750000  -0.5000000), wk =   0.0078125
        k(  253) = (  -0.5000000   0.3750000  -0.3750000), wk =   0.0078125
        k(  254) = (  -0.5000000   0.3750000  -0.2500000), wk =   0.0078125
        k(  255) = (  -0.5000000   0.3750000  -0.1250000), wk =   0.0078125
        k(  256) = (  -0.5000000  -0.5000000   0.0000000), wk =   0.0039062
        k(  257) = (  -0.5000000  -0.5000000   0.1250000), wk =   0.0078125
        k(  258) = (  -0.5000000  -0.5000000   0.2500000), wk =   0.0078125
        k(  259) = (  -0.5000000  -0.5000000   0.3750000), wk =   0.0078125
        k(  260) = (  -0.5000000  -0.5000000  -0.5000000), wk =   0.0039062

     Dense  grid:    79077 G-vectors     FFT dimensions: (  50,  50,  75)

     Smooth grid:    30889 G-vectors     FFT dimensions: (  36,  36,  60)

     Dynamical RAM for                 wfc:       0.08 MB

     Dynamical RAM for     wfc (w. buffer):       5.08 MB

     Dynamical RAM for           str. fact:       0.23 MB

     Dynamical RAM for           local pot:       0.00 MB

     Dynamical RAM for          nlocal pot:       0.23 MB

     Dynamical RAM for                qrad:       7.78 MB

     Dynamical RAM for          rho,v,vnew:       0.51 MB

     Dynamical RAM for               rhoin:       0.17 MB

     Dynamical RAM for            rho*nmix:       1.21 MB

     Dynamical RAM for           G-vectors:       0.30 MB

     Dynamical RAM for          h,s,v(r/c):       0.08 MB

     Dynamical RAM for          <psi|beta>:       0.02 MB

     Dynamical RAM for                 psi:       0.31 MB

     Dynamical RAM for                hpsi:       0.31 MB

     Dynamical RAM for                spsi:       0.31 MB

     Dynamical RAM for      wfcinit/wfcrot:       0.21 MB

     Dynamical RAM for           addusdens:       3.96 MB

     Dynamical RAM for          addusforce:       4.11 MB

     Dynamical RAM for         addusstress:       4.17 MB

     Estimated static dynamical RAM per process >      16.28 MB

     Estimated max dynamical RAM per process >      20.46 MB

     Estimated total dynamical RAM >       1.28 GB

     Check: negative core charge=   -0.000003

     Initial potential from superposition of free atoms

     starting charge   41.69964, renormalised to   42.00000
     Starting wfcs are   26 randomized atomic wfcs

     total cpu time spent up to now is        5.9 secs

     Self-consistent Calculation

     iteration #  1     ecut=    80.00 Ry     beta= 0.50
     Davidson diagonalization with overlap
     ethr =  1.00E-02,  avg # of iterations =  2.0

     total cpu time spent up to now is        6.9 secs

     total energy              =    -650.62380085 Ry
     Harris-Foulkes estimate   =    -651.46218017 Ry
     estimated scf accuracy    <       1.25734493 Ry

     iteration #  2     ecut=    80.00 Ry     beta= 0.50
     Davidson diagonalization with overlap
     ethr =  2.99E-03,  avg # of iterations =  3.0

     total cpu time spent up to now is        8.0 secs

     total energy              =    -651.01702795 Ry
     Harris-Foulkes estimate   =    -651.30431994 Ry
     estimated scf accuracy    <       0.65958692 Ry

     iteration #  3     ecut=    80.00 Ry     beta= 0.50
     Davidson diagonalization with overlap
     ethr =  1.57E-03,  avg # of iterations =  2.0

     total cpu time spent up to now is        8.9 secs

     total energy              =    -651.12932297 Ry
     Harris-Foulkes estimate   =    -651.13252730 Ry
     estimated scf accuracy    <       0.00995253 Ry

     iteration #  4     ecut=    80.00 Ry     beta= 0.50
     Davidson diagonalization with overlap
     ethr =  2.37E-05,  avg # of iterations =  2.0

     total cpu time spent up to now is        9.8 secs

     total energy              =    -651.13035838 Ry
     Harris-Foulkes estimate   =    -651.13063547 Ry
     estimated scf accuracy    <       0.00065397 Ry

     iteration #  5     ecut=    80.00 Ry     beta= 0.50
     Davidson diagonalization with overlap
     ethr =  1.56E-06,  avg # of iterations =  2.4

     total cpu time spent up to now is       10.7 secs

     total energy              =    -651.13049400 Ry
     Harris-Foulkes estimate   =    -651.13050762 Ry
     estimated scf accuracy    <       0.00008532 Ry

     iteration #  6     ecut=    80.00 Ry     beta= 0.50
     Davidson diagonalization with overlap
     ethr =  2.03E-07,  avg # of iterations =  2.7

     total cpu time spent up to now is       11.7 secs

     total energy              =    -651.13050819 Ry
     Harris-Foulkes estimate   =    -651.13051309 Ry
     estimated scf accuracy    <       0.00002151 Ry

     iteration #  7     ecut=    80.00 Ry     beta= 0.50
     Davidson diagonalization with overlap
     ethr =  5.12E-08,  avg # of iterations =  2.7

     total cpu time spent up to now is       12.7 secs

     total energy              =    -651.13051313 Ry
     Harris-Foulkes estimate   =    -651.13051290 Ry
     estimated scf accuracy    <       0.00000254 Ry

     iteration #  8     ecut=    80.00 Ry     beta= 0.50
     Davidson diagonalization with overlap
     ethr =  6.04E-09,  avg # of iterations =  2.6

     total cpu time spent up to now is       13.7 secs

     End of self-consistent calculation

          k = 0.0000 0.0000 0.0000 (  3849 PWs)   bands (ev):

  -115.8740 -70.2437 -70.2250 -70.2250 -65.2812 -32.2814 -32.2461 -32.2461
   -10.4377  -9.4537   1.5543   1.5543   2.1032   2.5980   2.7204   2.7204
     5.5636   5.5636   6.7109   6.8923   6.8923

     occupation numbers 
     1.0000   1.0000   1.0000   1.0000   1.0000   1.0000   1.0000   1.0000
     1.0000   1.0000   1.0000   1.0000   1.0000   1.0000   1.0000   1.0000
     1.0000   1.0000   1.0000   1.0000   1.0000

          k =-0.0000-0.0000 0.0817 (  3843 PWs)   bands (ev):

  -115.8740 -70.2437 -70.2250 -70.2250 -65.2812 -32.2814 -32.2461 -32.2461
   -10.4133  -9.4815   1.5540   1.5540   1.9829   2.7166   2.7166   2.7633
     5.5782   5.5782   6.4772   6.8839   6.8839

     occupation numbers 
     1.0000   1.0000   1.0000   1.0000   1.0000   1.0000   1.0000   1.0000
     1.0000   1.0000   1.0000   1.0000   1.0000   1.0000   1.0000   1.0000
     1.0000   1.0000   1.0000   1.0000   1.0000

          k =-0.0000-0.0000 0.1634 (  3867 PWs)   bands (ev):

  -115.8740 -70.2437 -70.2250 -70.2250 -65.2812 -32.2814 -32.2461 -32.2461
   -10.3477  -9.5555   1.5532   1.5532   1.8111   2.7075   2.7075   3.0541
     5.6143   5.6143   6.0415   6.8629   6.8629

     occupation numbers 
     1.0000   1.0000   1.0000   1.0000   1.0000   1.0000   1.0000   1.0000
     1.0000   1.0000   1.0000   1.0000   1.0000   1.0000   1.0000   1.0000
     1.0000   1.0000   1.0000   1.0000   1.0000

          k =-0.0000-0.0000 0.2451 (  3849 PWs)   bands (ev):

  -115.8740 -70.2437 -70.2250 -70.2250 -65.2812 -32.2815 -32.2461 -32.2461
   -10.2669  -9.6446   1.5525   1.5525   1.6964   2.6986   2.6986   3.3082
     5.6514   5.6514   5.6760   6.8408   6.8408

     occupation numbers 
     1.0000   1.0000   1.0000   1.0000   1.0000   1.0000   1.0000   1.0000
     1.0000   1.0000   1.0000   1.0000   1.0000   1.0000   1.0000   1.0000
     1.0000   1.0000   1.0000   1.0000   1.0000

          k = 0.0000 0.0000-0.3268 (  3856 PWs)   bands (ev):

  -115.8740 -70.2437 -70.2250 -70.2250 -65.2812 -32.2815 -32.2461 -32.2461
   -10.2257  -9.6893   1.5522   1.5522   1.6574   2.6949   2.6949   3.4141
     5.5306   5.6672   5.6672   6.8312   6.8312

     occupation numbers 
     1.0000   1.0000   1.0000   1.0000   1.0000   1.0000   1.0000   1.0000
     1.0000   1.0000   1.0000   1.0000   1.0000   1.0000   1.0000   1.0000
     1.0000   1.0000   1.0000   1.0000   1.0000

          k =-0.0000 0.1443-0.0000 (  3857 PWs)   bands (ev):

  -115.8740 -70.2437 -70.2253 -70.2251 -65.2809 -32.2809 -32.2504 -32.2471
   -10.3557  -9.4197   1.5119   1.6246   2.1413   2.5733   2.7155   2.8700
     5.1793   5.4862   6.1847   6.6301   6.7475

     occupation numbers 
     1.0000   1.0000   1.0000   1.0000   1.0000   1.0000   1.0000   1.0000
     1.0000   1.0000   1.0000   1.0000   1.0000   1.0000   1.0000   1.0000
     1.0000   1.0000   1.0000   1.0000   1.0000

          k =-0.0000 0.1443 0.0817 (  3849 PWs)   bands (ev):

  -115.8740 -70.2437 -70.2253 -70.2251 -65.2809 -32.2809 -32.2504 -32.2471
   -10.3330  -9.4448   1.5101   1.6248   2.0313   2.5847   2.7112   2.9953
     5.2075   5.4984   6.0845   6.6069   6.7417

     occupation numbers 
     1.0000   1.0000   1.0000   1.0000   1.0000   1.0000   1.0000   1.0000
     1.0000   1.0000   1.0000   1.0000   1.0000   1.0000   1.0000   1.0000
     1.0000   1.0000   1.0000   1.0000   1.0000

          k =-0.0000 0.1443 0.1634 (  3843 PWs)   bands (ev):

  -115.8740 -70.2437 -70.2253 -70.2251 -65.2809 -32.2810 -32.2504 -32.2471
   -10.2723  -9.5115   1.5044   1.6241   1.8561   2.5777   2.7019   3.2581
     5.2389   5.5399   5.8627   6.5816   6.7134

     occupation numbers 
     1.0000   1.0000   1.0000   1.0000   1.0000   1.0000   1.0000   1.0000
     1.0000   1.0000   1.0000   1.0000   1.0000   1.0000   1.0000   1.0000
     1.0000   1.0000   1.0000   1.0000   1.0000

          k =-0.0000 0.1443 0.2451 (  3850 PWs)   bands (ev):

  -115.8740 -70.2437 -70.2253 -70.2251 -65.2809 -32.2811 -32.2504 -32.2471
   -10.1985  -9.5912   1.4951   1.6228   1.7378   2.5612   2.6930   3.4957
     5.1935   5.5886   5.7416   6.5379   6.6768

     occupation numbers 
     1.0000   1.0000   1.0000   1.0000   1.0000   1.0000   1.0000   1.0000
     1.0000   1.0000   1.0000   1.0000   1.0000   1.0000   1.0000   1.0000
     1.0000   1.0000   1.0000   1.0000   1.0000

          k =-0.0000 0.1443-0.3268 (  3836 PWs)   bands (ev):

  -115.8740 -70.2437 -70.2253 -70.2251 -65.2809 -32.2811 -32.2504 -32.2471
   -10.1615  -9.6307   1.4875   1.6218   1.7010   2.5532   2.6898   3.6010
     5.1182   5.6151   5.7354   6.5256   6.6543

     occupation numbers 
     1.0000   1.0000   1.0000   1.0000   1.0000   1.0000   1.0000   1.0000
     1.0000   1.0000   1.0000   1.0000   1.0000   1.0000   1.0000   1.0000
     1.0000   1.0000   1.0000   1.0000   1.0000

          k =-0.0000 0.1443-0.2451 (  3850 PWs)   bands (ev):

  -115.8740 -70.2437 -70.2253 -70.2251 -65.2809 -32.2811 -32.2504 -32.2471
   -10.1985  -9.5912   1.4910   1.6215   1.7414   2.5601   2.6939   3.5127
     5.1364   5.6015   5.7530   6.5745   6.6617

     occupation numbers 
     1.0000   1.0000   1.0000   1.0000   1.0000   1.0000   1.0000   1.0000
     1.0000   1.0000   1.0000   1.0000   1.0000   1.0000   1.0000   1.0000
     1.0000   1.0000   1.0000   1.0000   1.0000

          k =-0.0000 0.1443-0.1634 (  3843 PWs)   bands (ev):

  -115.8740 -70.2437 -70.2253 -70.2251 -65.2809 -32.2810 -32.2504 -32.2471
   -10.2723  -9.5114   1.5013   1.6223   1.8573   2.5767   2.7031   3.2774
     5.1816   5.5568   5.8529   6.6423   6.6933

     occupation numbers 
     1.0000   1.0000   1.0000   1.0000   1.0000   1.0000   1.0000   1.0000
     1.0000   1.0000   1.0000   1.0000   1.0000   1.0000   1.0000   1.0000
     1.0000   1.0000   1.0000   1.0000   1.0000

          k =-0.0000 0.1443-0.0817 (  3849 PWs)   bands (ev):

  -115.8740 -70.2437 -70.2253 -70.2251 -65.2809 -32.2809 -32.2504 -32.2471
   -10.3331  -9.4447   1.5091   1.6236   2.0286   2.5854   2.7121   3.0075
     5.1809   5.5096   6.0504   6.6663   6.7283

     occupation numbers 
     1.0000   1.0000   1.0000   1.0000   1.0000   1.0000   1.0000   1.0000
     1.0000   1.0000   1.0000   1.0000   1.0000   1.0000   1.0000   1.0000
     1.0000   1.0000   1.0000   1.0000   1.0000

          k =-0.0000 0.2887-0.0000 (  3851 PWs)   bands (ev):

  -115.8739 -70.2436 -70.2259 -70.2253 -65.2803 -32.2798 -32.2607 -32.2494
   -10.1463  -9.3423   1.4491   1.8053   2.1934   2.5794   2.7152   3.2415
     4.3860   5.1713   5.2702   6.3690   6.4217

     occupation numbers 
     1.0000   1.0000   1.0000   1.0000   1.0000   1.0000   1.0000   1.0000
     1.0000   1.0000   1.0000   1.0000   1.0000   1.0000   1.0000   1.0000
     1.0000   1.0000   1.0000   1.0000   1.0000

          k =-0.0000 0.2887 0.0817 (  3852 PWs)   bands (ev):

  -115.8739 -70.2436 -70.2259 -70.2253 -65.2803 -32.2798 -32.2607 -32.2494
   -10.1286  -9.3599   1.4420   1.8056   2.1366   2.5116   2.7105   3.3060
     4.5023   5.1675   5.2874   6.3311   6.4092

     occupation numbers 
     1.0000   1.0000   1.0000   1.0000   1.0000   1.0000   1.0000   1.0000
     1.0000   1.0000   1.0000   1.0000   1.0000   1.0000   1.0000   1.0000
     1.0000   1.0000   1.0000   1.0000   1.0000

          k =-0.0000 0.2887 0.1634 (  3839 PWs)   bands (ev):

  -115.8739 -70.2436 -70.2259 -70.2253 -65.2803 -32.2799 -32.2607 -32.2494
   -10.0822  -9.4063   1.4259   1.8038   1.9770   2.4217   2.7014   3.4906
     4.6267   5.1766   5.3493   6.3096   6.3555

     occupation numbers 
     1.0000   1.0000   1.0000   1.0000   1.0000   1.0000   1.0000   1.0000
     1.0000   1.0000   1.0000   1.0000   1.0000   1.0000   1.0000   1.0000
     1.0000   1.0000   1.0000   1.0000   1.0000

          k =-0.0000 0.2887 0.2451 (  3858 PWs)   bands (ev):

  -115.8739 -70.2436 -70.2259 -70.2253 -65.2803 -32.2800 -32.2607 -32.2494
   -10.0283  -9.4602   1.4050   1.8008   1.8440   2.3633   2.6932   3.6664
     4.5624   5.3666   5.4275   6.2521   6.2840

     occupation numbers 
     1.0000   1.0000   1.0000   1.0000   1.0000   1.0000   1.0000   1.0000
     1.0000   1.0000   1.0000   1.0000   1.0000   1.0000   1.0000   1.0000
     1.0000   1.0000   1.0000   1.0000   1.0000

          k =-0.0000 0.2887-0.3268 (  3848 PWs)   bands (ev):

  -115.8739 -70.2436 -70.2259 -70.2253 -65.2803 -32.2800 -32.2607 -32.2494
   -10.0027  -9.4858   1.3911   1.7986   1.7986   2.3419   2.6907   3.8005
     4.4171   5.4742   5.4858   6.2387   6.2444

     occupation numbers 
     1.0000   1.0000   1.0000   1.0000   1.0000   1.0000   1.0000   1.0000
     1.0000   1.0000   1.0000   1.0000   1.0000   1.0000   1.0000   1.0000
     1.0000   1.0000   1.0000   1.0000   1.0000

          k =-0.0000 0.2887-0.2451 (  3858 PWs)   bands (ev):

  -115.8739 -70.2436 -70.2259 -70.2253 -65.2803 -32.2800 -32.2607 -32.2494
   -10.0284  -9.4600   1.3994   1.7983   1.8397   2.3644   2.6952   3.8257
     4.3367   5.3452   5.4510   6.2575   6.3692

     occupation numbers 
     1.0000   1.0000   1.0000   1.0000   1.0000   1.0000   1.0000   1.0000
     1.0000   1.0000   1.0000   1.0000   1.0000   1.0000   1.0000   1.0000
     1.0000   1.0000   1.0000   1.0000   1.0000

          k =-0.0000 0.2887-0.1634 (  3839 PWs)   bands (ev):

  -115.8739 -70.2436 -70.2259 -70.2253 -65.2803 -32.2799 -32.2607 -32.2494
   -10.0824  -9.4060   1.4237   1.8002   1.9540   2.4274   2.7041   3.6758
     4.3566   5.1600   5.3775   6.3231   6.4588

     occupation numbers 
     1.0000   1.0000   1.0000   1.0000   1.0000   1.0000   1.0000   1.0000
     1.0000   1.0000   1.0000   1.0000   1.0000   1.0000   1.0000   1.0000
     1.0000   1.0000   1.0000   1.0000   1.0000

          k =-0.0000 0.2887-0.0817 (  3852 PWs)   bands (ev):

  -115.8739 -70.2436 -70.2259 -70.2253 -65.2803 -32.2798 -32.2607 -32.2494
   -10.1288  -9.3598   1.4435   1.8031   2.1044   2.5168   2.7124   3.4276
     4.3630   5.1216   5.3050   6.3887   6.4394

     occupation numbers 
     1.0000   1.0000   1.0000   1.0000   1.0000   1.0000   1.0000   1.0000
     1.0000   1.0000   1.0000   1.0000   1.0000   1.0000   1.0000   1.0000
     1.0000   1.0000   1.0000   1.0000   1.0000

          k =-0.0000 0.4330-0.0000 (  3860 PWs)   bands (ev):

  -115.8739 -70.2436 -70.2266 -70.2254 -65.2797 -32.2787 -32.2710 -32.2517
    -9.9144  -9.2772   1.4603   1.9976   2.2290   2.6083   2.7499   3.3993
     3.9576   4.4623   4.9871   5.9584   6.1373

     occupation numbers 
     1.0000   1.0000   1.0000   1.0000   1.0000   1.0000   1.0000   1.0000
     1.0000   1.0000   1.0000   1.0000   1.0000   1.0000   1.0000   1.0000
     1.0000   1.0000   1.0000   1.0000   1.0000

          k =-0.0000 0.4330 0.0817 (  3858 PWs)   bands (ev):

  -115.8739 -70.2436 -70.2266 -70.2254 -65.2797 -32.2787 -32.2710 -32.2517
    -9.9041  -9.2849   1.4399   1.9964   2.2265   2.5392   2.7461   3.2254
     4.1431   4.5858   5.0136   5.9627   6.1132

     occupation numbers 
     1.0000   1.0000   1.0000   1.0000   1.0000   1.0000   1.0000   1.0000
     1.0000   1.0000   1.0000   1.0000   1.0000   1.0000   1.0000   1.0000
     1.0000   1.0000   1.0000   1.0000   1.0000

          k =-0.0000 0.4330 0.1634 (  3858 PWs)   bands (ev):

  -115.8739 -70.2436 -70.2266 -70.2254 -65.2797 -32.2788 -32.2709 -32.2517
    -9.8782  -9.3045   1.4075   1.9911   2.1386   2.3585   2.7391   3.2145
     4.1976   4.8680   5.0971   6.0334   6.0688

     occupation numbers 
     1.0000   1.0000   1.0000   1.0000   1.0000   1.0000   1.0000   1.0000
     1.0000   1.0000   1.0000   1.0000   1.0000   1.0000   1.0000   1.0000
     1.0000   1.0000   1.0000   1.0000   1.0000

          k =-0.0000 0.4330 0.2451 (  3860 PWs)   bands (ev):

  -115.8739 -70.2435 -70.2266 -70.2254 -65.2797 -32.2788 -32.2709 -32.2517
    -9.8503  -9.3260   1.3773   1.9846   2.0012   2.2563   2.7333   3.2758
     4.1260   5.1811   5.2049   5.9284   6.1708

     occupation numbers 
     1.0000   1.0000   1.0000   1.0000   1.0000   1.0000   1.0000   1.0000
     1.0000   1.0000   1.0000   1.0000   1.0000   1.0000   1.0000   1.0000
     1.0000   1.0000   1.0000   1.0000   1.0000

          k =-0.0000 0.4330-0.3268 (  3866 PWs)   bands (ev):

  -115.8739 -70.2436 -70.2266 -70.2255 -65.2797 -32.2788 -32.2709 -32.2517
    -9.8381  -9.3356   1.3667   1.9278   1.9808   2.2310   2.7319   3.3491
     4.0469   5.2694   5.2810   5.8642   6.2504

     occupation numbers 
     1.0000   1.0000   1.0000   1.0000   1.0000   1.0000   1.0000   1.0000
     1.0000   1.0000   1.0000   1.0000   1.0000   1.0000   1.0000   1.0000
     1.0000   1.0000   1.0000   1.0000   1.0000

          k =-0.0000 0.4330-0.2451 (  3860 PWs)   bands (ev):

  -115.8739 -70.2435 -70.2266 -70.2254 -65.2797 -32.2788 -32.2709 -32.2517
    -9.8505  -9.3257   1.3879   1.9495   1.9820   2.2706   2.7354   3.4125
     4.0099   5.0835   5.2249   5.9066   6.2986

     occupation numbers 
     1.0000   1.0000   1.0000   1.0000   1.0000   1.0000   1.0000   1.0000
     1.0000   1.0000   1.0000   1.0000   1.0000   1.0000   1.0000   1.0000
     1.0000   1.0000   1.0000   1.0000   1.0000

          k =-0.0000 0.4330-0.1634 (  3858 PWs)   bands (ev):

  -115.8739 -70.2436 -70.2266 -70.2254 -65.2797 -32.2788 -32.2709 -32.2517
    -9.8785  -9.3041   1.4283   1.9874   2.0386   2.3770   2.7421   3.4581
     4.0290   4.7164   5.1187   6.0093   6.2370

     occupation numbers 
     1.0000   1.0000   1.0000   1.0000   1.0000   1.0000   1.0000   1.0000
     1.0000   1.0000   1.0000   1.0000   1.0000   1.0000   1.0000   1.0000
     1.0000   1.0000   1.0000   1.0000   1.0000

          k =-0.0000 0.4330-0.0817 (  3858 PWs)   bands (ev):

  -115.8739 -70.2436 -70.2266 -70.2254 -65.2797 -32.2787 -32.2709 -32.2517
    -9.9043  -9.2847   1.4577   1.9938   2.1518   2.5178   2.7481   3.4944
     3.9998   4.4364   5.0264   6.0845   6.0986

     occupation numbers 
     1.0000   1.0000   1.0000   1.0000   1.0000   1.0000   1.0000   1.0000
     1.0000   1.0000   1.0000   1.0000   1.0000   1.0000   1.0000   1.0000
     1.0000   1.0000   1.0000   1.0000   1.0000

          k = 0.0000-0.5774 0.0000 (  3868 PWs)   bands (ev):

  -115.8739 -70.2435 -70.2269 -70.2255 -65.2795 -32.2782 -32.2753 -32.2526
    -9.8080  -9.2574   1.5001   2.0762   2.2646   2.6309   2.7872   3.0841
     4.0502   4.3843   4.8391   5.6745   6.0337

     occupation numbers 
     1.0000   1.0000   1.0000   1.0000   1.0000   1.0000   1.0000   1.0000
     1.0000   1.0000   1.0000   1.0000   1.0000   1.0000   1.0000   1.0000
     1.0000   1.0000   1.0000   1.0000   1.0000

          k = 0.0000-0.5774 0.0817 (  3860 PWs)   bands (ev):

  -115.8739 -70.2435 -70.2269 -70.2255 -65.2795 -32.2782 -32.2753 -32.2526
    -9.8024  -9.2593   1.4824   2.0726   2.2388   2.5763   2.7851   3.0025
     4.0364   4.5451   4.8739   5.7776   5.9999

     occupation numbers 
     1.0000   1.0000   1.0000   1.0000   1.0000   1.0000   1.0000   1.0000
     1.0000   1.0000   1.0000   1.0000   1.0000   1.0000   1.0000   1.0000
     1.0000   1.0000   1.0000   1.0000   1.0000

          k = 0.0000-0.5774 0.1634 (  3856 PWs)   bands (ev):

  -115.8739 -70.2435 -70.2269 -70.2255 -65.2795 -32.2782 -32.2753 -32.2526
    -9.7885  -9.2642   1.4378   2.0642   2.1767   2.4149   2.7803   2.9242
     3.9962   4.8762   4.9670   5.9090   6.0038

     occupation numbers 
     1.0000   1.0000   1.0000   1.0000   1.0000   1.0000   1.0000   1.0000
     1.0000   1.0000   1.0000   1.0000   1.0000   1.0000   1.0000   1.0000
     1.0000   1.0000   1.0000   1.0000   1.0000

          k = 0.0000-0.5774 0.2451 (  3842 PWs)   bands (ev):

  -115.8739 -70.2435 -70.2269 -70.2255 -65.2795 -32.2783 -32.2753 -32.2526
    -9.7741  -9.2694   1.3911   2.0557   2.0960   2.2799   2.7757   2.9040
     3.9620   5.0814   5.1680   5.7964   6.1983

     occupation numbers 
     1.0000   1.0000   1.0000   1.0000   1.0000   1.0000   1.0000   1.0000
     1.0000   1.0000   1.0000   1.0000   1.0000   1.0000   1.0000   1.0000
     1.0000   1.0000   1.0000   1.0000   1.0000

          k = 0.0000-0.5774-0.3268 (  3860 PWs)   bands (ev):

  -115.8739 -70.2435 -70.2269 -70.2255 -65.2795 -32.2783 -32.2753 -32.2526
    -9.7681  -9.2717   1.3712   2.0515   2.0523   2.2418   2.7739   2.9008
     3.9497   5.1407   5.2849   5.7378   6.2684

     occupation numbers 
     1.0000   1.0000   1.0000   1.0000   1.0000   1.0000   1.0000   1.0000
     1.0000   1.0000   1.0000   1.0000   1.0000   1.0000   1.0000   1.0000
     1.0000   1.0000   1.0000   1.0000   1.0000

          k = 0.1250 0.0722-0.0000 (  3857 PWs)   bands (ev):

  -115.8740 -70.2437 -70.2253 -70.2251 -65.2809 -32.2809 -32.2504 -32.2471
   -10.3557  -9.4197   1.5119   1.6246   2.1413   2.5733   2.7155   2.8700
     5.1793   5.4862   6.1847   6.6301   6.7475

     occupation numbers 
     1.0000   1.0000   1.0000   1.0000   1.0000   1.0000   1.0000   1.0000
     1.0000   1.0000   1.0000   1.0000   1.0000   1.0000   1.0000   1.0000
     1.0000   1.0000   1.0000   1.0000   1.0000

          k = 0.1250 0.0722 0.0817 (  3849 PWs)   bands (ev):

  -115.8740 -70.2437 -70.2253 -70.2251 -65.2809 -32.2809 -32.2504 -32.2471
   -10.3331  -9.4447   1.5091   1.6236   2.0286   2.5854   2.7121   3.0075
     5.1809   5.5096   6.0504   6.6663   6.7283

     occupation numbers 
     1.0000   1.0000   1.0000   1.0000   1.0000   1.0000   1.0000   1.0000
     1.0000   1.0000   1.0000   1.0000   1.0000   1.0000   1.0000   1.0000
     1.0000   1.0000   1.0000   1.0000   1.0000

          k = 0.1250 0.0722 0.1634 (  3843 PWs)   bands (ev):

  -115.8740 -70.2437 -70.2253 -70.2251 -65.2809 -32.2810 -32.2504 -32.2471
   -10.2723  -9.5114   1.5013   1.6223   1.8573   2.5767   2.7031   3.2774
     5.1816   5.5568   5.8529   6.6423   6.6933

     occupation numbers 
     1.0000   1.0000   1.0000   1.0000   1.0000   1.0000   1.0000   1.0000
     1.0000   1.0000   1.0000   1.0000   1.0000   1.0000   1.0000   1.0000
     1.0000   1.0000   1.0000   1.0000   1.0000

          k = 0.1250 0.0722 0.2451 (  3850 PWs)   bands (ev):

  -115.8740 -70.2437 -70.2253 -70.2251 -65.2809 -32.2811 -32.2504 -32.2471
   -10.1985  -9.5912   1.4910   1.6215   1.7414   2.5601   2.6939   3.5127
     5.1364   5.6015   5.7531   6.5745   6.6617

     occupation numbers 
     1.0000   1.0000   1.0000   1.0000   1.0000   1.0000   1.0000   1.0000
     1.0000   1.0000   1.0000   1.0000   1.0000   1.0000   1.0000   1.0000
     1.0000   1.0000   1.0000   1.0000   1.0000

          k = 0.1250 0.0722-0.3268 (  3836 PWs)   bands (ev):

  -115.8740 -70.2437 -70.2253 -70.2251 -65.2809 -32.2811 -32.2504 -32.2471
   -10.1615  -9.6307   1.4875   1.6218   1.7010   2.5532   2.6898   3.6010
     5.1182   5.6151   5.7354   6.5256   6.6543

     occupation numbers 
     1.0000   1.0000   1.0000   1.0000   1.0000   1.0000   1.0000   1.0000
     1.0000   1.0000   1.0000   1.0000   1.0000   1.0000   1.0000   1.0000
     1.0000   1.0000   1.0000   1.0000   1.0000

          k = 0.1250 0.0722-0.2451 (  3850 PWs)   bands (ev):

  -115.8740 -70.2437 -70.2253 -70.2251 -65.2809 -32.2811 -32.2504 -32.2471
   -10.1985  -9.5912   1.4951   1.6228   1.7378   2.5612   2.6930   3.4957
     5.1935   5.5886   5.7416   6.5379   6.6768

     occupation numbers 
     1.0000   1.0000   1.0000   1.0000   1.0000   1.0000   1.0000   1.0000
     1.0000   1.0000   1.0000   1.0000   1.0000   1.0000   1.0000   1.0000
     1.0000   1.0000   1.0000   1.0000   1.0000

          k = 0.1250 0.0722-0.1634 (  3843 PWs)   bands (ev):

  -115.8740 -70.2437 -70.2253 -70.2251 -65.2809 -32.2810 -32.2504 -32.2471
   -10.2723  -9.5115   1.5044   1.6241   1.8561   2.5777   2.7019   3.2581
     5.2389   5.5399   5.8627   6.5816   6.7134

     occupation numbers 
     1.0000   1.0000   1.0000   1.0000   1.0000   1.0000   1.0000   1.0000
     1.0000   1.0000   1.0000   1.0000   1.0000   1.0000   1.0000   1.0000
     1.0000   1.0000   1.0000   1.0000   1.0000

          k = 0.1250 0.0722-0.0817 (  3849 PWs)   bands (ev):

  -115.8740 -70.2437 -70.2253 -70.2251 -65.2809 -32.2809 -32.2504 -32.2471
   -10.3330  -9.4448   1.5101   1.6248   2.0313   2.5847   2.7112   2.9953
     5.2075   5.4984   6.0845   6.6069   6.7417

     occupation numbers 
     1.0000   1.0000   1.0000   1.0000   1.0000   1.0000   1.0000   1.0000
     1.0000   1.0000   1.0000   1.0000   1.0000   1.0000   1.0000   1.0000
     1.0000   1.0000   1.0000   1.0000   1.0000

          k = 0.1250 0.2165-0.0000 (  3843 PWs)   bands (ev):

  -115.8739 -70.2436 -70.2257 -70.2252 -65.2805 -32.2801 -32.2572 -32.2491
   -10.2097  -9.3640   1.4828   1.7255   2.1879   2.5764   2.7034   3.1369
     4.6745   5.1530   5.5829   6.3614   6.5310

     occupation numbers 
     1.0000   1.0000   1.0000   1.0000   1.0000   1.0000   1.0000   1.0000
     1.0000   1.0000   1.0000   1.0000   1.0000   1.0000   1.0000   1.0000
     1.0000   1.0000   1.0000   1.0000   1.0000

          k = 0.1250 0.2165 0.0817 (  3846 PWs)   bands (ev):

  -115.8739 -70.2436 -70.2257 -70.2252 -65.2805 -32.2802 -32.2572 -32.2491
   -10.1905  -9.3840   1.4783   1.7224   2.1043   2.5298   2.6995   3.2746
     4.6964   5.1886   5.5360   6.3559   6.5293

     occupation numbers 
     1.0000   1.0000   1.0000   1.0000   1.0000   1.0000   1.0000   1.0000
     1.0000   1.0000   1.0000   1.0000   1.0000   1.0000   1.0000   1.0000
     1.0000   1.0000   1.0000   1.0000   1.0000

          k = 0.1250 0.2165 0.1634 (  3846 PWs)   bands (ev):

  -115.8739 -70.2436 -70.2257 -70.2252 -65.2805 -32.2802 -32.2572 -32.2491
   -10.1394  -9.4368   1.4647   1.7123   1.9477   2.4658   2.6900   3.5198
     4.7120   5.2994   5.4804   6.3187   6.4993

     occupation numbers 
     1.0000   1.0000   1.0000   1.0000   1.0000   1.0000   1.0000   1.0000
     1.0000   1.0000   1.0000   1.0000   1.0000   1.0000   1.0000   1.0000
     1.0000   1.0000   1.0000   1.0000   1.0000

          k = 0.1250 0.2165 0.2451 (  3841 PWs)   bands (ev):

  -115.8739 -70.2436 -70.2257 -70.2252 -65.2805 -32.2803 -32.2572 -32.2491
   -10.0791  -9.4989   1.4457   1.6951   1.8402   2.4195   2.6806   3.7175
     4.6649   5.4125   5.5521   6.2634   6.4098

     occupation numbers 
     1.0000   1.0000   1.0000   1.0000   1.0000   1.0000   1.0000   1.0000
     1.0000   1.0000   1.0000   1.0000   1.0000   1.0000   1.0000   1.0000
     1.0000   1.0000   1.0000   1.0000   1.0000

          k = 0.1250 0.2165-0.3268 (  3848 PWs)   bands (ev):

  -115.8739 -70.2436 -70.2257 -70.2252 -65.2805 -32.2803 -32.2572 -32.2491
   -10.0499  -9.5288   1.4356   1.6841   1.8088   2.4022   2.6767   3.7952
     4.6272   5.4394   5.6500   6.2357   6.3416

     occupation numbers 
     1.0000   1.0000   1.0000   1.0000   1.0000   1.0000   1.0000   1.0000
     1.0000   1.0000   1.0000   1.0000   1.0000   1.0000   1.0000   1.0000
     1.0000   1.0000   1.0000   1.0000   1.0000

          k = 0.1250 0.2165-0.2451 (  3841 PWs)   bands (ev):

  -115.8739 -70.2436 -70.2257 -70.2252 -65.2805 -32.2803 -32.2572 -32.2491
   -10.0791  -9.4989   1.4457   1.6951   1.8402   2.4195   2.6806   3.7175
     4.6649   5.4125   5.5521   6.2634   6.4098

     occupation numbers 
     1.0000   1.0000   1.0000   1.0000   1.0000   1.0000   1.0000   1.0000
     1.0000   1.0000   1.0000   1.0000   1.0000   1.0000   1.0000   1.0000
     1.0000   1.0000   1.0000   1.0000   1.0000

          k = 0.1250 0.2165-0.1634 (  3846 PWs)   bands (ev):

  -115.8739 -70.2436 -70.2257 -70.2252 -65.2805 -32.2802 -32.2572 -32.2491
   -10.1394  -9.4368   1.4647   1.7123   1.9477   2.4658   2.6900   3.5198
     4.7120   5.2994   5.4804   6.3187   6.4993

     occupation numbers 
     1.0000   1.0000   1.0000   1.0000   1.0000   1.0000   1.0000   1.0000
     1.0000   1.0000   1.0000   1.0000   1.0000   1.0000   1.0000   1.0000
     1.0000   1.0000   1.0000   1.0000   1.0000

          k = 0.1250 0.2165-0.0817 (  3846 PWs)   bands (ev):

  -115.8739 -70.2436 -70.2257 -70.2252 -65.2805 -32.2802 -32.2572 -32.2491
   -10.1905  -9.3840   1.4783   1.7224   2.1043   2.5298   2.6995   3.2746
     4.6964   5.1886   5.5360   6.3559   6.5293

     occupation numbers 
     1.0000   1.0000   1.0000   1.0000   1.0000   1.0000   1.0000   1.0000
     1.0000   1.0000   1.0000   1.0000   1.0000   1.0000   1.0000   1.0000
     1.0000   1.0000   1.0000   1.0000   1.0000

          k = 0.1250 0.3608-0.0000 (  3845 PWs)   bands (ev):

  -115.8739 -70.2436 -70.2263 -70.2255 -65.2799 -32.2790 -32.2666 -32.2524
    -9.9868  -9.2939   1.5127   1.8766   2.2333   2.6031   2.7084   3.5513
     4.0505   4.5408   5.0671   5.9593   6.1946

     occupation numbers 
     1.0000   1.0000   1.0000   1.0000   1.0000   1.0000   1.0000   1.0000
     1.0000   1.0000   1.0000   1.0000   1.0000   1.0000   1.0000   1.0000
     1.0000   1.0000   1.0000   1.0000   1.0000

          k = 0.1250 0.3608 0.0817 (  3852 PWs)   bands (ev):

  -115.8739 -70.2436 -70.2263 -70.2255 -65.2799 -32.2790 -32.2666 -32.2524
    -9.9740  -9.3050   1.5008   1.8713   2.2065   2.5211   2.7056   3.4773
     4.2203   4.6306   5.0618   5.9208   6.2183

     occupation numbers 
     1.0000   1.0000   1.0000   1.0000   1.0000   1.0000   1.0000   1.0000
     1.0000   1.0000   1.0000   1.0000   1.0000   1.0000   1.0000   1.0000
     1.0000   1.0000   1.0000   1.0000   1.0000

          k = 0.1250 0.3608 0.1634 (  3859 PWs)   bands (ev):

  -115.8739 -70.2436 -70.2263 -70.2255 -65.2799 -32.2791 -32.2666 -32.2524
    -9.9409  -9.3336   1.4801   1.8441   2.1026   2.3821   2.6985   3.5191
     4.2825   4.8951   5.1009   5.8565   6.2684

     occupation numbers 
     1.0000   1.0000   1.0000   1.0000   1.0000   1.0000   1.0000   1.0000
     1.0000   1.0000   1.0000   1.0000   1.0000   1.0000   1.0000   1.0000
     1.0000   1.0000   1.0000   1.0000   1.0000

          k = 0.1250 0.3608 0.2451 (  3859 PWs)   bands (ev):

  -115.8739 -70.2436 -70.2263 -70.2255 -65.2799 -32.2791 -32.2666 -32.2524
    -9.9042  -9.3659   1.4572   1.7980   2.0051   2.3000   2.6915   3.6086
     4.2122   5.0791   5.3077   5.7838   6.2831

     occupation numbers 
     1.0000   1.0000   1.0000   1.0000   1.0000   1.0000   1.0000   1.0000
     1.0000   1.0000   1.0000   1.0000   1.0000   1.0000   1.0000   1.0000
     1.0000   1.0000   1.0000   1.0000   1.0000

          k = 0.1250 0.3608-0.3268 (  3854 PWs)   bands (ev):

  -115.8739 -70.2436 -70.2263 -70.2255 -65.2799 -32.2792 -32.2666 -32.2524
    -9.8876  -9.3807   1.4467   1.7688   1.9725   2.2752   2.6890   3.7049
     4.1063   5.1558   5.3790   5.7898   6.2820

     occupation numbers 
     1.0000   1.0000   1.0000   1.0000   1.0000   1.0000   1.0000   1.0000
     1.0000   1.0000   1.0000   1.0000   1.0000   1.0000   1.0000   1.0000
     1.0000   1.0000   1.0000   1.0000   1.0000

          k = 0.1250 0.3608-0.2451 (  3859 PWs)   bands (ev):

  -115.8739 -70.2436 -70.2263 -70.2255 -65.2799 -32.2791 -32.2666 -32.2524
    -9.9043  -9.3658   1.4626   1.7841   1.9963   2.3058   2.6924   3.7647
     4.0371   5.0937   5.2587   5.8131   6.3295

     occupation numbers 
     1.0000   1.0000   1.0000   1.0000   1.0000   1.0000   1.0000   1.0000
     1.0000   1.0000   1.0000   1.0000   1.0000   1.0000   1.0000   1.0000
     1.0000   1.0000   1.0000   1.0000   1.0000

          k = 0.1250 0.3608-0.1634 (  3859 PWs)   bands (ev):

  -115.8739 -70.2436 -70.2263 -70.2255 -65.2799 -32.2791 -32.2666 -32.2524
    -9.9410  -9.3334   1.4923   1.8255   2.0727   2.3943   2.6998   3.7432
     4.0376   4.8694   5.0944   5.8997   6.3166

     occupation numbers 
     1.0000   1.0000   1.0000   1.0000   1.0000   1.0000   1.0000   1.0000
     1.0000   1.0000   1.0000   1.0000   1.0000   1.0000   1.0000   1.0000
     1.0000   1.0000   1.0000   1.0000   1.0000

          k = 0.1250 0.3608-0.0817 (  3852 PWs)   bands (ev):

  -115.8739 -70.2436 -70.2263 -70.2255 -65.2799 -32.2790 -32.2666 -32.2524
    -9.9741  -9.3048   1.5112   1.8610   2.1743   2.5233   2.7065   3.6779
     4.0163   4.6137   5.0550   5.9710   6.2340

     occupation numbers 
     1.0000   1.0000   1.0000   1.0000   1.0000   1.0000   1.0000   1.0000
     1.0000   1.0000   1.0000   1.0000   1.0000   1.0000   1.0000   1.0000
     1.0000   1.0000   1.0000   1.0000   1.0000

          k = 0.1250 0.5052-0.0000 (  3860 PWs)   bands (ev):

  -115.8739 -70.2435 -70.2267 -70.2256 -65.2795 -32.2782 -32.2732 -32.2547
    -9.8116  -9.2559   1.6001   2.0340   2.2677   2.6344   2.7552   3.2308
     4.0601   4.3671   4.6896   5.6629   5.8567

     occupation numbers 
     1.0000   1.0000   1.0000   1.0000   1.0000   1.0000   1.0000   1.0000
     1.0000   1.0000   1.0000   1.0000   1.0000   1.0000   1.0000   1.0000
     1.0000   1.0000   1.0000   1.0000   1.0000

          k = 0.1250 0.5052 0.0817 (  3862 PWs)   bands (ev):

  -115.8739 -70.2435 -70.2267 -70.2256 -65.2795 -32.2782 -32.2732 -32.2547
    -9.8056  -9.2582   1.5761   2.0325   2.2619   2.5873   2.7566   3.0923
     4.0421   4.5589   4.7647   5.6652   5.8786

     occupation numbers 
     1.0000   1.0000   1.0000   1.0000   1.0000   1.0000   1.0000   1.0000
     1.0000   1.0000   1.0000   1.0000   1.0000   1.0000   1.0000   1.0000
     1.0000   1.0000   1.0000   1.0000   1.0000

          k = 0.1250 0.5052 0.1634 (  3856 PWs)   bands (ev):

[...]
    -9.7911  -9.2638   1.5589   1.9923   2.1526   2.4122   2.7615   3.1394
     3.9894   4.6048   5.0262   5.6777   6.0601

     occupation numbers 
     1.0000   1.0000   1.0000   1.0000   1.0000   1.0000   1.0000   1.0000
     1.0000   1.0000   1.0000   1.0000   1.0000   1.0000   1.0000   1.0000
     1.0000   1.0000   1.0000   1.0000   1.0000

          k =-0.5000-0.1443-0.0817 (  3862 PWs)   bands (ev):

  -115.8739 -70.2435 -70.2267 -70.2256 -65.2795 -32.2782 -32.2732 -32.2547
    -9.8057  -9.2581   1.5950   2.0191   2.2207   2.5603   2.7586   3.2166
     4.0391   4.4250   4.7829   5.7406   5.8653

     occupation numbers 
     1.0000   1.0000   1.0000   1.0000   1.0000   1.0000   1.0000   1.0000
     1.0000   1.0000   1.0000   1.0000   1.0000   1.0000   1.0000   1.0000
     1.0000   1.0000   1.0000   1.0000   1.0000

          k =-0.5000 0.0000 0.0000 (  3867 PWs)   bands (ev):

  -115.8739 -70.2435 -70.2265 -70.2259 -65.2795 -32.2782 -32.2705 -32.2575
    -9.8152  -9.2544   1.7592   1.9320   2.2491   2.6393   2.7568   3.5814
     3.7341   4.3880   4.6720   5.4924   5.7967

     occupation numbers 
     1.0000   1.0000   1.0000   1.0000   1.0000   1.0000   1.0000   1.0000
     1.0000   1.0000   1.0000   1.0000   1.0000   1.0000   1.0000   1.0000
     1.0000   1.0000   1.0000   1.0000   1.0000

          k =-0.5000 0.0000 0.0817 (  3866 PWs)   bands (ev):

  -115.8739 -70.2435 -70.2266 -70.2258 -65.2795 -32.2782 -32.2705 -32.2574
    -9.8090  -9.2570   1.7542   1.9133   2.2239   2.5677   2.7621   3.4676
     3.7549   4.5563   4.7219   5.4671   5.8687

     occupation numbers 
     1.0000   1.0000   1.0000   1.0000   1.0000   1.0000   1.0000   1.0000
     1.0000   1.0000   1.0000   1.0000   1.0000   1.0000   1.0000   1.0000
     1.0000   1.0000   1.0000   1.0000   1.0000

          k =-0.5000 0.0000 0.1634 (  3867 PWs)   bands (ev):

  -115.8739 -70.2435 -70.2266 -70.2259 -65.2795 -32.2782 -32.2705 -32.2574
    -9.7937  -9.2636   1.7388   1.8663   2.1659   2.4004   2.7668   3.3624
     3.8198   4.5572   5.0705   5.3978   6.0529

     occupation numbers 
     1.0000   1.0000   1.0000   1.0000   1.0000   1.0000   1.0000   1.0000
     1.0000   1.0000   1.0000   1.0000   1.0000   1.0000   1.0000   1.0000
     1.0000   1.0000   1.0000   1.0000   1.0000

          k =-0.5000 0.0000 0.2451 (  3875 PWs)   bands (ev):

  -115.8739 -70.2435 -70.2266 -70.2259 -65.2795 -32.2783 -32.2705 -32.2575
    -9.7778  -9.2708   1.7160   1.8174   2.1003   2.2677   2.7678   3.3359
     3.8822   4.5786   5.0959   5.5545   6.2301

     occupation numbers 
     1.0000   1.0000   1.0000   1.0000   1.0000   1.0000   1.0000   1.0000
     1.0000   1.0000   1.0000   1.0000   1.0000   1.0000   1.0000   1.0000
     1.0000   1.0000   1.0000   1.0000   1.0000

          k =-0.5000 0.0000-0.3268 (  3870 PWs)   bands (ev):

  -115.8739 -70.2435 -70.2266 -70.2259 -65.2795 -32.2783 -32.2705 -32.2575
    -9.7711  -9.2740   1.7033   1.7966   2.0677   2.2283   2.7677   3.3335
     3.9050   4.6195   5.0142   5.6730   6.3006

     occupation numbers 
     1.0000   1.0000   1.0000   1.0000   1.0000   1.0000   1.0000   1.0000
     1.0000   1.0000   1.0000   1.0000   1.0000   1.0000   1.0000   1.0000
     1.0000   1.0000   1.0000   1.0000   1.0000

          k =-0.5000 0.0000-0.2451 (  3875 PWs)   bands (ev):

  -115.8739 -70.2435 -70.2266 -70.2259 -65.2795 -32.2783 -32.2705 -32.2575
    -9.7778  -9.2708   1.7160   1.8174   2.1003   2.2677   2.7678   3.3359
     3.8822   4.5786   5.0959   5.5545   6.2301

     occupation numbers 
     1.0000   1.0000   1.0000   1.0000   1.0000   1.0000   1.0000   1.0000
     1.0000   1.0000   1.0000   1.0000   1.0000   1.0000   1.0000   1.0000
     1.0000   1.0000   1.0000   1.0000   1.0000

          k =-0.5000 0.0000-0.1634 (  3867 PWs)   bands (ev):

  -115.8739 -70.2435 -70.2266 -70.2259 -65.2795 -32.2782 -32.2705 -32.2574
    -9.7937  -9.2636   1.7388   1.8663   2.1659   2.4004   2.7668   3.3624
     3.8198   4.5572   5.0705   5.3978   6.0529

     occupation numbers 
     1.0000   1.0000   1.0000   1.0000   1.0000   1.0000   1.0000   1.0000
     1.0000   1.0000   1.0000   1.0000   1.0000   1.0000   1.0000   1.0000
     1.0000   1.0000   1.0000   1.0000   1.0000

          k =-0.5000 0.0000-0.0817 (  3866 PWs)   bands (ev):

  -115.8739 -70.2435 -70.2266 -70.2258 -65.2795 -32.2782 -32.2705 -32.2574
    -9.8090  -9.2570   1.7542   1.9133   2.2239   2.5677   2.7621   3.4676
     3.7549   4.5563   4.7219   5.4671   5.8687

     occupation numbers 
     1.0000   1.0000   1.0000   1.0000   1.0000   1.0000   1.0000   1.0000
     1.0000   1.0000   1.0000   1.0000   1.0000   1.0000   1.0000   1.0000
     1.0000   1.0000   1.0000   1.0000   1.0000

          k =-0.5000 0.1443-0.0000 (  3860 PWs)   bands (ev):

  -115.8739 -70.2435 -70.2267 -70.2256 -65.2795 -32.2782 -32.2732 -32.2547
    -9.8116  -9.2559   1.6001   2.0340   2.2677   2.6344   2.7552   3.2308
     4.0601   4.3671   4.6896   5.6629   5.8567

     occupation numbers 
     1.0000   1.0000   1.0000   1.0000   1.0000   1.0000   1.0000   1.0000
     1.0000   1.0000   1.0000   1.0000   1.0000   1.0000   1.0000   1.0000
     1.0000   1.0000   1.0000   1.0000   1.0000

          k =-0.5000 0.1443 0.0817 (  3862 PWs)   bands (ev):

  -115.8739 -70.2435 -70.2267 -70.2256 -65.2795 -32.2782 -32.2732 -32.2547
    -9.8057  -9.2581   1.5950   2.0191   2.2207   2.5603   2.7586   3.2166
     4.0391   4.4250   4.7829   5.7406   5.8653

     occupation numbers 
     1.0000   1.0000   1.0000   1.0000   1.0000   1.0000   1.0000   1.0000
     1.0000   1.0000   1.0000   1.0000   1.0000   1.0000   1.0000   1.0000
     1.0000   1.0000   1.0000   1.0000   1.0000

          k =-0.5000 0.1443 0.1634 (  3856 PWs)   bands (ev):

  -115.8739 -70.2435 -70.2267 -70.2256 -65.2795 -32.2782 -32.2732 -32.2547
    -9.7911  -9.2638   1.5590   1.9923   2.1526   2.4122   2.7615   3.1394
     3.9894   4.6048   5.0262   5.6777   6.0601

     occupation numbers 
     1.0000   1.0000   1.0000   1.0000   1.0000   1.0000   1.0000   1.0000
     1.0000   1.0000   1.0000   1.0000   1.0000   1.0000   1.0000   1.0000
     1.0000   1.0000   1.0000   1.0000   1.0000

          k =-0.5000 0.1443 0.2451 (  3855 PWs)   bands (ev):

  -115.8739 -70.2435 -70.2267 -70.2257 -65.2795 -32.2783 -32.2732 -32.2547
    -9.7760  -9.2700   1.5113   1.9687   2.0915   2.2869   2.7642   3.0935
     3.9677   4.7702   5.1864   5.6459   6.2409

     occupation numbers 
     1.0000   1.0000   1.0000   1.0000   1.0000   1.0000   1.0000   1.0000
     1.0000   1.0000   1.0000   1.0000   1.0000   1.0000   1.0000   1.0000
     1.0000   1.0000   1.0000   1.0000   1.0000

          k =-0.5000 0.1443-0.3268 (  3850 PWs)   bands (ev):

  -115.8739 -70.2435 -70.2267 -70.2256 -65.2795 -32.2783 -32.2732 -32.2547
    -9.7696  -9.2728   1.4856   1.9697   2.0654   2.2422   2.7666   3.0615
     3.9744   4.8732   5.1665   5.6914   6.2901

     occupation numbers 
     1.0000   1.0000   1.0000   1.0000   1.0000   1.0000   1.0000   1.0000
     1.0000   1.0000   1.0000   1.0000   1.0000   1.0000   1.0000   1.0000
     1.0000   1.0000   1.0000   1.0000   1.0000

          k =-0.5000 0.1443-0.2451 (  3855 PWs)   bands (ev):

  -115.8739 -70.2435 -70.2267 -70.2257 -65.2795 -32.2783 -32.2732 -32.2547
    -9.7759  -9.2702   1.4974   1.9979   2.1154   2.2686   2.7684   3.0327
     4.0013   4.7849   5.2071   5.6484   6.1961

     occupation numbers 
     1.0000   1.0000   1.0000   1.0000   1.0000   1.0000   1.0000   1.0000
     1.0000   1.0000   1.0000   1.0000   1.0000   1.0000   1.0000   1.0000
     1.0000   1.0000   1.0000   1.0000   1.0000

          k =-0.5000 0.1443-0.1634 (  3856 PWs)   bands (ev):

  -115.8739 -70.2435 -70.2267 -70.2256 -65.2795 -32.2782 -32.2732 -32.2547
    -9.7910  -9.2640   1.5352   2.0191   2.2085   2.4024   2.7661   3.0224
     4.0303   4.6590   5.0636   5.6443   6.0131

     occupation numbers 
     1.0000   1.0000   1.0000   1.0000   1.0000   1.0000   1.0000   1.0000
     1.0000   1.0000   1.0000   1.0000   1.0000   1.0000   1.0000   1.0000
     1.0000   1.0000   1.0000   1.0000   1.0000

          k =-0.5000 0.1443-0.0817 (  3862 PWs)   bands (ev):

  -115.8739 -70.2435 -70.2267 -70.2256 -65.2795 -32.2782 -32.2732 -32.2547
    -9.8056  -9.2582   1.5761   2.0325   2.2619   2.5873   2.7566   3.0923
     4.0421   4.5589   4.7647   5.6652   5.8786

     occupation numbers 
     1.0000   1.0000   1.0000   1.0000   1.0000   1.0000   1.0000   1.0000
     1.0000   1.0000   1.0000   1.0000   1.0000   1.0000   1.0000   1.0000
     1.0000   1.0000   1.0000   1.0000   1.0000

          k =-0.5000-0.8660 0.0000 (  3868 PWs)   bands (ev):

  -115.8739 -70.2435 -70.2269 -70.2255 -65.2795 -32.2782 -32.2753 -32.2526
    -9.8080  -9.2574   1.5001   2.0762   2.2647   2.6309   2.7872   3.0841
     4.0502   4.3843   4.8391   5.6745   6.0337

     occupation numbers 
     1.0000   1.0000   1.0000   1.0000   1.0000   1.0000   1.0000   1.0000
     1.0000   1.0000   1.0000   1.0000   1.0000   1.0000   1.0000   1.0000
     1.0000   1.0000   1.0000   1.0000   1.0000

          k =-0.5000-0.8660 0.0817 (  3860 PWs)   bands (ev):

  -115.8739 -70.2435 -70.2269 -70.2255 -65.2795 -32.2782 -32.2753 -32.2526
    -9.8024  -9.2593   1.4824   2.0726   2.2388   2.5763   2.7851   3.0025
     4.0364   4.5451   4.8739   5.7776   5.9999

     occupation numbers 
     1.0000   1.0000   1.0000   1.0000   1.0000   1.0000   1.0000   1.0000
     1.0000   1.0000   1.0000   1.0000   1.0000   1.0000   1.0000   1.0000
     1.0000   1.0000   1.0000   1.0000   1.0000

          k =-0.5000-0.8660 0.1634 (  3856 PWs)   bands (ev):

  -115.8739 -70.2435 -70.2269 -70.2255 -65.2795 -32.2782 -32.2753 -32.2526
    -9.7885  -9.2642   1.4378   2.0642   2.1767   2.4149   2.7803   2.9242
     3.9962   4.8762   4.9670   5.9089   6.0038

     occupation numbers 
     1.0000   1.0000   1.0000   1.0000   1.0000   1.0000   1.0000   1.0000
     1.0000   1.0000   1.0000   1.0000   1.0000   1.0000   1.0000   1.0000
     1.0000   1.0000   1.0000   1.0000   1.0000

          k =-0.5000-0.8660 0.2451 (  3842 PWs)   bands (ev):

  -115.8739 -70.2435 -70.2269 -70.2255 -65.2795 -32.2783 -32.2753 -32.2526
    -9.7741  -9.2694   1.3911   2.0557   2.0960   2.2799   2.7757   2.9040
     3.9620   5.0814   5.1680   5.7964   6.1983

     occupation numbers 
     1.0000   1.0000   1.0000   1.0000   1.0000   1.0000   1.0000   1.0000
     1.0000   1.0000   1.0000   1.0000   1.0000   1.0000   1.0000   1.0000
     1.0000   1.0000   1.0000   1.0000   1.0000

          k =-0.5000-0.8660-0.3268 (  3860 PWs)   bands (ev):

  -115.8739 -70.2435 -70.2269 -70.2255 -65.2795 -32.2783 -32.2753 -32.2526
    -9.7681  -9.2717   1.3712   2.0515   2.0523   2.2418   2.7739   2.9008
     3.9497   5.1407   5.2849   5.7378   6.2684

     occupation numbers 
     1.0000   1.0000   1.0000   1.0000   1.0000   1.0000   1.0000   1.0000
     1.0000   1.0000   1.0000   1.0000   1.0000   1.0000   1.0000   1.0000
     1.0000   1.0000   1.0000   1.0000   1.0000

     highest occupied level (ev):     6.8923

!    total energy              =    -651.13051356 Ry
     Harris-Foulkes estimate   =    -651.13051350 Ry
     estimated scf accuracy    <       0.00000007 Ry

     The total energy is the sum of the following terms:

     one-electron contribution =    -537.63146170 Ry
     hartree contribution      =     282.08323170 Ry
     xc contribution           =     -73.06869075 Ry
     ewald contribution        =    -322.51359282 Ry

     convergence has been achieved in   8 iterations

     Forces acting on atoms (cartesian axes, Ry/au):

     atom    1 type  3   force =    -0.00000021    0.00000036   -0.00105110
     atom    2 type  3   force =    -0.00000010    0.00000072    0.01015803
     atom    3 type  2   force =     0.00000038   -0.00000093   -0.00796433
     atom    4 type  1   force =    -0.00000007   -0.00000015   -0.00114260
     The non-local contrib.  to forces
     atom    1 type  3   force =    -0.00000019   -0.00000108    0.17313947
     atom    2 type  3   force =     0.00000026    0.00000076   -0.08546208
     atom    3 type  2   force =     0.00000093   -0.00000459    0.16659429
     atom    4 type  1   force =     0.00000103   -0.00000105    0.02980167
     The ionic contribution  to forces
     atom    1 type  3   force =    -0.00000599    0.00002444   -6.71644960
     atom    2 type  3   force =    -0.00000669    0.00001340    5.73518531
     atom    3 type  2   force =     0.00000555   -0.00002637    1.13871902
     atom    4 type  1   force =     0.00000712   -0.00001147   -0.15745474
     The local contribution  to forces
     atom    1 type  3   force =     0.00000542   -0.00002228    6.54378221
     atom    2 type  3   force =     0.00000658   -0.00001389   -5.64056941
     atom    3 type  2   force =    -0.00000649    0.00003086   -1.31372053
     atom    4 type  1   force =    -0.00000745    0.00001131    0.12671257
     The core correction contribution to forces
     atom    1 type  3   force =     0.00000001    0.00000000   -0.00157749
     atom    2 type  3   force =    -0.00000000   -0.00000001    0.00112208
     atom    3 type  2   force =     0.00000000    0.00000000    0.00000000
     atom    4 type  1   force =     0.00000000    0.00000000    0.00000000
     The Hubbard contrib.    to forces
     atom    1 type  3   force =     0.00000000    0.00000000    0.00000000
     atom    2 type  3   force =     0.00000000    0.00000000    0.00000000
     atom    3 type  2   force =     0.00000000    0.00000000    0.00000000
     atom    4 type  1   force =     0.00000000    0.00000000    0.00000000
     The SCF correction term to forces
     atom    1 type  3   force =     0.00000000    0.00000000    0.00000000
     atom    2 type  3   force =     0.00000000    0.00000000    0.00000000
     atom    3 type  2   force =     0.00000000    0.00000000    0.00000000
     atom    4 type  1   force =     0.00000000    0.00000000    0.00000000

     Total force =     0.000000     Total SCF correction =     0.000000


     Computing stress (Cartesian axis) and pressure

          total   stress  (Ry/bohr**3)                   (kbar)     P=    0.24
   0.00000262   0.00000000  -0.00000000          0.38      0.00     -0.00
   0.00000000   0.00000262  -0.00000001          0.00      0.39     -0.00
  -0.00000000  -0.00000001  -0.00000031         -0.00     -0.00     -0.05

     kinetic stress (kbar)  26433.38      0.00      0.00
                                0.00  26433.39      0.00
                                0.00      0.00  26521.98

     local   stress (kbar) -18221.51     -0.01      0.02
                               -0.01 -18221.51     -0.05
                                0.02     -0.05   2506.10

     nonloc. stress (kbar)   1783.46      0.00      0.00
                                0.00   1783.46      0.00
                                0.00      0.00   1741.31

     hartree stress (kbar)  46612.08      0.00     -0.01
                                0.00  46612.07      0.02
                               -0.01      0.02  36840.27

     exc-cor stress (kbar) -10455.90      0.00     -0.00
                                0.00 -10455.90      0.00
                               -0.00      0.00 -10458.01

     corecor stress (kbar)   -249.17     -0.00      0.00
                               -0.00   -249.17     -0.00
                                0.00     -0.00   -249.34

     ewald   stress (kbar) -45901.95      0.01     -0.01
                                0.01 -45901.95      0.03
                               -0.01      0.03 -56902.36

     hubbard stress (kbar)      0.00      0.00      0.00
                                0.00      0.00      0.00
                                0.00      0.00      0.00

     london  stress (kbar)      0.00      0.00      0.00
                                0.00      0.00      0.00
                                0.00      0.00      0.00

     DFT-D3  stress (kbar)      0.00      0.00      0.00
                                0.00      0.00      0.00
                                0.00      0.00      0.00

     XDM     stress (kbar)      0.00      0.00      0.00
                                0.00      0.00      0.00
                                0.00      0.00      0.00

     dft-nl  stress (kbar)      0.00      0.00      0.00
                                0.00      0.00      0.00
                                0.00      0.00      0.00

     TS-vdW  stress (kbar)      0.00      0.00      0.00
                                0.00      0.00      0.00
                                0.00      0.00      0.00



     Writing output data file ZnO.save/
 
     init_run     :      0.97s CPU      3.13s WALL (       1 calls)
     electrons    :      7.12s CPU      7.81s WALL (       1 calls)
     forces       :      0.16s CPU      0.26s WALL (       1 calls)
     stress       :      0.29s CPU      0.42s WALL (       1 calls)

     Called by init_run:
     wfcinit      :      0.77s CPU      1.81s WALL (       1 calls)
     wfcinit:atom :      0.00s CPU      0.00s WALL (      65 calls)
     wfcinit:wfcr :      0.75s CPU      1.79s WALL (      65 calls)
     potinit      :      0.07s CPU      0.25s WALL (       1 calls)
     hinit0       :      0.11s CPU      0.83s WALL (       1 calls)

     Called by electrons:
     c_bands      :      5.98s CPU      6.41s WALL (       8 calls)
     sum_band     :      0.82s CPU      0.93s WALL (       8 calls)
     v_of_rho     :      0.25s CPU      0.37s WALL (       9 calls)
     v_h          :      0.00s CPU      0.00s WALL (       9 calls)
     v_xc         :      0.30s CPU      0.42s WALL (      11 calls)
     newd         :      0.05s CPU      0.16s WALL (       9 calls)
     mix_rho      :      0.01s CPU      0.06s WALL (       8 calls)

     Called by c_bands:
     init_us_2    :      0.10s CPU      0.11s WALL (    1235 calls)
     cegterg      :      5.58s CPU      5.84s WALL (     520 calls)

     Called by sum_band:
     sum_band:bec :      0.01s CPU      0.01s WALL (     520 calls)
     addusdens    :      0.05s CPU      0.06s WALL (       8 calls)

     Called by *egterg:
     h_psi        :      3.33s CPU      3.52s WALL (    1891 calls)
     s_psi        :      0.12s CPU      0.12s WALL (    1891 calls)
     g_psi        :      0.01s CPU      0.01s WALL (    1306 calls)
     cdiaghg      :      1.96s CPU      2.90s WALL (    1826 calls)
     cegterg:over :      0.41s CPU      0.46s WALL (    1306 calls)
     cegterg:upda :      0.20s CPU      0.20s WALL (    1306 calls)
     cegterg:last :      0.11s CPU      0.11s WALL (     520 calls)
     cdiaghg:chol :      0.48s CPU      0.83s WALL (    1826 calls)
     cdiaghg:inve :      0.03s CPU      0.14s WALL (    1826 calls)
     cdiaghg:para :      0.19s CPU      0.21s WALL (    3652 calls)

     Called by h_psi:
     h_psi:pot    :      3.32s CPU      3.51s WALL (    1891 calls)
     h_psi:calbec :      0.21s CPU      0.26s WALL (    1891 calls)
     vloc_psi     :      2.98s CPU      3.11s WALL (    1891 calls)
     add_vuspsi   :      0.12s CPU      0.13s WALL (    1891 calls)

     General routines
     calbec       :      0.32s CPU      0.38s WALL (    2736 calls)
     fft          :      0.05s CPU      0.49s WALL (     140 calls)
     ffts         :      0.00s CPU      0.05s WALL (      17 calls)
     fftw         :      3.40s CPU      3.54s WALL (   69568 calls)
     interpolate  :      0.00s CPU      0.05s WALL (       9 calls)
 
     Parallel routines
     fft_scatt_xy :      0.46s CPU      0.48s WALL (   69725 calls)
     fft_scatt_yz :      1.84s CPU      1.91s WALL (   69725 calls)
 
     PWSCF        :      8.85s CPU     15.71s WALL

 
   This run was terminated on:  20:11:32  16Jun2022            

=------------------------------------------------------------------------------=
   JOB DONE.
=------------------------------------------------------------------------------=
