
     Program PWSCF v.6.4.1 starts on 15Jun2022 at 20:46:23 

     This program is part of the open-source Quantum ESPRESSO suite
     for quantum simulation of materials; please cite
         "P. Giannozzi et al., J. Phys.:Condens. Matter 21 395502 (2009);
         "P. Giannozzi et al., J. Phys.:Condens. Matter 29 465901 (2017);
          URL http://www.quantum-espresso.org", 
     in publications or presentations arising from this work. More details at
     http://www.quantum-espresso.org/quote

     Parallel version (MPI), running on    64 processors

     MPI processes distributed on     1 nodes
     K-points division:     npool     =       4
     R & G space division:  proc/nbgrp/npool/nimage =      16
     Waiting for input...
     Reading input from standard input
Warning: card &IONS ignored
Warning: card   UPSCALE           = 100.D0, ignored
Warning: card / ignored
Warning: card &CELL ignored
Warning: card   CELL_DYNAMICS     = 'BFGS' ignored
Warning: card   PRESS_CONV_THR    = 0.5D0 ignored
Warning: card   CELL_DOFREE = 'ALL' ignored
Warning: card / ignored

     Current dimensions of program PWSCF are:
     Max number of different atomic species (ntypx) = 10
     Max number of k-points (npk) =  40000
     Max angular momentum in pseudopotentials (lmaxx) =  3

     Subspace diagonalization in iterative solution of the eigenvalue problem:
     one sub-group per band group will be used
     scalapack distributed-memory algorithm (size of sub-group:  2*  2 procs)

 
     Parallelization info
     --------------------
     sticks:   dense  smooth     PW     G-vecs:    dense   smooth      PW
     Min         104      56     17                 4806     1867     325
     Max         106      59     18                 4809     1868     328
     Sum        1675     913    283                76911    29883    5219
 


     bravais-lattice index     =            0
     lattice parameter (alat)  =       6.3780  a.u.
     unit-cell volume          =     310.2925 (a.u.)^3
     number of atoms/cell      =            4
     number of atomic types    =            2
     number of electrons       =        52.00
     number of Kohn-Sham states=           26
     kinetic-energy cutoff     =      80.0000  Ry
     charge density cutoff     =     600.0000  Ry
     convergence threshold     =      1.0E-06
     mixing beta               =       0.5000
     number of iterations used =            8  plain     mixing
     Exchange-correlation      = SLA  PW   PSX  PSC ( 1  4 10  8 0 0)
     Using LIBXC version       =    4   3   4

     celldm(1)=   6.377994  celldm(2)=   0.000000  celldm(3)=   0.000000
     celldm(4)=   0.000000  celldm(5)=   0.000000  celldm(6)=   0.000000

     crystal axes: (cart. coord. in units of alat)
               a(1) = (   1.000000   0.000000   0.000000 )  
               a(2) = (  -0.500000   0.866025   0.000000 )  
               a(3) = (   0.000000   0.000000   1.380983 )  

     reciprocal axes: (cart. coord. in units 2 pi/alat)
               b(1) = (  1.000000  0.577350 -0.000000 )  
               b(2) = ( -0.000000  1.154700 -0.000000 )  
               b(3) = ( -0.000000 -0.000000  0.724122 )  


     PseudoPot. # 1 for Zn read from file:
     ./GBRV_PBEsol/zn_pbesol_v1.uspp.F.UPF
     MD5 check sum: 7d8615e52efe7c1e2b1899de8658bae2
     Pseudo is Ultrasoft, Zval = 20.0
     Generated by new atomic code, or converted to UPF format
     Using radial grid of  943 points,  6 beta functions with: 
                l(1) =   0
                l(2) =   0
                l(3) =   1
                l(4) =   1
                l(5) =   2
                l(6) =   2
     Q(r) pseudized with  8 coefficients,  rinner =    1.100   1.100   1.100
                                                       1.100   1.100

     PseudoPot. # 2 for O  read from file:
     ./GBRV_PBEsol/o_pbesol_v1.2.uspp.F.UPF
     MD5 check sum: 501638753501ef6325af9037351f7734
     Pseudo is Ultrasoft + core correction, Zval =  6.0
     Generated by new atomic code, or converted to UPF format
     Using radial grid of  737 points,  5 beta functions with: 
                l(1) =   0
                l(2) =   0
                l(3) =   1
                l(4) =   1
                l(5) =   2
     Q(r) pseudized with  8 coefficients,  rinner =    0.900   0.900   0.900
                                                       0.900   0.900

     atomic species   valence    mass     pseudopotential
        Zn            20.00    65.38000     Zn( 1.00)
        O              6.00    15.99900     O ( 1.00)

     No symmetry found


                                    s                        frac. trans.

      isym =  1     identity                                     

 cryst.   s( 1) = (     1          0          0      )
                  (     0          1          0      )
                  (     0          0          1      )

 cart.    s( 1) = (  1.0000000  0.0000000  0.0000000 )
                  ( -0.0000000  1.0000000  0.0000000 )
                  ( -0.0000000  0.0000000  1.0000000 )


   Cartesian axes

     site n.     atom                  positions (alat units)
         1           O   tau(   1) = (   0.5000002   0.2886755   0.0101446  )
         2           O   tau(   2) = (   0.0000001   0.5773496   0.7006357  )
         3           Zn  tau(   3) = (   0.5000000   0.2886750   0.7545057  )
         4           Zn  tau(   4) = (  -0.0000001   0.5773514   1.4449970  )

   Crystallographic axes

     site n.     atom                  positions (cryst. coord.)
         1           O   tau(   1) = (  0.6666670  0.3333337  0.0073459  )
         2           O   tau(   2) = (  0.3333329  0.6666657  0.5073458  )
         3           Zn  tau(   3) = (  0.6666664  0.3333329  0.5463542  )
         4           Zn  tau(   4) = (  0.3333336  0.6666677  1.0463542  )

     number of k points=   260
                       cart. coord. in units 2pi/alat
        k(    1) = (   0.0000000   0.0000000   0.0000000), wk =   0.0039062
        k(    2) = (  -0.0000000  -0.0000000   0.0905153), wk =   0.0078125
        k(    3) = (  -0.0000000  -0.0000000   0.1810305), wk =   0.0078125
        k(    4) = (  -0.0000000  -0.0000000   0.2715458), wk =   0.0078125
        k(    5) = (   0.0000000   0.0000001  -0.3620610), wk =   0.0039062
        k(    6) = (  -0.0000000   0.1443375  -0.0000000), wk =   0.0078125
        k(    7) = (  -0.0000000   0.1443375   0.0905152), wk =   0.0078125
        k(    8) = (  -0.0000000   0.1443375   0.1810305), wk =   0.0078125
        k(    9) = (  -0.0000000   0.1443375   0.2715458), wk =   0.0078125
        k(   10) = (  -0.0000000   0.1443376  -0.3620611), wk =   0.0078125
        k(   11) = (  -0.0000000   0.1443376  -0.2715458), wk =   0.0078125
        k(   12) = (  -0.0000000   0.1443376  -0.1810305), wk =   0.0078125
        k(   13) = (  -0.0000000   0.1443376  -0.0905153), wk =   0.0078125
        k(   14) = (  -0.0000000   0.2886751  -0.0000000), wk =   0.0078125
        k(   15) = (  -0.0000000   0.2886751   0.0905152), wk =   0.0078125
        k(   16) = (  -0.0000000   0.2886751   0.1810305), wk =   0.0078125
        k(   17) = (  -0.0000000   0.2886751   0.2715457), wk =   0.0078125
        k(   18) = (  -0.0000000   0.2886752  -0.3620611), wk =   0.0078125
        k(   19) = (  -0.0000000   0.2886751  -0.2715458), wk =   0.0078125
        k(   20) = (  -0.0000000   0.2886751  -0.1810306), wk =   0.0078125
        k(   21) = (  -0.0000000   0.2886751  -0.0905153), wk =   0.0078125
        k(   22) = (  -0.0000000   0.4330126  -0.0000001), wk =   0.0078125
        k(   23) = (  -0.0000000   0.4330126   0.0905152), wk =   0.0078125
        k(   24) = (  -0.0000000   0.4330126   0.1810305), wk =   0.0078125
        k(   25) = (  -0.0000000   0.4330126   0.2715457), wk =   0.0078125
        k(   26) = (  -0.0000000   0.4330127  -0.3620611), wk =   0.0078125
        k(   27) = (  -0.0000000   0.4330127  -0.2715458), wk =   0.0078125
        k(   28) = (  -0.0000000   0.4330127  -0.1810306), wk =   0.0078125
        k(   29) = (  -0.0000000   0.4330127  -0.0905153), wk =   0.0078125
        k(   30) = (   0.0000000  -0.5773502   0.0000001), wk =   0.0039062
        k(   31) = (   0.0000000  -0.5773502   0.0905153), wk =   0.0078125
        k(   32) = (   0.0000000  -0.5773502   0.1810306), wk =   0.0078125
        k(   33) = (   0.0000000  -0.5773502   0.2715459), wk =   0.0078125
        k(   34) = (   0.0000001  -0.5773501  -0.3620610), wk =   0.0039062
        k(   35) = (   0.1250000   0.0721688  -0.0000000), wk =   0.0078125
        k(   36) = (   0.1250000   0.0721688   0.0905152), wk =   0.0078125
        k(   37) = (   0.1250000   0.0721687   0.1810305), wk =   0.0078125
        k(   38) = (   0.1250000   0.0721687   0.2715458), wk =   0.0078125
        k(   39) = (   0.1250000   0.0721688  -0.3620611), wk =   0.0078125
        k(   40) = (   0.1250000   0.0721688  -0.2715458), wk =   0.0078125
        k(   41) = (   0.1250000   0.0721688  -0.1810305), wk =   0.0078125
        k(   42) = (   0.1250000   0.0721688  -0.0905153), wk =   0.0078125
        k(   43) = (   0.1250000   0.2165063  -0.0000000), wk =   0.0078125
        k(   44) = (   0.1250000   0.2165063   0.0905152), wk =   0.0078125
        k(   45) = (   0.1250000   0.2165063   0.1810305), wk =   0.0078125
        k(   46) = (   0.1250000   0.2165063   0.2715458), wk =   0.0078125
        k(   47) = (   0.1250000   0.2165064  -0.3620611), wk =   0.0078125
        k(   48) = (   0.1250000   0.2165064  -0.2715458), wk =   0.0078125
        k(   49) = (   0.1250000   0.2165063  -0.1810306), wk =   0.0078125
        k(   50) = (   0.1250000   0.2165063  -0.0905153), wk =   0.0078125
        k(   51) = (   0.1250000   0.3608439  -0.0000000), wk =   0.0078125
        k(   52) = (   0.1250000   0.3608438   0.0905152), wk =   0.0078125
        k(   53) = (   0.1250000   0.3608438   0.1810305), wk =   0.0078125
        k(   54) = (   0.1250000   0.3608438   0.2715457), wk =   0.0078125
        k(   55) = (   0.1250000   0.3608439  -0.3620611), wk =   0.0078125
        k(   56) = (   0.1250000   0.3608439  -0.2715458), wk =   0.0078125
        k(   57) = (   0.1250000   0.3608439  -0.1810306), wk =   0.0078125
        k(   58) = (   0.1250000   0.3608439  -0.0905153), wk =   0.0078125
        k(   59) = (   0.1250000   0.5051814  -0.0000001), wk =   0.0078125
        k(   60) = (   0.1250000   0.5051814   0.0905152), wk =   0.0078125
        k(   61) = (   0.1250000   0.5051814   0.1810305), wk =   0.0078125
        k(   62) = (   0.1250000   0.5051814   0.2715457), wk =   0.0078125
        k(   63) = (   0.1250000   0.5051815  -0.3620611), wk =   0.0078125
        k(   64) = (   0.1250000   0.5051814  -0.2715459), wk =   0.0078125
        k(   65) = (   0.1250000   0.5051814  -0.1810306), wk =   0.0078125
        k(   66) = (   0.1250000   0.5051814  -0.0905153), wk =   0.0078125
        k(   67) = (   0.1250000  -0.5051814   0.0000001), wk =   0.0078125
        k(   68) = (   0.1250000  -0.5051814   0.0905153), wk =   0.0078125
        k(   69) = (   0.1250000  -0.5051815   0.1810306), wk =   0.0078125
        k(   70) = (   0.1250000  -0.5051815   0.2715458), wk =   0.0078125
        k(   71) = (   0.1250000  -0.5051814  -0.3620610), wk =   0.0078125
        k(   72) = (   0.1250000  -0.5051814  -0.2715457), wk =   0.0078125
        k(   73) = (   0.1250000  -0.5051814  -0.1810305), wk =   0.0078125
        k(   74) = (   0.1250000  -0.5051814  -0.0905152), wk =   0.0078125
        k(   75) = (   0.1250000  -0.3608439   0.0000000), wk =   0.0078125
        k(   76) = (   0.1250000  -0.3608439   0.0905153), wk =   0.0078125
        k(   77) = (   0.1250000  -0.3608439   0.1810306), wk =   0.0078125
        k(   78) = (   0.1250000  -0.3608439   0.2715458), wk =   0.0078125
        k(   79) = (   0.1250000  -0.3608438  -0.3620610), wk =   0.0078125
        k(   80) = (   0.1250000  -0.3608438  -0.2715457), wk =   0.0078125
        k(   81) = (   0.1250000  -0.3608439  -0.1810305), wk =   0.0078125
        k(   82) = (   0.1250000  -0.3608439  -0.0905152), wk =   0.0078125
        k(   83) = (   0.1250000  -0.2165063   0.0000000), wk =   0.0078125
        k(   84) = (   0.1250000  -0.2165063   0.0905153), wk =   0.0078125
        k(   85) = (   0.1250000  -0.2165064   0.1810305), wk =   0.0078125
        k(   86) = (   0.1250000  -0.2165064   0.2715458), wk =   0.0078125
        k(   87) = (   0.1250000  -0.2165063  -0.3620610), wk =   0.0078125
        k(   88) = (   0.1250000  -0.2165063  -0.2715458), wk =   0.0078125
        k(   89) = (   0.1250000  -0.2165063  -0.1810305), wk =   0.0078125
        k(   90) = (   0.1250000  -0.2165063  -0.0905152), wk =   0.0078125
        k(   91) = (   0.1250000  -0.0721688   0.0000000), wk =   0.0078125
        k(   92) = (   0.1250000  -0.0721688   0.0905153), wk =   0.0078125
        k(   93) = (   0.1250000  -0.0721688   0.1810305), wk =   0.0078125
        k(   94) = (   0.1250000  -0.0721688   0.2715458), wk =   0.0078125
        k(   95) = (   0.1250000  -0.0721687  -0.3620610), wk =   0.0078125
        k(   96) = (   0.1250000  -0.0721687  -0.2715458), wk =   0.0078125
        k(   97) = (   0.1250000  -0.0721688  -0.1810305), wk =   0.0078125
        k(   98) = (   0.1250000  -0.0721688  -0.0905153), wk =   0.0078125
        k(   99) = (   0.2500000   0.1443375  -0.0000000), wk =   0.0078125
        k(  100) = (   0.2500000   0.1443375   0.0905152), wk =   0.0078125
        k(  101) = (   0.2500000   0.1443375   0.1810305), wk =   0.0078125
        k(  102) = (   0.2500000   0.1443375   0.2715458), wk =   0.0078125
        k(  103) = (   0.2500000   0.1443376  -0.3620611), wk =   0.0078125
        k(  104) = (   0.2500000   0.1443376  -0.2715458), wk =   0.0078125
        k(  105) = (   0.2500000   0.1443376  -0.1810305), wk =   0.0078125
        k(  106) = (   0.2500000   0.1443375  -0.0905153), wk =   0.0078125
        k(  107) = (   0.2500000   0.2886751  -0.0000000), wk =   0.0078125
        k(  108) = (   0.2500000   0.2886751   0.0905152), wk =   0.0078125
        k(  109) = (   0.2500000   0.2886750   0.1810305), wk =   0.0078125
        k(  110) = (   0.2500000   0.2886750   0.2715457), wk =   0.0078125
        k(  111) = (   0.2500000   0.2886751  -0.3620611), wk =   0.0078125
        k(  112) = (   0.2500000   0.2886751  -0.2715458), wk =   0.0078125
        k(  113) = (   0.2500000   0.2886751  -0.1810306), wk =   0.0078125
        k(  114) = (   0.2500000   0.2886751  -0.0905153), wk =   0.0078125
        k(  115) = (   0.2500000   0.4330126  -0.0000001), wk =   0.0078125
        k(  116) = (   0.2500000   0.4330126   0.0905152), wk =   0.0078125
        k(  117) = (   0.2500000   0.4330126   0.1810305), wk =   0.0078125
        k(  118) = (   0.2500000   0.4330126   0.2715457), wk =   0.0078125
        k(  119) = (   0.2500000   0.4330127  -0.3620611), wk =   0.0078125
        k(  120) = (   0.2500000   0.4330127  -0.2715458), wk =   0.0078125
        k(  121) = (   0.2500000   0.4330127  -0.1810306), wk =   0.0078125
        k(  122) = (   0.2500000   0.4330126  -0.0905153), wk =   0.0078125
        k(  123) = (   0.2500000   0.5773502  -0.0000001), wk =   0.0078125
        k(  124) = (   0.2500000   0.5773502   0.0905152), wk =   0.0078125
        k(  125) = (   0.2500000   0.5773501   0.1810304), wk =   0.0078125
        k(  126) = (   0.2499999   0.5773501   0.2715457), wk =   0.0078125
        k(  127) = (   0.2500000   0.5773502  -0.3620611), wk =   0.0078125
        k(  128) = (   0.2500000   0.5773502  -0.2715459), wk =   0.0078125
        k(  129) = (   0.2500000   0.5773502  -0.1810306), wk =   0.0078125
        k(  130) = (   0.2500000   0.5773502  -0.0905153), wk =   0.0078125
        k(  131) = (   0.2500000  -0.4330127   0.0000001), wk =   0.0078125
        k(  132) = (   0.2500000  -0.4330127   0.0905153), wk =   0.0078125
        k(  133) = (   0.2500000  -0.4330127   0.1810306), wk =   0.0078125
        k(  134) = (   0.2500000  -0.4330127   0.2715458), wk =   0.0078125
        k(  135) = (   0.2500000  -0.4330126  -0.3620610), wk =   0.0078125
        k(  136) = (   0.2500000  -0.4330126  -0.2715457), wk =   0.0078125
        k(  137) = (   0.2500000  -0.4330126  -0.1810305), wk =   0.0078125
        k(  138) = (   0.2500000  -0.4330126  -0.0905152), wk =   0.0078125
        k(  139) = (   0.2500000  -0.2886751   0.0000000), wk =   0.0078125
        k(  140) = (   0.2500000  -0.2886751   0.0905153), wk =   0.0078125
        k(  141) = (   0.2500000  -0.2886751   0.1810306), wk =   0.0078125
        k(  142) = (   0.2500000  -0.2886752   0.2715458), wk =   0.0078125
        k(  143) = (   0.2500000  -0.2886751  -0.3620610), wk =   0.0078125
        k(  144) = (   0.2500000  -0.2886751  -0.2715458), wk =   0.0078125
        k(  145) = (   0.2500000  -0.2886751  -0.1810305), wk =   0.0078125
        k(  146) = (   0.2500000  -0.2886751  -0.0905152), wk =   0.0078125
        k(  147) = (   0.2500000  -0.1443376   0.0000000), wk =   0.0078125
        k(  148) = (   0.2500000  -0.1443376   0.0905153), wk =   0.0078125
        k(  149) = (   0.2500000  -0.1443376   0.1810305), wk =   0.0078125
        k(  150) = (   0.2500000  -0.1443376   0.2715458), wk =   0.0078125
        k(  151) = (   0.2500000  -0.1443375  -0.3620610), wk =   0.0078125
        k(  152) = (   0.2500000  -0.1443375  -0.2715458), wk =   0.0078125
        k(  153) = (   0.2500000  -0.1443375  -0.1810305), wk =   0.0078125
        k(  154) = (   0.2500000  -0.1443376  -0.0905152), wk =   0.0078125
        k(  155) = (   0.2500000  -0.0000000  -0.0000000), wk =   0.0078125
        k(  156) = (   0.2500000  -0.0000000   0.0905153), wk =   0.0078125
        k(  157) = (   0.2500000  -0.0000000   0.1810305), wk =   0.0078125
        k(  158) = (   0.2500000  -0.0000001   0.2715458), wk =   0.0078125
        k(  159) = (   0.2500000   0.0000000  -0.3620611), wk =   0.0078125
        k(  160) = (   0.2500000   0.0000000  -0.2715458), wk =   0.0078125
        k(  161) = (   0.2500000   0.0000000  -0.1810305), wk =   0.0078125
        k(  162) = (   0.2500000  -0.0000000  -0.0905153), wk =   0.0078125
        k(  163) = (   0.3750000   0.2165063  -0.0000000), wk =   0.0078125
        k(  164) = (   0.3750000   0.2165063   0.0905152), wk =   0.0078125
        k(  165) = (   0.3750000   0.2165063   0.1810305), wk =   0.0078125
        k(  166) = (   0.3750000   0.2165063   0.2715457), wk =   0.0078125
        k(  167) = (   0.3750000   0.2165063  -0.3620611), wk =   0.0078125
        k(  168) = (   0.3750000   0.2165063  -0.2715458), wk =   0.0078125
        k(  169) = (   0.3750000   0.2165063  -0.1810306), wk =   0.0078125
        k(  170) = (   0.3750000   0.2165063  -0.0905153), wk =   0.0078125
        k(  171) = (   0.3750000   0.3608438  -0.0000001), wk =   0.0078125
        k(  172) = (   0.3750000   0.3608438   0.0905152), wk =   0.0078125
        k(  173) = (   0.3750000   0.3608438   0.1810305), wk =   0.0078125
        k(  174) = (   0.3750000   0.3608438   0.2715457), wk =   0.0078125
        k(  175) = (   0.3750000   0.3608439  -0.3620611), wk =   0.0078125
        k(  176) = (   0.3750000   0.3608439  -0.2715458), wk =   0.0078125
        k(  177) = (   0.3750000   0.3608439  -0.1810306), wk =   0.0078125
        k(  178) = (   0.3750000   0.3608439  -0.0905153), wk =   0.0078125
        k(  179) = (   0.3750000   0.5051814  -0.0000001), wk =   0.0078125
        k(  180) = (   0.3750000   0.5051814   0.0905152), wk =   0.0078125
        k(  181) = (   0.3750000   0.5051814   0.1810305), wk =   0.0078125
        k(  182) = (   0.3750000   0.5051813   0.2715457), wk =   0.0078125
        k(  183) = (   0.3750000   0.5051814  -0.3620611), wk =   0.0078125
        k(  184) = (   0.3750000   0.5051814  -0.2715459), wk =   0.0078125
        k(  185) = (   0.3750000   0.5051814  -0.1810306), wk =   0.0078125
        k(  186) = (   0.3750000   0.5051814  -0.0905153), wk =   0.0078125
        k(  187) = (   0.3749999   0.6495189  -0.0000001), wk =   0.0078125
        k(  188) = (   0.3749999   0.6495189   0.0905152), wk =   0.0078125
        k(  189) = (   0.3749999   0.6495189   0.1810304), wk =   0.0078125
        k(  190) = (   0.3749999   0.6495189   0.2715457), wk =   0.0078125
        k(  191) = (   0.3750000   0.6495190  -0.3620611), wk =   0.0078125
        k(  192) = (   0.3750000   0.6495190  -0.2715459), wk =   0.0078125
        k(  193) = (   0.3750000   0.6495190  -0.1810306), wk =   0.0078125
        k(  194) = (   0.3749999   0.6495189  -0.0905154), wk =   0.0078125
        k(  195) = (   0.3750000  -0.3608439   0.0000000), wk =   0.0078125
        k(  196) = (   0.3750000  -0.3608439   0.0905153), wk =   0.0078125
        k(  197) = (   0.3750000  -0.3608439   0.1810306), wk =   0.0078125
        k(  198) = (   0.3750000  -0.3608439   0.2715458), wk =   0.0078125
        k(  199) = (   0.3750000  -0.3608438  -0.3620610), wk =   0.0078125
        k(  200) = (   0.3750000  -0.3608439  -0.2715457), wk =   0.0078125
        k(  201) = (   0.3750000  -0.3608439  -0.1810305), wk =   0.0078125
        k(  202) = (   0.3750000  -0.3608439  -0.0905152), wk =   0.0078125
        k(  203) = (   0.3750000  -0.2165064   0.0000000), wk =   0.0078125
        k(  204) = (   0.3750000  -0.2165064   0.0905153), wk =   0.0078125
        k(  205) = (   0.3750000  -0.2165064   0.1810305), wk =   0.0078125
        k(  206) = (   0.3750000  -0.2165064   0.2715458), wk =   0.0078125
        k(  207) = (   0.3750000  -0.2165063  -0.3620610), wk =   0.0078125
        k(  208) = (   0.3750000  -0.2165063  -0.2715458), wk =   0.0078125
        k(  209) = (   0.3750000  -0.2165063  -0.1810305), wk =   0.0078125
        k(  210) = (   0.3750000  -0.2165063  -0.0905152), wk =   0.0078125
        k(  211) = (   0.3750000  -0.0721688   0.0000000), wk =   0.0078125
        k(  212) = (   0.3750000  -0.0721688   0.0905153), wk =   0.0078125
        k(  213) = (   0.3750000  -0.0721688   0.1810305), wk =   0.0078125
        k(  214) = (   0.3750000  -0.0721688   0.2715458), wk =   0.0078125
        k(  215) = (   0.3750000  -0.0721687  -0.3620610), wk =   0.0078125
        k(  216) = (   0.3750000  -0.0721688  -0.2715458), wk =   0.0078125
        k(  217) = (   0.3750000  -0.0721688  -0.1810305), wk =   0.0078125
        k(  218) = (   0.3750000  -0.0721688  -0.0905153), wk =   0.0078125
        k(  219) = (   0.3750000   0.0721687  -0.0000000), wk =   0.0078125
        k(  220) = (   0.3750000   0.0721687   0.0905152), wk =   0.0078125
        k(  221) = (   0.3750000   0.0721687   0.1810305), wk =   0.0078125
        k(  222) = (   0.3750000   0.0721687   0.2715458), wk =   0.0078125
        k(  223) = (   0.3750000   0.0721688  -0.3620611), wk =   0.0078125
        k(  224) = (   0.3750000   0.0721688  -0.2715458), wk =   0.0078125
        k(  225) = (   0.3750000   0.0721688  -0.1810305), wk =   0.0078125
        k(  226) = (   0.3750000   0.0721688  -0.0905153), wk =   0.0078125
        k(  227) = (  -0.5000000  -0.2886751   0.0000000), wk =   0.0039062
        k(  228) = (  -0.5000000  -0.2886751   0.0905153), wk =   0.0078125
        k(  229) = (  -0.5000000  -0.2886751   0.1810306), wk =   0.0078125
        k(  230) = (  -0.5000000  -0.2886751   0.2715458), wk =   0.0078125
        k(  231) = (  -0.5000000  -0.2886750  -0.3620610), wk =   0.0039062
        k(  232) = (  -0.5000000  -0.1443375   0.0000000), wk =   0.0078125
        k(  233) = (  -0.5000000  -0.1443375   0.0905153), wk =   0.0078125
        k(  234) = (  -0.5000000  -0.1443375   0.1810306), wk =   0.0078125
        k(  235) = (  -0.5000000  -0.1443375   0.2715458), wk =   0.0078125
        k(  236) = (  -0.5000000  -0.1443375  -0.3620610), wk =   0.0078125
        k(  237) = (  -0.5000000  -0.1443375  -0.2715458), wk =   0.0078125
        k(  238) = (  -0.5000000  -0.1443375  -0.1810305), wk =   0.0078125
        k(  239) = (  -0.5000000  -0.1443375  -0.0905152), wk =   0.0078125
        k(  240) = (  -0.5000000   0.0000000   0.0000000), wk =   0.0078125
        k(  241) = (  -0.5000000   0.0000000   0.0905153), wk =   0.0078125
        k(  242) = (  -0.5000000   0.0000000   0.1810305), wk =   0.0078125
        k(  243) = (  -0.5000000  -0.0000000   0.2715458), wk =   0.0078125
        k(  244) = (  -0.5000000   0.0000001  -0.3620610), wk =   0.0078125
        k(  245) = (  -0.5000000   0.0000001  -0.2715458), wk =   0.0078125
        k(  246) = (  -0.5000000   0.0000001  -0.1810305), wk =   0.0078125
        k(  247) = (  -0.5000000   0.0000001  -0.0905153), wk =   0.0078125
        k(  248) = (  -0.5000000   0.1443376  -0.0000000), wk =   0.0078125
        k(  249) = (  -0.5000000   0.1443376   0.0905153), wk =   0.0078125
        k(  250) = (  -0.5000000   0.1443376   0.1810305), wk =   0.0078125
        k(  251) = (  -0.5000000   0.1443375   0.2715458), wk =   0.0078125
        k(  252) = (  -0.5000000   0.1443376  -0.3620611), wk =   0.0078125
        k(  253) = (  -0.5000000   0.1443376  -0.2715458), wk =   0.0078125
        k(  254) = (  -0.5000000   0.1443376  -0.1810305), wk =   0.0078125
        k(  255) = (  -0.5000000   0.1443376  -0.0905153), wk =   0.0078125
        k(  256) = (  -0.4999999  -0.8660252   0.0000001), wk =   0.0039062
        k(  257) = (  -0.4999999  -0.8660253   0.0905154), wk =   0.0078125
        k(  258) = (  -0.4999999  -0.8660253   0.1810306), wk =   0.0078125
        k(  259) = (  -0.4999999  -0.8660253   0.2715459), wk =   0.0078125
        k(  260) = (  -0.4999999  -0.8660252  -0.3620609), wk =   0.0039062

                       cryst. coord.
        k(    1) = (   0.0000000   0.0000000   0.0000000), wk =   0.0039062
        k(    2) = (  -0.0000000   0.0000000   0.1250000), wk =   0.0078125
        k(    3) = (  -0.0000000   0.0000000   0.2500000), wk =   0.0078125
        k(    4) = (  -0.0000000   0.0000000   0.3750000), wk =   0.0078125
        k(    5) = (   0.0000000  -0.0000000  -0.5000000), wk =   0.0039062
        k(    6) = (  -0.0000000   0.1250000  -0.0000000), wk =   0.0078125
        k(    7) = (  -0.0000000   0.1250000   0.1250000), wk =   0.0078125
        k(    8) = (  -0.0000000   0.1250000   0.2500000), wk =   0.0078125
        k(    9) = (  -0.0000000   0.1250000   0.3750000), wk =   0.0078125
        k(   10) = (  -0.0000000   0.1250000  -0.5000000), wk =   0.0078125
        k(   11) = (  -0.0000000   0.1250000  -0.3750000), wk =   0.0078125
        k(   12) = (  -0.0000000   0.1250000  -0.2500000), wk =   0.0078125
        k(   13) = (  -0.0000000   0.1250000  -0.1250000), wk =   0.0078125
        k(   14) = (  -0.0000000   0.2500000  -0.0000000), wk =   0.0078125
        k(   15) = (  -0.0000000   0.2500000   0.1250000), wk =   0.0078125
        k(   16) = (  -0.0000000   0.2500000   0.2500000), wk =   0.0078125
        k(   17) = (  -0.0000000   0.2500000   0.3750000), wk =   0.0078125
        k(   18) = (  -0.0000000   0.2500000  -0.5000000), wk =   0.0078125
        k(   19) = (  -0.0000000   0.2500000  -0.3750000), wk =   0.0078125
        k(   20) = (  -0.0000000   0.2500000  -0.2500000), wk =   0.0078125
        k(   21) = (  -0.0000000   0.2500000  -0.1250000), wk =   0.0078125
        k(   22) = (  -0.0000000   0.3750000  -0.0000000), wk =   0.0078125
        k(   23) = (  -0.0000000   0.3750000   0.1250000), wk =   0.0078125
        k(   24) = (  -0.0000000   0.3750000   0.2500000), wk =   0.0078125
        k(   25) = (  -0.0000000   0.3750000   0.3750000), wk =   0.0078125
        k(   26) = (  -0.0000000   0.3750000  -0.5000000), wk =   0.0078125
        k(   27) = (  -0.0000000   0.3750000  -0.3750000), wk =   0.0078125
        k(   28) = (   0.0000000   0.3750000  -0.2500000), wk =   0.0078125
        k(   29) = (  -0.0000000   0.3750000  -0.1250000), wk =   0.0078125
        k(   30) = (   0.0000000  -0.5000000   0.0000000), wk =   0.0039062
        k(   31) = (   0.0000000  -0.5000000   0.1250000), wk =   0.0078125
        k(   32) = (   0.0000000  -0.5000000   0.2500000), wk =   0.0078125
        k(   33) = (   0.0000000  -0.5000000   0.3750000), wk =   0.0078125
        k(   34) = (   0.0000000  -0.5000000  -0.5000000), wk =   0.0039062
        k(   35) = (   0.1250000   0.0000000   0.0000000), wk =   0.0078125
        k(   36) = (   0.1250000   0.0000000   0.1250000), wk =   0.0078125
        k(   37) = (   0.1250000   0.0000000   0.2500000), wk =   0.0078125
        k(   38) = (   0.1250000   0.0000000   0.3750000), wk =   0.0078125
        k(   39) = (   0.1250000   0.0000000  -0.5000000), wk =   0.0078125
        k(   40) = (   0.1250000   0.0000000  -0.3750000), wk =   0.0078125
        k(   41) = (   0.1250000   0.0000000  -0.2500000), wk =   0.0078125
        k(   42) = (   0.1250000   0.0000000  -0.1250000), wk =   0.0078125
        k(   43) = (   0.1250000   0.1250000  -0.0000000), wk =   0.0078125
        k(   44) = (   0.1250000   0.1250000   0.1250000), wk =   0.0078125
        k(   45) = (   0.1250000   0.1250000   0.2500000), wk =   0.0078125
        k(   46) = (   0.1250000   0.1250000   0.3750000), wk =   0.0078125
        k(   47) = (   0.1250000   0.1250000  -0.5000000), wk =   0.0078125
        k(   48) = (   0.1250000   0.1250000  -0.3750000), wk =   0.0078125
        k(   49) = (   0.1250000   0.1250000  -0.2500000), wk =   0.0078125
        k(   50) = (   0.1250000   0.1250000  -0.1250000), wk =   0.0078125
        k(   51) = (   0.1250000   0.2500000  -0.0000000), wk =   0.0078125
        k(   52) = (   0.1250000   0.2500000   0.1250000), wk =   0.0078125
        k(   53) = (   0.1250000   0.2500000   0.2500000), wk =   0.0078125
        k(   54) = (   0.1250000   0.2500000   0.3750000), wk =   0.0078125
        k(   55) = (   0.1250000   0.2500000  -0.5000000), wk =   0.0078125
        k(   56) = (   0.1250000   0.2500000  -0.3750000), wk =   0.0078125
        k(   57) = (   0.1250000   0.2500000  -0.2500000), wk =   0.0078125
        k(   58) = (   0.1250000   0.2500000  -0.1250000), wk =   0.0078125
        k(   59) = (   0.1250000   0.3750000  -0.0000000), wk =   0.0078125
        k(   60) = (   0.1250000   0.3750000   0.1250000), wk =   0.0078125
        k(   61) = (   0.1250000   0.3750000   0.2500000), wk =   0.0078125
        k(   62) = (   0.1250000   0.3750000   0.3750000), wk =   0.0078125
        k(   63) = (   0.1250000   0.3750000  -0.5000000), wk =   0.0078125
        k(   64) = (   0.1250000   0.3750000  -0.3750000), wk =   0.0078125
        k(   65) = (   0.1250000   0.3750000  -0.2500000), wk =   0.0078125
        k(   66) = (   0.1250000   0.3750000  -0.1250000), wk =   0.0078125
        k(   67) = (   0.1250000  -0.5000000   0.0000000), wk =   0.0078125
        k(   68) = (   0.1250000  -0.5000000   0.1250000), wk =   0.0078125
        k(   69) = (   0.1250000  -0.5000000   0.2500000), wk =   0.0078125
        k(   70) = (   0.1250000  -0.5000000   0.3750000), wk =   0.0078125
        k(   71) = (   0.1250000  -0.5000000  -0.5000000), wk =   0.0078125
        k(   72) = (   0.1250000  -0.5000000  -0.3750000), wk =   0.0078125
        k(   73) = (   0.1250000  -0.5000000  -0.2500000), wk =   0.0078125
        k(   74) = (   0.1250000  -0.5000000  -0.1250000), wk =   0.0078125
        k(   75) = (   0.1250000  -0.3750000   0.0000000), wk =   0.0078125
        k(   76) = (   0.1250000  -0.3750000   0.1250000), wk =   0.0078125
        k(   77) = (   0.1250000  -0.3750000   0.2500000), wk =   0.0078125
        k(   78) = (   0.1250000  -0.3750000   0.3750000), wk =   0.0078125
        k(   79) = (   0.1250000  -0.3750000  -0.5000000), wk =   0.0078125
        k(   80) = (   0.1250000  -0.3750000  -0.3750000), wk =   0.0078125
        k(   81) = (   0.1250000  -0.3750000  -0.2500000), wk =   0.0078125
        k(   82) = (   0.1250000  -0.3750000  -0.1250000), wk =   0.0078125
        k(   83) = (   0.1250000  -0.2500000   0.0000000), wk =   0.0078125
        k(   84) = (   0.1250000  -0.2500000   0.1250000), wk =   0.0078125
        k(   85) = (   0.1250000  -0.2500000   0.2500000), wk =   0.0078125
        k(   86) = (   0.1250000  -0.2500000   0.3750000), wk =   0.0078125
        k(   87) = (   0.1250000  -0.2500000  -0.5000000), wk =   0.0078125
        k(   88) = (   0.1250000  -0.2500000  -0.3750000), wk =   0.0078125
        k(   89) = (   0.1250000  -0.2500000  -0.2500000), wk =   0.0078125
        k(   90) = (   0.1250000  -0.2500000  -0.1250000), wk =   0.0078125
        k(   91) = (   0.1250000  -0.1250000   0.0000000), wk =   0.0078125
        k(   92) = (   0.1250000  -0.1250000   0.1250000), wk =   0.0078125
        k(   93) = (   0.1250000  -0.1250000   0.2500000), wk =   0.0078125
        k(   94) = (   0.1250000  -0.1250000   0.3750000), wk =   0.0078125
        k(   95) = (   0.1250000  -0.1250000  -0.5000000), wk =   0.0078125
        k(   96) = (   0.1250000  -0.1250000  -0.3750000), wk =   0.0078125
        k(   97) = (   0.1250000  -0.1250000  -0.2500000), wk =   0.0078125
        k(   98) = (   0.1250000  -0.1250000  -0.1250000), wk =   0.0078125
        k(   99) = (   0.2500000   0.0000000   0.0000000), wk =   0.0078125
        k(  100) = (   0.2500000   0.0000000   0.1250000), wk =   0.0078125
        k(  101) = (   0.2500000   0.0000000   0.2500000), wk =   0.0078125
        k(  102) = (   0.2500000   0.0000000   0.3750000), wk =   0.0078125
        k(  103) = (   0.2500000   0.0000000  -0.5000000), wk =   0.0078125
        k(  104) = (   0.2500000   0.0000000  -0.3750000), wk =   0.0078125
        k(  105) = (   0.2500000   0.0000000  -0.2500000), wk =   0.0078125
        k(  106) = (   0.2500000   0.0000000  -0.1250000), wk =   0.0078125
        k(  107) = (   0.2500000   0.1250000   0.0000000), wk =   0.0078125
        k(  108) = (   0.2500000   0.1250000   0.1250000), wk =   0.0078125
        k(  109) = (   0.2500000   0.1250000   0.2500000), wk =   0.0078125
        k(  110) = (   0.2500000   0.1250000   0.3750000), wk =   0.0078125
        k(  111) = (   0.2500000   0.1250000  -0.5000000), wk =   0.0078125
        k(  112) = (   0.2500000   0.1250000  -0.3750000), wk =   0.0078125
        k(  113) = (   0.2500000   0.1250000  -0.2500000), wk =   0.0078125
        k(  114) = (   0.2500000   0.1250000  -0.1250000), wk =   0.0078125
        k(  115) = (   0.2500000   0.2500000  -0.0000000), wk =   0.0078125
        k(  116) = (   0.2500000   0.2500000   0.1250000), wk =   0.0078125
        k(  117) = (   0.2500000   0.2500000   0.2500000), wk =   0.0078125
        k(  118) = (   0.2500000   0.2500000   0.3750000), wk =   0.0078125
        k(  119) = (   0.2500000   0.2500000  -0.5000000), wk =   0.0078125
        k(  120) = (   0.2500000   0.2500000  -0.3750000), wk =   0.0078125
        k(  121) = (   0.2500000   0.2500000  -0.2500000), wk =   0.0078125
        k(  122) = (   0.2500000   0.2500000  -0.1250000), wk =   0.0078125
        k(  123) = (   0.2500000   0.3750000  -0.0000000), wk =   0.0078125
        k(  124) = (   0.2500000   0.3750000   0.1250000), wk =   0.0078125
        k(  125) = (   0.2500000   0.3750000   0.2500000), wk =   0.0078125
        k(  126) = (   0.2500000   0.3750000   0.3750000), wk =   0.0078125
        k(  127) = (   0.2500000   0.3750000  -0.5000000), wk =   0.0078125
        k(  128) = (   0.2500000   0.3750000  -0.3750000), wk =   0.0078125
        k(  129) = (   0.2500000   0.3750000  -0.2500000), wk =   0.0078125
        k(  130) = (   0.2500000   0.3750000  -0.1250000), wk =   0.0078125
        k(  131) = (   0.2500000  -0.5000000   0.0000000), wk =   0.0078125
        k(  132) = (   0.2500000  -0.5000000   0.1250000), wk =   0.0078125
        k(  133) = (   0.2500000  -0.5000000   0.2500000), wk =   0.0078125
        k(  134) = (   0.2500000  -0.5000000   0.3750000), wk =   0.0078125
        k(  135) = (   0.2500000  -0.5000000  -0.5000000), wk =   0.0078125
        k(  136) = (   0.2500000  -0.5000000  -0.3750000), wk =   0.0078125
        k(  137) = (   0.2500000  -0.5000000  -0.2500000), wk =   0.0078125
        k(  138) = (   0.2500000  -0.5000000  -0.1250000), wk =   0.0078125
        k(  139) = (   0.2500000  -0.3750000   0.0000000), wk =   0.0078125
        k(  140) = (   0.2500000  -0.3750000   0.1250000), wk =   0.0078125
        k(  141) = (   0.2500000  -0.3750000   0.2500000), wk =   0.0078125
        k(  142) = (   0.2500000  -0.3750000   0.3750000), wk =   0.0078125
        k(  143) = (   0.2500000  -0.3750000  -0.5000000), wk =   0.0078125
        k(  144) = (   0.2500000  -0.3750000  -0.3750000), wk =   0.0078125
        k(  145) = (   0.2500000  -0.3750000  -0.2500000), wk =   0.0078125
        k(  146) = (   0.2500000  -0.3750000  -0.1250000), wk =   0.0078125
        k(  147) = (   0.2500000  -0.2500000   0.0000000), wk =   0.0078125
        k(  148) = (   0.2500000  -0.2500000   0.1250000), wk =   0.0078125
        k(  149) = (   0.2500000  -0.2500000   0.2500000), wk =   0.0078125
        k(  150) = (   0.2500000  -0.2500000   0.3750000), wk =   0.0078125
        k(  151) = (   0.2500000  -0.2500000  -0.5000000), wk =   0.0078125
        k(  152) = (   0.2500000  -0.2500000  -0.3750000), wk =   0.0078125
        k(  153) = (   0.2500000  -0.2500000  -0.2500000), wk =   0.0078125
        k(  154) = (   0.2500000  -0.2500000  -0.1250000), wk =   0.0078125
        k(  155) = (   0.2500000  -0.1250000   0.0000000), wk =   0.0078125
        k(  156) = (   0.2500000  -0.1250000   0.1250000), wk =   0.0078125
        k(  157) = (   0.2500000  -0.1250000   0.2500000), wk =   0.0078125
        k(  158) = (   0.2500000  -0.1250000   0.3750000), wk =   0.0078125
        k(  159) = (   0.2500000  -0.1250000  -0.5000000), wk =   0.0078125
        k(  160) = (   0.2500000  -0.1250000  -0.3750000), wk =   0.0078125
        k(  161) = (   0.2500000  -0.1250000  -0.2500000), wk =   0.0078125
        k(  162) = (   0.2500000  -0.1250000  -0.1250000), wk =   0.0078125
        k(  163) = (   0.3750000   0.0000000   0.0000000), wk =   0.0078125
        k(  164) = (   0.3750000   0.0000000   0.1250000), wk =   0.0078125
        k(  165) = (   0.3750000   0.0000000   0.2500000), wk =   0.0078125
        k(  166) = (   0.3750000   0.0000000   0.3750000), wk =   0.0078125
        k(  167) = (   0.3750000   0.0000000  -0.5000000), wk =   0.0078125
        k(  168) = (   0.3750000   0.0000000  -0.3750000), wk =   0.0078125
        k(  169) = (   0.3750000   0.0000000  -0.2500000), wk =   0.0078125
        k(  170) = (   0.3750000   0.0000000  -0.1250000), wk =   0.0078125
        k(  171) = (   0.3750000   0.1250000   0.0000000), wk =   0.0078125
        k(  172) = (   0.3750000   0.1250000   0.1250000), wk =   0.0078125
        k(  173) = (   0.3750000   0.1250000   0.2500000), wk =   0.0078125
        k(  174) = (   0.3750000   0.1250000   0.3750000), wk =   0.0078125
        k(  175) = (   0.3750000   0.1250000  -0.5000000), wk =   0.0078125
        k(  176) = (   0.3750000   0.1250000  -0.3750000), wk =   0.0078125
        k(  177) = (   0.3750000   0.1250000  -0.2500000), wk =   0.0078125
        k(  178) = (   0.3750000   0.1250000  -0.1250000), wk =   0.0078125
        k(  179) = (   0.3750000   0.2500000  -0.0000000), wk =   0.0078125
        k(  180) = (   0.3750000   0.2500000   0.1250000), wk =   0.0078125
        k(  181) = (   0.3750000   0.2500000   0.2500000), wk =   0.0078125
        k(  182) = (   0.3750000   0.2500000   0.3750000), wk =   0.0078125
        k(  183) = (   0.3750000   0.2500000  -0.5000000), wk =   0.0078125
        k(  184) = (   0.3750000   0.2500000  -0.3750000), wk =   0.0078125
        k(  185) = (   0.3750000   0.2500000  -0.2500000), wk =   0.0078125
        k(  186) = (   0.3750000   0.2500000  -0.1250000), wk =   0.0078125
        k(  187) = (   0.3750000   0.3750000  -0.0000000), wk =   0.0078125
        k(  188) = (   0.3750000   0.3750000   0.1250000), wk =   0.0078125
        k(  189) = (   0.3750000   0.3750000   0.2500000), wk =   0.0078125
        k(  190) = (   0.3750000   0.3750000   0.3750000), wk =   0.0078125
        k(  191) = (   0.3750000   0.3750000  -0.5000000), wk =   0.0078125
        k(  192) = (   0.3750000   0.3750000  -0.3750000), wk =   0.0078125
        k(  193) = (   0.3750000   0.3750000  -0.2500000), wk =   0.0078125
        k(  194) = (   0.3750000   0.3750000  -0.1250000), wk =   0.0078125
        k(  195) = (   0.3750000  -0.5000000   0.0000000), wk =   0.0078125
        k(  196) = (   0.3750000  -0.5000000   0.1250000), wk =   0.0078125
        k(  197) = (   0.3750000  -0.5000000   0.2500000), wk =   0.0078125
        k(  198) = (   0.3750000  -0.5000000   0.3750000), wk =   0.0078125
        k(  199) = (   0.3750000  -0.5000000  -0.5000000), wk =   0.0078125
        k(  200) = (   0.3750000  -0.5000000  -0.3750000), wk =   0.0078125
        k(  201) = (   0.3750000  -0.5000000  -0.2500000), wk =   0.0078125
        k(  202) = (   0.3750000  -0.5000000  -0.1250000), wk =   0.0078125
        k(  203) = (   0.3750000  -0.3750000   0.0000000), wk =   0.0078125
        k(  204) = (   0.3750000  -0.3750000   0.1250000), wk =   0.0078125
        k(  205) = (   0.3750000  -0.3750000   0.2500000), wk =   0.0078125
        k(  206) = (   0.3750000  -0.3750000   0.3750000), wk =   0.0078125
        k(  207) = (   0.3750000  -0.3750000  -0.5000000), wk =   0.0078125
        k(  208) = (   0.3750000  -0.3750000  -0.3750000), wk =   0.0078125
        k(  209) = (   0.3750000  -0.3750000  -0.2500000), wk =   0.0078125
        k(  210) = (   0.3750000  -0.3750000  -0.1250000), wk =   0.0078125
        k(  211) = (   0.3750000  -0.2500000   0.0000000), wk =   0.0078125
        k(  212) = (   0.3750000  -0.2500000   0.1250000), wk =   0.0078125
        k(  213) = (   0.3750000  -0.2500000   0.2500000), wk =   0.0078125
        k(  214) = (   0.3750000  -0.2500000   0.3750000), wk =   0.0078125
        k(  215) = (   0.3750000  -0.2500000  -0.5000000), wk =   0.0078125
        k(  216) = (   0.3750000  -0.2500000  -0.3750000), wk =   0.0078125
        k(  217) = (   0.3750000  -0.2500000  -0.2500000), wk =   0.0078125
        k(  218) = (   0.3750000  -0.2500000  -0.1250000), wk =   0.0078125
        k(  219) = (   0.3750000  -0.1250000   0.0000000), wk =   0.0078125
        k(  220) = (   0.3750000  -0.1250000   0.1250000), wk =   0.0078125
        k(  221) = (   0.3750000  -0.1250000   0.2500000), wk =   0.0078125
        k(  222) = (   0.3750000  -0.1250000   0.3750000), wk =   0.0078125
        k(  223) = (   0.3750000  -0.1250000  -0.5000000), wk =   0.0078125
        k(  224) = (   0.3750000  -0.1250000  -0.3750000), wk =   0.0078125
        k(  225) = (   0.3750000  -0.1250000  -0.2500000), wk =   0.0078125
        k(  226) = (   0.3750000  -0.1250000  -0.1250000), wk =   0.0078125
        k(  227) = (  -0.5000000  -0.0000000  -0.0000000), wk =   0.0039062
        k(  228) = (  -0.5000000  -0.0000000   0.1250000), wk =   0.0078125
        k(  229) = (  -0.5000000  -0.0000000   0.2500000), wk =   0.0078125
        k(  230) = (  -0.5000000  -0.0000000   0.3750000), wk =   0.0078125
        k(  231) = (  -0.5000000  -0.0000000  -0.5000000), wk =   0.0039062
        k(  232) = (  -0.5000000   0.1250000  -0.0000000), wk =   0.0078125
        k(  233) = (  -0.5000000   0.1250000   0.1250000), wk =   0.0078125
        k(  234) = (  -0.5000000   0.1250000   0.2500000), wk =   0.0078125
        k(  235) = (  -0.5000000   0.1250000   0.3750000), wk =   0.0078125
        k(  236) = (  -0.5000000   0.1250000  -0.5000000), wk =   0.0078125
        k(  237) = (  -0.5000000   0.1250000  -0.3750000), wk =   0.0078125
        k(  238) = (  -0.5000000   0.1250000  -0.2500000), wk =   0.0078125
        k(  239) = (  -0.5000000   0.1250000  -0.1250000), wk =   0.0078125
        k(  240) = (  -0.5000000   0.2500000  -0.0000000), wk =   0.0078125
        k(  241) = (  -0.5000000   0.2500000   0.1250000), wk =   0.0078125
        k(  242) = (  -0.5000000   0.2500000   0.2500000), wk =   0.0078125
        k(  243) = (  -0.5000000   0.2500000   0.3750000), wk =   0.0078125
        k(  244) = (  -0.5000000   0.2500000  -0.5000000), wk =   0.0078125
        k(  245) = (  -0.5000000   0.2500000  -0.3750000), wk =   0.0078125
        k(  246) = (  -0.5000000   0.2500000  -0.2500000), wk =   0.0078125
        k(  247) = (  -0.5000000   0.2500000  -0.1250000), wk =   0.0078125
        k(  248) = (  -0.5000000   0.3750000  -0.0000000), wk =   0.0078125
        k(  249) = (  -0.5000000   0.3750000   0.1250000), wk =   0.0078125
        k(  250) = (  -0.5000000   0.3750000   0.2500000), wk =   0.0078125
        k(  251) = (  -0.5000000   0.3750000   0.3750000), wk =   0.0078125
        k(  252) = (  -0.5000000   0.3750000  -0.5000000), wk =   0.0078125
        k(  253) = (  -0.5000000   0.3750000  -0.3750000), wk =   0.0078125
        k(  254) = (  -0.5000000   0.3750000  -0.2500000), wk =   0.0078125
        k(  255) = (  -0.5000000   0.3750000  -0.1250000), wk =   0.0078125
        k(  256) = (  -0.5000000  -0.5000000   0.0000000), wk =   0.0039062
        k(  257) = (  -0.5000000  -0.5000000   0.1250000), wk =   0.0078125
        k(  258) = (  -0.5000000  -0.5000000   0.2500000), wk =   0.0078125
        k(  259) = (  -0.5000000  -0.5000000   0.3750000), wk =   0.0078125
        k(  260) = (  -0.5000000  -0.5000000  -0.5000000), wk =   0.0039062

     Dense  grid:    76911 G-vectors     FFT dimensions: (  50,  50,  72)

     Smooth grid:    29883 G-vectors     FFT dimensions: (  40,  40,  54)

     Dynamical RAM for                 wfc:       0.09 MB

     Dynamical RAM for     wfc (w. buffer):       6.13 MB

     Dynamical RAM for           str. fact:       0.15 MB

     Dynamical RAM for           local pot:       0.00 MB

     Dynamical RAM for          nlocal pot:       0.22 MB

     Dynamical RAM for                qrad:       3.99 MB

     Dynamical RAM for          rho,v,vnew:       0.51 MB

     Dynamical RAM for               rhoin:       0.17 MB

     Dynamical RAM for            rho*nmix:       1.17 MB

     Dynamical RAM for           G-vectors:       0.29 MB

     Dynamical RAM for          h,s,v(r/c):       0.12 MB

     Dynamical RAM for          <psi|beta>:       0.02 MB

     Dynamical RAM for                 psi:       0.37 MB

     Dynamical RAM for                hpsi:       0.37 MB

     Dynamical RAM for                spsi:       0.37 MB

     Dynamical RAM for      wfcinit/wfcrot:       0.27 MB

     Dynamical RAM for           addusdens:       3.50 MB

     Dynamical RAM for          addusforce:       3.65 MB

     Dynamical RAM for         addusstress:       3.71 MB

     Estimated static dynamical RAM per process >      13.32 MB

     Estimated max dynamical RAM per process >      17.03 MB

     Estimated total dynamical RAM >       1.06 GB

     Check: negative core charge=   -0.000003

     Initial potential from superposition of free atoms

     starting charge   51.99974, renormalised to   52.00000
     Starting wfcs are   34 randomized atomic wfcs

     total cpu time spent up to now is        1.0 secs

     Self-consistent Calculation

     iteration #  1     ecut=    80.00 Ry     beta= 0.50
     Davidson diagonalization with overlap
     ethr =  1.00E-02,  avg # of iterations =  1.0

     total cpu time spent up to now is        2.0 secs

     total energy              =    -986.75483420 Ry
     Harris-Foulkes estimate   =    -987.27418929 Ry
     estimated scf accuracy    <       0.81614917 Ry

     iteration #  2     ecut=    80.00 Ry     beta= 0.50
     Davidson diagonalization with overlap
     ethr =  1.57E-03,  avg # of iterations =  3.0

     total cpu time spent up to now is        3.3 secs

     total energy              =    -986.99565611 Ry
     Harris-Foulkes estimate   =    -987.16084985 Ry
     estimated scf accuracy    <       0.38028591 Ry

     iteration #  3     ecut=    80.00 Ry     beta= 0.50
     Davidson diagonalization with overlap
     ethr =  7.31E-04,  avg # of iterations =  2.1

     total cpu time spent up to now is        4.4 secs

     total energy              =    -987.06408253 Ry
     Harris-Foulkes estimate   =    -987.06636783 Ry
     estimated scf accuracy    <       0.00681830 Ry

     iteration #  4     ecut=    80.00 Ry     beta= 0.50
     Davidson diagonalization with overlap
     ethr =  1.31E-05,  avg # of iterations =  2.0

     total cpu time spent up to now is        5.5 secs

     total energy              =    -987.06466886 Ry
     Harris-Foulkes estimate   =    -987.06511128 Ry
     estimated scf accuracy    <       0.00150768 Ry

     iteration #  5     ecut=    80.00 Ry     beta= 0.50
     Davidson diagonalization with overlap
     ethr =  2.90E-06,  avg # of iterations =  2.0

     total cpu time spent up to now is        6.6 secs

     total energy              =    -987.06482301 Ry
     Harris-Foulkes estimate   =    -987.06483121 Ry
     estimated scf accuracy    <       0.00001664 Ry

     iteration #  6     ecut=    80.00 Ry     beta= 0.50
     Davidson diagonalization with overlap
     ethr =  3.20E-08,  avg # of iterations =  2.3

     total cpu time spent up to now is        7.8 secs

     total energy              =    -987.06482609 Ry
     Harris-Foulkes estimate   =    -987.06482558 Ry
     estimated scf accuracy    <       0.00000366 Ry

     iteration #  7     ecut=    80.00 Ry     beta= 0.50
     Davidson diagonalization with overlap
     ethr =  7.04E-09,  avg # of iterations =  2.0

     total cpu time spent up to now is        8.9 secs

     End of self-consistent calculation

          k = 0.0000 0.0000 0.0000 (  3703 PWs)   bands (ev):

  -113.9732-113.9728 -68.3643 -68.3584 -68.3181 -68.3181 -68.3164 -68.3164
    -8.9063  -7.8208   3.2506   3.2506   3.3112   3.3112   4.0287   4.3775
     4.5022   4.5022   4.8487   4.8487   5.2326   8.4072   8.4082   8.4082
     9.0949   9.0949

     occupation numbers 
     1.0000   1.0000   1.0000   1.0000   1.0000   1.0000   1.0000   1.0000
     1.0000   1.0000   1.0000   1.0000   1.0000   1.0000   1.0000   1.0000
     1.0000   1.0000   1.0000   1.0000   1.0000   1.0000   1.0000   1.0000
     1.0000   1.0000

          k =-0.0000-0.0000 0.0905 (  3739 PWs)   bands (ev):

  -113.9732-113.9728 -68.3641 -68.3586 -68.3180 -68.3180 -68.3165 -68.3165
    -8.8660  -7.8624   3.2447   3.2447   3.2989   3.2989   3.8750   4.2972
     4.5254   4.5254   4.8438   4.8438   5.4776   8.1288   8.4393   8.4393
     9.0747   9.0747

     occupation numbers 
     1.0000   1.0000   1.0000   1.0000   1.0000   1.0000   1.0000   1.0000
     1.0000   1.0000   1.0000   1.0000   1.0000   1.0000   1.0000   1.0000
     1.0000   1.0000   1.0000   1.0000   1.0000   1.0000   1.0000   1.0000
     1.0000   1.0000

          k =-0.0000-0.0000 0.1810 (  3733 PWs)   bands (ev):

  -113.9732-113.9728 -68.3634 -68.3592 -68.3179 -68.3179 -68.3167 -68.3167
    -8.7505  -7.9810   3.2312   3.2312   3.2697   3.2697   3.6532   4.0879
     4.5855   4.5855   4.8264   4.8264   5.9585   7.6777   8.5262   8.5262
     9.0144   9.0144

     occupation numbers 
     1.0000   1.0000   1.0000   1.0000   1.0000   1.0000   1.0000   1.0000
     1.0000   1.0000   1.0000   1.0000   1.0000   1.0000   1.0000   1.0000
     1.0000   1.0000   1.0000   1.0000   1.0000   1.0000   1.0000   1.0000
     1.0000   1.0000

          k =-0.0000-0.0000 0.2715 (  3739 PWs)   bands (ev):

  -113.9731-113.9729 -68.3625 -68.3601 -68.3176 -68.3176 -68.3170 -68.3170
    -8.5761  -8.1589   3.2204   3.2204   3.2398   3.2398   3.5598   3.8327
     4.6619   4.6619   4.7909   4.7909   6.4462   7.2689   8.6511   8.6511
     8.9163   8.9163

     occupation numbers 
     1.0000   1.0000   1.0000   1.0000   1.0000   1.0000   1.0000   1.0000
     1.0000   1.0000   1.0000   1.0000   1.0000   1.0000   1.0000   1.0000
     1.0000   1.0000   1.0000   1.0000   1.0000   1.0000   1.0000   1.0000
     1.0000   1.0000

          k = 0.0000 0.0000-0.3621 (  3734 PWs)   bands (ev):

  -113.9730-113.9730 -68.3613 -68.3613 -68.3173 -68.3173 -68.3173 -68.3173
    -8.3683  -8.3682   3.2218   3.2218   3.2218   3.2218   3.6309   3.6309
     4.7346   4.7346   4.7346   4.7346   6.8770   6.8770   8.7892   8.7892
     8.7893   8.7893

     occupation numbers 
     1.0000   1.0000   1.0000   1.0000   1.0000   1.0000   1.0000   1.0000
     1.0000   1.0000   1.0000   1.0000   1.0000   1.0000   1.0000   1.0000
     1.0000   1.0000   1.0000   1.0000   1.0000   1.0000   1.0000   1.0000
     1.0000   1.0000

          k =-0.0000 0.1443-0.0000 (  3751 PWs)   bands (ev):

  -113.9732-113.9728 -68.3641 -68.3586 -68.3183 -68.3182 -68.3167 -68.3165
    -8.8187  -7.8006   3.2129   3.2869   3.3211   3.4143   3.9431   4.3558
     4.4814   4.4999   4.8616   5.0949   5.2319   7.8689   8.1422   8.2677
     8.3816   8.9213

     occupation numbers 
     1.0000   1.0000   1.0000   1.0000   1.0000   1.0000   1.0000   1.0000
     1.0000   1.0000   1.0000   1.0000   1.0000   1.0000   1.0000   1.0000
     1.0000   1.0000   1.0000   1.0000   1.0000   1.0000   1.0000   1.0000
     1.0000   1.0000

          k =-0.0000 0.1443 0.0905 (  3738 PWs)   bands (ev):

  -113.9732-113.9728 -68.3639 -68.3588 -68.3182 -68.3181 -68.3168 -68.3165
    -8.7802  -7.8387   3.1983   3.2655   3.3161   3.4000   3.8289   4.2595
     4.5061   4.5400   4.8550   4.9689   5.5593   7.8098   7.9789   8.1768
     8.7053   8.8975

     occupation numbers 
     1.0000   1.0000   1.0000   1.0000   1.0000   1.0000   1.0000   1.0000
     1.0000   1.0000   1.0000   1.0000   1.0000   1.0000   1.0000   1.0000
     1.0000   1.0000   1.0000   1.0000   1.0000   1.0000   1.0000   1.0000
     1.0000   1.0000

          k =-0.0000 0.1443 0.1810 (  3733 PWs)   bands (ev):

  -113.9731-113.9728 -68.3633 -68.3593 -68.3180 -68.3179 -68.3169 -68.3167
    -8.6701  -7.9479   3.1564   3.2119   3.3054   3.3658   3.6592   4.0474
     4.5699   4.6131   4.8330   4.8979   6.0341   7.4362   8.1115   8.2737
     8.8270   8.8622

     occupation numbers 
     1.0000   1.0000   1.0000   1.0000   1.0000   1.0000   1.0000   1.0000
     1.0000   1.0000   1.0000   1.0000   1.0000   1.0000   1.0000   1.0000
     1.0000   1.0000   1.0000   1.0000   1.0000   1.0000   1.0000   1.0000
     1.0000   1.0000

          k =-0.0000 0.1443 0.2715 (  3729 PWs)   bands (ev):

  -113.9731-113.9729 -68.3624 -68.3602 -68.3178 -68.3177 -68.3172 -68.3170
    -8.5046  -8.1129   3.1125   3.1555   3.2988   3.3297   3.5931   3.8135
     4.6510   4.6967   4.7914   4.8425   6.4637   7.1113   8.3504   8.4133
     8.7137   8.8051

     occupation numbers 
     1.0000   1.0000   1.0000   1.0000   1.0000   1.0000   1.0000   1.0000
     1.0000   1.0000   1.0000   1.0000   1.0000   1.0000   1.0000   1.0000
     1.0000   1.0000   1.0000   1.0000   1.0000   1.0000   1.0000   1.0000
     1.0000   1.0000

          k =-0.0000 0.1443-0.3621 (  3732 PWs)   bands (ev):

  -113.9730-113.9730 -68.3613 -68.3613 -68.3175 -68.3175 -68.3174 -68.3173
    -8.3087  -8.3086   3.1140   3.1140   3.3057   3.3057   3.6472   3.6472
     4.7291   4.7291   4.7763   4.7763   6.8092   6.8092   8.5690   8.5691
     8.6088   8.6088

     occupation numbers 
     1.0000   1.0000   1.0000   1.0000   1.0000   1.0000   1.0000   1.0000
     1.0000   1.0000   1.0000   1.0000   1.0000   1.0000   1.0000   1.0000
     1.0000   1.0000   1.0000   1.0000   1.0000   1.0000   1.0000   1.0000
     1.0000   1.0000

          k =-0.0000 0.1443-0.2715 (  3729 PWs)   bands (ev):

  -113.9731-113.9729 -68.3624 -68.3602 -68.3178 -68.3177 -68.3172 -68.3170
    -8.5046  -8.1129   3.1125   3.1555   3.2988   3.3297   3.5931   3.8135
     4.6510   4.6967   4.7914   4.8425   6.4637   7.1113   8.3504   8.4133
     8.7137   8.8051

     occupation numbers 
     1.0000   1.0000   1.0000   1.0000   1.0000   1.0000   1.0000   1.0000
     1.0000   1.0000   1.0000   1.0000   1.0000   1.0000   1.0000   1.0000
     1.0000   1.0000   1.0000   1.0000   1.0000   1.0000   1.0000   1.0000
     1.0000   1.0000

          k =-0.0000 0.1443-0.1810 (  3733 PWs)   bands (ev):

  -113.9731-113.9728 -68.3633 -68.3593 -68.3180 -68.3179 -68.3169 -68.3167
    -8.6701  -7.9479   3.1564   3.2119   3.3054   3.3658   3.6592   4.0474
     4.5699   4.6131   4.8330   4.8979   6.0341   7.4362   8.1115   8.2737
     8.8270   8.8622

     occupation numbers 
     1.0000   1.0000   1.0000   1.0000   1.0000   1.0000   1.0000   1.0000
     1.0000   1.0000   1.0000   1.0000   1.0000   1.0000   1.0000   1.0000
     1.0000   1.0000   1.0000   1.0000   1.0000   1.0000   1.0000   1.0000
     1.0000   1.0000

          k =-0.0000 0.1443-0.0905 (  3738 PWs)   bands (ev):

  -113.9732-113.9728 -68.3639 -68.3588 -68.3182 -68.3181 -68.3168 -68.3165
    -8.7802  -7.8387   3.1983   3.2655   3.3161   3.4000   3.8289   4.2595
     4.5061   4.5400   4.8550   4.9689   5.5593   7.8098   7.9790   8.1768
     8.7053   8.8975

     occupation numbers 
     1.0000   1.0000   1.0000   1.0000   1.0000   1.0000   1.0000   1.0000
     1.0000   1.0000   1.0000   1.0000   1.0000   1.0000   1.0000   1.0000
     1.0000   1.0000   1.0000   1.0000   1.0000   1.0000   1.0000   1.0000
     1.0000   1.0000

          k =-0.0000 0.2887-0.0000 (  3748 PWs)   bands (ev):

  -113.9731-113.9728 -68.3635 -68.3590 -68.3187 -68.3184 -68.3173 -68.3165
    -8.5882  -7.7658   3.0969   3.3403   3.5362   3.6657   3.8725   4.2474
     4.4449   4.5505   4.8870   5.1777   5.6409   6.7797   7.2319   7.5120
     8.2518   8.4777

     occupation numbers 
     1.0000   1.0000   1.0000   1.0000   1.0000   1.0000   1.0000   1.0000
     1.0000   1.0000   1.0000   1.0000   1.0000   1.0000   1.0000   1.0000
     1.0000   1.0000   1.0000   1.0000   1.0000   1.0000   1.0000   1.0000
     1.0000   1.0000

          k =-0.0000 0.2887 0.0905 (  3760 PWs)   bands (ev):

  -113.9731-113.9728 -68.3633 -68.3593 -68.3186 -68.3183 -68.3174 -68.3166
    -8.5551  -7.7942   3.0757   3.2850   3.5318   3.6475   3.8001   4.1515
     4.4725   4.5947   4.8762   5.0936   5.8333   6.8745   7.1195   7.5548
     8.4394   8.4472

     occupation numbers 
     1.0000   1.0000   1.0000   1.0000   1.0000   1.0000   1.0000   1.0000
     1.0000   1.0000   1.0000   1.0000   1.0000   1.0000   1.0000   1.0000
     1.0000   1.0000   1.0000   1.0000   1.0000   1.0000   1.0000   1.0000
     1.0000   1.0000

          k =-0.0000 0.2887 0.1810 (  3740 PWs)   bands (ev):

  -113.9731-113.9729 -68.3628 -68.3597 -68.3184 -68.3181 -68.3175 -68.3168
    -8.4614  -7.8768   3.0132   3.1505   3.5231   3.6054   3.6906   3.9562
     4.5423   4.6776   4.8437   5.0043   6.0877   6.7586   7.4069   7.6742
     8.3575   8.6906

     occupation numbers 
     1.0000   1.0000   1.0000   1.0000   1.0000   1.0000   1.0000   1.0000
     1.0000   1.0000   1.0000   1.0000   1.0000   1.0000   1.0000   1.0000
     1.0000   1.0000   1.0000   1.0000   1.0000   1.0000   1.0000   1.0000
     1.0000   1.0000

          k =-0.0000 0.2887 0.2715 (  3734 PWs)   bands (ev):

  -113.9730-113.9729 -68.3621 -68.3604 -68.3182 -68.3178 -68.3177 -68.3171
    -8.3224  -8.0048   2.9428   3.0208   3.5198   3.5615   3.6408   3.7732
     4.6302   4.7688   4.7897   4.9328   6.2646   6.5665   7.8455   7.9559
     8.2155   8.7094

     occupation numbers 
     1.0000   1.0000   1.0000   1.0000   1.0000   1.0000   1.0000   1.0000
     1.0000   1.0000   1.0000   1.0000   1.0000   1.0000   1.0000   1.0000
     1.0000   1.0000   1.0000   1.0000   1.0000   1.0000   1.0000   1.0000
     1.0000   1.0000

          k =-0.0000 0.2887-0.3621 (  3738 PWs)   bands (ev):

  -113.9730-113.9730 -68.3613 -68.3613 -68.3180 -68.3179 -68.3175 -68.3175
    -8.1614  -8.1613   2.9405   2.9405   3.5313   3.5313   3.6654   3.6654
     4.7165   4.7165   4.8560   4.8560   6.4109   6.4110   8.0365   8.0366
     8.4395   8.4395

     occupation numbers 
     1.0000   1.0000   1.0000   1.0000   1.0000   1.0000   1.0000   1.0000
     1.0000   1.0000   1.0000   1.0000   1.0000   1.0000   1.0000   1.0000
     1.0000   1.0000   1.0000   1.0000   1.0000   1.0000   1.0000   1.0000
     1.0000   1.0000

          k =-0.0000 0.2887-0.2715 (  3734 PWs)   bands (ev):

  -113.9730-113.9729 -68.3621 -68.3604 -68.3182 -68.3178 -68.3177 -68.3171
    -8.3224  -8.0048   2.9428   3.0208   3.5198   3.5615   3.6408   3.7732
     4.6302   4.7688   4.7897   4.9328   6.2646   6.5665   7.8455   7.9559
     8.2155   8.7094

     occupation numbers 
     1.0000   1.0000   1.0000   1.0000   1.0000   1.0000   1.0000   1.0000
     1.0000   1.0000   1.0000   1.0000   1.0000   1.0000   1.0000   1.0000
     1.0000   1.0000   1.0000   1.0000   1.0000   1.0000   1.0000   1.0000
     1.0000   1.0000

          k =-0.0000 0.2887-0.1810 (  3740 PWs)   bands (ev):

  -113.9731-113.9729 -68.3628 -68.3597 -68.3184 -68.3181 -68.3175 -68.3168
    -8.4614  -7.8768   3.0132   3.1505   3.5231   3.6054   3.6906   3.9562
     4.5423   4.6776   4.8437   5.0043   6.0877   6.7586   7.4070   7.6742
     8.3575   8.6906

     occupation numbers 
     1.0000   1.0000   1.0000   1.0000   1.0000   1.0000   1.0000   1.0000
     1.0000   1.0000   1.0000   1.0000   1.0000   1.0000   1.0000   1.0000
     1.0000   1.0000   1.0000   1.0000   1.0000   1.0000   1.0000   1.0000
     1.0000   1.0000

          k =-0.0000 0.2887-0.0905 (  3760 PWs)   bands (ev):

  -113.9731-113.9728 -68.3633 -68.3593 -68.3186 -68.3183 -68.3174 -68.3166
    -8.5551  -7.7942   3.0757   3.2850   3.5318   3.6475   3.8001   4.1515
     4.4725   4.5947   4.8762   5.0936   5.8333   6.8744   7.1195   7.5548
     8.4394   8.4472

     occupation numbers 
     1.0000   1.0000   1.0000   1.0000   1.0000   1.0000   1.0000   1.0000
     1.0000   1.0000   1.0000   1.0000   1.0000   1.0000   1.0000   1.0000
     1.0000   1.0000   1.0000   1.0000   1.0000   1.0000   1.0000   1.0000
     1.0000   1.0000

          k =-0.0000 0.4330-0.0000 (  3744 PWs)   bands (ev):

  -113.9731-113.9728 -68.3627 -68.3598 -68.3190 -68.3186 -68.3179 -68.3166
    -8.3096  -7.7713   3.0640   3.4495   3.8174   3.9350   3.9493   4.1354
     4.4492   4.6197   4.9067   5.0599   5.8097   6.1443   6.4120   6.8494
     7.9969   8.0141

     occupation numbers 
     1.0000   1.0000   1.0000   1.0000   1.0000   1.0000   1.0000   1.0000
     1.0000   1.0000   1.0000   1.0000   1.0000   1.0000   1.0000   1.0000
     1.0000   1.0000   1.0000   1.0000   1.0000   1.0000   1.0000   1.0000
     1.0000   1.0000

          k =-0.0000 0.4330 0.0905 (  3752 PWs)   bands (ev):

  -113.9731-113.9728 -68.3626 -68.3599 -68.3190 -68.3185 -68.3180 -68.3167
    -8.2850  -7.7866   3.0313   3.3732   3.8124   3.8762   3.9155   4.0619
     4.4761   4.6574   4.8904   5.0394   5.7279   6.0999   6.7135   6.9033
     7.9612   8.1995

     occupation numbers 
     1.0000   1.0000   1.0000   1.0000   1.0000   1.0000   1.0000   1.0000
     1.0000   1.0000   1.0000   1.0000   1.0000   1.0000   1.0000   1.0000
     1.0000   1.0000   1.0000   1.0000   1.0000   1.0000   1.0000   1.0000
     1.0000   1.0000

          k =-0.0000 0.4330 0.1810 (  3760 PWs)   bands (ev):

  -113.9730-113.9729 -68.3623 -68.3602 -68.3189 -68.3183 -68.3181 -68.3169
    -8.2164  -7.8330   2.9406   3.1824   3.7605   3.8016   3.8723   3.9147
     4.5421   4.7316   4.8459   4.9970   5.6948   5.9637   7.0508   7.3525
     7.8565   8.5350

     occupation numbers 
     1.0000   1.0000   1.0000   1.0000   1.0000   1.0000   1.0000   1.0000
     1.0000   1.0000   1.0000   1.0000   1.0000   1.0000   1.0000   1.0000
     1.0000   1.0000   1.0000   1.0000   1.0000   1.0000   1.0000   1.0000
     1.0000   1.0000

          k =-0.0000 0.4330 0.2715 (  3751 PWs)   bands (ev):

  -113.9730-113.9729 -68.3618 -68.3607 -68.3186 -68.3182 -68.3180 -68.3172
    -8.1179  -7.9093   2.8513   2.9800   3.7019   3.7877   3.7951   3.8299
     4.6239   4.7822   4.8103   4.9453   5.7246   5.8558   7.2572   7.6913
     8.0095   8.6893

     occupation numbers 
     1.0000   1.0000   1.0000   1.0000   1.0000   1.0000   1.0000   1.0000
     1.0000   1.0000   1.0000   1.0000   1.0000   1.0000   1.0000   1.0000
     1.0000   1.0000   1.0000   1.0000   1.0000   1.0000   1.0000   1.0000
     1.0000   1.0000

          k =-0.0000 0.4330-0.3621 (  3740 PWs)   bands (ev):

  -113.9730-113.9730 -68.3613 -68.3613 -68.3184 -68.3184 -68.3176 -68.3176
    -8.0091  -8.0090   2.8548   2.8548   3.7138   3.7139   3.8029   3.8030
     4.7064   4.7064   4.8830   4.8830   5.7806   5.7806   7.4825   7.4826
     8.5014   8.5014

     occupation numbers 
     1.0000   1.0000   1.0000   1.0000   1.0000   1.0000   1.0000   1.0000
     1.0000   1.0000   1.0000   1.0000   1.0000   1.0000   1.0000   1.0000
     1.0000   1.0000   1.0000   1.0000   1.0000   1.0000   1.0000   1.0000
     1.0000   1.0000

          k =-0.0000 0.4330-0.2715 (  3751 PWs)   bands (ev):

  -113.9730-113.9729 -68.3618 -68.3607 -68.3186 -68.3182 -68.3180 -68.3172
    -8.1179  -7.9093   2.8513   2.9800   3.7018   3.7877   3.7951   3.8299
     4.6239   4.7822   4.8103   4.9453   5.7246   5.8558   7.2572   7.6913
     8.0095   8.6893

     occupation numbers 
     1.0000   1.0000   1.0000   1.0000   1.0000   1.0000   1.0000   1.0000
     1.0000   1.0000   1.0000   1.0000   1.0000   1.0000   1.0000   1.0000
     1.0000   1.0000   1.0000   1.0000   1.0000   1.0000   1.0000   1.0000
     1.0000   1.0000

          k =-0.0000 0.4330-0.1810 (  3760 PWs)   bands (ev):

  -113.9730-113.9729 -68.3623 -68.3602 -68.3189 -68.3183 -68.3181 -68.3169
    -8.2164  -7.8330   2.9406   3.1824   3.7605   3.8016   3.8723   3.9147
     4.5421   4.7316   4.8459   4.9970   5.6948   5.9637   7.0508   7.3525
     7.8565   8.5350

     occupation numbers 
     1.0000   1.0000   1.0000   1.0000   1.0000   1.0000   1.0000   1.0000
     1.0000   1.0000   1.0000   1.0000   1.0000   1.0000   1.0000   1.0000
     1.0000   1.0000   1.0000   1.0000   1.0000   1.0000   1.0000   1.0000
     1.0000   1.0000

          k =-0.0000 0.4330-0.0905 (  3752 PWs)   bands (ev):

  -113.9731-113.9728 -68.3626 -68.3599 -68.3190 -68.3185 -68.3180 -68.3167
    -8.2850  -7.7866   3.0313   3.3733   3.8124   3.8762   3.9155   4.0619
     4.4761   4.6574   4.8904   5.0394   5.7279   6.0999   6.7135   6.9033
     7.9612   8.1995

     occupation numbers 
     1.0000   1.0000   1.0000   1.0000   1.0000   1.0000   1.0000   1.0000
     1.0000   1.0000   1.0000   1.0000   1.0000   1.0000   1.0000   1.0000
     1.0000   1.0000   1.0000   1.0000   1.0000   1.0000   1.0000   1.0000
     1.0000   1.0000

          k = 0.0000-0.5774 0.0000 (  3730 PWs)   bands (ev):

  -113.9730-113.9729 -68.3621 -68.3602 -68.3192 -68.3187 -68.3182 -68.3167
    -8.1568  -7.8085   3.0971   3.4933   3.9609   3.9775   4.0419   4.2009
     4.4910   4.6572   4.9135   4.9223   5.5462   5.7185   6.5420   6.6352
     7.7821   7.8348

     occupation numbers 
     1.0000   1.0000   1.0000   1.0000   1.0000   1.0000   1.0000   1.0000
     1.0000   1.0000   1.0000   1.0000   1.0000   1.0000   1.0000   1.0000
     1.0000   1.0000   1.0000   1.0000   1.0000   1.0000   1.0000   1.0000
     1.0000   1.0000

          k = 0.0000-0.5774 0.0905 (  3754 PWs)   bands (ev):

  -113.9730-113.9729 -68.3621 -68.3603 -68.3191 -68.3186 -68.3182 -68.3167
    -8.1384  -7.8158   3.0540   3.4195   3.8980   3.9555   4.0258   4.1310
     4.5126   4.6879   4.8928   4.9154   5.5140   5.6426   6.6037   6.9223
     7.7445   8.0332

     occupation numbers 
     1.0000   1.0000   1.0000   1.0000   1.0000   1.0000   1.0000   1.0000
     1.0000   1.0000   1.0000   1.0000   1.0000   1.0000   1.0000   1.0000
     1.0000   1.0000   1.0000   1.0000   1.0000   1.0000   1.0000   1.0000
     1.0000   1.0000

          k = 0.0000-0.5774 0.1810 (  3764 PWs)   bands (ev):

  -113.9730-113.9729 -68.3620 -68.3606 -68.3190 -68.3184 -68.3183 -68.3170
    -8.0878  -7.8394   2.9407   3.2209   3.7809   3.9431   3.9850   3.9900
     4.5660   4.7420   4.8407   4.8975   5.4812   5.5596   6.7693   7.5154
     7.6341   8.4247

     occupation numbers 
     1.0000   1.0000   1.0000   1.0000   1.0000   1.0000   1.0000   1.0000
     1.0000   1.0000   1.0000   1.0000   1.0000   1.0000   1.0000   1.0000
     1.0000   1.0000   1.0000   1.0000   1.0000   1.0000   1.0000   1.0000
     1.0000   1.0000

          k = 0.0000-0.5774 0.2715 (  3758 PWs)   bands (ev):

  -113.9730-113.9729 -68.3617 -68.3609 -68.3188 -68.3184 -68.3181 -68.3173
    -8.0176  -7.8824   2.8379   2.9905   3.7381   3.8542   3.9332   3.9556
     4.6333   4.7745   4.7918   4.8705   5.4835   5.5213   6.9954   7.4595
     8.1246   8.6661

     occupation numbers 
     1.0000   1.0000   1.0000   1.0000   1.0000   1.0000   1.0000   1.0000
     1.0000   1.0000   1.0000   1.0000   1.0000   1.0000   1.0000   1.0000
     1.0000   1.0000   1.0000   1.0000   1.0000   1.0000   1.0000   1.0000
     1.0000   1.0000

          k = 0.0000-0.5774-0.3621 (  3752 PWs)   bands (ev):

  -113.9730-113.9729 -68.3613 -68.3613 -68.3186 -68.3186 -68.3176 -68.3176
    -7.9444  -7.9443   2.8446   2.8446   3.7684   3.7684   3.9357   3.9357
     4.7041   4.7041   4.8348   4.8348   5.5005   5.5005   7.2376   7.2377
     8.5580   8.5581

     occupation numbers 
     1.0000   1.0000   1.0000   1.0000   1.0000   1.0000   1.0000   1.0000
     1.0000   1.0000   1.0000   1.0000   1.0000   1.0000   1.0000   1.0000
     1.0000   1.0000   1.0000   1.0000   1.0000   1.0000   1.0000   1.0000
     1.0000   1.0000

          k = 0.1250 0.0722-0.0000 (  3751 PWs)   bands (ev):

  -113.9732-113.9728 -68.3641 -68.3586 -68.3183 -68.3182 -68.3167 -68.3165
    -8.8187  -7.8006   3.2129   3.2869   3.3211   3.4143   3.9431   4.3558
     4.4814   4.4999   4.8616   5.0949   5.2319   7.8689   8.1422   8.2677
     8.3816   8.9213

     occupation numbers 
     1.0000   1.0000   1.0000   1.0000   1.0000   1.0000   1.0000   1.0000
     1.0000   1.0000   1.0000   1.0000   1.0000   1.0000   1.0000   1.0000
     1.0000   1.0000   1.0000   1.0000   1.0000   1.0000   1.0000   1.0000
     1.0000   1.0000

          k = 0.1250 0.0722 0.0905 (  3738 PWs)   bands (ev):

  -113.9732-113.9728 -68.3639 -68.3588 -68.3182 -68.3181 -68.3168 -68.3165
    -8.7802  -7.8387   3.1983   3.2655   3.3161   3.4000   3.8289   4.2595
     4.5061   4.5400   4.8550   4.9689   5.5593   7.8098   7.9790   8.1768
     8.7053   8.8975

     occupation numbers 
     1.0000   1.0000   1.0000   1.0000   1.0000   1.0000   1.0000   1.0000
     1.0000   1.0000   1.0000   1.0000   1.0000   1.0000   1.0000   1.0000
     1.0000   1.0000   1.0000   1.0000   1.0000   1.0000   1.0000   1.0000
     1.0000   1.0000

          k = 0.1250 0.0722 0.1810 (  3733 PWs)   bands (ev):

  -113.9731-113.9728 -68.3633 -68.3593 -68.3180 -68.3179 -68.3169 -68.3167
    -8.6701  -7.9479   3.1564   3.2119   3.3054   3.3658   3.6592   4.0474
     4.5699   4.6131   4.8330   4.8979   6.0341   7.4362   8.1115   8.2737
     8.8270   8.8622

     occupation numbers 
     1.0000   1.0000   1.0000   1.0000   1.0000   1.0000   1.0000   1.0000
     1.0000   1.0000   1.0000   1.0000   1.0000   1.0000   1.0000   1.0000
     1.0000   1.0000   1.0000   1.0000   1.0000   1.0000   1.0000   1.0000
     1.0000   1.0000

          k = 0.1250 0.0722 0.2715 (  3729 PWs)   bands (ev):

  -113.9731-113.9729 -68.3624 -68.3602 -68.3178 -68.3177 -68.3172 -68.3170
    -8.5046  -8.1129   3.1125   3.1555   3.2988   3.3297   3.5931   3.8135
     4.6510   4.6967   4.7914   4.8425   6.4637   7.1113   8.3504   8.4133
     8.7137   8.8051

     occupation numbers 
     1.0000   1.0000   1.0000   1.0000   1.0000   1.0000   1.0000   1.0000
     1.0000   1.0000   1.0000   1.0000   1.0000   1.0000   1.0000   1.0000
     1.0000   1.0000   1.0000   1.0000   1.0000   1.0000   1.0000   1.0000
     1.0000   1.0000

          k = 0.1250 0.0722-0.3621 (  3732 PWs)   bands (ev):

  -113.9730-113.9730 -68.3613 -68.3613 -68.3175 -68.3175 -68.3174 -68.3173
    -8.3087  -8.3086   3.1140   3.1140   3.3057   3.3057   3.6472   3.6472
     4.7291   4.7291   4.7763   4.7763   6.8092   6.8092   8.5690   8.5691
     8.6088   8.6088

     occupation numbers 
     1.0000   1.0000   1.0000   1.0000   1.0000   1.0000   1.0000   1.0000
     1.0000   1.0000   1.0000   1.0000   1.0000   1.0000   1.0000   1.0000
     1.0000   1.0000   1.0000   1.0000   1.0000   1.0000   1.0000   1.0000
     1.0000   1.0000

          k = 0.1250 0.0722-0.2715 (  3729 PWs)   bands (ev):

  -113.9731-113.9729 -68.3624 -68.3602 -68.3178 -68.3177 -68.3172 -68.3170
    -8.5046  -8.1129   3.1125   3.1555   3.2988   3.3297   3.5931   3.8135
     4.6510   4.6967   4.7914   4.8425   6.4637   7.1113   8.3504   8.4133
     8.7137   8.8051

     occupation numbers 
     1.0000   1.0000   1.0000   1.0000   1.0000   1.0000   1.0000   1.0000
     1.0000   1.0000   1.0000   1.0000   1.0000   1.0000   1.0000   1.0000
     1.0000   1.0000   1.0000   1.0000   1.0000   1.0000   1.0000   1.0000
     1.0000   1.0000

          k = 0.1250 0.0722-0.1810 (  3733 PWs)   bands (ev):

  -113.9731-113.9728 -68.3633 -68.3593 -68.3180 -68.3179 -68.3169 -68.3167
    -8.6701  -7.9479   3.1564   3.2119   3.3054   3.3658   3.6592   4.0474
     4.5699   4.6131   4.8330   4.8979   6.0341   7.4362   8.1115   8.2737
     8.8270   8.8622

     occupation numbers 
     1.0000   1.0000   1.0000   1.0000   1.0000   1.0000   1.0000   1.0000
     1.0000   1.0000   1.0000   1.0000   1.0000   1.0000   1.0000   1.0000
     1.0000   1.0000   1.0000   1.0000   1.0000   1.0000   1.0000   1.0000
     1.0000   1.0000

          k = 0.1250 0.0722-0.0905 (  3738 PWs)   bands (ev):

  -113.9732-113.9728 -68.3639 -68.3588 -68.3182 -68.3181 -68.3168 -68.3165
    -8.7802  -7.8387   3.1983   3.2655   3.3161   3.4000   3.8289   4.2595
     4.5061   4.5400   4.8550   4.9689   5.5593   7.8098   7.9789   8.1768
     8.7053   8.8975

     occupation numbers 
     1.0000   1.0000   1.0000   1.0000   1.0000   1.0000   1.0000   1.0000
     1.0000   1.0000   1.0000   1.0000   1.0000   1.0000   1.0000   1.0000
     1.0000   1.0000   1.0000   1.0000   1.0000   1.0000   1.0000   1.0000
     1.0000   1.0000

          k = 0.1250 0.2165-0.0000 (  3761 PWs)   bands (ev):

  -113.9732-113.9728 -68.3637 -68.3589 -68.3185 -68.3184 -68.3171 -68.3165
    -8.6593  -7.7733   3.1632   3.2726   3.4873   3.5742   3.8876   4.2811
     4.4543   4.5306   4.8796   5.1924   5.4923   7.2006   7.3431   7.7525
     8.3043   8.5361

     occupation numbers 
     1.0000   1.0000   1.0000   1.0000   1.0000   1.0000   1.0000   1.0000
     1.0000   1.0000   1.0000   1.0000   1.0000   1.0000   1.0000   1.0000
     1.0000   1.0000   1.0000   1.0000   1.0000   1.0000   1.0000   1.0000
     1.0000   1.0000

          k = 0.1250 0.2165 0.0905 (  3763 PWs)   bands (ev):

  -113.9732-113.9728 -68.3635 -68.3591 -68.3185 -68.3184 -68.3172 -68.3166
    -8.6245  -7.8048   3.1478   3.2276   3.4795   3.5561   3.8064   4.1845
     4.4791   4.5754   4.8709   5.0778   5.7546   7.2289   7.3064   7.6960
     8.5056   8.5222

     occupation numbers 
     1.0000   1.0000   1.0000   1.0000   1.0000   1.0000   1.0000   1.0000
     1.0000   1.0000   1.0000   1.0000   1.0000   1.0000   1.0000   1.0000
     1.0000   1.0000   1.0000   1.0000   1.0000   1.0000   1.0000   1.0000
     1.0000   1.0000

          k = 0.1250 0.2165 0.1810 (  3743 PWs)   bands (ev):

  -113.9731-113.9728 -68.3630 -68.3596 -68.3183 -68.3182 -68.3173 -68.3168
    -8.5253  -7.8959   3.1034   3.1108   3.4626   3.5173   3.6840   3.9816
     4.5463   4.6577   4.8431   4.9825   6.1158   6.9821   7.6265   7.7606
     8.4162   8.7671

     occupation numbers 
     1.0000   1.0000   1.0000   1.0000   1.0000   1.0000   1.0000   1.0000
     1.0000   1.0000   1.0000   1.0000   1.0000   1.0000   1.0000   1.0000
     1.0000   1.0000   1.0000   1.0000   1.0000   1.0000   1.0000   1.0000
     1.0000   1.0000

          k = 0.1250 0.2165 0.2715 (  3725 PWs)   bands (ev):

  -113.9730-113.9729 -68.3622 -68.3604 -68.3180 -68.3179 -68.3175 -68.3171
    -8.3775  -8.0358   3.0075   3.0392   3.4509   3.4806   3.6300   3.7827
     4.6330   4.7424   4.7985   4.9123   6.3812   6.7633   7.9137   8.0820
     8.2788   8.7712

     occupation numbers 
     1.0000   1.0000   1.0000   1.0000   1.0000   1.0000   1.0000   1.0000
     1.0000   1.0000   1.0000   1.0000   1.0000   1.0000   1.0000   1.0000
     1.0000   1.0000   1.0000   1.0000   1.0000   1.0000   1.0000   1.0000
     1.0000   1.0000

          k = 0.1250 0.2165-0.3621 (  3720 PWs)   bands (ev):

  -113.9730-113.9730 -68.3613 -68.3613 -68.3178 -68.3178 -68.3175 -68.3174
    -8.2051  -8.2050   2.9888   2.9889   3.4562   3.4562   3.6604   3.6605
     4.7168   4.7168   4.8388   4.8388   6.5777   6.5778   8.0958   8.0959
     8.5179   8.5179

     occupation numbers 
     1.0000   1.0000   1.0000   1.0000   1.0000   1.0000   1.0000   1.0000
     1.0000   1.0000   1.0000   1.0000   1.0000   1.0000   1.0000   1.0000
     1.0000   1.0000   1.0000   1.0000   1.0000   1.0000   1.0000   1.0000
     1.0000   1.0000

          k = 0.1250 0.2165-0.2715 (  3725 PWs)   bands (ev):

  -113.9730-113.9729 -68.3622 -68.3604 -68.3180 -68.3179 -68.3175 -68.3171
    -8.3775  -8.0358   3.0075   3.0392   3.4509   3.4806   3.6300   3.7827
     4.6330   4.7424   4.7985   4.9123   6.3812   6.7633   7.9137   8.0820
     8.2788   8.7712

     occupation numbers 
     1.0000   1.0000   1.0000   1.0000   1.0000   1.0000   1.0000   1.0000
     1.0000   1.0000   1.0000   1.0000   1.0000   1.0000   1.0000   1.0000
     1.0000   1.0000   1.0000   1.0000   1.0000   1.0000   1.0000   1.0000
     1.0000   1.0000

          k = 0.1250 0.2165-0.1810 (  3743 PWs)   bands (ev):

  -113.9731-113.9728 -68.3630 -68.3596 -68.3183 -68.3182 -68.3173 -68.3168
    -8.5253  -7.8959   3.1034   3.1108   3.4626   3.5173   3.6840   3.9816
     4.5463   4.6577   4.8431   4.9825   6.1158   6.9821   7.6265   7.7606
     8.4162   8.7671

     occupation numbers 
     1.0000   1.0000   1.0000   1.0000   1.0000   1.0000   1.0000   1.0000
     1.0000   1.0000   1.0000   1.0000   1.0000   1.0000   1.0000   1.0000
     1.0000   1.0000   1.0000   1.0000   1.0000   1.0000   1.0000   1.0000
     1.0000   1.0000

          k = 0.1250 0.2165-0.0905 (  3763 PWs)   bands (ev):

  -113.9732-113.9728 -68.3635 -68.3591 -68.3185 -68.3184 -68.3172 -68.3166
    -8.6245  -7.8048   3.1478   3.2276   3.4795   3.5561   3.8064   4.1846
     4.4791   4.5754   4.8709   5.0778   5.7546   7.2289   7.3064   7.6960
     8.5056   8.5222

     occupation numbers 
     1.0000   1.0000   1.0000   1.0000   1.0000   1.0000   1.0000   1.0000
     1.0000   1.0000   1.0000   1.0000   1.0000   1.0000   1.0000   1.0000
     1.0000   1.0000   1.0000   1.0000   1.0000   1.0000   1.0000   1.0000
     1.0000   1.0000

          k = 0.1250 0.3608-0.0000 (  3748 PWs)   bands (ev):

  -113.9731-113.9728 -68.3629 -68.3595 -68.3189 -68.3187 -68.3176 -68.3167
    -8.4012  -7.7614   3.1355   3.3971   3.7218   3.7708   3.9807   4.1669
     4.4259   4.5938   4.9014   5.1269   5.9506   6.3225   6.5913   6.9019
     7.9583   8.1068

     occupation numbers 
     1.0000   1.0000   1.0000   1.0000   1.0000   1.0000   1.0000   1.0000
     1.0000   1.0000   1.0000   1.0000   1.0000   1.0000   1.0000   1.0000
     1.0000   1.0000   1.0000   1.0000   1.0000   1.0000   1.0000   1.0000
     1.0000   1.0000

          k = 0.1250 0.3608 0.0905 (  3749 PWs)   bands (ev):

  -113.9731-113.9728 -68.3628 -68.3597 -68.3188 -68.3186 -68.3177 -68.3167
    -8.3735  -7.7813   3.1093   3.3243   3.7135   3.7471   3.9179   4.0819
     4.4565   4.6334   4.8888   5.0895   5.9086   6.4251   6.7207   6.9316
     7.9147   8.3079

     occupation numbers 
     1.0000   1.0000   1.0000   1.0000   1.0000   1.0000   1.0000   1.0000
     1.0000   1.0000   1.0000   1.0000   1.0000   1.0000   1.0000   1.0000
     1.0000   1.0000   1.0000   1.0000   1.0000   1.0000   1.0000   1.0000
     1.0000   1.0000

[...]

  -113.9730-113.9729 -68.3620 -68.3606 -68.3189 -68.3186 -68.3180 -68.3172
    -8.0974  -7.8342   3.2172   3.2451   3.7876   3.8086   3.9714   3.9819
     4.5594   4.6682   4.8935   5.0080   5.6720   5.8272   6.0585   6.9940
     7.7058   8.4860

     occupation numbers 
     1.0000   1.0000   1.0000   1.0000   1.0000   1.0000   1.0000   1.0000
     1.0000   1.0000   1.0000   1.0000   1.0000   1.0000   1.0000   1.0000
     1.0000   1.0000   1.0000   1.0000   1.0000   1.0000   1.0000   1.0000
     1.0000   1.0000

          k =-0.5000-0.0000 0.2715 (  3755 PWs)   bands (ev):

  -113.9730-113.9729 -68.3617 -68.3609 -68.3186 -68.3185 -68.3181 -68.3176
    -8.0241  -7.8809   3.0490   3.0655   3.7431   3.7465   3.9276   3.9338
     4.6060   4.6689   4.9067   4.9730   5.6865   5.7734   6.2618   6.7835
     8.3418   8.7905

     occupation numbers 
     1.0000   1.0000   1.0000   1.0000   1.0000   1.0000   1.0000   1.0000
     1.0000   1.0000   1.0000   1.0000   1.0000   1.0000   1.0000   1.0000
     1.0000   1.0000   1.0000   1.0000   1.0000   1.0000   1.0000   1.0000
     1.0000   1.0000

          k =-0.5000 0.0000-0.3621 (  3756 PWs)   bands (ev):

  -113.9730-113.9729 -68.3613 -68.3613 -68.3184 -68.3184 -68.3179 -68.3179
    -7.9470  -7.9469   2.9851   2.9851   3.7268   3.7268   3.9159   3.9159
     4.6448   4.6448   4.9374   4.9374   5.7236   5.7236   6.5250   6.5251
     8.7501   8.7502

     occupation numbers 
     1.0000   1.0000   1.0000   1.0000   1.0000   1.0000   1.0000   1.0000
     1.0000   1.0000   1.0000   1.0000   1.0000   1.0000   1.0000   1.0000
     1.0000   1.0000   1.0000   1.0000   1.0000   1.0000   1.0000   1.0000
     1.0000   1.0000

          k =-0.5000 0.0000-0.2715 (  3755 PWs)   bands (ev):

  -113.9730-113.9729 -68.3617 -68.3609 -68.3186 -68.3184 -68.3181 -68.3176
    -8.0241  -7.8809   3.0490   3.0655   3.7431   3.7465   3.9276   3.9338
     4.6060   4.6689   4.9067   4.9730   5.6865   5.7734   6.2618   6.7835
     8.3418   8.7905

     occupation numbers 
     1.0000   1.0000   1.0000   1.0000   1.0000   1.0000   1.0000   1.0000
     1.0000   1.0000   1.0000   1.0000   1.0000   1.0000   1.0000   1.0000
     1.0000   1.0000   1.0000   1.0000   1.0000   1.0000   1.0000   1.0000
     1.0000   1.0000

          k =-0.5000 0.0000-0.1810 (  3756 PWs)   bands (ev):

  -113.9730-113.9729 -68.3620 -68.3606 -68.3189 -68.3186 -68.3180 -68.3172
    -8.0974  -7.8342   3.2172   3.2451   3.7876   3.8086   3.9714   3.9819
     4.5594   4.6682   4.8935   5.0080   5.6720   5.8272   6.0585   6.9940
     7.7058   8.4860

     occupation numbers 
     1.0000   1.0000   1.0000   1.0000   1.0000   1.0000   1.0000   1.0000
     1.0000   1.0000   1.0000   1.0000   1.0000   1.0000   1.0000   1.0000
     1.0000   1.0000   1.0000   1.0000   1.0000   1.0000   1.0000   1.0000
     1.0000   1.0000

          k =-0.5000 0.0000-0.0905 (  3751 PWs)   bands (ev):

  -113.9730-113.9729 -68.3621 -68.3603 -68.3191 -68.3187 -68.3180 -68.3170
    -8.1499  -7.8080   3.3318   3.4589   3.8348   3.8882   4.0512   4.0693
     4.5141   4.6387   4.9050   5.0375   5.7123   5.7761   6.0745   6.9831
     7.2053   8.0476

     occupation numbers 
     1.0000   1.0000   1.0000   1.0000   1.0000   1.0000   1.0000   1.0000
     1.0000   1.0000   1.0000   1.0000   1.0000   1.0000   1.0000   1.0000
     1.0000   1.0000   1.0000   1.0000   1.0000   1.0000   1.0000   1.0000
     1.0000   1.0000

          k =-0.5000 0.1443-0.0000 (  3758 PWs)   bands (ev):

  -113.9730-113.9729 -68.3622 -68.3602 -68.3192 -68.3187 -68.3181 -68.3168
    -8.1630  -7.8041   3.2147   3.5222   3.9191   3.9534   4.0438   4.1992
     4.4857   4.6335   4.9148   4.9732   5.6147   5.8260   6.2489   6.6909
     7.5262   7.8282

     occupation numbers 
     1.0000   1.0000   1.0000   1.0000   1.0000   1.0000   1.0000   1.0000
     1.0000   1.0000   1.0000   1.0000   1.0000   1.0000   1.0000   1.0000
     1.0000   1.0000   1.0000   1.0000   1.0000   1.0000   1.0000   1.0000
     1.0000   1.0000

          k =-0.5000 0.1443 0.0905 (  3755 PWs)   bands (ev):

  -113.9730-113.9729 -68.3621 -68.3603 -68.3191 -68.3187 -68.3181 -68.3168
    -8.1442  -7.8118   3.1714   3.4482   3.8697   3.9397   4.0043   4.1268
     4.5109   4.6599   4.8994   4.9660   5.5745   5.7691   6.2729   7.0030
     7.4732   8.0459

     occupation numbers 
     1.0000   1.0000   1.0000   1.0000   1.0000   1.0000   1.0000   1.0000
     1.0000   1.0000   1.0000   1.0000   1.0000   1.0000   1.0000   1.0000
     1.0000   1.0000   1.0000   1.0000   1.0000   1.0000   1.0000   1.0000
     1.0000   1.0000

          k =-0.5000 0.1443 0.1810 (  3754 PWs)   bands (ev):

  -113.9730-113.9729 -68.3620 -68.3606 -68.3190 -68.3185 -68.3182 -68.3170
    -8.0926  -7.8368   3.0493   3.2535   3.7729   3.8962   3.9587   4.0055
     4.5625   4.6987   4.8712   4.9466   5.5446   5.6776   6.4158   7.3301
     7.6359   8.4636

     occupation numbers 
     1.0000   1.0000   1.0000   1.0000   1.0000   1.0000   1.0000   1.0000
     1.0000   1.0000   1.0000   1.0000   1.0000   1.0000   1.0000   1.0000
     1.0000   1.0000   1.0000   1.0000   1.0000   1.0000   1.0000   1.0000
     1.0000   1.0000

          k =-0.5000 0.1443 0.2715 (  3757 PWs)   bands (ev):

  -113.9730-113.9729 -68.3617 -68.3609 -68.3187 -68.3184 -68.3181 -68.3174
    -8.0209  -7.8816   2.9264   3.0377   3.7307   3.8155   3.9319   3.9453
     4.6193   4.7040   4.8652   4.9190   5.5558   5.6189   6.6400   7.1350
     8.2545   8.7405

     occupation numbers 
     1.0000   1.0000   1.0000   1.0000   1.0000   1.0000   1.0000   1.0000
     1.0000   1.0000   1.0000   1.0000   1.0000   1.0000   1.0000   1.0000
     1.0000   1.0000   1.0000   1.0000   1.0000   1.0000   1.0000   1.0000
     1.0000   1.0000

          k =-0.5000 0.1443-0.3621 (  3756 PWs)   bands (ev):

  -113.9730-113.9729 -68.3613 -68.3613 -68.3185 -68.3185 -68.3178 -68.3178
    -7.9457  -7.9456   2.9114   2.9114   3.7506   3.7506   3.9263   3.9263
     4.6706   4.6706   4.8881   4.8881   5.5831   5.5831   6.8932   6.8933
     8.6713   8.6713

     occupation numbers 
     1.0000   1.0000   1.0000   1.0000   1.0000   1.0000   1.0000   1.0000
     1.0000   1.0000   1.0000   1.0000   1.0000   1.0000   1.0000   1.0000
     1.0000   1.0000   1.0000   1.0000   1.0000   1.0000   1.0000   1.0000
     1.0000   1.0000

          k =-0.5000 0.1443-0.2715 (  3757 PWs)   bands (ev):

  -113.9730-113.9729 -68.3617 -68.3609 -68.3187 -68.3184 -68.3181 -68.3174
    -8.0209  -7.8816   2.9264   3.0377   3.7307   3.8155   3.9319   3.9453
     4.6193   4.7040   4.8652   4.9190   5.5558   5.6189   6.6400   7.1350
     8.2545   8.7405

     occupation numbers 
     1.0000   1.0000   1.0000   1.0000   1.0000   1.0000   1.0000   1.0000
     1.0000   1.0000   1.0000   1.0000   1.0000   1.0000   1.0000   1.0000
     1.0000   1.0000   1.0000   1.0000   1.0000   1.0000   1.0000   1.0000
     1.0000   1.0000

          k =-0.5000 0.1443-0.1810 (  3754 PWs)   bands (ev):

  -113.9730-113.9729 -68.3620 -68.3606 -68.3190 -68.3185 -68.3182 -68.3170
    -8.0926  -7.8368   3.0493   3.2535   3.7729   3.8962   3.9588   4.0055
     4.5625   4.6987   4.8712   4.9466   5.5446   5.6776   6.4158   7.3301
     7.6359   8.4636

     occupation numbers 
     1.0000   1.0000   1.0000   1.0000   1.0000   1.0000   1.0000   1.0000
     1.0000   1.0000   1.0000   1.0000   1.0000   1.0000   1.0000   1.0000
     1.0000   1.0000   1.0000   1.0000   1.0000   1.0000   1.0000   1.0000
     1.0000   1.0000

          k =-0.5000 0.1443-0.0905 (  3755 PWs)   bands (ev):

  -113.9730-113.9729 -68.3621 -68.3603 -68.3191 -68.3187 -68.3181 -68.3168
    -8.1442  -7.8118   3.1714   3.4482   3.8697   3.9397   4.0043   4.1268
     4.5109   4.6599   4.8994   4.9660   5.5745   5.7691   6.2729   7.0030
     7.4732   8.0459

     occupation numbers 
     1.0000   1.0000   1.0000   1.0000   1.0000   1.0000   1.0000   1.0000
     1.0000   1.0000   1.0000   1.0000   1.0000   1.0000   1.0000   1.0000
     1.0000   1.0000   1.0000   1.0000   1.0000   1.0000   1.0000   1.0000
     1.0000   1.0000

          k =-0.5000-0.8660 0.0000 (  3730 PWs)   bands (ev):

  -113.9730-113.9729 -68.3621 -68.3602 -68.3192 -68.3187 -68.3182 -68.3166
    -8.1568  -7.8085   3.0971   3.4933   3.9609   3.9775   4.0419   4.2009
     4.4910   4.6572   4.9135   4.9223   5.5461   5.7185   6.5420   6.6352
     7.7821   7.8348

     occupation numbers 
     1.0000   1.0000   1.0000   1.0000   1.0000   1.0000   1.0000   1.0000
     1.0000   1.0000   1.0000   1.0000   1.0000   1.0000   1.0000   1.0000
     1.0000   1.0000   1.0000   1.0000   1.0000   1.0000   1.0000   1.0000
     1.0000   1.0000

          k =-0.5000-0.8660 0.0905 (  3754 PWs)   bands (ev):

  -113.9730-113.9729 -68.3621 -68.3603 -68.3191 -68.3186 -68.3182 -68.3167
    -8.1384  -7.8158   3.0540   3.4195   3.8980   3.9555   4.0258   4.1310
     4.5126   4.6879   4.8928   4.9154   5.5139   5.6426   6.6037   6.9223
     7.7445   8.0332

     occupation numbers 
     1.0000   1.0000   1.0000   1.0000   1.0000   1.0000   1.0000   1.0000
     1.0000   1.0000   1.0000   1.0000   1.0000   1.0000   1.0000   1.0000
     1.0000   1.0000   1.0000   1.0000   1.0000   1.0000   1.0000   1.0000
     1.0000   1.0000

          k =-0.5000-0.8660 0.1810 (  3764 PWs)   bands (ev):

  -113.9730-113.9729 -68.3620 -68.3606 -68.3190 -68.3184 -68.3183 -68.3170
    -8.0878  -7.8394   2.9407   3.2209   3.7809   3.9431   3.9850   3.9900
     4.5660   4.7420   4.8407   4.8975   5.4812   5.5596   6.7693   7.5154
     7.6341   8.4247

     occupation numbers 
     1.0000   1.0000   1.0000   1.0000   1.0000   1.0000   1.0000   1.0000
     1.0000   1.0000   1.0000   1.0000   1.0000   1.0000   1.0000   1.0000
     1.0000   1.0000   1.0000   1.0000   1.0000   1.0000   1.0000   1.0000
     1.0000   1.0000

          k =-0.5000-0.8660 0.2715 (  3758 PWs)   bands (ev):

  -113.9730-113.9729 -68.3617 -68.3609 -68.3188 -68.3185 -68.3181 -68.3173
    -8.0176  -7.8824   2.8379   2.9905   3.7381   3.8542   3.9332   3.9556
     4.6333   4.7745   4.7918   4.8705   5.4835   5.5213   6.9954   7.4595
     8.1246   8.6661

     occupation numbers 
     1.0000   1.0000   1.0000   1.0000   1.0000   1.0000   1.0000   1.0000
     1.0000   1.0000   1.0000   1.0000   1.0000   1.0000   1.0000   1.0000
     1.0000   1.0000   1.0000   1.0000   1.0000   1.0000   1.0000   1.0000
     1.0000   1.0000

          k =-0.5000-0.8660-0.3621 (  3752 PWs)   bands (ev):

  -113.9730-113.9729 -68.3613 -68.3613 -68.3186 -68.3186 -68.3176 -68.3176
    -7.9444  -7.9443   2.8446   2.8446   3.7684   3.7684   3.9357   3.9357
     4.7041   4.7041   4.8348   4.8348   5.5005   5.5005   7.2376   7.2377
     8.5580   8.5581

     occupation numbers 
     1.0000   1.0000   1.0000   1.0000   1.0000   1.0000   1.0000   1.0000
     1.0000   1.0000   1.0000   1.0000   1.0000   1.0000   1.0000   1.0000
     1.0000   1.0000   1.0000   1.0000   1.0000   1.0000   1.0000   1.0000
     1.0000   1.0000

     highest occupied level (ev):     9.0949

!    total energy              =    -987.06482633 Ry
     Harris-Foulkes estimate   =    -987.06482636 Ry
     estimated scf accuracy    <       0.00000007 Ry

     The total energy is the sum of the following terms:

     one-electron contribution =    -794.26608138 Ry
     hartree contribution      =     419.29759796 Ry
     xc contribution           =     -98.09076280 Ry
     ewald contribution        =    -514.00558012 Ry

     convergence has been achieved in   7 iterations

     Forces acting on atoms (cartesian axes, Ry/au):

     atom    1 type  2   force =     0.00000149    0.00000134   -0.00781006
     atom    2 type  2   force =    -0.00000119    0.00000185   -0.00781065
     atom    3 type  1   force =     0.00000099   -0.00000460    0.00780372
     atom    4 type  1   force =    -0.00000129    0.00000141    0.00781700
     The non-local contrib.  to forces
     atom    1 type  2   force =     0.00000145   -0.00000334   -0.06074243
     atom    2 type  2   force =     0.00000009   -0.00000034   -0.06074224
     atom    3 type  1   force =     0.00000138   -0.00000584   -0.14224100
     atom    4 type  1   force =     0.00000142   -0.00000271   -0.14223963
     The ionic contribution  to forces
     atom    1 type  2   force =    -0.00001482    0.00004222    0.84438028
     atom    2 type  2   force =    -0.00000702    0.00001704    0.84438104
     atom    3 type  1   force =     0.00000728   -0.00002769   -0.84437599
     atom    4 type  1   force =     0.00001456   -0.00003157   -0.84438533
     The local contribution  to forces
     atom    1 type  2   force =     0.00001205   -0.00003718   -0.79192290
     atom    2 type  2   force =     0.00000790   -0.00001652   -0.79192096
     atom    3 type  1   force =    -0.00000848    0.00003608    0.99461066
     atom    4 type  1   force =    -0.00001517    0.00003273    0.99460655
     The core correction contribution to forces
     atom    1 type  2   force =    -0.00000001    0.00000002    0.00032972
     atom    2 type  2   force =     0.00000000   -0.00000001    0.00032973
     atom    3 type  1   force =     0.00000000    0.00000000    0.00000000
     atom    4 type  1   force =     0.00000000    0.00000000    0.00000000
     The Hubbard contrib.    to forces
     atom    1 type  2   force =     0.00000000    0.00000000    0.00000000
     atom    2 type  2   force =     0.00000000    0.00000000    0.00000000
     atom    3 type  1   force =     0.00000000    0.00000000    0.00000000
     atom    4 type  1   force =     0.00000000    0.00000000    0.00000000
     The SCF correction term to forces
     atom    1 type  2   force =     0.00000000    0.00000000    0.00000000
     atom    2 type  2   force =     0.00000000    0.00000000    0.00000000
     atom    3 type  1   force =     0.00000000    0.00000000    0.00000000
     atom    4 type  1   force =     0.00000000    0.00000000    0.00000000

     Total force =     0.000000     Total SCF correction =     0.000000


     Computing stress (Cartesian axis) and pressure

          total   stress  (Ry/bohr**3)                   (kbar)     P=   -2.89
  -0.00001556   0.00000000  -0.00000000         -2.29      0.00     -0.00
   0.00000000  -0.00001556  -0.00000002          0.00     -2.29     -0.00
  -0.00000000  -0.00000002  -0.00002789         -0.00     -0.00     -4.10

     kinetic stress (kbar)  34691.03     -0.00     -0.00
                               -0.00  34691.03     -0.00
                               -0.00     -0.00  35109.98

     local   stress (kbar)   -626.45     -0.05     -0.02
                               -0.05   -626.62      0.02
                               -0.02      0.02  -8686.61

     nonloc. stress (kbar)  -1699.32      0.00      0.00
                                0.00  -1699.32      0.00
                                0.00      0.00  -1862.20

     hartree stress (kbar)  64638.05      0.02      0.01
                                0.02  64638.12     -0.01
                                0.01     -0.01  69506.58

     exc-cor stress (kbar) -14542.33      0.00      0.00
                                0.00 -14542.33      0.00
                                0.00      0.00 -14548.03

     corecor stress (kbar)   -255.70      0.00      0.00
                                0.00   -255.70      0.00
                                0.00      0.00   -256.49

     ewald   stress (kbar) -82207.58      0.03      0.01
                                0.03 -82207.48     -0.02
                                0.01     -0.02 -79267.34

     hubbard stress (kbar)      0.00      0.00      0.00
                                0.00      0.00      0.00
                                0.00      0.00      0.00

     london  stress (kbar)      0.00      0.00      0.00
                                0.00      0.00      0.00
                                0.00      0.00      0.00

     DFT-D3  stress (kbar)      0.00      0.00      0.00
                                0.00      0.00      0.00
                                0.00      0.00      0.00

     XDM     stress (kbar)      0.00      0.00      0.00
                                0.00      0.00      0.00
                                0.00      0.00      0.00

     dft-nl  stress (kbar)      0.00      0.00      0.00
                                0.00      0.00      0.00
                                0.00      0.00      0.00

     TS-vdW  stress (kbar)      0.00      0.00      0.00
                                0.00      0.00      0.00
                                0.00      0.00      0.00



     Writing output data file ZnO.save/
 
     init_run     :      0.52s CPU      0.73s WALL (       1 calls)
     electrons    :      7.35s CPU      7.85s WALL (       1 calls)
     forces       :      0.15s CPU      0.16s WALL (       1 calls)
     stress       :      0.27s CPU      0.28s WALL (       1 calls)

     Called by init_run:
     wfcinit      :      0.38s CPU      0.46s WALL (       1 calls)
     wfcinit:atom :      0.00s CPU      0.00s WALL (      65 calls)
     wfcinit:wfcr :      0.36s CPU      0.44s WALL (      65 calls)
     potinit      :      0.06s CPU      0.07s WALL (       1 calls)
     hinit0       :      0.07s CPU      0.14s WALL (       1 calls)

     Called by electrons:
     c_bands      :      6.12s CPU      6.53s WALL (       7 calls)
     sum_band     :      0.88s CPU      0.92s WALL (       7 calls)
     v_of_rho     :      0.22s CPU      0.23s WALL (       8 calls)
     v_h          :      0.00s CPU      0.00s WALL (       8 calls)
     v_xc         :      0.27s CPU      0.28s WALL (      10 calls)
     newd         :      0.03s CPU      0.05s WALL (       8 calls)
     mix_rho      :      0.01s CPU      0.02s WALL (       7 calls)

     Called by c_bands:
     init_us_2    :      0.07s CPU      0.08s WALL (    1105 calls)
     cegterg      :      5.75s CPU      5.99s WALL (     455 calls)

     Called by sum_band:
     sum_band:bec :      0.01s CPU      0.01s WALL (     455 calls)
     addusdens    :      0.03s CPU      0.04s WALL (       7 calls)

     Called by *egterg:
     h_psi        :      3.69s CPU      3.81s WALL (    1473 calls)
     s_psi        :      0.11s CPU      0.12s WALL (    1473 calls)
     g_psi        :      0.01s CPU      0.01s WALL (     953 calls)
     cdiaghg      :      1.47s CPU      1.59s WALL (    1408 calls)
     cegterg:over :      0.34s CPU      0.39s WALL (     953 calls)
     cegterg:upda :      0.19s CPU      0.20s WALL (     953 calls)
     cegterg:last :      0.13s CPU      0.13s WALL (     455 calls)
     cdiaghg:chol :      0.11s CPU      0.14s WALL (    1408 calls)
     cdiaghg:inve :      0.02s CPU      0.03s WALL (    1408 calls)
     cdiaghg:para :      0.15s CPU      0.16s WALL (    2816 calls)

     Called by h_psi:
     h_psi:pot    :      3.68s CPU      3.80s WALL (    1473 calls)
     h_psi:calbec :      0.19s CPU      0.20s WALL (    1473 calls)
     vloc_psi     :      3.37s CPU      3.47s WALL (    1473 calls)
     add_vuspsi   :      0.11s CPU      0.12s WALL (    1473 calls)

     General routines
     calbec       :      0.30s CPU      0.32s WALL (    2253 calls)
     fft          :      0.04s CPU      0.07s WALL (     127 calls)
     ffts         :      0.00s CPU      0.00s WALL (      15 calls)
     fftw         :      3.84s CPU      3.95s WALL (   74234 calls)
     interpolate  :      0.00s CPU      0.01s WALL (       8 calls)
 
     Parallel routines
     fft_scatt_xy :      0.61s CPU      0.63s WALL (   74376 calls)
     fft_scatt_yz :      1.90s CPU      1.96s WALL (   74376 calls)
 
     PWSCF        :      8.65s CPU     10.34s WALL

 
   This run was terminated on:  20:46:33  15Jun2022            

=------------------------------------------------------------------------------=
   JOB DONE.
=------------------------------------------------------------------------------=
