
     Program PWSCF v.6.4.1 starts on 15Jul2022 at  1:25:13 

     This program is part of the open-source Quantum ESPRESSO suite
     for quantum simulation of materials; please cite
         "P. Giannozzi et al., J. Phys.:Condens. Matter 21 395502 (2009);
         "P. Giannozzi et al., J. Phys.:Condens. Matter 29 465901 (2017);
          URL http://www.quantum-espresso.org", 
     in publications or presentations arising from this work. More details at
     http://www.quantum-espresso.org/quote

     Parallel version (MPI), running on   128 processors

     MPI processes distributed on     2 nodes
     K-points division:     npool     =       8
     R & G space division:  proc/nbgrp/npool/nimage =      16
     Waiting for input...
     Reading input from standard input
Warning: card &IONS ignored
Warning: card   UPSCALE           = 100.D0, ignored
Warning: card / ignored
Warning: card &CELL ignored
Warning: card   CELL_DYNAMICS     = 'BFGS' ignored
Warning: card   PRESS_CONV_THR    = 0.5D0 ignored
Warning: card   CELL_DOFREE = 'ALL' ignored
Warning: card / ignored

     Current dimensions of program PWSCF are:
     Max number of different atomic species (ntypx) = 10
     Max number of k-points (npk) =  40000
     Max angular momentum in pseudopotentials (lmaxx) =  3

     Subspace diagonalization in iterative solution of the eigenvalue problem:
     one sub-group per band group will be used
     scalapack distributed-memory algorithm (size of sub-group:  2*  2 procs)

 
     Parallelization info
     --------------------
     sticks:   dense  smooth     PW     G-vecs:    dense   smooth      PW
     Min         730     350     95                68256    22714    3265
     Max         731     351     96                68260    22718    3270
     Sum       11681    5607   1531              1092121   363443   52289
 


     bravais-lattice index     =            0
     lattice parameter (alat)  =      18.3962  a.u.
     unit-cell volume          =    5784.9017 (a.u.)^3
     number of atoms/cell      =           72
     number of atomic types    =            3
     number of electrons       =       836.00
     number of Kohn-Sham states=          502
     kinetic-energy cutoff     =      60.0000  Ry
     charge density cutoff     =     500.0000  Ry
     convergence threshold     =      1.0E-08
     mixing beta               =       0.5000
     number of iterations used =            8  plain     mixing
     Exchange-correlation      = SLA  PW   PSX  PSC ( 1  4 10  8 0 0)
     Using LIBXC version       =    4   3   4

     celldm(1)=  18.396228  celldm(2)=   0.000000  celldm(3)=   0.000000
     celldm(4)=   0.000000  celldm(5)=   0.000000  celldm(6)=   0.000000

     crystal axes: (cart. coord. in units of alat)
               a(1) = (   0.999999  -0.001169  -0.000248 )  
               a(2) = (  -0.501010   0.867329   0.000213 )  
               a(3) = (  -0.000266   0.000110   1.072061 )  

     reciprocal axes: (cart. coord. in units 2 pi/alat)
               b(1) = (  1.000676  0.578038  0.000189 )  
               b(2) = (  0.001348  1.153744 -0.000118 )  
               b(3) = (  0.000231 -0.000095  0.932783 )  


     PseudoPot. # 1 for Zn read from file:
     ./GBRV_PBEsol/zn_pbesol_v1.uspp.F.UPF
     MD5 check sum: 7d8615e52efe7c1e2b1899de8658bae2
     Pseudo is Ultrasoft, Zval = 20.0
     Generated by new atomic code, or converted to UPF format
     Using radial grid of  943 points,  6 beta functions with: 
                l(1) =   0
                l(2) =   0
                l(3) =   1
                l(4) =   1
                l(5) =   2
                l(6) =   2
     Q(r) pseudized with  8 coefficients,  rinner =    1.100   1.100   1.100
                                                       1.100   1.100

     PseudoPot. # 2 for O  read from file:
     ./GBRV_PBEsol/o_pbesol_v1.2.uspp.F.UPF
     MD5 check sum: 501638753501ef6325af9037351f7734
     Pseudo is Ultrasoft + core correction, Zval =  6.0
     Generated by new atomic code, or converted to UPF format
     Using radial grid of  737 points,  5 beta functions with: 
                l(1) =   0
                l(2) =   0
                l(3) =   1
                l(4) =   1
                l(5) =   2
     Q(r) pseudized with  8 coefficients,  rinner =    0.900   0.900   0.900
                                                       0.900   0.900

     PseudoPot. # 3 for Mg read from file:
     ./GBRV_PBEsol/mg_pbesol_v1.4.uspp.F.UPF
     MD5 check sum: 4059f37963cf5867752dbf5ab2400678
     Pseudo is Ultrasoft, Zval = 10.0
     Generated by new atomic code, or converted to UPF format
     Using radial grid of  821 points,  7 beta functions with: 
                l(1) =   0
                l(2) =   0
                l(3) =   0
                l(4) =   1
                l(5) =   1
                l(6) =   2
                l(7) =   2
     Q(r) pseudized with  8 coefficients,  rinner =    1.200   1.200   1.200
                                                       1.200   1.200

     atomic species   valence    mass     pseudopotential
        Zn            20.00    65.38000     Zn( 1.00)
        O              6.00    15.99900     O ( 1.00)
        Mg            10.00    24.30500     Mg( 1.00)

     No symmetry found


                                    s                        frac. trans.

      isym =  1     identity                                     

 cryst.   s( 1) = (     1          0          0      )
                  (     0          1          0      )
                  (     0          0          1      )

 cart.    s( 1) = (  1.0000000 -0.0000000 -0.0000000 )
                  ( -0.0000000  1.0000000  0.0000000 )
                  ( -0.0000000  0.0000000  1.0000000 )


   Cartesian axes

     site n.     atom                  positions (alat units)
         1           Zn  tau(   1) = (   0.1676901   0.0963784   0.2072996  )
         2           Zn  tau(   2) = (   0.1665702   0.0967494   0.7433306  )
         3           Zn  tau(   3) = (  -0.0008914   0.3858256   0.2071690  )
         4           Zn  tau(   4) = (  -0.0005185   0.3847013   0.7428472  )
         5           Zn  tau(   5) = (  -0.1675077   0.6738223   0.2070593  )
         6           Zn  tau(   6) = (  -0.1680035   0.6746433   0.7428118  )
         7           Zn  tau(   7) = (   0.4990118   0.0946449   0.2069384  )
         8           Mg  tau(   8) = (   0.4996492   0.0950053   0.7454917  )
         9           Zn  tau(   9) = (   0.3324340   0.3851283   0.2071596  )
        10           Mg  tau(  10) = (   0.3320611   0.3856575   0.7454338  )
        11           Mg  tau(  11) = (   0.1648764   0.6745659   0.2086821  )
        12           Zn  tau(  12) = (   0.1636523   0.6728975   0.7427699  )
        13           Zn  tau(  13) = (   0.8315157   0.0916449   0.2075589  )
        14           Zn  tau(  14) = (   0.8340798   0.0976848   0.7436832  )
        15           Mg  tau(  15) = (   0.6648698   0.3822588   0.2077302  )
        16           Zn  tau(  16) = (   0.6660620   0.3845611   0.7419697  )
        17           Mg  tau(  17) = (   0.4970623   0.6740011   0.2083639  )
        18           Zn  tau(  18) = (   0.5014407   0.6734483   0.7417451  )
        19           Zn  tau(  19) = (  -0.0001381   0.1932582   0.4746846  )
        20           Mg  tau(  20) = (   0.0006775   0.1932211   1.0141412  )
        21           Mg  tau(  21) = (  -0.1663081   0.4823489   0.4756481  )
        22           Mg  tau(  22) = (  -0.1666142   0.4821869   1.0110577  )
        23           Zn  tau(  23) = (  -0.3330653   0.7716301   0.4746267  )
        24           Mg  tau(  24) = (  -0.3333851   0.7717130   1.0124983  )
        25           Zn  tau(  25) = (   0.3339826   0.1931353   0.4753680  )
        26           Zn  tau(  26) = (   0.3320824   0.1921885   1.0112099  )
        27           Zn  tau(  27) = (   0.1665926   0.4800098   0.4752125  )
        28           Zn  tau(  28) = (   0.1647295   0.4824045   1.0120524  )
        29           Zn  tau(  29) = (  -0.0023496   0.7719240   0.4755828  )
        30           Zn  tau(  30) = (  -0.0007745   0.7689606   1.0119848  )
        31           Zn  tau(  31) = (   0.6656934   0.1911638   0.4754386  )
        32           Zn  tau(  32) = (   0.6669788   0.1928421   1.0116569  )
        33           Zn  tau(  33) = (   0.4985470   0.4801503   0.4741741  )
        34           Zn  tau(  34) = (   0.5009062   0.4821932   1.0113782  )
        35           Mg  tau(  35) = (   0.3321169   0.7713994   0.4777288  )
        36           Zn  tau(  36) = (   0.3322584   0.7689147   1.0093923  )
        37           O   tau(  37) = (   0.1665562   0.0959150   0.0036672  )
        38           O   tau(  38) = (   0.1664838   0.0966418   0.5391788  )
        39           O   tau(  39) = (  -0.0012003   0.3853446   0.0033361  )
        40           O   tau(  40) = (  -0.0006073   0.3851813   0.5392933  )
        41           O   tau(  41) = (  -0.1678935   0.6736201   0.0030029  )
        42           O   tau(  42) = (  -0.1678914   0.6743416   0.5394024  )
        43           O   tau(  43) = (   0.4999373   0.0954603   0.0023959  )
        44           O   tau(  44) = (   0.4994436   0.0959734   0.5419432  )
        45           O   tau(  45) = (   0.3331410   0.3854852   0.0022940  )
        46           O   tau(  46) = (   0.3327845   0.3850192   0.5418374  )
        47           O   tau(  47) = (   0.1663766   0.6741928   0.0053444  )
        48           O   tau(  48) = (   0.1649934   0.6739113   0.5382415  )
        49           O   tau(  49) = (   0.8336498   0.0945059   0.0030610  )
        50           O   tau(  50) = (   0.8332689   0.0963335   0.5398817  )
        51           O   tau(  51) = (   0.6674188   0.3850097   0.0045206  )
        52           O   tau(  52) = (   0.6663837   0.3846690   0.5374764  )
        53           O   tau(  53) = (   0.4999225   0.6745979   0.0046543  )
        54           O   tau(  54) = (   0.4993432   0.6737638   0.5375884  )
        55           O   tau(  55) = (  -0.0009449   0.1919872   0.2700934  )
        56           O   tau(  56) = (   0.0005724   0.1930115   0.8103156  )
        57           O   tau(  57) = (  -0.1686615   0.4808355   0.2720315  )
        58           O   tau(  58) = (  -0.1673031   0.4817591   0.8071262  )
        59           O   tau(  59) = (  -0.3348238   0.7705466   0.2702215  )
        60           O   tau(  60) = (  -0.3338437   0.7716277   0.8089892  )
        61           O   tau(  61) = (   0.3336417   0.1928454   0.2717653  )
        62           O   tau(  62) = (   0.3336948   0.1929464   0.8071614  )
        63           O   tau(  63) = (   0.1659325   0.4815876   0.2712479  )
        64           O   tau(  64) = (   0.1655962   0.4815011   0.8081166  )
        65           O   tau(  65) = (  -0.0016841   0.7702037   0.2717327  )
        66           O   tau(  66) = (  -0.0012050   0.7702018   0.8081364  )
        67           O   tau(  67) = (   0.6659595   0.1903340   0.2714284  )
        68           O   tau(  68) = (   0.6662936   0.1922735   0.8075455  )
        69           O   tau(  69) = (   0.4995618   0.4810815   0.2702911  )
        70           O   tau(  70) = (   0.4997715   0.4813248   0.8072366  )
        71           O   tau(  71) = (   0.3313534   0.7682921   0.2745305  )
        72           O   tau(  72) = (   0.3325500   0.7699044   0.8047814  )

   Crystallographic axes

     site n.     atom                  positions (cryst. coord.)
         1           Zn  tau(   1) = (  0.2235531  0.1113978  0.1933951  )
         2           Zn  tau(   2) = (  0.2227480  0.1117613  0.6933952  )
         3           Zn  tau(   3) = (  0.2221689  0.4451185  0.1932066  )
         4           Zn  tau(   4) = (  0.2219933  0.4437589  0.6928782  )
         5           Zn  tau(   5) = (  0.2219130  0.7771684  0.1930383  )
         6           Zn  tau(   6) = (  0.2219926  0.7780520  0.6927788  )
         7           Zn  tau(   7) = (  0.5540967  0.1098446  0.1931349  )
         8           Mg  tau(   8) = (  0.5550446  0.1101980  0.6954882  )
         9           Zn  tau(   9) = (  0.5553167  0.4447634  0.1932750  )
        10           Mg  tau(  10) = (  0.5553512  0.4453103  0.6953678  )
        11           Mg  tau(  11) = (  0.5549520  0.7784743  0.1946288  )
        12           Zn  tau(  12) = (  0.5528635  0.7764850  0.6928166  )
        13           Zn  tau(  13) = (  0.8850915  0.1068316  0.1937909  )
        14           Zn  tau(  14) = (  0.8912499  0.1137406  0.6938784  )
        15           Mg  tau(  15) = (  0.8863188  0.4419010  0.1938844  )
        16           Zn  tau(  16) = (  0.8889436  0.4444961  0.6922138  )
        17           Mg  tau(  17) = (  0.8870361  0.7782706  0.1944089  )
        18           Zn  tau(  18) = (  0.8911986  0.7775761  0.6919387  )
        19           Zn  tau(  19) = (  0.1116620  0.2229146  0.4427591  )
        20           Mg  tau(  20) = (  0.1125586  0.2228095  0.9459551  )
        21           Mg  tau(  21) = (  0.1124852  0.5562271  0.4435918  )
        22           Mg  tau(  22) = (  0.1121864  0.5559769  0.9430126  )
        23           Zn  tau(  23) = (  0.1128306  0.8897589  0.4425730  )
        24           Mg  tau(  24) = (  0.1126600  0.8897909  0.9442902  )
        25           Zn  tau(  25) = (  0.4459378  0.2232232  0.4434738  )
        26           Zn  tau(  26) = (  0.4435902  0.2220654  0.9432975  )
        27           Zn  tau(  27) = (  0.4442589  0.5539773  0.4432628  )
        28           Zn  tau(  28) = (  0.4438802  0.5566746  0.9440170  )
        29           Zn  tau(  29) = (  0.4439400  0.8905438  0.4435412  )
        30           Zn  tau(  30) = (  0.4439045  0.8870639  0.9438884  )
        31           Zn  tau(  31) = (  0.7767333  0.2213959  0.4436166  )
        32           Zn  tau(  32) = (  0.7790910  0.2232710  0.9437918  )
        33           Zn  tau(  33) = (  0.7765188  0.5545872  0.4423709  )
        34           Zn  tau(  34) = (  0.7801619  0.5568842  0.9434659  )
        35           Mg  tau(  35) = (  0.7783298  0.8903893  0.4456204  )
        36           Zn  tau(  36) = (  0.7771357  0.8874603  0.9415472  )
        37           O   tau(  37) = (  0.2221121  0.1108856  0.0034501  )
        38           O   tau(  38) = (  0.2225609  0.1116610  0.5029660  )
        39           O   tau(  39) = (  0.2215433  0.4445871  0.0030748  )
        40           O   tau(  40) = (  0.2221435  0.4443365  0.5030065  )
        41           O   tau(  41) = (  0.2213715  0.7769586  0.0026980  )
        42           O   tau(  42) = (  0.2218920  0.7777280  0.5030421  )
        43           O   tau(  43) = (  0.5554556  0.1108106  0.0023413  )
        44           O   tau(  44) = (  0.5553600  0.1113385  0.5056216  )
        45           O   tau(  45) = (  0.5561919  0.4452003  0.0021801  )
        46           O   tau(  46) = (  0.5556676  0.4445987  0.5054568  )
        47           O   tau(  47) = (  0.5561992  0.7780698  0.0049593  )
        48           O   tau(  48) = (  0.5547530  0.7776805  0.5020363  )
        49           O   tau(  49) = (  0.8888423  0.1101594  0.0030389  )
        50           O   tau(  50) = (  0.8896188  0.1122044  0.5037758  )
        51           O   tau(  51) = (  0.8904213  0.4451022  0.0043344  )
        52           O   tau(  52) = (  0.8892891  0.4446450  0.5014660  )
        53           O   tau(  53) = (  0.8902047  0.7789870  0.0043927  )
        54           O   tau(  54) = (  0.8892435  0.7779613  0.5015044  )
        55           O   tau(  55) = (  0.1100814  0.2214712  0.2519199  )
        56           O   tau(  56) = (  0.1122938  0.2225915  0.7558302  )
        57           O   tau(  57) = (  0.1092170  0.5545018  0.2536614  )
        58           O   tau(  58) = (  0.1112112  0.5555064  0.7527887  )
        59           O   tau(  59) = (  0.1104060  0.8885305  0.2519071  )
        60           O   tau(  60) = (  0.1121134  0.8897157  0.7544603  )
        61           O   tau(  61) = (  0.4453906  0.2229123  0.2535568  )
        62           O   tau(  62) = (  0.4456032  0.2229659  0.7529650  )
        63           O   tau(  63) = (  0.4444719  0.5558209  0.2530078  )
        64           O   tau(  64) = (  0.4441867  0.5556574  0.7537896  )
        65           O   tau(  65) = (  0.4435731  0.8885839  0.2533937  )
        66           O   tau(  66) = (  0.4441527  0.8885193  0.7537419  )
        67           O   tau(  67) = (  0.7764815  0.2204629  0.2533196  )
        68           O   tau(  68) = (  0.7780381  0.2226379  0.7534002  )
        69           O   tau(  69) = (  0.7780341  0.5556869  0.2521925  )
        70           O   tau(  70) = (  0.7784860  0.5559048  0.7530460  )
        71           O   tau(  71) = (  0.7757314  0.8868272  0.2560807  )
        72           O   tau(  72) = (  0.7779609  0.8886266  0.7506896  )

     number of k points=    36  Marzari-Vanderbilt smearing, width (Ry)=  0.0010
                       cart. coord. in units 2pi/alat
        k(    1) = (   0.0000000   0.0000000   0.0000000), wk =   0.0312500
        k(    2) = (   0.0000578  -0.0000238   0.2331957), wk =   0.0625000
        k(    3) = (  -0.0001156   0.0000477  -0.4663914), wk =   0.0312500
        k(    4) = (   0.0003371   0.2884361  -0.0000294), wk =   0.0625000
        k(    5) = (   0.0003949   0.2884122   0.2331663), wk =   0.0625000
        k(    6) = (   0.0002215   0.2884837  -0.4664207), wk =   0.0625000
        k(    7) = (   0.0002793   0.2884599  -0.2332251), wk =   0.0625000
        k(    8) = (  -0.0006742  -0.5768721   0.0000588), wk =   0.0312500
        k(    9) = (  -0.0006164  -0.5768960   0.2332544), wk =   0.0625000
        k(   10) = (  -0.0007898  -0.5768244  -0.4663326), wk =   0.0312500
        k(   11) = (   0.2501691   0.1445095   0.0000472), wk =   0.0625000
        k(   12) = (   0.2502269   0.1444857   0.2332429), wk =   0.0625000
        k(   13) = (   0.2500535   0.1445572  -0.4663442), wk =   0.0625000
        k(   14) = (   0.2501113   0.1445333  -0.2331485), wk =   0.0625000
        k(   15) = (   0.2505062   0.4329456   0.0000178), wk =   0.0625000
        k(   16) = (   0.2505640   0.4329217   0.2332135), wk =   0.0625000
        k(   17) = (   0.2503906   0.4329932  -0.4663735), wk =   0.0625000
        k(   18) = (   0.2504484   0.4329694  -0.2331779), wk =   0.0625000
        k(   19) = (   0.2494949  -0.4323626   0.0001060), wk =   0.0625000
        k(   20) = (   0.2495527  -0.4323865   0.2333016), wk =   0.0625000
        k(   21) = (   0.2493793  -0.4323149  -0.4662854), wk =   0.0625000
        k(   22) = (   0.2494371  -0.4323388  -0.2330897), wk =   0.0625000
        k(   23) = (   0.2498320  -0.1439266   0.0000766), wk =   0.0625000
        k(   24) = (   0.2498898  -0.1439504   0.2332723), wk =   0.0625000
        k(   25) = (   0.2497164  -0.1438789  -0.4663148), wk =   0.0625000
        k(   26) = (   0.2497742  -0.1439027  -0.2331191), wk =   0.0625000
        k(   27) = (  -0.5003382  -0.2890190  -0.0000944), wk =   0.0312500
        k(   28) = (  -0.5002804  -0.2890428   0.2331013), wk =   0.0625000
        k(   29) = (  -0.5004538  -0.2889713  -0.4664858), wk =   0.0312500
        k(   30) = (  -0.5000011  -0.0005829  -0.0001238), wk =   0.0625000
        k(   31) = (  -0.4999433  -0.0006068   0.2330719), wk =   0.0625000
        k(   32) = (  -0.5001167  -0.0005353  -0.4665151), wk =   0.0625000
        k(   33) = (  -0.5000589  -0.0005591  -0.2333195), wk =   0.0625000
        k(   34) = (  -0.5010124  -0.8658911  -0.0000356), wk =   0.0312500
        k(   35) = (  -0.5009546  -0.8659150   0.2331600), wk =   0.0625000
        k(   36) = (  -0.5011280  -0.8658434  -0.4664270), wk =   0.0312500

                       cryst. coord.
        k(    1) = (   0.0000000   0.0000000   0.0000000), wk =   0.0312500
        k(    2) = (   0.0000000  -0.0000000   0.2500000), wk =   0.0625000
        k(    3) = (  -0.0000000   0.0000000  -0.5000000), wk =   0.0312500
        k(    4) = (  -0.0000000   0.2500000   0.0000000), wk =   0.0625000
        k(    5) = (   0.0000000   0.2500000   0.2500000), wk =   0.0625000
        k(    6) = (  -0.0000000   0.2500000  -0.5000000), wk =   0.0625000
        k(    7) = (  -0.0000000   0.2500000  -0.2500000), wk =   0.0625000
        k(    8) = (   0.0000000  -0.5000000  -0.0000000), wk =   0.0312500
        k(    9) = (   0.0000000  -0.5000000   0.2500000), wk =   0.0625000
        k(   10) = (  -0.0000000  -0.5000000  -0.5000000), wk =   0.0312500
        k(   11) = (   0.2500000  -0.0000000  -0.0000000), wk =   0.0625000
        k(   12) = (   0.2500000  -0.0000000   0.2500000), wk =   0.0625000
        k(   13) = (   0.2500000  -0.0000000  -0.5000000), wk =   0.0625000
        k(   14) = (   0.2500000  -0.0000000  -0.2500000), wk =   0.0625000
        k(   15) = (   0.2500000   0.2500000  -0.0000000), wk =   0.0625000
        k(   16) = (   0.2500000   0.2500000   0.2500000), wk =   0.0625000
        k(   17) = (   0.2500000   0.2500000  -0.5000000), wk =   0.0625000
        k(   18) = (   0.2500000   0.2500000  -0.2500000), wk =   0.0625000
        k(   19) = (   0.2500000  -0.5000000  -0.0000000), wk =   0.0625000
        k(   20) = (   0.2500000  -0.5000000   0.2500000), wk =   0.0625000
        k(   21) = (   0.2500000  -0.5000000  -0.5000000), wk =   0.0625000
        k(   22) = (   0.2500000  -0.5000000  -0.2500000), wk =   0.0625000
        k(   23) = (   0.2500000  -0.2500000  -0.0000000), wk =   0.0625000
        k(   24) = (   0.2500000  -0.2500000   0.2500000), wk =   0.0625000
        k(   25) = (   0.2500000  -0.2500000  -0.5000000), wk =   0.0625000
        k(   26) = (   0.2500000  -0.2500000  -0.2500000), wk =   0.0625000
        k(   27) = (  -0.5000000   0.0000000   0.0000000), wk =   0.0312500
        k(   28) = (  -0.5000000   0.0000000   0.2500000), wk =   0.0625000
        k(   29) = (  -0.5000000   0.0000000  -0.5000000), wk =   0.0312500
        k(   30) = (  -0.5000000   0.2500000   0.0000000), wk =   0.0625000
        k(   31) = (  -0.5000000   0.2500000   0.2500000), wk =   0.0625000
        k(   32) = (  -0.5000000   0.2500000  -0.5000000), wk =   0.0625000
        k(   33) = (  -0.5000000   0.2500000  -0.2500000), wk =   0.0625000
        k(   34) = (  -0.5000000  -0.5000000   0.0000000), wk =   0.0312500
        k(   35) = (  -0.5000000  -0.5000000   0.2500000), wk =   0.0625000
        k(   36) = (  -0.5000000  -0.5000000  -0.5000000), wk =   0.0312500

     Dense  grid:  1092121 G-vectors     FFT dimensions: ( 135, 135, 144)

     Smooth grid:   363443 G-vectors     FFT dimensions: (  96,  96, 100)

     Dynamical RAM for                 wfc:      21.73 MB

     Dynamical RAM for     wfc (w. buffer):     130.39 MB

     Dynamical RAM for           str. fact:       3.12 MB

     Dynamical RAM for           local pot:       0.00 MB

     Dynamical RAM for          nlocal pot:      48.74 MB

     Dynamical RAM for                qrad:      20.99 MB

     Dynamical RAM for          rho,v,vnew:       6.88 MB

     Dynamical RAM for               rhoin:       2.29 MB

     Dynamical RAM for            rho*nmix:      16.66 MB

     Dynamical RAM for           G-vectors:       4.08 MB

     Dynamical RAM for          h,s,v(r/c):      46.14 MB

     Dynamical RAM for          <psi|beta>:       8.63 MB

     Dynamical RAM for                 psi:      86.92 MB

     Dynamical RAM for                hpsi:      86.92 MB

     Dynamical RAM for                spsi:      86.92 MB

     Dynamical RAM for      wfcinit/wfcrot:      52.54 MB

     Dynamical RAM for           addusdens:      32.29 MB

     Estimated static dynamical RAM per process >     243.58 MB

     Estimated max dynamical RAM per process >     559.13 MB

     Estimated total dynamical RAM >      69.89 GB

     Check: negative core charge=   -0.000002

     Initial potential from superposition of free atoms

     starting charge  832.99428, renormalised to  836.00000
     Starting wfcs are  532 randomized atomic wfcs

     total cpu time spent up to now is       16.2 secs

     Self-consistent Calculation

     iteration #  1     ecut=    60.00 Ry     beta= 0.50
     Davidson diagonalization with overlap
     ethr =  1.00E-02,  avg # of iterations =  4.7

     total cpu time spent up to now is       81.4 secs

     total energy              =  -14400.50040418 Ry
     Harris-Foulkes estimate   =  -14413.03032203 Ry
     estimated scf accuracy    <      18.98136616 Ry

     iteration #  2     ecut=    60.00 Ry     beta= 0.50
     Davidson diagonalization with overlap
     ethr =  2.27E-03,  avg # of iterations =  3.6

     total cpu time spent up to now is      160.4 secs

     total energy              =  -14406.07918322 Ry
     Harris-Foulkes estimate   =  -14410.48633908 Ry
     estimated scf accuracy    <      10.12486142 Ry

     iteration #  3     ecut=    60.00 Ry     beta= 0.50
     Davidson diagonalization with overlap
     ethr =  1.21E-03,  avg # of iterations =  2.0

     total cpu time spent up to now is      208.9 secs

     total energy              =  -14407.90016308 Ry
     Harris-Foulkes estimate   =  -14407.96060828 Ry
     estimated scf accuracy    <       0.17438617 Ry

     iteration #  4     ecut=    60.00 Ry     beta= 0.50
     Davidson diagonalization with overlap
     ethr =  2.09E-05,  avg # of iterations =  5.3

     total cpu time spent up to now is      302.2 secs

     total energy              =  -14407.91266877 Ry
     Harris-Foulkes estimate   =  -14407.94396515 Ry
     estimated scf accuracy    <       0.08452388 Ry

     iteration #  5     ecut=    60.00 Ry     beta= 0.50
     Davidson diagonalization with overlap
     ethr =  1.01E-05,  avg # of iterations =  4.0

     total cpu time spent up to now is      366.9 secs

     total energy              =  -14407.92727110 Ry
     Harris-Foulkes estimate   =  -14407.92822833 Ry
     estimated scf accuracy    <       0.00356994 Ry

     iteration #  6     ecut=    60.00 Ry     beta= 0.50
     Davidson diagonalization with overlap
     ethr =  4.27E-07,  avg # of iterations =  2.0

     total cpu time spent up to now is      412.5 secs

     total energy              =  -14407.92787593 Ry
     Harris-Foulkes estimate   =  -14407.92797445 Ry
     estimated scf accuracy    <       0.00039435 Ry

     iteration #  7     ecut=    60.00 Ry     beta= 0.50
     Davidson diagonalization with overlap
     ethr =  4.72E-08,  avg # of iterations =  2.0

     total cpu time spent up to now is      464.1 secs

     total energy              =  -14407.92796724 Ry
     Harris-Foulkes estimate   =  -14407.92798500 Ry
     estimated scf accuracy    <       0.00010755 Ry

     iteration #  8     ecut=    60.00 Ry     beta= 0.50
     Davidson diagonalization with overlap
     ethr =  1.29E-08,  avg # of iterations =  2.0

     total cpu time spent up to now is      507.8 secs

     total energy              =  -14407.92799044 Ry
     Harris-Foulkes estimate   =  -14407.92798774 Ry
     estimated scf accuracy    <       0.00001335 Ry

     iteration #  9     ecut=    60.00 Ry     beta= 0.50
     Davidson diagonalization with overlap
     ethr =  1.60E-09,  avg # of iterations =  2.0

     total cpu time spent up to now is      557.8 secs

     total energy              =  -14407.92799240 Ry
     Harris-Foulkes estimate   =  -14407.92799294 Ry
     estimated scf accuracy    <       0.00000223 Ry

     iteration # 10     ecut=    60.00 Ry     beta= 0.50
     Davidson diagonalization with overlap
     ethr =  2.67E-10,  avg # of iterations =  2.0

     total cpu time spent up to now is      609.1 secs

     total energy              =  -14407.92799287 Ry
     Harris-Foulkes estimate   =  -14407.92799292 Ry
     estimated scf accuracy    <       0.00000038 Ry

     iteration # 11     ecut=    60.00 Ry     beta= 0.50
     Davidson diagonalization with overlap
     ethr =  4.51E-11,  avg # of iterations =  2.0

     total cpu time spent up to now is      654.1 secs

     total energy              =  -14407.92799296 Ry
     Harris-Foulkes estimate   =  -14407.92799296 Ry
     estimated scf accuracy    <       0.00000006 Ry

     iteration # 12     ecut=    60.00 Ry     beta= 0.50
     Davidson diagonalization with overlap
     ethr =  7.10E-12,  avg # of iterations =  2.0

     total cpu time spent up to now is      700.3 secs

     End of self-consistent calculation

          k = 0.0000 0.0000 0.0000 ( 45453 PWs)   bands (ev):

  -115.2865-115.2828-115.2827-115.2821-115.2820-115.2814-115.2814-115.2808
  -115.2808-115.2804-115.2804-115.2803-115.2801-115.2786-115.2772-115.2771
  -115.2764-115.2755-115.2741-115.2738-115.2731-115.2729-115.2722-115.2702
  -115.2676-115.2642 -69.6456 -69.6438 -69.6425 -69.6416 -69.6412 -69.6410
   -69.6409 -69.6407 -69.6407 -69.6404 -69.6402 -69.6398 -69.6398 -69.6397
   -69.6396 -69.6396 -69.6395 -69.6393 -69.6391 -69.6387 -69.6386 -69.6381
   -69.6380 -69.6377 -69.6372 -69.6369 -69.6369 -69.6365 -69.6361 -69.6360
   -69.6358 -69.6356 -69.6350 -69.6348 -69.6347 -69.6346 -69.6343 -69.6342
   -69.6341 -69.6341 -69.6340 -69.6338 -69.6336 -69.6335 -69.6332 -69.6332
   -69.6328 -69.6327 -69.6324 -69.6322 -69.6322 -69.6319 -69.6316 -69.6315
   -69.6310 -69.6305 -69.6304 -69.6301 -69.6299 -69.6297 -69.6295 -69.6292
   -69.6290 -69.6288 -69.6287 -69.6281 -69.6278 -69.6273 -69.6264 -69.6260
   -69.6248 -69.6246 -69.6239 -69.6237 -69.6226 -69.6216 -69.6202 -69.6176
   -64.7778 -64.7581 -64.7567 -64.7543 -64.7455 -64.7438 -64.7438 -64.7389
   -64.7356 -64.7294 -31.7661 -31.7638 -31.7616 -31.7479 -31.7471 -31.7461
   -31.7447 -31.7423 -31.7422 -31.7410 -31.7402 -31.7382 -31.7366 -31.7358
   -31.7317 -31.7314 -31.7302 -31.7297 -31.7291 -31.7289 -31.7280 -31.7274
   -31.7266 -31.7254 -31.7220 -31.7195 -31.7165 -31.7145 -31.7127 -31.7093
    -9.9640  -9.6369  -9.6240  -9.5087  -9.5000  -9.4859  -9.4632  -9.4406
    -9.4339  -9.3508  -9.3170  -9.3020  -9.2842  -9.2603  -9.2551  -9.2496
    -9.2280  -9.2199  -9.1936  -9.1891  -9.1673  -9.1344  -9.1040  -9.0971
    -9.0949  -9.0868  -9.0781  -9.0496  -9.0360  -8.9983  -8.9743  -8.9530
    -8.9281  -8.9195  -8.9097  -8.8084   1.8628   1.8661   1.8814   1.8857
     1.9105   1.9220   1.9306   1.9429   1.9529   1.9722   1.9802   2.0031
     2.0218   2.0347   2.0625   2.0691   2.0984   2.1181   2.1303   2.1561
     2.2055   2.2248   2.2433   2.2528   2.2692   2.2804   2.2947   2.3075
     2.3177   2.3367   2.3469   2.3581   2.3642   2.3699   2.3740   2.3937
     2.4060   2.4138   2.4181   2.4265   2.4374   2.4450   2.4536   2.4641
     2.4787   2.4806   2.4957   2.4975   2.5167   2.5344   2.5444   2.5497
     2.5624   2.5650   2.5652   2.5855   2.5900   2.5974   2.6009   2.6158
     2.6310   2.6596   2.7142   2.7179   2.7282   2.7353   2.7531   2.7629
     2.7700   2.7851   2.8035   2.8257   2.8464   2.8820   2.8933   2.9016
     2.9187   2.9325   2.9527   2.9665   2.9834   3.0172   3.0227   3.0602
     3.0710   3.0826   3.0938   3.1075   3.1207   3.1370   3.1511   3.1626
     3.1781   3.1873   3.2069   3.2332   3.2447   3.2624   3.2795   3.2966
     3.3005   3.3061   3.3259   3.3334   3.3494   3.3532   3.3625   3.3697
     3.3806   3.3824   3.3876   3.3951   3.3981   3.4085   3.4100   3.4291
     3.4333   3.4397   3.4494   3.4571   3.4620   3.4753   3.4817   3.4931
     3.4963   3.5087   3.5468   3.5693   3.5909   3.6074   3.6146   3.7622
     3.7819   3.8151   3.8542   3.8898   3.9016   3.9403   3.9808   4.0073
     4.0198   4.0269   4.0639   4.1006   4.1492   4.1692   4.1761   4.2384
     4.2815   4.2926   4.3495   4.3891   4.4261   4.4417   4.4743   4.5404
     4.5767   4.5838   4.6467   4.7038   4.7451   4.7599   4.7864   4.8234
     4.9124   4.9823   5.0122   5.0232   5.0732   5.1618   5.2925   5.3226
     5.3473   5.3581   5.4639   5.5477   5.6076   5.6706   5.7232   5.7395
     5.7603   5.7958   5.8556   5.8661   5.8895   5.9350   5.9481   5.9683
     5.9818   6.0076   6.0611   6.1059   6.1502   6.1785   6.2011   6.2310
     6.2684   6.2944   6.3400   6.3683   6.3931   6.4076   6.4189   6.4456
     6.4475   6.4573   6.4688   6.4723   6.5017   6.5172   6.5429   6.5500
     6.5598   6.5828   6.6010   6.6173   6.6289   6.7262   6.8003   6.8394
     6.8574   6.8804   6.8851   6.8905   6.9165   6.9257   6.9674   7.0305
     7.0477   7.0776   7.1384   7.2075   7.2627   7.2777   7.3015   7.5129
     7.5442   7.5599   8.9362  11.4470  11.4770  12.1619  12.1829  12.2224
    12.2503  12.3240  12.4205  13.0614  13.0750  13.0991  13.1053  13.1610
    13.1810  13.2084  13.2466  13.2489  13.3137  13.3938  13.5285  13.7385
    15.1295  15.1350  15.1952  15.2256  15.2733  15.3282  15.3631  15.3980
    15.4811  15.5183  15.5221  15.5413  15.5619  15.5831  15.6115  15.6395
    15.6615  15.6712  15.6830  15.7173  15.7826  15.8138  15.9110  15.9472
    16.0095  16.0566  16.0902  16.1902  16.2640  16.5030  16.5169  16.5267
    16.5386  16.5636  16.5918  16.6124  16.6193  16.6245  16.6311  16.6420
    16.6481  17.0200  17.1973  17.3124  17.5232  17.6701  17.7130  17.8005
    17.8520  17.9130  18.0465  18.2242  18.3605  18.5298  18.5895  18.6460
    18.7128  18.8136  18.8507  18.8843  18.9052  18.9500

     occupation numbers 
     1.0000   1.0000   1.0000   1.0000   1.0000   1.0000   1.0000   1.0000
     1.0000   1.0000   1.0000   1.0000   1.0000   1.0000   1.0000   1.0000
     1.0000   1.0000   1.0000   1.0000   1.0000   1.0000   1.0000   1.0000
     1.0000   1.0000   1.0000   1.0000   1.0000   1.0000   1.0000   1.0000
     1.0000   1.0000   1.0000   1.0000   1.0000   1.0000   1.0000   1.0000
     1.0000   1.0000   1.0000   1.0000   1.0000   1.0000   1.0000   1.0000
     1.0000   1.0000   1.0000   1.0000   1.0000   1.0000   1.0000   1.0000
     1.0000   1.0000   1.0000   1.0000   1.0000   1.0000   1.0000   1.0000
     1.0000   1.0000   1.0000   1.0000   1.0000   1.0000   1.0000   1.0000
     1.0000   1.0000   1.0000   1.0000   1.0000   1.0000   1.0000   1.0000
     1.0000   1.0000   1.0000   1.0000   1.0000   1.0000   1.0000   1.0000
     1.0000   1.0000   1.0000   1.0000   1.0000   1.0000   1.0000   1.0000
     1.0000   1.0000   1.0000   1.0000   1.0000   1.0000   1.0000   1.0000
     1.0000   1.0000   1.0000   1.0000   1.0000   1.0000   1.0000   1.0000
     1.0000   1.0000   1.0000   1.0000   1.0000   1.0000   1.0000   1.0000
     1.0000   1.0000   1.0000   1.0000   1.0000   1.0000   1.0000   1.0000
     1.0000   1.0000   1.0000   1.0000   1.0000   1.0000   1.0000   1.0000
     1.0000   1.0000   1.0000   1.0000   1.0000   1.0000   1.0000   1.0000
     1.0000   1.0000   1.0000   1.0000   1.0000   1.0000   1.0000   1.0000
     1.0000   1.0000   1.0000   1.0000   1.0000   1.0000   1.0000   1.0000
     1.0000   1.0000   1.0000   1.0000   1.0000   1.0000   1.0000   1.0000
     1.0000   1.0000   1.0000   1.0000   1.0000   1.0000   1.0000   1.0000
     1.0000   1.0000   1.0000   1.0000   1.0000   1.0000   1.0000   1.0000
     1.0000   1.0000   1.0000   1.0000   1.0000   1.0000   1.0000   1.0000
     1.0000   1.0000   1.0000   1.0000   1.0000   1.0000   1.0000   1.0000
     1.0000   1.0000   1.0000   1.0000   1.0000   1.0000   1.0000   1.0000
     1.0000   1.0000   1.0000   1.0000   1.0000   1.0000   1.0000   1.0000
     1.0000   1.0000   1.0000   1.0000   1.0000   1.0000   1.0000   1.0000
     1.0000   1.0000   1.0000   1.0000   1.0000   1.0000   1.0000   1.0000
     1.0000   1.0000   1.0000   1.0000   1.0000   1.0000   1.0000   1.0000
     1.0000   1.0000   1.0000   1.0000   1.0000   1.0000   1.0000   1.0000
     1.0000   1.0000   1.0000   1.0000   1.0000   1.0000   1.0000   1.0000
     1.0000   1.0000   1.0000   1.0000   1.0000   1.0000   1.0000   1.0000
     1.0000   1.0000   1.0000   1.0000   1.0000   1.0000   1.0000   1.0000
     1.0000   1.0000   1.0000   1.0000   1.0000   1.0000   1.0000   1.0000
     1.0000   1.0000   1.0000   1.0000   1.0000   1.0000   1.0000   1.0000
     1.0000   1.0000   1.0000   1.0000   1.0000   1.0000   1.0000   1.0000
     1.0000   1.0000   1.0000   1.0000   1.0000   1.0000   1.0000   1.0000
     1.0000   1.0000   1.0000   1.0000   1.0000   1.0000   1.0000   1.0000
     1.0000   1.0000   1.0000   1.0000   1.0000   1.0000   1.0000   1.0000
     1.0000   1.0000   1.0000   1.0000   1.0000   1.0000   1.0000   1.0000
     1.0000   1.0000   1.0000   1.0000   1.0000   1.0000   1.0000   1.0000
     1.0000   1.0000   1.0000   1.0000   1.0000   1.0000   1.0000   1.0000
     1.0000   1.0000   1.0000   1.0000   1.0000   1.0000   1.0000   1.0000
     1.0000   1.0000   1.0000   1.0000   1.0000   1.0000   1.0000   1.0000
     1.0000   1.0000   1.0000   1.0000   1.0000   1.0000   1.0000   1.0000
     1.0000   1.0000   1.0000   1.0000   1.0000   1.0000   1.0000   1.0000
     1.0000   1.0000   1.0000   1.0000   1.0000   1.0000   1.0000   1.0000
     1.0000   1.0000   1.0000   1.0000   1.0000   1.0000   1.0000   1.0000
     1.0000   1.0000   1.0000   1.0000   1.0000   1.0000   1.0000   1.0000
     1.0000   1.0000   1.0000   1.0000   1.0000   1.0000   1.0000   1.0000
     1.0000   1.0000   1.0000   1.0000   1.0000   1.0000   1.0000   1.0000
     1.0000   1.0000   0.0000   0.0000   0.0000   0.0000   0.0000   0.0000
     0.0000   0.0000   0.0000   0.0000   0.0000   0.0000   0.0000   0.0000
     0.0000   0.0000   0.0000   0.0000   0.0000   0.0000   0.0000   0.0000
     0.0000   0.0000   0.0000   0.0000   0.0000   0.0000   0.0000   0.0000
     0.0000   0.0000   0.0000   0.0000   0.0000   0.0000   0.0000   0.0000
     0.0000   0.0000   0.0000   0.0000   0.0000   0.0000   0.0000   0.0000
     0.0000   0.0000   0.0000   0.0000   0.0000   0.0000   0.0000   0.0000
     0.0000   0.0000   0.0000   0.0000   0.0000   0.0000   0.0000   0.0000
     0.0000   0.0000   0.0000   0.0000   0.0000   0.0000   0.0000   0.0000
     0.0000   0.0000   0.0000   0.0000   0.0000   0.0000   0.0000   0.0000
     0.0000   0.0000   0.0000   0.0000   0.0000   0.0000

          k = 0.0001-0.0000 0.2332 ( 45366 PWs)   bands (ev):

  -115.2865-115.2828-115.2827-115.2821-115.2820-115.2814-115.2814-115.2808
  -115.2808-115.2804-115.2804-115.2803-115.2801-115.2786-115.2772-115.2771
  -115.2764-115.2755-115.2741-115.2738-115.2731-115.2729-115.2722-115.2702
  -115.2676-115.2642 -69.6456 -69.6438 -69.6425 -69.6416 -69.6412 -69.6410
   -69.6409 -69.6407 -69.6407 -69.6404 -69.6402 -69.6398 -69.6398 -69.6397
   -69.6396 -69.6396 -69.6395 -69.6393 -69.6391 -69.6387 -69.6386 -69.6381
   -69.6380 -69.6377 -69.6372 -69.6369 -69.6369 -69.6365 -69.6361 -69.6360
   -69.6358 -69.6356 -69.6350 -69.6348 -69.6347 -69.6346 -69.6343 -69.6342
   -69.6341 -69.6341 -69.6340 -69.6338 -69.6336 -69.6335 -69.6332 -69.6332
   -69.6328 -69.6326 -69.6324 -69.6322 -69.6322 -69.6319 -69.6316 -69.6315
   -69.6310 -69.6305 -69.6304 -69.6301 -69.6299 -69.6297 -69.6295 -69.6292
   -69.6290 -69.6288 -69.6287 -69.6281 -69.6278 -69.6273 -69.6264 -69.6260
   -69.6248 -69.6246 -69.6239 -69.6237 -69.6226 -69.6216 -69.6202 -69.6176
   -64.7778 -64.7581 -64.7567 -64.7543 -64.7455 -64.7438 -64.7438 -64.7389
   -64.7356 -64.7294 -31.7661 -31.7638 -31.7616 -31.7479 -31.7471 -31.7461
   -31.7447 -31.7423 -31.7422 -31.7410 -31.7402 -31.7382 -31.7366 -31.7358
   -31.7317 -31.7314 -31.7302 -31.7297 -31.7291 -31.7289 -31.7280 -31.7274
   -31.7266 -31.7254 -31.7220 -31.7195 -31.7165 -31.7145 -31.7127 -31.7093
    -9.9386  -9.7519  -9.5385  -9.4960  -9.4888  -9.4666  -9.4435  -9.4362
    -9.4170  -9.3845  -9.3661  -9.3402  -9.3171  -9.2921  -9.2559  -9.2389
    -9.2061  -9.2000  -9.1781  -9.1569  -9.1391  -9.1296  -9.1068  -9.0952
    -9.0888  -9.0822  -9.0787  -9.0579  -9.0369  -9.0041  -8.9757  -8.9558
    -8.9349  -8.9222  -8.9148  -8.8106   1.8659   1.8811   1.8861   1.9040
     1.9134   1.9317   1.9526   1.9692   1.9737   1.9940   2.0003   2.0164
     2.0266   2.0417   2.0687   2.0763   2.1061   2.1329   2.1547   2.1718
     2.2057   2.2273   2.2346   2.2494   2.2722   2.2811   2.2846   2.2947
     2.3074   2.3221   2.3318   2.3426   2.3522   2.3593   2.3725   2.3817
     2.3937   2.4041   2.4099   2.4240   2.4358   2.4547   2.4589   2.4634
     2.4777   2.4942   2.5016   2.5115   2.5152   2.5342   2.5382   2.5466
     2.5573   2.5663   2.5753   2.5793   2.5877   2.5980   2.6021   2.6110
     2.6215   2.6600   2.6933   2.6978   2.7078   2.7172   2.7284   2.7484
     2.7598   2.7640   2.7792   2.8059   2.8122   2.8395   2.8664   2.8739
     2.9004   2.9120   2.9303   2.9419   2.9616   2.9721   3.0122   3.0241
     3.0472   3.0539   3.0867   3.1026   3.1141   3.1328   3.1389   3.1516
     3.1615   3.1829   3.2077   3.2221   3.2372   3.2522   3.2791   3.2949
     3.3026   3.3063   3.3257   3.3356   3.3425   3.3529   3.3683   3.3760
     3.3823   3.3907   3.3933   3.4043   3.4090   3.4155   3.4219   3.4335
     3.4399   3.4504   3.4605   3.4619   3.4730   3.4774   3.4812   3.4995
     3.5145   3.5288   3.5408   3.5634   3.5861   3.5917   3.6659   3.8144
     3.8528   3.8759   3.9048   3.9276   3.9501   3.9740   4.0133   4.0249
     4.0425   4.0694   4.0858   4.1384   4.1557   4.1823   4.2092   4.2481
     4.2849   4.3170   4.3630   4.3868   4.4203   4.4441   4.4959   4.5239
     4.5833   4.6150   4.6529   4.6921   4.7193   4.7778   4.7975   4.8284
     4.8572   4.8931   4.9522   4.9901   5.2260   5.2566   5.3189   5.3517
     5.3973   5.4280   5.4539   5.5584   5.6120   5.6728   5.7067   5.7382
     5.7743   5.7907   5.8079   5.8571   5.8716   5.8933   5.8998   5.9339
     5.9438   5.9582   5.9867   5.9898   6.0208   6.0404   6.0914   6.1450
     6.1979   6.2308   6.2572   6.2861   6.3042   6.3105   6.3706   6.3905
     6.4047   6.4735   6.5079   6.5577   6.5745   6.6075   6.6340   6.6653
     6.6910   6.6998   6.7147   6.7232   6.7368   6.7770   6.8255   6.8617
     6.8824   6.9051   6.9126   6.9253   6.9284   6.9570   6.9729   7.0130
     7.0320   7.0570   7.1117   7.1396   7.1747   7.2582   7.3515   7.3847
     7.5257   7.5409   9.2744  10.7167  12.0626  12.1914  12.2094  12.2472
    12.2814  12.3552  12.4201  12.6739  12.6828  12.7204  12.7865  12.8497
    13.0212  13.3619  13.7337  13.7431  13.7815  13.8123  13.8902  13.9536
    14.8791  14.9013  14.9259  14.9802  14.9973  15.0703  15.2024  15.2081
    15.4268  15.4297  15.5318  15.5747  15.6062  15.6253  15.6443  15.6774
    15.7031  15.7594  15.7777  15.8306  15.9062  15.9527  16.0081  16.0471
    16.0663  16.1461  16.1590  16.2461  16.3583  16.4889  16.5078  16.5323
    16.5435  16.5594  16.5792  16.5942  16.6242  16.6910  16.7405  16.7670
    16.7967  16.9285  17.1014  17.3098  17.4084  17.5335  17.6498  17.6955
    17.7527  17.8646  17.9470  18.1182  18.2831  18.4160  18.4731  18.5136
    18.6168  18.7163  18.7696  18.8307  18.9658  19.0069

     occupation numbers 
     1.0000   1.0000   1.0000   1.0000   1.0000   1.0000   1.0000   1.0000
     1.0000   1.0000   1.0000   1.0000   1.0000   1.0000   1.0000   1.0000
     1.0000   1.0000   1.0000   1.0000   1.0000   1.0000   1.0000   1.0000
     1.0000   1.0000   1.0000   1.0000   1.0000   1.0000   1.0000   1.0000
     1.0000   1.0000   1.0000   1.0000   1.0000   1.0000   1.0000   1.0000
     1.0000   1.0000   1.0000   1.0000   1.0000   1.0000   1.0000   1.0000
     1.0000   1.0000   1.0000   1.0000   1.0000   1.0000   1.0000   1.0000
     1.0000   1.0000   1.0000   1.0000   1.0000   1.0000   1.0000   1.0000
     1.0000   1.0000   1.0000   1.0000   1.0000   1.0000   1.0000   1.0000
     1.0000   1.0000   1.0000   1.0000   1.0000   1.0000   1.0000   1.0000
     1.0000   1.0000   1.0000   1.0000   1.0000   1.0000   1.0000   1.0000
     1.0000   1.0000   1.0000   1.0000   1.0000   1.0000   1.0000   1.0000
     1.0000   1.0000   1.0000   1.0000   1.0000   1.0000   1.0000   1.0000
     1.0000   1.0000   1.0000   1.0000   1.0000   1.0000   1.0000   1.0000
     1.0000   1.0000   1.0000   1.0000   1.0000   1.0000   1.0000   1.0000
     1.0000   1.0000   1.0000   1.0000   1.0000   1.0000   1.0000   1.0000
     1.0000   1.0000   1.0000   1.0000   1.0000   1.0000   1.0000   1.0000
     1.0000   1.0000   1.0000   1.0000   1.0000   1.0000   1.0000   1.0000
     1.0000   1.0000   1.0000   1.0000   1.0000   1.0000   1.0000   1.0000
     1.0000   1.0000   1.0000   1.0000   1.0000   1.0000   1.0000   1.0000
     1.0000   1.0000   1.0000   1.0000   1.0000   1.0000   1.0000   1.0000
     1.0000   1.0000   1.0000   1.0000   1.0000   1.0000   1.0000   1.0000
     1.0000   1.0000   1.0000   1.0000   1.0000   1.0000   1.0000   1.0000
     1.0000   1.0000   1.0000   1.0000   1.0000   1.0000   1.0000   1.0000
     1.0000   1.0000   1.0000   1.0000   1.0000   1.0000   1.0000   1.0000
     1.0000   1.0000   1.0000   1.0000   1.0000   1.0000   1.0000   1.0000
     1.0000   1.0000   1.0000   1.0000   1.0000   1.0000   1.0000   1.0000
     1.0000   1.0000   1.0000   1.0000   1.0000   1.0000   1.0000   1.0000
     1.0000   1.0000   1.0000   1.0000   1.0000   1.0000   1.0000   1.0000
     1.0000   1.0000   1.0000   1.0000   1.0000   1.0000   1.0000   1.0000
     1.0000   1.0000   1.0000   1.0000   1.0000   1.0000   1.0000   1.0000
     1.0000   1.0000   1.0000   1.0000   1.0000   1.0000   1.0000   1.0000
     1.0000   1.0000   1.0000   1.0000   1.0000   1.0000   1.0000   1.0000
     1.0000   1.0000   1.0000   1.0000   1.0000   1.0000   1.0000   1.0000
     1.0000   1.0000   1.0000   1.0000   1.0000   1.0000   1.0000   1.0000
     1.0000   1.0000   1.0000   1.0000   1.0000   1.0000   1.0000   1.0000
     1.0000   1.0000   1.0000   1.0000   1.0000   1.0000   1.0000   1.0000
     1.0000   1.0000   1.0000   1.0000   1.0000   1.0000   1.0000   1.0000
     1.0000   1.0000   1.0000   1.0000   1.0000   1.0000   1.0000   1.0000
     1.0000   1.0000   1.0000   1.0000   1.0000   1.0000   1.0000   1.0000
     1.0000   1.0000   1.0000   1.0000   1.0000   1.0000   1.0000   1.0000
     1.0000   1.0000   1.0000   1.0000   1.0000   1.0000   1.0000   1.0000
     1.0000   1.0000   1.0000   1.0000   1.0000   1.0000   1.0000   1.0000
     1.0000   1.0000   1.0000   1.0000   1.0000   1.0000   1.0000   1.0000
     1.0000   1.0000   1.0000   1.0000   1.0000   1.0000   1.0000   1.0000
     1.0000   1.0000   1.0000   1.0000   1.0000   1.0000   1.0000   1.0000
     1.0000   1.0000   1.0000   1.0000   1.0000   1.0000   1.0000   1.0000
     1.0000   1.0000   1.0000   1.0000   1.0000   1.0000   1.0000   1.0000
     1.0000   1.0000   1.0000   1.0000   1.0000   1.0000   1.0000   1.0000
     1.0000   1.0000   1.0000   1.0000   1.0000   1.0000   1.0000   1.0000
     1.0000   1.0000   1.0000   1.0000   1.0000   1.0000   1.0000   1.0000
     1.0000   1.0000   1.0000   1.0000   1.0000   1.0000   1.0000   1.0000
     1.0000   1.0000   0.0000   0.0000   0.0000   0.0000   0.0000   0.0000
     0.0000   0.0000   0.0000   0.0000   0.0000   0.0000   0.0000   0.0000
     0.0000   0.0000   0.0000   0.0000   0.0000   0.0000   0.0000   0.0000
     0.0000   0.0000   0.0000   0.0000   0.0000   0.0000   0.0000   0.0000
     0.0000   0.0000   0.0000   0.0000   0.0000   0.0000   0.0000   0.0000
     0.0000   0.0000   0.0000   0.0000   0.0000   0.0000   0.0000   0.0000
     0.0000   0.0000   0.0000   0.0000   0.0000   0.0000   0.0000   0.0000
     0.0000   0.0000   0.0000   0.0000   0.0000   0.0000   0.0000   0.0000
     0.0000   0.0000   0.0000   0.0000   0.0000   0.0000   0.0000   0.0000
     0.0000   0.0000   0.0000   0.0000   0.0000   0.0000   0.0000   0.0000
     0.0000   0.0000   0.0000   0.0000   0.0000   0.0000

          k =-0.0001 0.0000-0.4664 ( 45428 PWs)   bands (ev):

  -115.2865-115.2828-115.2827-115.2821-115.2820-115.2814-115.2814-115.2808
  -115.2808-115.2804-115.2804-115.2803-115.2801-115.2786-115.2772-115.2771
  -115.2764-115.2755-115.2741-115.2738-115.2731-115.2729-115.2722-115.2702
  -115.2676-115.2642 -69.6456 -69.6438 -69.6425 -69.6416 -69.6412 -69.6410
   -69.6409 -69.6407 -69.6407 -69.6404 -69.6402 -69.6398 -69.6398 -69.6397
   -69.6396 -69.6396 -69.6395 -69.6393 -69.6391 -69.6387 -69.6386 -69.6381
   -69.6380 -69.6377 -69.6372 -69.6369 -69.6368 -69.6365 -69.6361 -69.6360
   -69.6358 -69.6356 -69.6350 -69.6348 -69.6347 -69.6346 -69.6343 -69.6342
   -69.6341 -69.6341 -69.6340 -69.6338 -69.6336 -69.6335 -69.6332 -69.6332
   -69.6328 -69.6326 -69.6324 -69.6322 -69.6322 -69.6319 -69.6316 -69.6315
   -69.6310 -69.6305 -69.6304 -69.6301 -69.6299 -69.6297 -69.6295 -69.6292
   -69.6290 -69.6288 -69.6287 -69.6281 -69.6278 -69.6273 -69.6264 -69.6260
   -69.6248 -69.6246 -69.6239 -69.6237 -69.6226 -69.6216 -69.6202 -69.6176
   -64.7778 -64.7581 -64.7567 -64.7543 -64.7455 -64.7438 -64.7438 -64.7389
   -64.7356 -64.7294 -31.7661 -31.7638 -31.7616 -31.7479 -31.7471 -31.7461
   -31.7447 -31.7423 -31.7422 -31.7410 -31.7402 -31.7382 -31.7366 -31.7358
   -31.7317 -31.7314 -31.7302 -31.7297 -31.7291 -31.7289 -31.7280 -31.7274
   -31.7266 -31.7254 -31.7220 -31.7195 -31.7165 -31.7145 -31.7127 -31.7093
    -9.8799  -9.8462  -9.4951  -9.4815  -9.4625  -9.4523  -9.4465  -9.4250
    -9.4154  -9.4041  -9.3925  -9.3674  -9.3522  -9.2919  -9.2875  -9.2491
    -9.1894  -9.1756  -9.1616  -9.1366  -9.1238  -9.1150  -9.1037  -9.0941
    -9.0874  -9.0812  -9.0783  -9.0666  -9.0355  -9.0110  -8.9765  -8.9576
    -8.9446  -8.9268  -8.9183  -8.8130   1.8702   1.8957   1.8970   1.9174
     1.9357   1.9413   1.9550   1.9703   1.9861   1.9952   2.0165   2.0515
     2.0667   2.0800   2.0910   2.1066   2.1288   2.1564   2.1730   2.1866
     2.1958   2.2079   2.2167   2.2314   2.2399   2.2555   2.2685   2.2851
     2.2985   2.3154   2.3225   2.3253   2.3369   2.3558   2.3647   2.3840
     2.3866   2.3987   2.4047   2.4292   2.4426   2.4638   2.4707   2.4759
     2.4815   2.4880   2.5013   2.5143   2.5257   2.5275   2.5417   2.5442
     2.5578   2.5591   2.5698   2.5813   2.5979   2.6005   2.6082   2.6179
     2.6290   2.6444   2.6464   2.6595   2.6662   2.6794   2.6934   2.7145
     2.7234   2.7349   2.7616   2.7951   2.7998   2.8108   2.8320   2.8683
     2.8894   2.9002   2.9062   2.9206   2.9492   2.9694   2.9733   3.0143
     3.0302   3.0443   3.0767   3.0937   3.1128   3.1199   3.1304   3.1418
     3.1511   3.1591   3.1914   3.2364   3.2414   3.2637   3.2846   3.2928
     3.3051   3.3148   3.3296   3.3367   3.3465   3.3500   3.3661   3.3725
     3.3841   3.3921   3.3959   3.3999   3.4138   3.4194   3.4265   3.4371
     3.4435   3.4523   3.4628   3.4735   3.4825   3.4856   3.4987   3.5121
     3.5261   3.5368   3.5459   3.5535   3.5608   3.5798   3.7922   3.8626
     3.8796   3.9215   3.9282   3.9723   3.9864   4.0080   4.0127   4.0429
     4.0807   4.0927   4.1136   4.1532   4.2116   4.2312   4.2618   4.2820
     4.2913   4.3102   4.3362   4.3431   4.3742   4.3947   4.4240   4.5134
     4.5246   4.6249   4.6484   4.7123   4.8116   4.8408   4.8903   4.9034
     4.9243   4.9401   4.9566   5.0418   5.2391   5.2929   5.3182   5.3830
     5.4286   5.4399   5.4624   5.5053   5.5275   5.5312   5.6169   5.6406
     5.6471   5.6942   5.7006   5.7200   5.7667   5.9475   5.9553   5.9795
     6.0122   6.0207   6.0389   6.0569   6.0761   6.0914   6.1161   6.1274
     6.1321   6.1413   6.1676   6.1838   6.1904   6.2205   6.2281   6.2444
     6.4609   6.5110   6.5564   6.6191   6.6439   6.6552   6.6923   6.7176
     6.7559   6.7587   6.7778   6.8011   6.8116   6.8345   6.8555   6.8711
     6.8829   6.9196   6.9259   6.9396   6.9567   6.9793   6.9967   6.9995
     7.0178   7.0394   7.0512   7.0745   7.0891   7.1015   7.4133   7.4490
     7.4944   7.5041   9.9177   9.9907  12.2310  12.2676  12.2957  12.3157
    12.3530  12.3656  12.3848  12.4297  12.4725  12.5243  12.6043  12.8198
    12.9525  13.1665  14.2858  14.3028  14.3120  14.3217  14.3696  14.3751
    14.4074  14.4320  14.4513  14.5029  14.5233  14.5820  15.2871  15.2901
    15.3267  15.3293  15.5430  15.5858  15.6209  15.6308  15.6458  15.6854
    15.7246  15.7722  15.7987  15.8305  15.9512  16.0086  16.1692  16.1923
    16.2294  16.2646  16.3393  16.3465  16.3901  16.4450  16.4478  16.4883
    16.5165  16.5360  16.5650  16.5841  16.5924  16.6204  16.8702  16.8954
    17.0399  17.0520  17.1195  17.1407  17.2237  17.3980  17.5102  17.5582
    17.7695  17.8648  17.8921  18.0470  18.1550  18.2651  18.3218  18.3981
    18.5867  18.6548  18.6927  18.8211  18.9688  19.0162

     occupation numbers 
     1.0000   1.0000   1.0000   1.0000   1.0000   1.0000   1.0000   1.0000
     1.0000   1.0000   1.0000   1.0000   1.0000   1.0000   1.0000   1.0000
     1.0000   1.0000   1.0000   1.0000   1.0000   1.0000   1.0000   1.0000
     1.0000   1.0000   1.0000   1.0000   1.0000   1.0000   1.0000   1.0000
     1.0000   1.0000   1.0000   1.0000   1.0000   1.0000   1.0000   1.0000
     1.0000   1.0000   1.0000   1.0000   1.0000   1.0000   1.0000   1.0000
     1.0000   1.0000   1.0000   1.0000   1.0000   1.0000   1.0000   1.0000
     1.0000   1.0000   1.0000   1.0000   1.0000   1.0000   1.0000   1.0000
     1.0000   1.0000   1.0000   1.0000   1.0000   1.0000   1.0000   1.0000
     1.0000   1.0000   1.0000   1.0000   1.0000   1.0000   1.0000   1.0000
     1.0000   1.0000   1.0000   1.0000   1.0000   1.0000   1.0000   1.0000
     1.0000   1.0000   1.0000   1.0000   1.0000   1.0000   1.0000   1.0000
     1.0000   1.0000   1.0000   1.0000   1.0000   1.0000   1.0000   1.0000
     1.0000   1.0000   1.0000   1.0000   1.0000   1.0000   1.0000   1.0000
     1.0000   1.0000   1.0000   1.0000   1.0000   1.0000   1.0000   1.0000
     1.0000   1.0000   1.0000   1.0000   1.0000   1.0000   1.0000   1.0000
     1.0000   1.0000   1.0000   1.0000   1.0000   1.0000   1.0000   1.0000
     1.0000   1.0000   1.0000   1.0000   1.0000   1.0000   1.0000   1.0000
     1.0000   1.0000   1.0000   1.0000   1.0000   1.0000   1.0000   1.0000
     1.0000   1.0000   1.0000   1.0000   1.0000   1.0000   1.0000   1.0000
     1.0000   1.0000   1.0000   1.0000   1.0000   1.0000   1.0000   1.0000
     1.0000   1.0000   1.0000   1.0000   1.0000   1.0000   1.0000   1.0000
     1.0000   1.0000   1.0000   1.0000   1.0000   1.0000   1.0000   1.0000
     1.0000   1.0000   1.0000   1.0000   1.0000   1.0000   1.0000   1.0000
     1.0000   1.0000   1.0000   1.0000   1.0000   1.0000   1.0000   1.0000
     1.0000   1.0000   1.0000   1.0000   1.0000   1.0000   1.0000   1.0000
     1.0000   1.0000   1.0000   1.0000   1.0000   1.0000   1.0000   1.0000
     1.0000   1.0000   1.0000   1.0000   1.0000   1.0000   1.0000   1.0000
     1.0000   1.0000   1.0000   1.0000   1.0000   1.0000   1.0000   1.0000
     1.0000   1.0000   1.0000   1.0000   1.0000   1.0000   1.0000   1.0000
     1.0000   1.0000   1.0000   1.0000   1.0000   1.0000   1.0000   1.0000
     1.0000   1.0000   1.0000   1.0000   1.0000   1.0000   1.0000   1.0000
     1.0000   1.0000   1.0000   1.0000   1.0000   1.0000   1.0000   1.0000
     1.0000   1.0000   1.0000   1.0000   1.0000   1.0000   1.0000   1.0000
     1.0000   1.0000   1.0000   1.0000   1.0000   1.0000   1.0000   1.0000
     1.0000   1.0000   1.0000   1.0000   1.0000   1.0000   1.0000   1.0000
     1.0000   1.0000   1.0000   1.0000   1.0000   1.0000   1.0000   1.0000
     1.0000   1.0000   1.0000   1.0000   1.0000   1.0000   1.0000   1.0000
     1.0000   1.0000   1.0000   1.0000   1.0000   1.0000   1.0000   1.0000
     1.0000   1.0000   1.0000   1.0000   1.0000   1.0000   1.0000   1.0000
     1.0000   1.0000   1.0000   1.0000   1.0000   1.0000   1.0000   1.0000
     1.0000   1.0000   1.0000   1.0000   1.0000   1.0000   1.0000   1.0000
     1.0000   1.0000   1.0000   1.0000   1.0000   1.0000   1.0000   1.0000
     1.0000   1.0000   1.0000   1.0000   1.0000   1.0000   1.0000   1.0000
     1.0000   1.0000   1.0000   1.0000   1.0000   1.0000   1.0000   1.0000
     1.0000   1.0000   1.0000   1.0000   1.0000   1.0000   1.0000   1.0000
     1.0000   1.0000   1.0000   1.0000   1.0000   1.0000   1.0000   1.0000
     1.0000   1.0000   1.0000   1.0000   1.0000   1.0000   1.0000   1.0000
     1.0000   1.0000   1.0000   1.0000   1.0000   1.0000   1.0000   1.0000
     1.0000   1.0000   1.0000   1.0000   1.0000   1.0000   1.0000   1.0000
     1.0000   1.0000   1.0000   1.0000   1.0000   1.0000   1.0000   1.0000
     1.0000   1.0000   1.0000   1.0000   1.0000   1.0000   1.0000   1.0000
     1.0000   1.0000   0.0000   0.0000   0.0000   0.0000   0.0000   0.0000
     0.0000   0.0000   0.0000   0.0000   0.0000   0.0000   0.0000   0.0000
     0.0000   0.0000   0.0000   0.0000   0.0000   0.0000   0.0000   0.0000
     0.0000   0.0000   0.0000   0.0000   0.0000   0.0000   0.0000   0.0000
     0.0000   0.0000   0.0000   0.0000   0.0000   0.0000   0.0000   0.0000
     0.0000   0.0000   0.0000   0.0000   0.0000   0.0000   0.0000   0.0000
     0.0000   0.0000   0.0000   0.0000   0.0000   0.0000   0.0000   0.0000
     0.0000   0.0000   0.0000   0.0000   0.0000   0.0000   0.0000   0.0000
     0.0000   0.0000   0.0000   0.0000   0.0000   0.0000   0.0000   0.0000
     0.0000   0.0000   0.0000   0.0000   0.0000   0.0000   0.0000   0.0000
     0.0000   0.0000   0.0000   0.0000   0.0000   0.0000

          k = 0.0003 0.2884-0.0000 ( 45383 PWs)   bands (ev):

  -115.2865-115.2828-115.2827-115.2821-115.2820-115.2814-115.2814-115.2808
  -115.2808-115.2804-115.2804-115.2803-115.2801-115.2786-115.2772-115.2771
  -115.2764-115.2755-115.2741-115.2738-115.2731-115.2729-115.2722-115.2702
  -115.2676-115.2642 -69.6456 -69.6438 -69.6425 -69.6416 -69.6412 -69.6410
   -69.6409 -69.6407 -69.6407 -69.6404 -69.6402 -69.6398 -69.6398 -69.6397
   -69.6396 -69.6396 -69.6395 -69.6393 -69.6391 -69.6387 -69.6386 -69.6381
   -69.6380 -69.6377 -69.6372 -69.6369 -69.6369 -69.6365 -69.6362 -69.6360
   -69.6356 -69.6356 -69.6351 -69.6348 -69.6347 -69.6346 -69.6343 -69.6342
   -69.6341 -69.6341 -69.6340 -69.6338 -69.6336 -69.6335 -69.6332 -69.6332
   -69.6328 -69.6327 -69.6324 -69.6322 -69.6322 -69.6319 -69.6316 -69.6315
   -69.6310 -69.6305 -69.6304 -69.6301 -69.6299 -69.6297 -69.6295 -69.6292
   -69.6290 -69.6288 -69.6287 -69.6281 -69.6278 -69.6273 -69.6264 -69.6260
   -69.6248 -69.6246 -69.6239 -69.6237 -69.6226 -69.6216 -69.6202 -69.6176
   -64.7778 -64.7581 -64.7567 -64.7543 -64.7455 -64.7438 -64.7438 -64.7389
   -64.7356 -64.7294 -31.7661 -31.7638 -31.7616 -31.7479 -31.7471 -31.7461
   -31.7447 -31.7423 -31.7422 -31.7410 -31.7402 -31.7383 -31.7382 -31.7358
   -31.7317 -31.7310 -31.7301 -31.7291 -31.7290 -31.7287 -31.7275 -31.7268
   -31.7265 -31.7253 -31.7219 -31.7195 -31.7165 -31.7156 -31.7127 -31.7093
    -9.9268  -9.6751  -9.6090  -9.5806  -9.5441  -9.5069  -9.4158  -9.4022
    -9.3795  -9.3702  -9.3446  -9.3112  -9.2888  -9.2761  -9.2602  -9.2331
    -9.2176  -9.2020  -9.1760  -9.1610  -9.1476  -9.1412  -9.1303  -9.1032
    -9.0963  -9.0877  -9.0729  -9.0601  -9.0309  -9.0043  -8.9798  -8.9531
    -8.9256  -8.9152  -8.9071  -8.8088   1.8761   1.8830   1.9011   1.9041
     1.9307   1.9377   1.9493   1.9562   1.9736   1.9946   2.0049   2.0257
     2.0410   2.0617   2.0775   2.0868   2.1014   2.1187   2.1341   2.1639
     2.1904   2.2087   2.2210   2.2419   2.2575   2.2662   2.2882   2.2958
     2.3072   2.3180   2.3278   2.3433   2.3479   2.3617   2.3682   2.3758
     2.3876   2.4011   2.4177   2.4252   2.4352   2.4438   2.4602   2.4661
     2.4750   2.4859   2.4906   2.4948   2.4999   2.5171   2.5263   2.5395
     2.5488   2.5627   2.5778   2.5870   2.5956   2.6081   2.6151   2.6329
     2.6517   2.6607   2.6755   2.6953   2.7068   2.7171   2.7384   2.7444
     2.7478   2.7676   2.7927   2.8020   2.8262   2.8433   2.8567   2.8623
     2.8843   2.9146   2.9335   2.9571   2.9810   2.9876   3.0107   3.0215
     3.0415   3.0683   3.0841   3.1055   3.1158   3.1301   3.1422   3.1682
     3.1837   3.2008   3.2116   3.2204   3.2421   3.2622   3.2830   3.2965
     3.3038   3.3095   3.3202   3.3246   3.3399   3.3506   3.3614   3.3661
     3.3777   3.3866   3.4003   3.4064   3.4189   3.4252   3.4352   3.4435
     3.4497   3.4554   3.4655   3.4707   3.4780   3.4824   3.4929   3.5065
     3.5185   3.5363   3.5520   3.5605   3.5831   3.5982   3.6110   3.6687
     3.7421   3.7888   3.8173   3.8395   3.8616   3.9046   3.9390   3.9614
     4.0235   4.0419   4.0723   4.1124   4.1462   4.1903   4.2280   4.2425
     4.2916   4.3075   4.3426   4.3669   4.4191   4.4982   4.5345   4.5802
     4.6651   4.7188   4.7375   4.7986   4.8225   4.8746   4.9569   5.0133
     5.0571   5.1049   5.1210   5.1747   5.1841   5.2275   5.2656   5.3149
     5.3314   5.3715   5.4229   5.4558   5.4969   5.5561   5.6090   5.6418
     5.6631   5.7923   5.8701   5.9295   5.9454   5.9914   6.0170   6.0276
     6.0589   6.0838   6.0980   6.1432   6.1759   6.1896   6.2028   6.2194
     6.2541   6.2604   6.2911   6.3092   6.3166   6.3437   6.3647   6.4187
     6.4335   6.4442   6.4629   6.4938   6.4998   6.5147   6.5276   6.5416
     6.5649   6.5729   6.5876   6.6080   6.6523   6.6742   6.6873   6.7052
     6.7491   6.7974   6.8408   6.8744   6.9196   6.9273   6.9830   7.0009
     7.0365   7.0940   7.1058   7.1417   7.1581   7.1780   7.2131   7.2961
     7.4762   7.5164   9.4076  11.2520  11.6529  11.6855  11.9189  11.9817
    12.6761  12.7297  12.8244  12.9013  13.0236  13.0977  13.1226  13.1954
    13.2952  13.4275  13.4407  13.5026  13.5491  13.6287  13.7187  13.9496
    14.6847  14.7307  14.8136  14.8267  14.8856  14.9517  15.0973  15.1423
    15.1690  15.2193  15.2721  15.3316  15.3656  15.4431  15.4705  15.6312
    15.6611  15.7224  15.7844  15.8298  15.9077  15.9362  15.9861  16.1724
    16.2370  16.2917  16.3046  16.3495  16.4042  16.4584  16.4736  16.5665
    16.6212  16.6618  16.7896  16.8083  16.8726  16.9177  17.0316  17.0493
    17.0898  17.1489  17.2848  17.4458  17.5982  17.7207  17.8240  17.8771
    17.9097  18.0644  18.1176  18.2272  18.3577  18.4646  18.5675  18.6170
    18.6581  18.7158  18.7354  18.8131  18.8360  18.8891

     occupation numbers 
     1.0000   1.0000   1.0000   1.0000   1.0000   1.0000   1.0000   1.0000
     1.0000   1.0000   1.0000   1.0000   1.0000   1.0000   1.0000   1.0000
     1.0000   1.0000   1.0000   1.0000   1.0000   1.0000   1.0000   1.0000
     1.0000   1.0000   1.0000   1.0000   1.0000   1.0000   1.0000   1.0000
     1.0000   1.0000   1.0000   1.0000   1.0000   1.0000   1.0000   1.0000
     1.0000   1.0000   1.0000   1.0000   1.0000   1.0000   1.0000   1.0000
     1.0000   1.0000   1.0000   1.0000   1.0000   1.0000   1.0000   1.0000
     1.0000   1.0000   1.0000   1.0000   1.0000   1.0000   1.0000   1.0000
     1.0000   1.0000   1.0000   1.0000   1.0000   1.0000   1.0000   1.0000
     1.0000   1.0000   1.0000   1.0000   1.0000   1.0000   1.0000   1.0000
     1.0000   1.0000   1.0000   1.0000   1.0000   1.0000   1.0000   1.0000
     1.0000   1.0000   1.0000   1.0000   1.0000   1.0000   1.0000   1.0000
     1.0000   1.0000   1.0000   1.0000   1.0000   1.0000   1.0000   1.0000
     1.0000   1.0000   1.0000   1.0000   1.0000   1.0000   1.0000   1.0000
     1.0000   1.0000   1.0000   1.0000   1.0000   1.0000   1.0000   1.0000
     1.0000   1.0000   1.0000   1.0000   1.0000   1.0000   1.0000   1.0000
     1.0000   1.0000   1.0000   1.0000   1.0000   1.0000   1.0000   1.0000
     1.0000   1.0000   1.0000   1.0000   1.0000   1.0000   1.0000   1.0000
     1.0000   1.0000   1.0000   1.0000   1.0000   1.0000   1.0000   1.0000
     1.0000   1.0000   1.0000   1.0000   1.0000   1.0000   1.0000   1.0000
     1.0000   1.0000   1.0000   1.0000   1.0000   1.0000   1.0000   1.0000
     1.0000   1.0000   1.0000   1.0000   1.0000   1.0000   1.0000   1.0000
     1.0000   1.0000   1.0000   1.0000   1.0000   1.0000   1.0000   1.0000
     1.0000   1.0000   1.0000   1.0000   1.0000   1.0000   1.0000   1.0000
     1.0000   1.0000   1.0000   1.0000   1.0000   1.0000   1.0000   1.0000
     1.0000   1.0000   1.0000   1.0000   1.0000   1.0000   1.0000   1.0000
     1.0000   1.0000   1.0000   1.0000   1.0000   1.0000   1.0000   1.0000
     1.0000   1.0000   1.0000   1.0000   1.0000   1.0000   1.0000   1.0000
     1.0000   1.0000   1.0000   1.0000   1.0000   1.0000   1.0000   1.0000
     1.0000   1.0000   1.0000   1.0000   1.0000   1.0000   1.0000   1.0000
     1.0000   1.0000   1.0000   1.0000   1.0000   1.0000   1.0000   1.0000
     1.0000   1.0000   1.0000   1.0000   1.0000   1.0000   1.0000   1.0000
     1.0000   1.0000   1.0000   1.0000   1.0000   1.0000   1.0000   1.0000
     1.0000   1.0000   1.0000   1.0000   1.0000   1.0000   1.0000   1.0000
     1.0000   1.0000   1.0000   1.0000   1.0000   1.0000   1.0000   1.0000
     1.0000   1.0000   1.0000   1.0000   1.0000   1.0000   1.0000   1.0000
     1.0000   1.0000   1.0000   1.0000   1.0000   1.0000   1.0000   1.0000
     1.0000   1.0000   1.0000   1.0000   1.0000   1.0000   1.0000   1.0000
     1.0000   1.0000   1.0000   1.0000   1.0000   1.0000   1.0000   1.0000
     1.0000   1.0000   1.0000   1.0000   1.0000   1.0000   1.0000   1.0000
     1.0000   1.0000   1.0000   1.0000   1.0000   1.0000   1.0000   1.0000
     1.0000   1.0000   1.0000   1.0000   1.0000   1.0000   1.0000   1.0000
     1.0000   1.0000   1.0000   1.0000   1.0000   1.0000   1.0000   1.0000
     1.0000   1.0000   1.0000   1.0000   1.0000   1.0000   1.0000   1.0000
     1.0000   1.0000   1.0000   1.0000   1.0000   1.0000   1.0000   1.0000
     1.0000   1.0000   1.0000   1.0000   1.0000   1.0000   1.0000   1.0000
     1.0000   1.0000   1.0000   1.0000   1.0000   1.0000   1.0000   1.0000
     1.0000   1.0000   1.0000   1.0000   1.0000   1.0000   1.0000   1.0000
     1.0000   1.0000   1.0000   1.0000   1.0000   1.0000   1.0000   1.0000
     1.0000   1.0000   1.0000   1.0000   1.0000   1.0000   1.0000   1.0000
     1.0000   1.0000   1.0000   1.0000   1.0000   1.0000   1.0000   1.0000
     1.0000   1.0000   1.0000   1.0000   1.0000   1.0000   1.0000   1.0000
     1.0000   1.0000   0.0000   0.0000   0.0000   0.0000   0.0000   0.0000
     0.0000   0.0000   0.0000   0.0000   0.0000   0.0000   0.0000   0.0000
     0.0000   0.0000   0.0000   0.0000   0.0000   0.0000   0.0000   0.0000
     0.0000   0.0000   0.0000   0.0000   0.0000   0.0000   0.0000   0.0000
     0.0000   0.0000   0.0000   0.0000   0.0000   0.0000   0.0000   0.0000
     0.0000   0.0000   0.0000   0.0000   0.0000   0.0000   0.0000   0.0000
     0.0000   0.0000   0.0000   0.0000   0.0000   0.0000   0.0000   0.0000
     0.0000   0.0000   0.0000   0.0000   0.0000   0.0000   0.0000   0.0000
     0.0000   0.0000   0.0000   0.0000   0.0000   0.0000   0.0000   0.0000
     0.0000   0.0000   0.0000   0.0000   0.0000   0.0000   0.0000   0.0000
     0.0000   0.0000   0.0000   0.0000   0.0000   0.0000

          k = 0.0004 0.2884 0.2332 ( 45394 PWs)   bands (ev):

  -115.2865-115.2828-115.2827-115.2821-115.2820-115.2814-115.2814-115.2808
  -115.2808-115.2804-115.2804-115.2803-115.2801-115.2786-115.2772-115.2771
  -115.2764-115.2755-115.2741-115.2738-115.2731-115.2729-115.2722-115.2702
  -115.2676-115.2642 -69.6456 -69.6438 -69.6425 -69.6416 -69.6412 -69.6410
   -69.6409 -69.6407 -69.6407 -69.6404 -69.6402 -69.6398 -69.6398 -69.6397
   -69.6396 -69.6396 -69.6395 -69.6393 -69.6391 -69.6387 -69.6386 -69.6381
   -69.6380 -69.6377 -69.6372 -69.6369 -69.6369 -69.6365 -69.6362 -69.6360
   -69.6356 -69.6356 -69.6351 -69.6348 -69.6347 -69.6346 -69.6343 -69.6342
   -69.6341 -69.6341 -69.6340 -69.6338 -69.6336 -69.6335 -69.6332 -69.6332
   -69.6328 -69.6327 -69.6324 -69.6322 -69.6322 -69.6319 -69.6316 -69.6315
   -69.6310 -69.6305 -69.6304 -69.6301 -69.6299 -69.6297 -69.6295 -69.6292
   -69.6290 -69.6288 -69.6287 -69.6281 -69.6278 -69.6273 -69.6264 -69.6260
   -69.6248 -69.6246 -69.6239 -69.6237 -69.6226 -69.6216 -69.6202 -69.6176
   -64.7778 -64.7581 -64.7567 -64.7543 -64.7455 -64.7438 -64.7438 -64.7389
   -64.7356 -64.7294 -31.7661 -31.7638 -31.7616 -31.7479 -31.7471 -31.7461
   -31.7447 -31.7423 -31.7422 -31.7410 -31.7402 -31.7383 -31.7382 -31.7358
   -31.7317 -31.7310 -31.7301 -31.7291 -31.7290 -31.7287 -31.7275 -31.7268
   -31.7265 -31.7253 -31.7219 -31.7195 -31.7165 -31.7156 -31.7127 -31.7093
    -9.9026  -9.7238  -9.6321  -9.5516  -9.5453  -9.4625  -9.4418  -9.4173
    -9.3857  -9.3559  -9.3519  -9.3311  -9.3016  -9.2608  -9.2535  -9.2250
    -9.2048  -9.1901  -9.1743  -9.1605  -9.1512  -9.1329  -9.1216  -9.1080
    -9.0951  -9.0865  -9.0710  -9.0561  -9.0342  -9.0061  -8.9842  -8.9567
    -8.9301  -8.9178  -8.9104  -8.8105   1.8890   1.9005   1.9083   1.9233
     1.9395   1.9570   1.9701   1.9834   1.9954   2.0086   2.0213   2.0366
     2.0416   2.0679   2.0806   2.0999   2.1139   2.1276   2.1429   2.1696
     2.1994   2.2116   2.2260   2.2445   2.2538   2.2624   2.2778   2.2919
     2.3090   2.3121   2.3202   2.3324   2.3397   2.3530   2.3649   2.3715
     2.3799   2.3921   2.3961   2.4063   2.4196   2.4448   2.4512   2.4619
     2.4644   2.4847   2.4870   2.4974   2.4989   2.5198   2.5301   2.5409
     2.5530   2.5644   2.5699   2.5788   2.5944   2.6049   2.6213   2.6257
     2.6414   2.6485   2.6720   2.6832   2.6849   2.7005   2.7115   2.7239
     2.7405   2.7466   2.7596   2.7814   2.8067   2.8181   2.8304   2.8485
     2.8698   2.8884   2.9022   2.9277   2.9494   2.9646   2.9809   3.0126
     3.0241   3.0582   3.0700   3.0778   3.1049   3.1308   3.1412   3.1550
     3.1754   3.2026   3.2122   3.2327   3.2443   3.2672   3.2811   3.2865
     3.3075   3.3181   3.3285   3.3388   3.3426   3.3520   3.3688   3.3762
     3.3835   3.3928   3.3979   3.4050   3.4167   3.4264   3.4377   3.4449
     3.4486   3.4582   3.4656   3.4773   3.4873   3.4912   3.4964   3.5053
     3.5184   3.5345   3.5499   3.5708   3.5806   3.6028   3.6808   3.7362
     3.7855   3.8106   3.8405   3.8865   3.9253   3.9467   3.9651   3.9984
     4.0294   4.0752   4.1003   4.1141   4.1536   4.1984   4.2170   4.2586
     4.3089   4.3345   4.3653   4.3824   4.4374   4.5140   4.5325   4.5898
     4.6467   4.6931   4.7286   4.7543   4.8257   4.8831   4.9100   4.9636
     5.0045   5.0592   5.1410   5.1662   5.2096   5.2497   5.3077   5.3998
     5.4033   5.4871   5.5156   5.5251   5.5850   5.6022   5.6563   5.6706
     5.6978   5.7488   5.8062   5.8174   5.8650   5.8780   5.8909   5.9327
     5.9777   6.0117   6.0222   6.0347   6.0537   6.0852   6.1195   6.1812
     6.1986   6.2285   6.2535   6.2829   6.2886   6.3061   6.3565   6.3900
     6.4179   6.4638   6.4852   6.5218   6.5437   6.5526   6.5812   6.5993
     6.6196   6.6408   6.6753   6.6999   6.7121   6.7364   6.7597   6.7766
     6.7904   6.8195   6.8558   6.8774   6.9037   6.9393   6.9789   6.9981
     7.0235   7.0468   7.0782   7.0942   7.1485   7.1725   7.2446   7.3311
     7.4460   7.4975   9.6523  10.9346  11.3690  11.9306  11.9448  12.1852
    12.3643  12.5765  12.6468  12.8668  12.8840  13.0487  13.1430  13.1724
    13.3459  13.4444  13.6464  13.7660  13.8669  13.9768  14.0120  14.0388
    14.5824  14.6544  14.6897  14.7590  14.8216  14.9172  14.9838  15.0243
    15.0496  15.0967  15.1288  15.1760  15.1994  15.2293  15.5587  15.7089
    15.7644  15.8749  15.8977  16.0054  16.0401  16.0750  16.1078  16.1486
    16.1868  16.2424  16.3020  16.3391  16.4103  16.4306  16.4735  16.5846
    16.6262  16.7457  16.8008  16.8395  16.8586  16.9515  16.9796  17.0621
    17.0981  17.1443  17.2681  17.4111  17.5699  17.6321  17.7079  17.8082
    17.8495  18.0031  18.0700  18.1526  18.3344  18.3757  18.4559  18.5091
    18.5959  18.6425  18.7712  18.8499  18.9158  19.0068

     occupation numbers 
     1.0000   1.0000   1.0000   1.0000   1.0000   1.0000   1.0000   1.0000
     1.0000   1.0000   1.0000   1.0000   1.0000   1.0000   1.0000   1.0000
     1.0000   1.0000   1.0000   1.0000   1.0000   1.0000   1.0000   1.0000
     1.0000   1.0000   1.0000   1.0000   1.0000   1.0000   1.0000   1.0000
     1.0000   1.0000   1.0000   1.0000   1.0000   1.0000   1.0000   1.0000
     1.0000   1.0000   1.0000   1.0000   1.0000   1.0000   1.0000   1.0000
     1.0000   1.0000   1.0000   1.0000   1.0000   1.0000   1.0000   1.0000
     1.0000   1.0000   1.0000   1.0000   1.0000   1.0000   1.0000   1.0000
     1.0000   1.0000   1.0000   1.0000   1.0000   1.0000   1.0000   1.0000
     1.0000   1.0000   1.0000   1.0000   1.0000   1.0000   1.0000   1.0000
     1.0000   1.0000   1.0000   1.0000   1.0000   1.0000   1.0000   1.0000
     1.0000   1.0000   1.0000   1.0000   1.0000   1.0000   1.0000   1.0000
     1.0000   1.0000   1.0000   1.0000   1.0000   1.0000   1.0000   1.0000
     1.0000   1.0000   1.0000   1.0000   1.0000   1.0000   1.0000   1.0000
     1.0000   1.0000   1.0000   1.0000   1.0000   1.0000   1.0000   1.0000
     1.0000   1.0000   1.0000   1.0000   1.0000   1.0000   1.0000   1.0000
     1.0000   1.0000   1.0000   1.0000   1.0000   1.0000   1.0000   1.0000
     1.0000   1.0000   1.0000   1.0000   1.0000   1.0000   1.0000   1.0000
     1.0000   1.0000   1.0000   1.0000   1.0000   1.0000   1.0000   1.0000
     1.0000   1.0000   1.0000   1.0000   1.0000   1.0000   1.0000   1.0000
     1.0000   1.0000   1.0000   1.0000   1.0000   1.0000   1.0000   1.0000
     1.0000   1.0000   1.0000   1.0000   1.0000   1.0000   1.0000   1.0000
     1.0000   1.0000   1.0000   1.0000   1.0000   1.0000   1.0000   1.0000
     1.0000   1.0000   1.0000   1.0000   1.0000   1.0000   1.0000   1.0000
     1.0000   1.0000   1.0000   1.0000   1.0000   1.0000   1.0000   1.0000
     1.0000   1.0000   1.0000   1.0000   1.0000   1.0000   1.0000   1.0000
     1.0000   1.0000   1.0000   1.0000   1.0000   1.0000   1.0000   1.0000
     1.0000   1.0000   1.0000   1.0000   1.0000   1.0000   1.0000   1.0000
     1.0000   1.0000   1.0000   1.0000   1.0000   1.0000   1.0000   1.0000
     1.0000   1.0000   1.0000   1.0000   1.0000   1.0000   1.0000   1.0000
     1.0000   1.0000   1.0000   1.0000   1.0000   1.0000   1.0000   1.0000
     1.0000   1.0000   1.0000   1.0000   1.0000   1.0000   1.0000   1.0000
     1.0000   1.0000   1.0000   1.0000   1.0000   1.0000   1.0000   1.0000
     1.0000   1.0000   1.0000   1.0000   1.0000   1.0000   1.0000   1.0000
     1.0000   1.0000   1.0000   1.0000   1.0000   1.0000   1.0000   1.0000
     1.0000   1.0000   1.0000   1.0000   1.0000   1.0000   1.0000   1.0000
     1.0000   1.0000   1.0000   1.0000   1.0000   1.0000   1.0000   1.0000
     1.0000   1.0000   1.0000   1.0000   1.0000   1.0000   1.0000   1.0000
     1.0000   1.0000   1.0000   1.0000   1.0000   1.0000   1.0000   1.0000
     1.0000   1.0000   1.0000   1.0000   1.0000   1.0000   1.0000   1.0000
     1.0000   1.0000   1.0000   1.0000   1.0000   1.0000   1.0000   1.0000
     1.0000   1.0000   1.0000   1.0000   1.0000   1.0000   1.0000   1.0000
     1.0000   1.0000   1.0000   1.0000   1.0000   1.0000   1.0000   1.0000
     1.0000   1.0000   1.0000   1.0000   1.0000   1.0000   1.0000   1.0000
     1.0000   1.0000   1.0000   1.0000   1.0000   1.0000   1.0000   1.0000
     1.0000   1.0000   1.0000   1.0000   1.0000   1.0000   1.0000   1.0000
     1.0000   1.0000   1.0000   1.0000   1.0000   1.0000   1.0000   1.0000
     1.0000   1.0000   1.0000   1.0000   1.0000   1.0000   1.0000   1.0000
     1.0000   1.0000   1.0000   1.0000   1.0000   1.0000   1.0000   1.0000
     1.0000   1.0000   1.0000   1.0000   1.0000   1.0000   1.0000   1.0000
     1.0000   1.0000   1.0000   1.0000   1.0000   1.0000   1.0000   1.0000
     1.0000   1.0000   1.0000   1.0000   1.0000   1.0000   1.0000   1.0000
     1.0000   1.0000   0.0000   0.0000   0.0000   0.0000   0.0000   0.0000
     0.0000   0.0000   0.0000   0.0000   0.0000   0.0000   0.0000   0.0000
     0.0000   0.0000   0.0000   0.0000   0.0000   0.0000   0.0000   0.0000
     0.0000   0.0000   0.0000   0.0000   0.0000   0.0000   0.0000   0.0000
     0.0000   0.0000   0.0000   0.0000   0.0000   0.0000   0.0000   0.0000
     0.0000   0.0000   0.0000   0.0000   0.0000   0.0000   0.0000   0.0000
     0.0000   0.0000   0.0000   0.0000   0.0000   0.0000   0.0000   0.0000
     0.0000   0.0000   0.0000   0.0000   0.0000   0.0000   0.0000   0.0000
     0.0000   0.0000   0.0000   0.0000   0.0000   0.0000   0.0000   0.0000
     0.0000   0.0000   0.0000   0.0000   0.0000   0.0000   0.0000   0.0000
     0.0000   0.0000   0.0000   0.0000   0.0000   0.0000

          k = 0.0002 0.2885-0.4664 ( 45393 PWs)   bands (ev):

  -115.2865-115.2828-115.2827-115.2821-115.2820-115.2814-115.2814-115.2808
  -115.2808-115.2804-115.2804-115.2803-115.2801-115.2786-115.2772-115.2771
  -115.2764-115.2755-115.2741-115.2738-115.2731-115.2729-115.2722-115.2702
  -115.2676-115.2642 -69.6456 -69.6438 -69.6425 -69.6416 -69.6412 -69.6410
   -69.6409 -69.6407 -69.6407 -69.6404 -69.6402 -69.6398 -69.6398 -69.6397
   -69.6396 -69.6396 -69.6395 -69.6393 -69.6391 -69.6387 -69.6386 -69.6381
   -69.6380 -69.6377 -69.6372 -69.6369 -69.6368 -69.6365 -69.6362 -69.6360
   -69.6356 -69.6356 -69.6351 -69.6348 -69.6347 -69.6346 -69.6343 -69.6342
   -69.6341 -69.6341 -69.6340 -69.6338 -69.6336 -69.6335 -69.6332 -69.6332
   -69.6328 -69.6326 -69.6324 -69.6322 -69.6322 -69.6319 -69.6316 -69.6315
   -69.6310 -69.6305 -69.6304 -69.6301 -69.6299 -69.6297 -69.6295 -69.6292
   -69.6290 -69.6288 -69.6287 -69.6281 -69.6278 -69.6273 -69.6264 -69.6260
   -69.6248 -69.6246 -69.6239 -69.6237 -69.6226 -69.6216 -69.6202 -69.6176
   -64.7778 -64.7581 -64.7567 -64.7543 -64.7455 -64.7438 -64.7438 -64.7389
   -64.7356 -64.7294 -31.7661 -31.7638 -31.7616 -31.7479 -31.7471 -31.7461
   -31.7447 -31.7423 -31.7422 -31.7410 -31.7402 -31.7383 -31.7382 -31.7358
   -31.7317 -31.7310 -31.7301 -31.7291 -31.7290 -31.7287 -31.7275 -31.7268
   -31.7265 -31.7253 -31.7219 -31.7195 -31.7165 -31.7156 -31.7127 -31.7093
    -9.8463  -9.8129  -9.5911  -9.5725  -9.5037  -9.4852  -9.4772  -9.4319
    -9.3859  -9.3534  -9.3421  -9.3180  -9.2913  -9.2729  -9.2404  -9.2232
    -9.2054  -9.1828  -9.1767  -9.1507  -9.1400  -9.1369  -9.1184  -9.1106
    -9.0976  -9.0877  -9.0616  -9.0546  -9.0368  -9.0079  -8.9862  -8.9599
    -8.9351  -8.9223  -8.9132  -8.8123   1.9019   1.9182   1.9213   1.9410
     1.9617   1.9730   1.9841   1.9911   2.0063   2.0177   2.0304   2.0680
     2.0763   2.0898   2.1009   2.1137   2.1371   2.1477   2.1621   2.1696
     2.1815   2.2068   2.2228   2.2329   2.2383   2.2567   2.2661   2.2852
     2.2928   2.2990   2.3134   2.3179   2.3325   2.3492   2.3541   2.3668
     2.3742   2.3876   2.3964   2.4083   2.4180   2.4363   2.4417   2.4510
     2.4598   2.4756   2.4870   2.4961   2.4978   2.5112   2.5261   2.5423
     2.5520   2.5601   2.5746   2.5786   2.5941   2.6006   2.6111   2.6228
     2.6266   2.6387   2.6526   2.6651   2.6715   2.6771   2.6891   2.7034
     2.7173   2.7249   2.7387   2.7476   2.7760   2.7826   2.8086   2.8266
     2.8461   2.8720   2.8948   2.9100   2.9445   2.9588   2.9766   2.9955
     3.0267   3.0356   3.0539   3.0746   3.1044   3.1158   3.1290   3.1520
     3.1692   3.2086   3.2236   3.2399   3.2507   3.2716   3.2751   3.2924
     3.3108   3.3176   3.3267   3.3411   3.3537   3.3633   3.3702   3.3789
     3.3834   3.3914   3.4046   3.4113   3.4232   3.4278   3.4367   3.4430
     3.4524   3.4555   3.4705   3.4798   3.4860   3.4882   3.4955   3.5035
     3.5216   3.5379   3.5461   3.5624   3.5793   3.5988   3.7461   3.7641
     3.8298   3.8684   3.8967   3.9308   3.9496   3.9803   3.9996   4.0350
     4.0521   4.0868   4.1247   4.1553   4.1637   4.2192   4.2354   4.2498
     4.2850   4.3436   4.3793   4.4287   4.4654   4.4997   4.5293   4.5510
     4.6198   4.6474   4.6701   4.7212   4.7983   4.8824   4.9388   5.0073
     5.0442   5.0648   5.2065   5.2553   5.3077   5.3337   5.3682   5.4208
     5.4484   5.4823   5.5168   5.5285   5.5717   5.5926   5.6503   5.6882
     5.7076   5.7258   5.7483   5.7689   5.7933   5.8194   5.8378   5.8417
     5.8863   5.9118   5.9309   5.9412   5.9682   6.0233   6.0645   6.1005
     6.1237   6.1624   6.2362   6.3034   6.3263   6.3598   6.3882   6.3975
     6.4327   6.4603   6.5077   6.5394   6.5642   6.5739   6.6102   6.6374
     6.6499   6.6909   6.6968   6.7280   6.7438   6.7556   6.7784   6.8144
     6.8332   6.8515   6.8693   6.8979   6.9136   6.9353   6.9534   6.9935
[...]
     3.4693   3.4748   3.4805   3.4889   3.4923   3.4979   3.5092   3.5139
     3.5231   3.5364   3.5480   3.5614   3.5670   3.5805   3.6854   3.7147
     3.7314   3.7852   3.8084   3.8615   3.8762   3.9070   3.9543   3.9578
     3.9959   4.0245   4.0643   4.0954   4.1530   4.2104   4.2246   4.2662
     4.3034   4.3255   4.4072   4.4247   4.5032   4.5355   4.5971   4.6708
     4.7065   4.7805   4.9329   4.9553   5.0013   5.0273   5.0500   5.1061
     5.1224   5.1526   5.1925   5.2487   5.2585   5.2868   5.3297   5.3463
     5.3618   5.3856   5.4176   5.4538   5.4793   5.5940   5.6200   5.6579
     5.7106   5.7916   5.8222   5.8554   5.8873   5.9067   5.9559   5.9605
     5.9879   6.0151   6.0221   6.0753   6.0900   6.1252   6.1490   6.1641
     6.1871   6.2210   6.2629   6.2822   6.3252   6.3317   6.3585   6.3899
     6.4139   6.4421   6.4596   6.4728   6.4910   6.5106   6.5246   6.5473
     6.5640   6.5789   6.5975   6.6288   6.6480   6.6641   6.6873   6.7084
     6.7300   6.7537   6.7702   6.8206   6.8444   6.8676   6.8920   6.9306
     6.9867   7.0060   7.0617   7.0761   7.1379   7.1657   7.3126   7.3348
     7.3624   7.3781  10.4285  10.4635  11.4406  11.4915  11.8593  11.9893
    12.4842  12.5915  12.8940  12.9575  13.3308  13.5276  13.6046  13.6363
    13.6705  13.7050  13.7835  13.8160  13.8381  13.8836  13.9551  14.0145
    14.1409  14.3026  14.3633  14.4428  14.4707  14.4964  14.5602  14.5963
    15.0386  15.0679  15.1037  15.1166  15.1421  15.2016  15.3974  15.7587
    15.7775  15.7998  15.8582  16.0401  16.0628  16.0864  16.1392  16.1912
    16.2152  16.2701  16.3229  16.3534  16.3993  16.4697  16.5467  16.6081
    16.7494  16.8313  16.8966  17.0100  17.1115  17.2222  17.3109  17.3920
    17.4305  17.4879  17.5557  17.6413  17.6939  17.7622  17.8304  17.9174
    17.9909  18.1269  18.2386  18.3148  18.3380  18.3685  18.4355  18.4963
    18.5737  18.6321  18.7053  18.8082  18.8639  18.9362

     occupation numbers 
     1.0000   1.0000   1.0000   1.0000   1.0000   1.0000   1.0000   1.0000
     1.0000   1.0000   1.0000   1.0000   1.0000   1.0000   1.0000   1.0000
     1.0000   1.0000   1.0000   1.0000   1.0000   1.0000   1.0000   1.0000
     1.0000   1.0000   1.0000   1.0000   1.0000   1.0000   1.0000   1.0000
     1.0000   1.0000   1.0000   1.0000   1.0000   1.0000   1.0000   1.0000
     1.0000   1.0000   1.0000   1.0000   1.0000   1.0000   1.0000   1.0000
     1.0000   1.0000   1.0000   1.0000   1.0000   1.0000   1.0000   1.0000
     1.0000   1.0000   1.0000   1.0000   1.0000   1.0000   1.0000   1.0000
     1.0000   1.0000   1.0000   1.0000   1.0000   1.0000   1.0000   1.0000
     1.0000   1.0000   1.0000   1.0000   1.0000   1.0000   1.0000   1.0000
     1.0000   1.0000   1.0000   1.0000   1.0000   1.0000   1.0000   1.0000
     1.0000   1.0000   1.0000   1.0000   1.0000   1.0000   1.0000   1.0000
     1.0000   1.0000   1.0000   1.0000   1.0000   1.0000   1.0000   1.0000
     1.0000   1.0000   1.0000   1.0000   1.0000   1.0000   1.0000   1.0000
     1.0000   1.0000   1.0000   1.0000   1.0000   1.0000   1.0000   1.0000
     1.0000   1.0000   1.0000   1.0000   1.0000   1.0000   1.0000   1.0000
     1.0000   1.0000   1.0000   1.0000   1.0000   1.0000   1.0000   1.0000
     1.0000   1.0000   1.0000   1.0000   1.0000   1.0000   1.0000   1.0000
     1.0000   1.0000   1.0000   1.0000   1.0000   1.0000   1.0000   1.0000
     1.0000   1.0000   1.0000   1.0000   1.0000   1.0000   1.0000   1.0000
     1.0000   1.0000   1.0000   1.0000   1.0000   1.0000   1.0000   1.0000
     1.0000   1.0000   1.0000   1.0000   1.0000   1.0000   1.0000   1.0000
     1.0000   1.0000   1.0000   1.0000   1.0000   1.0000   1.0000   1.0000
     1.0000   1.0000   1.0000   1.0000   1.0000   1.0000   1.0000   1.0000
     1.0000   1.0000   1.0000   1.0000   1.0000   1.0000   1.0000   1.0000
     1.0000   1.0000   1.0000   1.0000   1.0000   1.0000   1.0000   1.0000
     1.0000   1.0000   1.0000   1.0000   1.0000   1.0000   1.0000   1.0000
     1.0000   1.0000   1.0000   1.0000   1.0000   1.0000   1.0000   1.0000
     1.0000   1.0000   1.0000   1.0000   1.0000   1.0000   1.0000   1.0000
     1.0000   1.0000   1.0000   1.0000   1.0000   1.0000   1.0000   1.0000
     1.0000   1.0000   1.0000   1.0000   1.0000   1.0000   1.0000   1.0000
     1.0000   1.0000   1.0000   1.0000   1.0000   1.0000   1.0000   1.0000
     1.0000   1.0000   1.0000   1.0000   1.0000   1.0000   1.0000   1.0000
     1.0000   1.0000   1.0000   1.0000   1.0000   1.0000   1.0000   1.0000
     1.0000   1.0000   1.0000   1.0000   1.0000   1.0000   1.0000   1.0000
     1.0000   1.0000   1.0000   1.0000   1.0000   1.0000   1.0000   1.0000
     1.0000   1.0000   1.0000   1.0000   1.0000   1.0000   1.0000   1.0000
     1.0000   1.0000   1.0000   1.0000   1.0000   1.0000   1.0000   1.0000
     1.0000   1.0000   1.0000   1.0000   1.0000   1.0000   1.0000   1.0000
     1.0000   1.0000   1.0000   1.0000   1.0000   1.0000   1.0000   1.0000
     1.0000   1.0000   1.0000   1.0000   1.0000   1.0000   1.0000   1.0000
     1.0000   1.0000   1.0000   1.0000   1.0000   1.0000   1.0000   1.0000
     1.0000   1.0000   1.0000   1.0000   1.0000   1.0000   1.0000   1.0000
     1.0000   1.0000   1.0000   1.0000   1.0000   1.0000   1.0000   1.0000
     1.0000   1.0000   1.0000   1.0000   1.0000   1.0000   1.0000   1.0000
     1.0000   1.0000   1.0000   1.0000   1.0000   1.0000   1.0000   1.0000
     1.0000   1.0000   1.0000   1.0000   1.0000   1.0000   1.0000   1.0000
     1.0000   1.0000   1.0000   1.0000   1.0000   1.0000   1.0000   1.0000
     1.0000   1.0000   1.0000   1.0000   1.0000   1.0000   1.0000   1.0000
     1.0000   1.0000   1.0000   1.0000   1.0000   1.0000   1.0000   1.0000
     1.0000   1.0000   1.0000   1.0000   1.0000   1.0000   1.0000   1.0000
     1.0000   1.0000   1.0000   1.0000   1.0000   1.0000   1.0000   1.0000
     1.0000   1.0000   0.0000   0.0000   0.0000   0.0000   0.0000   0.0000
     0.0000   0.0000   0.0000   0.0000   0.0000   0.0000   0.0000   0.0000
     0.0000   0.0000   0.0000   0.0000   0.0000   0.0000   0.0000   0.0000
     0.0000   0.0000   0.0000   0.0000   0.0000   0.0000   0.0000   0.0000
     0.0000   0.0000   0.0000   0.0000   0.0000   0.0000   0.0000   0.0000
     0.0000   0.0000   0.0000   0.0000   0.0000   0.0000   0.0000   0.0000
     0.0000   0.0000   0.0000   0.0000   0.0000   0.0000   0.0000   0.0000
     0.0000   0.0000   0.0000   0.0000   0.0000   0.0000   0.0000   0.0000
     0.0000   0.0000   0.0000   0.0000   0.0000   0.0000   0.0000   0.0000
     0.0000   0.0000   0.0000   0.0000   0.0000   0.0000   0.0000   0.0000
     0.0000   0.0000   0.0000   0.0000   0.0000   0.0000

          k =-0.5011-0.8658-0.4664 ( 45408 PWs)   bands (ev):

  -115.2865-115.2828-115.2827-115.2821-115.2820-115.2814-115.2814-115.2808
  -115.2808-115.2804-115.2804-115.2803-115.2801-115.2786-115.2772-115.2771
  -115.2764-115.2755-115.2741-115.2738-115.2731-115.2729-115.2722-115.2702
  -115.2676-115.2642 -69.6456 -69.6438 -69.6425 -69.6416 -69.6412 -69.6410
   -69.6409 -69.6407 -69.6407 -69.6404 -69.6402 -69.6398 -69.6398 -69.6397
   -69.6396 -69.6396 -69.6395 -69.6393 -69.6391 -69.6387 -69.6386 -69.6381
   -69.6380 -69.6377 -69.6373 -69.6369 -69.6368 -69.6365 -69.6362 -69.6360
   -69.6356 -69.6354 -69.6352 -69.6348 -69.6347 -69.6346 -69.6343 -69.6342
   -69.6341 -69.6341 -69.6340 -69.6338 -69.6336 -69.6335 -69.6332 -69.6332
   -69.6327 -69.6327 -69.6324 -69.6322 -69.6322 -69.6319 -69.6316 -69.6315
   -69.6310 -69.6305 -69.6304 -69.6301 -69.6299 -69.6297 -69.6295 -69.6292
   -69.6290 -69.6288 -69.6287 -69.6281 -69.6278 -69.6273 -69.6264 -69.6260
   -69.6248 -69.6246 -69.6239 -69.6237 -69.6226 -69.6216 -69.6202 -69.6176
   -64.7778 -64.7581 -64.7567 -64.7543 -64.7455 -64.7438 -64.7438 -64.7389
   -64.7356 -64.7294 -31.7661 -31.7638 -31.7616 -31.7479 -31.7471 -31.7461
   -31.7447 -31.7423 -31.7422 -31.7410 -31.7402 -31.7394 -31.7382 -31.7358
   -31.7317 -31.7310 -31.7301 -31.7291 -31.7290 -31.7285 -31.7274 -31.7266
   -31.7254 -31.7244 -31.7213 -31.7194 -31.7175 -31.7165 -31.7127 -31.7093
    -9.7717  -9.7327  -9.7106  -9.6977  -9.5187  -9.5034  -9.4813  -9.4360
    -9.3518  -9.3167  -9.3003  -9.2774  -9.2551  -9.2426  -9.2367  -9.2301
    -9.2056  -9.2004  -9.1900  -9.1713  -9.1662  -9.1390  -9.1189  -9.1151
    -9.1011  -9.0828  -9.0727  -9.0595  -9.0264  -9.0118  -8.9807  -8.9740
    -8.9353  -8.9179  -8.8994  -8.8123   1.9440   1.9598   1.9815   1.9891
     1.9962   2.0082   2.0228   2.0311   2.0430   2.0548   2.0606   2.0745
     2.0769   2.0897   2.1043   2.1201   2.1205   2.1339   2.1378   2.1550
     2.1612   2.1842   2.1939   2.2103   2.2196   2.2255   2.2497   2.2546
     2.2799   2.2851   2.3073   2.3185   2.3207   2.3412   2.3529   2.3607
     2.3757   2.3815   2.3912   2.3960   2.4082   2.4144   2.4169   2.4342
     2.4523   2.4556   2.4723   2.4792   2.4809   2.4987   2.5058   2.5132
     2.5219   2.5400   2.5632   2.5708   2.5783   2.5908   2.5947   2.6067
     2.6198   2.6358   2.6479   2.6560   2.6651   2.6769   2.6895   2.6972
     2.7198   2.7301   2.7472   2.7477   2.7567   2.7714   2.7803   2.8038
     2.8225   2.8536   2.9111   2.9320   2.9406   2.9493   2.9641   2.9827
     3.0110   3.0343   3.0777   3.0848   3.1108   3.1255   3.1397   3.1676
     3.1925   3.2015   3.2051   3.2240   3.2489   3.2624   3.2681   3.2926
     3.3015   3.3121   3.3229   3.3397   3.3476   3.3633   3.3731   3.3787
     3.3934   3.3991   3.4135   3.4227   3.4312   3.4434   3.4486   3.4542
     3.4615   3.4744   3.4844   3.4923   3.5002   3.5021   3.5100   3.5155
     3.5168   3.5276   3.5315   3.5646   3.5672   3.5788   3.7137   3.7346
     3.7665   3.8493   3.8794   3.9174   3.9335   3.9422   3.9930   4.0147
     4.0482   4.0859   4.1077   4.1380   4.1472   4.1888   4.2041   4.2445
     4.2696   4.3241   4.3582   4.4338   4.4574   4.4846   4.5890   4.6055
     4.6245   4.7348   4.9934   5.0141   5.0685   5.0800   5.0988   5.1281
     5.1470   5.1802   5.2213   5.2360   5.2526   5.2599   5.3780   5.4256
     5.4464   5.5049   5.5227   5.5562   5.5720   5.5951   5.6131   5.6264
     5.6923   5.7018   5.7096   5.7390   5.7574   5.7717   5.8102   5.8559
     5.9081   5.9658   5.9762   6.0172   6.1009   6.1367   6.1450   6.1757
     6.2123   6.2215   6.2401   6.2511   6.2846   6.2872   6.2998   6.3262
     6.3594   6.4170   6.4283   6.4775   6.5256   6.5518   6.5682   6.5823
     6.6066   6.6201   6.6371   6.6554   6.6690   6.6875   6.6921   6.7139
     6.7340   6.7415   6.7564   6.8106   6.8494   6.8943   6.9392   6.9445
     6.9483   7.0791   7.1419   7.1828   7.2102   7.2220   7.2336   7.2676
     7.3258   7.3480  10.8020  10.8479  10.9136  10.9238  12.0383  12.1302
    12.1590  12.2752  13.3105  13.3590  13.4479  13.4753  13.4988  13.5946
    13.6368  13.6381  13.7086  13.7251  13.9344  13.9814  14.0178  14.1504
    14.2510  14.2829  14.3981  14.5249  14.5786  14.6066  14.7564  14.7684
    14.8001  14.8257  14.8539  14.8773  14.8863  14.9237  15.7022  15.7123
    15.9378  15.9510  15.9803  15.9865  16.0337  16.0830  16.1208  16.2685
    16.3367  16.3520  16.3956  16.4018  16.4230  16.4321  16.4372  16.4595
    16.6528  16.7577  16.8664  16.8735  17.1145  17.2586  17.2778  17.3843
    17.4288  17.5316  17.5422  17.6569  17.6814  17.7293  17.8673  17.9142
    17.9799  18.0216  18.1082  18.1736  18.2178  18.2788  18.5071  18.6705
    18.7481  18.7740  18.8049  18.9095  18.9595  19.0146

     occupation numbers 
     1.0000   1.0000   1.0000   1.0000   1.0000   1.0000   1.0000   1.0000
     1.0000   1.0000   1.0000   1.0000   1.0000   1.0000   1.0000   1.0000
     1.0000   1.0000   1.0000   1.0000   1.0000   1.0000   1.0000   1.0000
     1.0000   1.0000   1.0000   1.0000   1.0000   1.0000   1.0000   1.0000
     1.0000   1.0000   1.0000   1.0000   1.0000   1.0000   1.0000   1.0000
     1.0000   1.0000   1.0000   1.0000   1.0000   1.0000   1.0000   1.0000
     1.0000   1.0000   1.0000   1.0000   1.0000   1.0000   1.0000   1.0000
     1.0000   1.0000   1.0000   1.0000   1.0000   1.0000   1.0000   1.0000
     1.0000   1.0000   1.0000   1.0000   1.0000   1.0000   1.0000   1.0000
     1.0000   1.0000   1.0000   1.0000   1.0000   1.0000   1.0000   1.0000
     1.0000   1.0000   1.0000   1.0000   1.0000   1.0000   1.0000   1.0000
     1.0000   1.0000   1.0000   1.0000   1.0000   1.0000   1.0000   1.0000
     1.0000   1.0000   1.0000   1.0000   1.0000   1.0000   1.0000   1.0000
     1.0000   1.0000   1.0000   1.0000   1.0000   1.0000   1.0000   1.0000
     1.0000   1.0000   1.0000   1.0000   1.0000   1.0000   1.0000   1.0000
     1.0000   1.0000   1.0000   1.0000   1.0000   1.0000   1.0000   1.0000
     1.0000   1.0000   1.0000   1.0000   1.0000   1.0000   1.0000   1.0000
     1.0000   1.0000   1.0000   1.0000   1.0000   1.0000   1.0000   1.0000
     1.0000   1.0000   1.0000   1.0000   1.0000   1.0000   1.0000   1.0000
     1.0000   1.0000   1.0000   1.0000   1.0000   1.0000   1.0000   1.0000
     1.0000   1.0000   1.0000   1.0000   1.0000   1.0000   1.0000   1.0000
     1.0000   1.0000   1.0000   1.0000   1.0000   1.0000   1.0000   1.0000
     1.0000   1.0000   1.0000   1.0000   1.0000   1.0000   1.0000   1.0000
     1.0000   1.0000   1.0000   1.0000   1.0000   1.0000   1.0000   1.0000
     1.0000   1.0000   1.0000   1.0000   1.0000   1.0000   1.0000   1.0000
     1.0000   1.0000   1.0000   1.0000   1.0000   1.0000   1.0000   1.0000
     1.0000   1.0000   1.0000   1.0000   1.0000   1.0000   1.0000   1.0000
     1.0000   1.0000   1.0000   1.0000   1.0000   1.0000   1.0000   1.0000
     1.0000   1.0000   1.0000   1.0000   1.0000   1.0000   1.0000   1.0000
     1.0000   1.0000   1.0000   1.0000   1.0000   1.0000   1.0000   1.0000
     1.0000   1.0000   1.0000   1.0000   1.0000   1.0000   1.0000   1.0000
     1.0000   1.0000   1.0000   1.0000   1.0000   1.0000   1.0000   1.0000
     1.0000   1.0000   1.0000   1.0000   1.0000   1.0000   1.0000   1.0000
     1.0000   1.0000   1.0000   1.0000   1.0000   1.0000   1.0000   1.0000
     1.0000   1.0000   1.0000   1.0000   1.0000   1.0000   1.0000   1.0000
     1.0000   1.0000   1.0000   1.0000   1.0000   1.0000   1.0000   1.0000
     1.0000   1.0000   1.0000   1.0000   1.0000   1.0000   1.0000   1.0000
     1.0000   1.0000   1.0000   1.0000   1.0000   1.0000   1.0000   1.0000
     1.0000   1.0000   1.0000   1.0000   1.0000   1.0000   1.0000   1.0000
     1.0000   1.0000   1.0000   1.0000   1.0000   1.0000   1.0000   1.0000
     1.0000   1.0000   1.0000   1.0000   1.0000   1.0000   1.0000   1.0000
     1.0000   1.0000   1.0000   1.0000   1.0000   1.0000   1.0000   1.0000
     1.0000   1.0000   1.0000   1.0000   1.0000   1.0000   1.0000   1.0000
     1.0000   1.0000   1.0000   1.0000   1.0000   1.0000   1.0000   1.0000
     1.0000   1.0000   1.0000   1.0000   1.0000   1.0000   1.0000   1.0000
     1.0000   1.0000   1.0000   1.0000   1.0000   1.0000   1.0000   1.0000
     1.0000   1.0000   1.0000   1.0000   1.0000   1.0000   1.0000   1.0000
     1.0000   1.0000   1.0000   1.0000   1.0000   1.0000   1.0000   1.0000
     1.0000   1.0000   1.0000   1.0000   1.0000   1.0000   1.0000   1.0000
     1.0000   1.0000   1.0000   1.0000   1.0000   1.0000   1.0000   1.0000
     1.0000   1.0000   1.0000   1.0000   1.0000   1.0000   1.0000   1.0000
     1.0000   1.0000   1.0000   1.0000   1.0000   1.0000   1.0000   1.0000
     1.0000   1.0000   0.0000   0.0000   0.0000   0.0000   0.0000   0.0000
     0.0000   0.0000   0.0000   0.0000   0.0000   0.0000   0.0000   0.0000
     0.0000   0.0000   0.0000   0.0000   0.0000   0.0000   0.0000   0.0000
     0.0000   0.0000   0.0000   0.0000   0.0000   0.0000   0.0000   0.0000
     0.0000   0.0000   0.0000   0.0000   0.0000   0.0000   0.0000   0.0000
     0.0000   0.0000   0.0000   0.0000   0.0000   0.0000   0.0000   0.0000
     0.0000   0.0000   0.0000   0.0000   0.0000   0.0000   0.0000   0.0000
     0.0000   0.0000   0.0000   0.0000   0.0000   0.0000   0.0000   0.0000
     0.0000   0.0000   0.0000   0.0000   0.0000   0.0000   0.0000   0.0000
     0.0000   0.0000   0.0000   0.0000   0.0000   0.0000   0.0000   0.0000
     0.0000   0.0000   0.0000   0.0000   0.0000   0.0000

     the Fermi energy is     8.6459 ev

!    total energy              =  -14407.92799297 Ry
     Harris-Foulkes estimate   =  -14407.92799297 Ry
     estimated scf accuracy    <          4.0E-09 Ry

     The total energy is the sum of the following terms:

     one-electron contribution =  -12000.60151414 Ry
     hartree contribution      =    6298.77137749 Ry
     xc contribution           =   -1515.07792435 Ry
     ewald contribution        =   -7191.01993197 Ry
     smearing contrib. (-TS)   =       0.00000000 Ry

     convergence has been achieved in  12 iterations

     Writing output data file ZnO.save/
 
     init_run     :     14.44s CPU     15.18s WALL (       1 calls)
     electrons    :    670.24s CPU    684.24s WALL (       1 calls)

     Called by init_run:
     wfcinit      :     12.25s CPU     12.63s WALL (       1 calls)
     wfcinit:atom :      0.09s CPU      0.12s WALL (       5 calls)
     wfcinit:wfcr :     11.73s CPU     12.02s WALL (       5 calls)
     potinit      :      0.98s CPU      1.03s WALL (       1 calls)
     hinit0       :      0.75s CPU      0.99s WALL (       1 calls)

     Called by electrons:
     c_bands      :    617.55s CPU    630.22s WALL (      12 calls)
     sum_band     :     45.83s CPU     46.63s WALL (      12 calls)
     v_of_rho     :      5.31s CPU      5.55s WALL (      13 calls)
     v_h          :      0.14s CPU      0.19s WALL (      13 calls)
     v_xc         :      5.17s CPU      5.36s WALL (      13 calls)
     newd         :      1.37s CPU      1.45s WALL (      13 calls)
     mix_rho      :      0.33s CPU      0.43s WALL (      12 calls)

     Called by c_bands:
     init_us_2    :      4.24s CPU      4.27s WALL (     125 calls)
     cegterg      :    566.20s CPU    578.51s WALL (      60 calls)

     Called by sum_band:
     sum_band:bec :      0.25s CPU      0.26s WALL (      60 calls)
     addusdens    :      1.06s CPU      1.14s WALL (      12 calls)

     Called by *egterg:
     h_psi        :    200.04s CPU    203.18s WALL (     233 calls)
     s_psi        :     50.23s CPU     50.25s WALL (     233 calls)
     g_psi        :      0.82s CPU      0.82s WALL (     168 calls)
     cdiaghg      :    193.43s CPU    198.83s WALL (     228 calls)
     cegterg:over :     56.28s CPU     57.56s WALL (     168 calls)
     cegterg:upda :     36.28s CPU     36.73s WALL (     168 calls)
     cegterg:last :     21.16s CPU     21.22s WALL (      60 calls)
     cdiaghg:chol :      9.00s CPU      9.08s WALL (     228 calls)
     cdiaghg:inve :      2.83s CPU      2.84s WALL (     228 calls)
     cdiaghg:para :     46.69s CPU     50.92s WALL (     456 calls)

     Called by h_psi:
     h_psi:pot    :    198.29s CPU    200.36s WALL (     233 calls)
     h_psi:calbec :     51.55s CPU     52.88s WALL (     233 calls)
     vloc_psi     :     96.29s CPU     96.85s WALL (     233 calls)
     add_vuspsi   :     50.44s CPU     50.63s WALL (     233 calls)

     General routines
     calbec       :     71.95s CPU     73.85s WALL (     293 calls)
     fft          :      1.27s CPU      1.72s WALL (     167 calls)
     ffts         :      0.06s CPU      0.06s WALL (      25 calls)
     fftw         :    108.51s CPU    109.09s WALL (  179074 calls)
     interpolate  :      0.16s CPU      0.20s WALL (      13 calls)
 
     Parallel routines
     fft_scatt_xy :     17.82s CPU     17.91s WALL (  179266 calls)
     fft_scatt_yz :     30.55s CPU     31.12s WALL (  179266 calls)
 
     PWSCF        :  11m26.41s CPU  12m22.69s WALL

 
   This run was terminated on:   1:37:36  15Jul2022            

=------------------------------------------------------------------------------=
   JOB DONE.
=------------------------------------------------------------------------------=
