
     Program PWSCF v.6.4.1 starts on 15Jul2022 at  1:26:37 

     This program is part of the open-source Quantum ESPRESSO suite
     for quantum simulation of materials; please cite
         "P. Giannozzi et al., J. Phys.:Condens. Matter 21 395502 (2009);
         "P. Giannozzi et al., J. Phys.:Condens. Matter 29 465901 (2017);
          URL http://www.quantum-espresso.org", 
     in publications or presentations arising from this work. More details at
     http://www.quantum-espresso.org/quote

     Parallel version (MPI), running on   128 processors

     MPI processes distributed on     2 nodes
     K-points division:     npool     =       8
     R & G space division:  proc/nbgrp/npool/nimage =      16
     Waiting for input...
     Reading input from standard input
Warning: card &IONS ignored
Warning: card   UPSCALE           = 100.D0, ignored
Warning: card / ignored
Warning: card &CELL ignored
Warning: card   CELL_DYNAMICS     = 'BFGS' ignored
Warning: card   PRESS_CONV_THR    = 0.5D0 ignored
Warning: card   CELL_DOFREE = 'ALL' ignored
Warning: card / ignored

     Current dimensions of program PWSCF are:
     Max number of different atomic species (ntypx) = 10
     Max number of k-points (npk) =  40000
     Max angular momentum in pseudopotentials (lmaxx) =  3

     Subspace diagonalization in iterative solution of the eigenvalue problem:
     one sub-group per band group will be used
     scalapack distributed-memory algorithm (size of sub-group:  2*  2 procs)

 
     Parallelization info
     --------------------
     sticks:   dense  smooth     PW     G-vecs:    dense   smooth      PW
     Min         731     351     95                68644    22831    3279
     Max         732     352     96                68650    22833    3284
     Sum       11705    5623   1531              1098355   365309   52513
 


     bravais-lattice index     =            0
     lattice parameter (alat)  =      18.4233  a.u.
     unit-cell volume          =    5816.5298 (a.u.)^3
     number of atoms/cell      =           72
     number of atomic types    =            3
     number of electrons       =       796.00
     number of Kohn-Sham states=          478
     kinetic-energy cutoff     =      60.0000  Ry
     charge density cutoff     =     500.0000  Ry
     convergence threshold     =      1.0E-08
     mixing beta               =       0.5000
     number of iterations used =            8  plain     mixing
     Exchange-correlation      = SLA  PW   PSX  PSC ( 1  4 10  8 0 0)
     Using LIBXC version       =    4   3   4

     celldm(1)=  18.423338  celldm(2)=   0.000000  celldm(3)=   0.000000
     celldm(4)=   0.000000  celldm(5)=   0.000000  celldm(6)=   0.000000

     crystal axes: (cart. coord. in units of alat)
               a(1) = (   1.000000   0.000410  -0.000414 )  
               a(2) = (  -0.499644   0.866141   0.000428 )  
               a(3) = (  -0.000442   0.000273   1.073662 )  

     reciprocal axes: (cart. coord. in units 2 pi/alat)
               b(1) = (  0.999764  0.576725  0.000265 )  
               b(2) = ( -0.000473  1.154273 -0.000293 )  
               b(3) = (  0.000386 -0.000238  0.931392 )  


     PseudoPot. # 1 for Zn read from file:
     ./GBRV_PBEsol/zn_pbesol_v1.uspp.F.UPF
     MD5 check sum: 7d8615e52efe7c1e2b1899de8658bae2
     Pseudo is Ultrasoft, Zval = 20.0
     Generated by new atomic code, or converted to UPF format
     Using radial grid of  943 points,  6 beta functions with: 
                l(1) =   0
                l(2) =   0
                l(3) =   1
                l(4) =   1
                l(5) =   2
                l(6) =   2
     Q(r) pseudized with  8 coefficients,  rinner =    1.100   1.100   1.100
                                                       1.100   1.100

     PseudoPot. # 2 for O  read from file:
     ./GBRV_PBEsol/o_pbesol_v1.2.uspp.F.UPF
     MD5 check sum: 501638753501ef6325af9037351f7734
     Pseudo is Ultrasoft + core correction, Zval =  6.0
     Generated by new atomic code, or converted to UPF format
     Using radial grid of  737 points,  5 beta functions with: 
                l(1) =   0
                l(2) =   0
                l(3) =   1
                l(4) =   1
                l(5) =   2
     Q(r) pseudized with  8 coefficients,  rinner =    0.900   0.900   0.900
                                                       0.900   0.900

     PseudoPot. # 3 for Mg read from file:
     ./GBRV_PBEsol/mg_pbesol_v1.4.uspp.F.UPF
     MD5 check sum: 4059f37963cf5867752dbf5ab2400678
     Pseudo is Ultrasoft, Zval = 10.0
     Generated by new atomic code, or converted to UPF format
     Using radial grid of  821 points,  7 beta functions with: 
                l(1) =   0
                l(2) =   0
                l(3) =   0
                l(4) =   1
                l(5) =   1
                l(6) =   2
                l(7) =   2
     Q(r) pseudized with  8 coefficients,  rinner =    1.200   1.200   1.200
                                                       1.200   1.200

     atomic species   valence    mass     pseudopotential
        Zn            20.00    65.38000     Zn( 1.00)
        O              6.00    15.99900     O ( 1.00)
        Mg            10.00    24.30500     Mg( 1.00)

     No symmetry found


                                    s                        frac. trans.

      isym =  1     identity                                     

 cryst.   s( 1) = (     1          0          0      )
                  (     0          1          0      )
                  (     0          0          1      )

 cart.    s( 1) = (  1.0000000 -0.0000000 -0.0000000 )
                  ( -0.0000000  1.0000000 -0.0000000 )
                  ( -0.0000000  0.0000000  1.0000000 )


   Cartesian axes

     site n.     atom                  positions (alat units)
         1           Zn  tau(   1) = (   0.1664390   0.0971190   0.2081270  )
         2           Zn  tau(   2) = (   0.1675304   0.0961331   0.7454806  )
         3           Zn  tau(   3) = (   0.0017892   0.3861658   0.2086708  )
         4           Zn  tau(   4) = (  -0.0008998   0.3854395   0.7448641  )
         5           Zn  tau(   5) = (  -0.1663634   0.6733279   0.2066056  )
         6           Mg  tau(   6) = (  -0.1655758   0.6764252   0.7459885  )
         7           Zn  tau(   7) = (   0.5007639   0.0965169   0.2079532  )
         8           Zn  tau(   8) = (   0.4995231   0.0972512   0.7452417  )
         9           Mg  tau(   9) = (   0.3330142   0.3858436   0.2079230  )
        10           Mg  tau(  10) = (   0.3333152   0.3850904   0.7442554  )
        11           Mg  tau(  11) = (   0.1650918   0.6728529   0.2088017  )
        12           Zn  tau(  12) = (   0.1670526   0.6753302   0.7418738  )
        13           Mg  tau(  13) = (   0.8338830   0.0980314   0.2056835  )
        14           Mg  tau(  14) = (   0.8343118   0.0965176   0.7433242  )
        15           Zn  tau(  15) = (   0.6668490   0.3855689   0.2057221  )
        16           Mg  tau(  16) = (   0.6659130   0.3867011   0.7471564  )
        17           Zn  tau(  17) = (   0.4980916   0.6739591   0.2082591  )
        18           Zn  tau(  18) = (   0.5013832   0.6742515   0.7446325  )
        19           Zn  tau(  19) = (  -0.0016974   0.1929043   0.4772369  )
        20           Zn  tau(  20) = (   0.0003269   0.1923125   1.0132025  )
        21           Mg  tau(  21) = (  -0.1687843   0.4818761   0.4763857  )
        22           Zn  tau(  22) = (  -0.1651520   0.4811756   1.0119562  )
        23           Zn  tau(  23) = (  -0.3317759   0.7696731   0.4760957  )
        24           Mg  tau(  24) = (  -0.3349488   0.7694066   1.0159795  )
        25           Zn  tau(  25) = (   0.3328030   0.1920601   0.4754733  )
        26           Mg  tau(  26) = (   0.3330441   0.1924393   1.0138775  )
        27           Mg  tau(  27) = (   0.1653562   0.4794953   0.4772803  )
        28           Zn  tau(  28) = (   0.1661532   0.4823979   1.0112177  )
        29           Zn  tau(  29) = (  -0.0017318   0.7704703   0.4769966  )
        30           Zn  tau(  30) = (   0.0019919   0.7695015   1.0136618  )
        31           Mg  tau(  31) = (   0.6647005   0.1943345   0.4761018  )
        32           Zn  tau(  32) = (   0.6672411   0.1914985   1.0109060  )
        33           Zn  tau(  33) = (   0.5018150   0.4803514   0.4768709  )
        34           Zn  tau(  34) = (   0.4981890   0.4826880   1.0130498  )
        35           Mg  tau(  35) = (   0.3350929   0.7707826   0.4755342  )
        36           Mg  tau(  36) = (   0.3318386   0.7680723   1.0113026  )
        37           O   tau(  37) = (   0.1673438   0.0955993   0.0039629  )
        38           O   tau(  38) = (   0.1658736   0.0962575   0.5408142  )
        39           O   tau(  39) = (   0.0008664   0.3845958   0.0040857  )
        40           O   tau(  40) = (  -0.0019185   0.3856384   0.5403486  )
        41           O   tau(  41) = (  -0.1660838   0.6737527   0.0023771  )
        42           O   tau(  42) = (  -0.1666821   0.6732902   0.5426778  )
        43           O   tau(  43) = (   0.5006951   0.0962261   0.0035240  )
        44           O   tau(  44) = (   0.4992844   0.0966201   0.5406659  )
        45           O   tau(  45) = (   0.3328414   0.3844755   0.0039623  )
        46           O   tau(  46) = (   0.3330566   0.3850631   0.5405024  )
        47           O   tau(  47) = (   0.1673914   0.6729729   0.0054715  )
        48           O   tau(  48) = (   0.1674820   0.6735592   0.5373672  )
        49           O   tau(  49) = (   0.8339240   0.0944659   0.0018659  )
        50           O   tau(  50) = (   0.8312503   0.0965305   0.5395831  )
        51           O   tau(  51) = (   0.6670671   0.3849259   0.0011896  )
        52           O   tau(  52) = (   0.6672273   0.3850311   0.5432428  )
        53           O   tau(  53) = (   0.4989450   0.6740995   0.0039386  )
        54           O   tau(  54) = (   0.5009218   0.6738997   0.5401215  )
        55           O   tau(  55) = (  -0.0001974   0.1931349   0.2724494  )
        56           O   tau(  56) = (   0.0001811   0.1928590   0.8088505  )
        57           O   tau(  57) = (  -0.1666077   0.4811886   0.2726670  )
        58           O   tau(  58) = (  -0.1671269   0.4832363   0.8077578  )
        59           O   tau(  59) = (  -0.3336152   0.7696761   0.2714162  )
        60           O   tau(  60) = (  -0.3326590   0.7702422   0.8120946  )
        61           O   tau(  61) = (   0.3336585   0.1932357   0.2709165  )
        62           O   tau(  62) = (   0.3333647   0.1935993   0.8105655  )
        63           O   tau(  63) = (   0.1677528   0.4817598   0.2740896  )
        64           O   tau(  64) = (   0.1666592   0.4821801   0.8067363  )
        65           O   tau(  65) = (  -0.0006459   0.7701412   0.2725097  )
        66           O   tau(  66) = (   0.0013575   0.7710535   0.8094387  )
        67           O   tau(  67) = (   0.6674436   0.1932839   0.2724509  )
        68           O   tau(  68) = (   0.6677153   0.1933384   0.8065288  )
        69           O   tau(  69) = (   0.5001615   0.4812500   0.2721039  )
        70           O   tau(  70) = (   0.4989520   0.4816788   0.8089126  )
        71           O   tau(  71) = (   0.3314262   0.7716152   0.2714341  )
        72           O   tau(  72) = (   0.3338921   0.7706956   0.8077863  )

   Crystallographic axes

     site n.     atom                  positions (cryst. coord.)
         1           Zn  tau(   1) = (  0.2224658  0.1119620  0.1938888  )
         2           Zn  tau(   2) = (  0.2231306  0.1106659  0.6943762  )
         3           Zn  tau(   3) = (  0.2245555  0.4456788  0.1942631  )
         4           Zn  tau(   4) = (  0.2215903  0.4446843  0.6936683  )
         5           Zn  tau(   5) = (  0.2220556  0.7772223  0.1922066  )
         6           Mg  tau(   6) = (  0.2247722  0.7806389  0.6945829  )
         7           Zn  tau(   7) = (  0.5563646  0.1111090  0.1938560  )
         8           Zn  tau(   8) = (  0.5556898  0.1117995  0.6942814  )
         9           Mg  tau(   9) = (  0.5555163  0.4451503  0.1936944  )
        10           Mg  tau(  10) = (  0.5555248  0.4441234  0.6932303  )
        11           Mg  tau(  11) = (  0.5531593  0.7765166  0.1943799  )
        12           Zn  tau(  12) = (  0.5566894  0.7792188  0.6908790  )
        13           Mg  tau(  13) = (  0.8902778  0.1127002  0.1918701  )
        14           Mg  tau(  14) = (  0.8899759  0.1107950  0.6926247  )
        15           Zn  tau(  15) = (  0.8891134  0.4446760  0.1917733  )
        16           Mg  tau(  16) = (  0.8889739  0.4458245  0.6960600  )
        17           Zn  tau(  17) = (  0.8867183  0.7776362  0.1940026  )
        18           Zn  tau(  18) = (  0.8903198  0.7778148  0.6935776  )
        19           Zn  tau(  19) = (  0.1096822  0.2225251  0.4444480  )
        20           Zn  tau(  20) = (  0.1115066  0.2216838  0.9436429  )
        21           Mg  tau(  21) = (  0.1092917  0.5561567  0.4435221  )
        22           Zn  tau(  22) = (  0.1126610  0.5551893  0.9423496  )
        23           Zn  tau(  23) = (  0.1123182  0.8884302  0.4431208  )
        24           Mg  tau(  24) = (  0.1091354  0.8879657  0.9459629  )
        25           Zn  tau(  25) = (  0.4436162  0.2213929  0.4429345  )
        26           Mg  tau(  26) = (  0.4442185  0.2216726  0.9443998  )
        27           Mg  tau(  27) = (  0.4419805  0.5532503  0.4444847  )
        28           Zn  tau(  28) = (  0.4445927  0.5564437  0.9417892  )
        29           Zn  tau(  29) = (  0.4427444  0.8891940  0.4440869  )
        30           Zn  tau(  30) = (  0.4460507  0.8879166  0.9439341  )
        31           Mg  tau(  31) = (  0.7767473  0.2238611  0.4436473  )
        32           Zn  tau(  32) = (  0.7777933  0.2204294  0.9417612  )
        33           Zn  tau(  33) = (  0.7788536  0.5540795  0.4442329  )
        34           Zn  tau(  34) = (  0.7767179  0.5566209  0.9436235  )
        35           Mg  tau(  35) = (  0.7796693  0.8893956  0.4428546  )
        36           Mg  tau(  36) = (  0.7749947  0.8861116  0.9418643  )
        37           O   tau(  37) = (  0.2224399  0.1102674  0.0037328  )
        38           O   tau(  38) = (  0.2214918  0.1108704  0.5037510  )
        39           O   tau(  39) = (  0.2226734  0.4439270  0.0037143  )
        40           O   tau(  40) = (  0.2206323  0.4449744  0.5031838  )
        41           O   tau(  41) = (  0.2225261  0.7777724  0.0019898  )
        42           O   tau(  42) = (  0.2218042  0.7770804  0.5052213  )
        43           O   tau(  43) = (  0.5560738  0.1108333  0.0034524  )
        44           O   tau(  44) = (  0.5550329  0.1111312  0.5037412  )
        45           O   tau(  45) = (  0.5545005  0.4436310  0.0037274  )
        46           O   tau(  46) = (  0.5551966  0.4441518  0.5034563  )
        47           O   tau(  47) = (  0.5554737  0.7767137  0.0050006  )
        48           O   tau(  48) = (  0.5560432  0.7772343  0.5004038  )
        49           O   tau(  49) = (  0.8882085  0.1086444  0.0020369  )
        50           O   tau(  50) = (  0.8868685  0.1108710  0.5028608  )
        51           O   tau(  51) = (  0.8889064  0.4439937  0.0012736  )
        52           O   tau(  52) = (  0.8892708  0.4439560  0.5061375  )
        53           O   tau(  53) = (  0.8875984  0.7778577  0.0037005  )
        54           O   tau(  54) = (  0.8896014  0.7774689  0.5030976  )
        55           O   tau(  55) = (  0.1112605  0.2228506  0.2537111  )
        56           O   tau(  56) = (  0.1116219  0.2223747  0.7533109  )
        57           O   tau(  57) = (  0.1110174  0.5554219  0.2537812  )
        58           O   tau(  58) = (  0.1118209  0.5576287  0.7521596  )
        59           O   tau(  59) = (  0.1104268  0.8884946  0.2524832  )
        60           O   tau(  60) = (  0.1118525  0.8889889  0.7560669  )
        61           O   tau(  61) = (  0.4450954  0.2228095  0.2524121  )
        62           O   tau(  62) = (  0.4451542  0.2230710  0.7550365  )
        63           O   tau(  63) = (  0.4456288  0.5559226  0.2552349  )
        64           O   tau(  64) = (  0.4449188  0.5562521  0.7513371  )
        65           O   tau(  65) = (  0.4435861  0.8888736  0.2536299  )
        66           O   tau(  66) = (  0.4462574  0.8897681  0.7537218  )
        67           O   tau(  67) = (  0.7788299  0.2227067  0.2539699  )
        68           O   tau(  68) = (  0.7792744  0.2226129  0.7514057  )
        69           O   tau(  69) = (  0.7776644  0.5551775  0.2535137  )
        70           O   tau(  70) = (  0.7768447  0.5555155  0.7534924  )
        71           O   tau(  71) = (  0.7764296  0.8904182  0.2527558  )
        72           O   tau(  72) = (  0.7785066  0.8891982  0.7523110  )

     number of k points=    36  Marzari-Vanderbilt smearing, width (Ry)=  0.0010
                       cart. coord. in units 2pi/alat
        k(    1) = (   0.0000000   0.0000000   0.0000000), wk =   0.0312500
        k(    2) = (   0.0000964  -0.0000594   0.2328479), wk =   0.0625000
        k(    3) = (  -0.0001928   0.0001189  -0.4656959), wk =   0.0312500
        k(    4) = (  -0.0001183   0.2885683  -0.0000733), wk =   0.0625000
        k(    5) = (  -0.0000219   0.2885088   0.2327746), wk =   0.0625000
        k(    6) = (  -0.0003110   0.2886871  -0.4657692), wk =   0.0625000
        k(    7) = (  -0.0002146   0.2886277  -0.2329213), wk =   0.0625000
        k(    8) = (   0.0002365  -0.5771365   0.0001467), wk =   0.0312500
        k(    9) = (   0.0003329  -0.5771959   0.2329946), wk =   0.0625000
        k(   10) = (   0.0000438  -0.5770177  -0.4655492), wk =   0.0312500
        k(   11) = (   0.2499410   0.1441813   0.0000662), wk =   0.0625000
        k(   12) = (   0.2500374   0.1441218   0.2329141), wk =   0.0625000
        k(   13) = (   0.2497482   0.1443001  -0.4656297), wk =   0.0625000
        k(   14) = (   0.2498446   0.1442407  -0.2327817), wk =   0.0625000
        k(   15) = (   0.2498227   0.4327495  -0.0000071), wk =   0.0625000
        k(   16) = (   0.2499191   0.4326901   0.2328408), wk =   0.0625000
        k(   17) = (   0.2496300   0.4328684  -0.4657030), wk =   0.0625000
        k(   18) = (   0.2497264   0.4328089  -0.2328551), wk =   0.0625000
        k(   19) = (   0.2501775  -0.4329553   0.0002129), wk =   0.0625000
        k(   20) = (   0.2502739  -0.4330147   0.2330608), wk =   0.0625000
        k(   21) = (   0.2499848  -0.4328364  -0.4654830), wk =   0.0625000
        k(   22) = (   0.2500811  -0.4328958  -0.2326351), wk =   0.0625000
        k(   23) = (   0.2500593  -0.1443870   0.0001395), wk =   0.0625000
        k(   24) = (   0.2501556  -0.1444464   0.2329875), wk =   0.0625000
        k(   25) = (   0.2498665  -0.1442681  -0.4655563), wk =   0.0625000
        k(   26) = (   0.2499629  -0.1443276  -0.2327084), wk =   0.0625000
        k(   27) = (  -0.4998820  -0.2883625  -0.0001324), wk =   0.0312500
        k(   28) = (  -0.4997856  -0.2884219   0.2327155), wk =   0.0625000
        k(   29) = (  -0.5000747  -0.2882437  -0.4658283), wk =   0.0312500
        k(   30) = (  -0.5000003   0.0002057  -0.0002057), wk =   0.0625000
        k(   31) = (  -0.4999039   0.0001463   0.2326422), wk =   0.0625000
        k(   32) = (  -0.5001930   0.0003246  -0.4659016), wk =   0.0625000
        k(   33) = (  -0.5000966   0.0002652  -0.2330537), wk =   0.0625000
        k(   34) = (  -0.4996455  -0.8654990   0.0000143), wk =   0.0312500
        k(   35) = (  -0.4995491  -0.8655585   0.2328622), wk =   0.0625000
        k(   36) = (  -0.4998382  -0.8653802  -0.4656816), wk =   0.0312500

                       cryst. coord.
        k(    1) = (   0.0000000   0.0000000   0.0000000), wk =   0.0312500
        k(    2) = (   0.0000000  -0.0000000   0.2500000), wk =   0.0625000
        k(    3) = (  -0.0000000   0.0000000  -0.5000000), wk =   0.0312500
        k(    4) = (   0.0000000   0.2500000   0.0000000), wk =   0.0625000
        k(    5) = (   0.0000000   0.2500000   0.2500000), wk =   0.0625000
        k(    6) = (  -0.0000000   0.2500000  -0.5000000), wk =   0.0625000
        k(    7) = (   0.0000000   0.2500000  -0.2500000), wk =   0.0625000
        k(    8) = (  -0.0000000  -0.5000000  -0.0000000), wk =   0.0312500
        k(    9) = (   0.0000000  -0.5000000   0.2500000), wk =   0.0625000
        k(   10) = (  -0.0000000  -0.5000000  -0.5000000), wk =   0.0312500
        k(   11) = (   0.2500000  -0.0000000  -0.0000000), wk =   0.0625000
        k(   12) = (   0.2500000  -0.0000000   0.2500000), wk =   0.0625000
        k(   13) = (   0.2500000  -0.0000000  -0.5000000), wk =   0.0625000
        k(   14) = (   0.2500000  -0.0000000  -0.2500000), wk =   0.0625000
        k(   15) = (   0.2500000   0.2500000   0.0000000), wk =   0.0625000
        k(   16) = (   0.2500000   0.2500000   0.2500000), wk =   0.0625000
        k(   17) = (   0.2500000   0.2500000  -0.5000000), wk =   0.0625000
        k(   18) = (   0.2500000   0.2500000  -0.2500000), wk =   0.0625000
        k(   19) = (   0.2500000  -0.5000000  -0.0000000), wk =   0.0625000
        k(   20) = (   0.2500000  -0.5000000   0.2500000), wk =   0.0625000
        k(   21) = (   0.2500000  -0.5000000  -0.5000000), wk =   0.0625000
        k(   22) = (   0.2500000  -0.5000000  -0.2500000), wk =   0.0625000
        k(   23) = (   0.2500000  -0.2500000  -0.0000000), wk =   0.0625000
        k(   24) = (   0.2500000  -0.2500000   0.2500000), wk =   0.0625000
        k(   25) = (   0.2500000  -0.2500000  -0.5000000), wk =   0.0625000
        k(   26) = (   0.2500000  -0.2500000  -0.2500000), wk =   0.0625000
        k(   27) = (  -0.5000000   0.0000000   0.0000000), wk =   0.0312500
        k(   28) = (  -0.5000000   0.0000000   0.2500000), wk =   0.0625000
        k(   29) = (  -0.5000000   0.0000000  -0.5000000), wk =   0.0312500
        k(   30) = (  -0.5000000   0.2500000   0.0000000), wk =   0.0625000
        k(   31) = (  -0.5000000   0.2500000   0.2500000), wk =   0.0625000
        k(   32) = (  -0.5000000   0.2500000  -0.5000000), wk =   0.0625000
        k(   33) = (  -0.5000000   0.2500000  -0.2500000), wk =   0.0625000
        k(   34) = (  -0.5000000  -0.5000000  -0.0000000), wk =   0.0312500
        k(   35) = (  -0.5000000  -0.5000000   0.2500000), wk =   0.0625000
        k(   36) = (  -0.5000000  -0.5000000  -0.5000000), wk =   0.0312500

     Dense  grid:  1098355 G-vectors     FFT dimensions: ( 135, 135, 144)

     Smooth grid:   365309 G-vectors     FFT dimensions: (  96,  96, 100)

     Dynamical RAM for                 wfc:      20.81 MB

     Dynamical RAM for     wfc (w. buffer):     124.85 MB

     Dynamical RAM for           str. fact:       3.14 MB

     Dynamical RAM for           local pot:       0.00 MB

     Dynamical RAM for          nlocal pot:      49.19 MB

     Dynamical RAM for                qrad:      21.02 MB

     Dynamical RAM for          rho,v,vnew:       6.90 MB

     Dynamical RAM for               rhoin:       2.30 MB

     Dynamical RAM for            rho*nmix:      16.76 MB

     Dynamical RAM for           G-vectors:       4.10 MB

     Dynamical RAM for          h,s,v(r/c):      41.84 MB

     Dynamical RAM for          <psi|beta>:       8.24 MB

     Dynamical RAM for                 psi:      83.24 MB

     Dynamical RAM for                hpsi:      83.24 MB

     Dynamical RAM for                spsi:      83.24 MB

     Dynamical RAM for      wfcinit/wfcrot:      49.26 MB

     Dynamical RAM for           addusdens:      32.47 MB

     Estimated static dynamical RAM per process >     238.71 MB

     Estimated max dynamical RAM per process >     538.50 MB

     Estimated total dynamical RAM >      67.31 GB

     Check: negative core charge=   -0.000002

     Initial potential from superposition of free atoms

     starting charge  791.79390, renormalised to  796.00000
     Starting wfcs are  500 randomized atomic wfcs

     total cpu time spent up to now is       15.7 secs

     Self-consistent Calculation

     iteration #  1     ecut=    60.00 Ry     beta= 0.50
     Davidson diagonalization with overlap
     ethr =  1.00E-02,  avg # of iterations =  4.4

     total cpu time spent up to now is       76.1 secs

     total energy              =  -13055.46231867 Ry
     Harris-Foulkes estimate   =  -13069.84351946 Ry
     estimated scf accuracy    <      21.49964517 Ry

     iteration #  2     ecut=    60.00 Ry     beta= 0.50
     Davidson diagonalization with overlap
     ethr =  2.70E-03,  avg # of iterations =  3.3

     total cpu time spent up to now is      146.7 secs

     total energy              =  -13061.94770312 Ry
     Harris-Foulkes estimate   =  -13067.22690121 Ry
     estimated scf accuracy    <      12.14240958 Ry

     iteration #  3     ecut=    60.00 Ry     beta= 0.50
     Davidson diagonalization with overlap
     ethr =  1.53E-03,  avg # of iterations =  2.0

     total cpu time spent up to now is      192.9 secs

     total energy              =  -13064.09151877 Ry
     Harris-Foulkes estimate   =  -13064.16937803 Ry
     estimated scf accuracy    <       0.21251002 Ry

     iteration #  4     ecut=    60.00 Ry     beta= 0.50
     Davidson diagonalization with overlap
     ethr =  2.67E-05,  avg # of iterations =  5.4

     total cpu time spent up to now is      278.6 secs

     total energy              =  -13064.11000818 Ry
     Harris-Foulkes estimate   =  -13064.15664609 Ry
     estimated scf accuracy    <       0.13491760 Ry

     iteration #  5     ecut=    60.00 Ry     beta= 0.50
     Davidson diagonalization with overlap
     ethr =  1.69E-05,  avg # of iterations =  4.6

     total cpu time spent up to now is      343.0 secs

     total energy              =  -13064.12969594 Ry
     Harris-Foulkes estimate   =  -13064.13012607 Ry
     estimated scf accuracy    <       0.00256323 Ry

     iteration #  6     ecut=    60.00 Ry     beta= 0.50
     Davidson diagonalization with overlap
     ethr =  3.22E-07,  avg # of iterations =  6.1

     total cpu time spent up to now is      447.8 secs

     total energy              =  -13064.13011016 Ry
     Harris-Foulkes estimate   =  -13064.13026575 Ry
     estimated scf accuracy    <       0.00061521 Ry

     iteration #  7     ecut=    60.00 Ry     beta= 0.50
     Davidson diagonalization with overlap
     ethr =  7.73E-08,  avg # of iterations =  2.0

     total cpu time spent up to now is      490.1 secs

     total energy              =  -13064.13024192 Ry
     Harris-Foulkes estimate   =  -13064.13026642 Ry
     estimated scf accuracy    <       0.00014709 Ry

     iteration #  8     ecut=    60.00 Ry     beta= 0.50
     Davidson diagonalization with overlap
     ethr =  1.85E-08,  avg # of iterations =  2.0

     total cpu time spent up to now is      531.2 secs

     total energy              =  -13064.13027243 Ry
     Harris-Foulkes estimate   =  -13064.13026912 Ry
     estimated scf accuracy    <       0.00001376 Ry

     iteration #  9     ecut=    60.00 Ry     beta= 0.50
     Davidson diagonalization with overlap
     ethr =  1.73E-09,  avg # of iterations =  2.0

     total cpu time spent up to now is      573.4 secs

     total energy              =  -13064.13027461 Ry
     Harris-Foulkes estimate   =  -13064.13027463 Ry
     estimated scf accuracy    <       0.00000204 Ry

     iteration # 10     ecut=    60.00 Ry     beta= 0.50
     Davidson diagonalization with overlap
     ethr =  2.56E-10,  avg # of iterations =  2.0

     total cpu time spent up to now is      616.2 secs

     total energy              =  -13064.13027508 Ry
     Harris-Foulkes estimate   =  -13064.13027512 Ry
     estimated scf accuracy    <       0.00000050 Ry

     iteration # 11     ecut=    60.00 Ry     beta= 0.50
     Davidson diagonalization with overlap
     ethr =  6.23E-11,  avg # of iterations =  2.0

     total cpu time spent up to now is      657.9 secs

     total energy              =  -13064.13027517 Ry
     Harris-Foulkes estimate   =  -13064.13027517 Ry
     estimated scf accuracy    <       0.00000003 Ry

     iteration # 12     ecut=    60.00 Ry     beta= 0.50
     Davidson diagonalization with overlap
     ethr =  3.56E-12,  avg # of iterations =  2.0

     total cpu time spent up to now is      705.7 secs

     End of self-consistent calculation

          k = 0.0000 0.0000 0.0000 ( 45663 PWs)   bands (ev):

  -115.7035-115.7033-115.6953-115.6941-115.6908-115.6907-115.6876-115.6872
  -115.6871-115.6865-115.6861-115.6857-115.6847-115.6847-115.6824-115.6821
  -115.6817-115.6806-115.6803-115.6802-115.6795-115.6686 -70.0620 -70.0605
   -70.0588 -70.0583 -70.0577 -70.0568 -70.0531 -70.0528 -70.0526 -70.0506
   -70.0498 -70.0495 -70.0476 -70.0474 -70.0466 -70.0464 -70.0464 -70.0462
   -70.0460 -70.0454 -70.0449 -70.0447 -70.0443 -70.0440 -70.0436 -70.0435
   -70.0430 -70.0429 -70.0429 -70.0427 -70.0426 -70.0426 -70.0419 -70.0418
   -70.0417 -70.0409 -70.0405 -70.0404 -70.0402 -70.0401 -70.0395 -70.0394
   -70.0391 -70.0390 -70.0388 -70.0383 -70.0380 -70.0378 -70.0370 -70.0369
   -70.0368 -70.0362 -70.0358 -70.0358 -70.0357 -70.0355 -70.0345 -70.0341
   -70.0330 -70.0329 -70.0329 -70.0325 -70.0278 -70.0274 -70.0249 -70.0216
   -65.1746 -65.1740 -65.1723 -65.1668 -65.1627 -65.1620 -65.1610 -65.1538
   -65.1521 -65.1515 -65.1417 -65.1347 -65.1278 -65.1191 -32.1649 -32.1644
   -32.1625 -32.1617 -32.1613 -32.1593 -32.1591 -32.1567 -32.1560 -32.1554
   -32.1553 -32.1527 -32.1519 -32.1501 -32.1487 -32.1482 -32.1476 -32.1471
   -32.1451 -32.1445 -32.1442 -32.1409 -32.1400 -32.1392 -32.1387 -32.1383
   -32.1367 -32.1363 -32.1337 -32.1317 -32.1276 -32.1252 -32.1231 -32.1226
   -32.1202 -32.1176 -32.1133 -32.1110 -32.1091 -32.1056 -32.1036 -32.1025
   -10.2590  -9.9676  -9.9186  -9.8571  -9.8107  -9.7925  -9.7644  -9.7391
    -9.6738  -9.6409  -9.6330  -9.6198  -9.6090  -9.5718  -9.5683  -9.5442
    -9.5192  -9.4925  -9.4810  -9.4562  -9.4538  -9.4205  -9.4040  -9.3772
    -9.3572  -9.3460  -9.3330  -9.3170  -9.3100  -9.2969  -9.2907  -9.2701
    -9.1959  -9.1837  -9.1537  -9.1123   1.5510   1.5582   1.5764   1.5942
     1.6012   1.6181   1.6368   1.6470   1.6810   1.6859   1.7045   1.7307
     1.7428   1.7658   1.7988   1.8162   1.8291   1.8438   1.8663   1.8799
     1.9044   1.9173   1.9383   1.9657   1.9701   1.9762   1.9967   2.0032
     2.0146   2.0297   2.0518   2.0555   2.0695   2.0791   2.0946   2.0992
     2.1071   2.1224   2.1244   2.1399   2.1435   2.1660   2.1667   2.1860
     2.1935   2.2116   2.2153   2.2269   2.2322   2.2480   2.2576   2.2731
     2.2807   2.3125   2.3360   2.3587   2.3913   2.4081   2.4108   2.4314
     2.4448   2.4839   2.4940   2.4978   2.5224   2.5429   2.5515   2.5649
     2.5876   2.6003   2.6089   2.6143   2.6354   2.6429   2.6461   2.6582
     2.6821   2.6973   2.6994   2.7176   2.7300   2.7456   2.7528   2.7789
     2.8080   2.8162   2.8212   2.8395   2.8598   2.8744   2.8907   2.9000
     2.9235   2.9294   2.9509   2.9516   2.9579   2.9713   2.9771   2.9884
     2.9980   3.0026   3.0252   3.0349   3.0447   3.0582   3.0644   3.1062
     3.1259   3.1346   3.1827   3.2455   3.3249   3.3851   3.4286   3.4483
     3.5066   3.5290   3.5418   3.5814   3.5908   3.6286   3.6523   3.6775
     3.7014   3.7319   3.7775   3.7968   3.8092   3.8545   3.9259   3.9632
     4.0063   4.0138   4.0491   4.0763   4.1249   4.1941   4.3041   4.3083
     4.3538   4.3705   4.4290   4.4555   4.4958   4.5587   4.5610   4.5799
     4.6073   4.6781   4.7399   4.7587   4.7906   4.9241   4.9490   5.1290
     5.1499   5.2043   5.2367   5.2602   5.2879   5.3606   5.4128   5.4232
     5.4660   5.4775   5.5113   5.5184   5.5327   5.5467   5.5766   5.5903
     5.5974   5.6852   5.7102   5.7577   5.8006   5.8185   5.8436   5.8740
     5.8894   5.9033   5.9549   6.0145   6.0154   6.0356   6.0683   6.0772
     6.0866   6.1016   6.1114   6.1327   6.1405   6.1527   6.1613   6.1703
     6.1924   6.2019   6.3141   6.3236   6.3639   6.3905   6.4078   6.4422
     6.4550   6.4634   6.5038   6.5152   6.5694   6.5927   6.6424   6.7374
     6.7387   6.7812   6.8546   7.0044   7.0281   7.0503   8.6780  11.1224
    11.1641  11.7397  11.7914  11.9162  11.9920  12.1036  12.2809  12.6556
    12.6584  12.6763  12.6817  12.7469  12.7887  12.9131  12.9416  13.0467
    13.0523  13.1710  13.2390  13.3929  14.6447  14.6552  14.7729  14.7773
    14.8605  14.8888  14.9388  14.9547  15.0372  15.0522  15.0545  15.0848
    15.1392  15.1456  15.1557  15.1768  15.2072  15.3065  15.3244  15.3547
    15.4304  15.4900  15.5296  15.5763  15.6455  15.7368  15.7810  15.8831
    15.9559  16.0690  16.0932  16.1194  16.1659  16.1756  16.1809  16.1917
    16.2067  16.3355  16.6265  16.7205  16.7295  16.8829  17.0665  17.1384
    17.1642  17.2460  17.4303  17.4408  17.4768  17.6866  17.9329  17.9697
    18.0273  18.0788  18.1682  18.2705  18.3942  18.4933

     occupation numbers 
     1.0000   1.0000   1.0000   1.0000   1.0000   1.0000   1.0000   1.0000
     1.0000   1.0000   1.0000   1.0000   1.0000   1.0000   1.0000   1.0000
     1.0000   1.0000   1.0000   1.0000   1.0000   1.0000   1.0000   1.0000
     1.0000   1.0000   1.0000   1.0000   1.0000   1.0000   1.0000   1.0000
     1.0000   1.0000   1.0000   1.0000   1.0000   1.0000   1.0000   1.0000
     1.0000   1.0000   1.0000   1.0000   1.0000   1.0000   1.0000   1.0000
     1.0000   1.0000   1.0000   1.0000   1.0000   1.0000   1.0000   1.0000
     1.0000   1.0000   1.0000   1.0000   1.0000   1.0000   1.0000   1.0000
     1.0000   1.0000   1.0000   1.0000   1.0000   1.0000   1.0000   1.0000
     1.0000   1.0000   1.0000   1.0000   1.0000   1.0000   1.0000   1.0000
     1.0000   1.0000   1.0000   1.0000   1.0000   1.0000   1.0000   1.0000
     1.0000   1.0000   1.0000   1.0000   1.0000   1.0000   1.0000   1.0000
     1.0000   1.0000   1.0000   1.0000   1.0000   1.0000   1.0000   1.0000
     1.0000   1.0000   1.0000   1.0000   1.0000   1.0000   1.0000   1.0000
     1.0000   1.0000   1.0000   1.0000   1.0000   1.0000   1.0000   1.0000
     1.0000   1.0000   1.0000   1.0000   1.0000   1.0000   1.0000   1.0000
     1.0000   1.0000   1.0000   1.0000   1.0000   1.0000   1.0000   1.0000
     1.0000   1.0000   1.0000   1.0000   1.0000   1.0000   1.0000   1.0000
     1.0000   1.0000   1.0000   1.0000   1.0000   1.0000   1.0000   1.0000
     1.0000   1.0000   1.0000   1.0000   1.0000   1.0000   1.0000   1.0000
     1.0000   1.0000   1.0000   1.0000   1.0000   1.0000   1.0000   1.0000
     1.0000   1.0000   1.0000   1.0000   1.0000   1.0000   1.0000   1.0000
     1.0000   1.0000   1.0000   1.0000   1.0000   1.0000   1.0000   1.0000
     1.0000   1.0000   1.0000   1.0000   1.0000   1.0000   1.0000   1.0000
     1.0000   1.0000   1.0000   1.0000   1.0000   1.0000   1.0000   1.0000
     1.0000   1.0000   1.0000   1.0000   1.0000   1.0000   1.0000   1.0000
     1.0000   1.0000   1.0000   1.0000   1.0000   1.0000   1.0000   1.0000
     1.0000   1.0000   1.0000   1.0000   1.0000   1.0000   1.0000   1.0000
     1.0000   1.0000   1.0000   1.0000   1.0000   1.0000   1.0000   1.0000
     1.0000   1.0000   1.0000   1.0000   1.0000   1.0000   1.0000   1.0000
     1.0000   1.0000   1.0000   1.0000   1.0000   1.0000   1.0000   1.0000
     1.0000   1.0000   1.0000   1.0000   1.0000   1.0000   1.0000   1.0000
     1.0000   1.0000   1.0000   1.0000   1.0000   1.0000   1.0000   1.0000
     1.0000   1.0000   1.0000   1.0000   1.0000   1.0000   1.0000   1.0000
     1.0000   1.0000   1.0000   1.0000   1.0000   1.0000   1.0000   1.0000
     1.0000   1.0000   1.0000   1.0000   1.0000   1.0000   1.0000   1.0000
     1.0000   1.0000   1.0000   1.0000   1.0000   1.0000   1.0000   1.0000
     1.0000   1.0000   1.0000   1.0000   1.0000   1.0000   1.0000   1.0000
     1.0000   1.0000   1.0000   1.0000   1.0000   1.0000   1.0000   1.0000
     1.0000   1.0000   1.0000   1.0000   1.0000   1.0000   1.0000   1.0000
     1.0000   1.0000   1.0000   1.0000   1.0000   1.0000   1.0000   1.0000
     1.0000   1.0000   1.0000   1.0000   1.0000   1.0000   1.0000   1.0000
     1.0000   1.0000   1.0000   1.0000   1.0000   1.0000   1.0000   1.0000
     1.0000   1.0000   1.0000   1.0000   1.0000   1.0000   1.0000   1.0000
     1.0000   1.0000   1.0000   1.0000   1.0000   1.0000   1.0000   1.0000
     1.0000   1.0000   1.0000   1.0000   1.0000   1.0000   1.0000   1.0000
     1.0000   1.0000   1.0000   1.0000   1.0000   1.0000   1.0000   1.0000
     1.0000   1.0000   1.0000   1.0000   1.0000   1.0000   1.0000   1.0000
     1.0000   1.0000   1.0000   1.0000   1.0000   1.0000   1.0000   1.0000
     1.0000   1.0000   1.0000   1.0000   1.0000   1.0000   0.0000   0.0000
     0.0000   0.0000   0.0000   0.0000   0.0000   0.0000   0.0000   0.0000
     0.0000   0.0000   0.0000   0.0000   0.0000   0.0000   0.0000   0.0000
     0.0000   0.0000   0.0000   0.0000   0.0000   0.0000   0.0000   0.0000
     0.0000   0.0000   0.0000   0.0000   0.0000   0.0000   0.0000   0.0000
     0.0000   0.0000   0.0000   0.0000   0.0000   0.0000   0.0000   0.0000
     0.0000   0.0000   0.0000   0.0000   0.0000   0.0000   0.0000   0.0000
     0.0000   0.0000   0.0000   0.0000   0.0000   0.0000   0.0000   0.0000
     0.0000   0.0000   0.0000   0.0000   0.0000   0.0000   0.0000   0.0000
     0.0000   0.0000   0.0000   0.0000   0.0000   0.0000   0.0000   0.0000
     0.0000   0.0000   0.0000   0.0000   0.0000   0.0000

          k = 0.0001-0.0001 0.2328 ( 45637 PWs)   bands (ev):

  -115.7035-115.7033-115.6953-115.6941-115.6908-115.6907-115.6876-115.6872
  -115.6871-115.6865-115.6861-115.6857-115.6847-115.6847-115.6824-115.6821
  -115.6817-115.6806-115.6803-115.6802-115.6795-115.6686 -70.0620 -70.0605
   -70.0588 -70.0583 -70.0577 -70.0568 -70.0531 -70.0528 -70.0526 -70.0506
   -70.0498 -70.0495 -70.0476 -70.0474 -70.0466 -70.0464 -70.0464 -70.0462
   -70.0460 -70.0454 -70.0449 -70.0447 -70.0443 -70.0440 -70.0436 -70.0435
   -70.0430 -70.0429 -70.0429 -70.0427 -70.0426 -70.0426 -70.0419 -70.0418
   -70.0417 -70.0409 -70.0405 -70.0404 -70.0402 -70.0401 -70.0395 -70.0394
   -70.0391 -70.0390 -70.0388 -70.0383 -70.0380 -70.0378 -70.0370 -70.0369
   -70.0368 -70.0362 -70.0358 -70.0358 -70.0357 -70.0355 -70.0345 -70.0341
   -70.0330 -70.0329 -70.0329 -70.0325 -70.0278 -70.0274 -70.0249 -70.0216
   -65.1746 -65.1740 -65.1723 -65.1668 -65.1627 -65.1620 -65.1610 -65.1538
   -65.1521 -65.1515 -65.1417 -65.1347 -65.1278 -65.1191 -32.1648 -32.1644
   -32.1626 -32.1617 -32.1613 -32.1593 -32.1591 -32.1567 -32.1560 -32.1554
   -32.1553 -32.1527 -32.1521 -32.1501 -32.1487 -32.1482 -32.1476 -32.1471
   -32.1451 -32.1445 -32.1442 -32.1409 -32.1399 -32.1392 -32.1387 -32.1383
   -32.1367 -32.1363 -32.1337 -32.1317 -32.1276 -32.1253 -32.1231 -32.1226
   -32.1202 -32.1176 -32.1133 -32.1110 -32.1091 -32.1056 -32.1036 -32.1025
   -10.2350 -10.0550  -9.8668  -9.8455  -9.8019  -9.7892  -9.7459  -9.7181
    -9.6865  -9.6777  -9.6567  -9.6298  -9.6091  -9.5812  -9.5681  -9.5442
    -9.5063  -9.4964  -9.4698  -9.4530  -9.4422  -9.4061  -9.3983  -9.3761
    -9.3514  -9.3489  -9.3311  -9.3162  -9.3097  -9.2968  -9.2893  -9.2783
    -9.2010  -9.1867  -9.1558  -9.1165   1.5559   1.5731   1.5869   1.6017
     1.6227   1.6344   1.6552   1.6651   1.6860   1.6942   1.7132   1.7308
     1.7623   1.7761   1.8092   1.8350   1.8450   1.8526   1.8686   1.8846
     1.9083   1.9187   1.9290   1.9588   1.9621   1.9762   1.9866   2.0017
     2.0152   2.0243   2.0321   2.0405   2.0614   2.0688   2.0791   2.0937
     2.1067   2.1230   2.1299   2.1381   2.1551   2.1640   2.1784   2.1853
     2.1905   2.2006   2.2155   2.2317   2.2361   2.2419   2.2536   2.2696
     2.2826   2.2997   2.3209   2.3530   2.3681   2.3898   2.3963   2.4149
     2.4330   2.4559   2.4647   2.4794   2.4993   2.5213   2.5311   2.5367
     2.5549   2.5760   2.5920   2.6027   2.6107   2.6257   2.6442   2.6589
     2.6656   2.6735   2.6888   2.7069   2.7258   2.7505   2.7568   2.7626
     2.7952   2.7995   2.8121   2.8423   2.8561   2.8630   2.8854   2.8914
     2.9271   2.9418   2.9474   2.9482   2.9702   2.9740   2.9859   2.9918
     3.0067   3.0165   3.0310   3.0313   3.0412   3.0530   3.0781   3.0859
     3.1041   3.1309   3.2254   3.3214   3.3866   3.4024   3.4657   3.4845
     3.5083   3.5333   3.5567   3.5846   3.6038   3.6496   3.6752   3.6954
     3.7242   3.7571   3.8091   3.8244   3.8583   3.8933   3.9348   3.9894
     4.0214   4.0708   4.0846   4.1502   4.1651   4.2223   4.2666   4.2878
     4.3223   4.3438   4.3611   4.3829   4.4262   4.4694   4.5232   4.5518
     4.6430   4.7163   4.8310   4.8747   4.9135   4.9744   5.0586   5.1289
     5.1650   5.1881   5.2084   5.2510   5.2888   5.3221   5.3469   5.3544
     5.3997   5.4283   5.4543   5.4704   5.5098   5.5301   5.5568   5.5683
     5.5841   5.6028   5.6218   5.6995   5.7287   5.7556   5.7904   5.8053
     5.8525   5.8796   5.8941   5.9525   5.9946   6.0293   6.0403   6.0807
     6.1073   6.1212   6.1441   6.1834   6.1996   6.2341   6.2494   6.2897
     6.3138   6.3373   6.3419   6.3540   6.3900   6.4185   6.4427   6.4609
     6.4779   6.4876   6.5040   6.5196   6.5488   6.5803   6.6160   6.6605
     6.7058   6.7925   6.8507   6.8872   7.0142   7.0359   8.9893  10.4038
    11.7070  11.7691  11.8263  11.9554  12.0238  12.1417  12.2085  12.2640
    12.2863  12.4310  12.5217  12.6308  12.7291  13.0155  13.2848  13.3427
    13.4646  13.4734  13.5518  13.6619  14.4131  14.4319  14.5383  14.5926
    14.6578  14.7000  14.7108  14.7539  14.9437  14.9495  15.0849  15.1026
    15.1464  15.1600  15.2171  15.2828  15.3299  15.3724  15.3966  15.4403
    15.5385  15.5490  15.6372  15.6681  15.7404  15.8022  15.9127  15.9661
    15.9979  16.0136  16.0431  16.1102  16.1409  16.1971  16.2094  16.2302
    16.2873  16.4075  16.6329  16.6762  16.8025  16.8731  16.9351  17.0021
    17.1376  17.1820  17.3133  17.4243  17.5020  17.5823  17.7398  17.8532
    17.8999  17.9940  18.1071  18.2274  18.3408  18.4082

     occupation numbers 
     1.0000   1.0000   1.0000   1.0000   1.0000   1.0000   1.0000   1.0000
     1.0000   1.0000   1.0000   1.0000   1.0000   1.0000   1.0000   1.0000
     1.0000   1.0000   1.0000   1.0000   1.0000   1.0000   1.0000   1.0000
     1.0000   1.0000   1.0000   1.0000   1.0000   1.0000   1.0000   1.0000
     1.0000   1.0000   1.0000   1.0000   1.0000   1.0000   1.0000   1.0000
     1.0000   1.0000   1.0000   1.0000   1.0000   1.0000   1.0000   1.0000
     1.0000   1.0000   1.0000   1.0000   1.0000   1.0000   1.0000   1.0000
     1.0000   1.0000   1.0000   1.0000   1.0000   1.0000   1.0000   1.0000
     1.0000   1.0000   1.0000   1.0000   1.0000   1.0000   1.0000   1.0000
     1.0000   1.0000   1.0000   1.0000   1.0000   1.0000   1.0000   1.0000
     1.0000   1.0000   1.0000   1.0000   1.0000   1.0000   1.0000   1.0000
     1.0000   1.0000   1.0000   1.0000   1.0000   1.0000   1.0000   1.0000
     1.0000   1.0000   1.0000   1.0000   1.0000   1.0000   1.0000   1.0000
     1.0000   1.0000   1.0000   1.0000   1.0000   1.0000   1.0000   1.0000
     1.0000   1.0000   1.0000   1.0000   1.0000   1.0000   1.0000   1.0000
     1.0000   1.0000   1.0000   1.0000   1.0000   1.0000   1.0000   1.0000
     1.0000   1.0000   1.0000   1.0000   1.0000   1.0000   1.0000   1.0000
     1.0000   1.0000   1.0000   1.0000   1.0000   1.0000   1.0000   1.0000
     1.0000   1.0000   1.0000   1.0000   1.0000   1.0000   1.0000   1.0000
     1.0000   1.0000   1.0000   1.0000   1.0000   1.0000   1.0000   1.0000
     1.0000   1.0000   1.0000   1.0000   1.0000   1.0000   1.0000   1.0000
     1.0000   1.0000   1.0000   1.0000   1.0000   1.0000   1.0000   1.0000
     1.0000   1.0000   1.0000   1.0000   1.0000   1.0000   1.0000   1.0000
     1.0000   1.0000   1.0000   1.0000   1.0000   1.0000   1.0000   1.0000
     1.0000   1.0000   1.0000   1.0000   1.0000   1.0000   1.0000   1.0000
     1.0000   1.0000   1.0000   1.0000   1.0000   1.0000   1.0000   1.0000
     1.0000   1.0000   1.0000   1.0000   1.0000   1.0000   1.0000   1.0000
     1.0000   1.0000   1.0000   1.0000   1.0000   1.0000   1.0000   1.0000
     1.0000   1.0000   1.0000   1.0000   1.0000   1.0000   1.0000   1.0000
     1.0000   1.0000   1.0000   1.0000   1.0000   1.0000   1.0000   1.0000
     1.0000   1.0000   1.0000   1.0000   1.0000   1.0000   1.0000   1.0000
     1.0000   1.0000   1.0000   1.0000   1.0000   1.0000   1.0000   1.0000
     1.0000   1.0000   1.0000   1.0000   1.0000   1.0000   1.0000   1.0000
     1.0000   1.0000   1.0000   1.0000   1.0000   1.0000   1.0000   1.0000
     1.0000   1.0000   1.0000   1.0000   1.0000   1.0000   1.0000   1.0000
     1.0000   1.0000   1.0000   1.0000   1.0000   1.0000   1.0000   1.0000
     1.0000   1.0000   1.0000   1.0000   1.0000   1.0000   1.0000   1.0000
     1.0000   1.0000   1.0000   1.0000   1.0000   1.0000   1.0000   1.0000
     1.0000   1.0000   1.0000   1.0000   1.0000   1.0000   1.0000   1.0000
     1.0000   1.0000   1.0000   1.0000   1.0000   1.0000   1.0000   1.0000
     1.0000   1.0000   1.0000   1.0000   1.0000   1.0000   1.0000   1.0000
     1.0000   1.0000   1.0000   1.0000   1.0000   1.0000   1.0000   1.0000
     1.0000   1.0000   1.0000   1.0000   1.0000   1.0000   1.0000   1.0000
     1.0000   1.0000   1.0000   1.0000   1.0000   1.0000   1.0000   1.0000
     1.0000   1.0000   1.0000   1.0000   1.0000   1.0000   1.0000   1.0000
     1.0000   1.0000   1.0000   1.0000   1.0000   1.0000   1.0000   1.0000
     1.0000   1.0000   1.0000   1.0000   1.0000   1.0000   1.0000   1.0000
     1.0000   1.0000   1.0000   1.0000   1.0000   1.0000   1.0000   1.0000
     1.0000   1.0000   1.0000   1.0000   1.0000   1.0000   1.0000   1.0000
     1.0000   1.0000   1.0000   1.0000   1.0000   1.0000   0.0000   0.0000
     0.0000   0.0000   0.0000   0.0000   0.0000   0.0000   0.0000   0.0000
     0.0000   0.0000   0.0000   0.0000   0.0000   0.0000   0.0000   0.0000
     0.0000   0.0000   0.0000   0.0000   0.0000   0.0000   0.0000   0.0000
     0.0000   0.0000   0.0000   0.0000   0.0000   0.0000   0.0000   0.0000
     0.0000   0.0000   0.0000   0.0000   0.0000   0.0000   0.0000   0.0000
     0.0000   0.0000   0.0000   0.0000   0.0000   0.0000   0.0000   0.0000
     0.0000   0.0000   0.0000   0.0000   0.0000   0.0000   0.0000   0.0000
     0.0000   0.0000   0.0000   0.0000   0.0000   0.0000   0.0000   0.0000
     0.0000   0.0000   0.0000   0.0000   0.0000   0.0000   0.0000   0.0000
     0.0000   0.0000   0.0000   0.0000   0.0000   0.0000

          k =-0.0002 0.0001-0.4657 ( 45672 PWs)   bands (ev):

  -115.7035-115.7033-115.6953-115.6941-115.6908-115.6907-115.6876-115.6872
  -115.6871-115.6865-115.6861-115.6857-115.6847-115.6847-115.6824-115.6821
  -115.6817-115.6806-115.6803-115.6802-115.6795-115.6686 -70.0620 -70.0605
   -70.0588 -70.0583 -70.0577 -70.0568 -70.0531 -70.0528 -70.0526 -70.0506
   -70.0498 -70.0495 -70.0476 -70.0474 -70.0466 -70.0464 -70.0464 -70.0462
   -70.0460 -70.0454 -70.0449 -70.0447 -70.0443 -70.0440 -70.0436 -70.0435
   -70.0430 -70.0429 -70.0429 -70.0427 -70.0426 -70.0426 -70.0419 -70.0418
   -70.0417 -70.0409 -70.0405 -70.0404 -70.0402 -70.0401 -70.0395 -70.0394
   -70.0391 -70.0390 -70.0388 -70.0383 -70.0380 -70.0378 -70.0370 -70.0369
   -70.0368 -70.0362 -70.0358 -70.0358 -70.0357 -70.0355 -70.0345 -70.0341
   -70.0330 -70.0329 -70.0329 -70.0325 -70.0278 -70.0274 -70.0249 -70.0216
   -65.1746 -65.1740 -65.1723 -65.1668 -65.1627 -65.1620 -65.1610 -65.1538
   -65.1521 -65.1515 -65.1417 -65.1347 -65.1278 -65.1191 -32.1647 -32.1644
   -32.1628 -32.1617 -32.1613 -32.1593 -32.1591 -32.1566 -32.1560 -32.1554
   -32.1553 -32.1527 -32.1522 -32.1501 -32.1487 -32.1481 -32.1476 -32.1471
   -32.1451 -32.1445 -32.1442 -32.1409 -32.1399 -32.1392 -32.1387 -32.1383
   -32.1367 -32.1362 -32.1337 -32.1317 -32.1276 -32.1253 -32.1231 -32.1226
   -32.1202 -32.1176 -32.1133 -32.1110 -32.1091 -32.1057 -32.1036 -32.1025
   -10.1846 -10.1372  -9.8431  -9.8268  -9.7963  -9.7811  -9.7423  -9.7181
    -9.7107  -9.6782  -9.6575  -9.6333  -9.6261  -9.5815  -9.5730  -9.5544
    -9.5180  -9.4899  -9.4525  -9.4411  -9.4266  -9.4044  -9.3896  -9.3761
    -9.3599  -9.3428  -9.3267  -9.3151  -9.3051  -9.2954  -9.2905  -9.2866
    -9.2075  -9.1897  -9.1577  -9.1211   1.5662   1.5776   1.6017   1.6145
     1.6393   1.6469   1.6667   1.6710   1.6879   1.7224   1.7377   1.7600
     1.7752   1.7888   1.8232   1.8507   1.8601   1.8671   1.8778   1.8911
     1.8985   1.9099   1.9236   1.9422   1.9578   1.9621   1.9815   1.9880
     2.0012   2.0072   2.0228   2.0451   2.0465   2.0672   2.0694   2.0932
     2.1016   2.1216   2.1317   2.1525   2.1554   2.1641   2.1824   2.1906
     2.1975   2.2078   2.2192   2.2210   2.2390   2.2477   2.2553   2.2720
     2.2804   2.2893   2.2980   2.3041   2.3161   2.3317   2.3764   2.3848
     2.4156   2.4354   2.4457   2.4671   2.4755   2.4978   2.5119   2.5343
     2.5522   2.5606   2.5726   2.5973   2.6047   2.6146   2.6207   2.6403
     2.6537   2.6710   2.6886   2.6967   2.7284   2.7343   2.7622   2.7701
     2.7776   2.7979   2.8072   2.8358   2.8440   2.8648   2.8856   2.9019
     2.9207   2.9336   2.9502   2.9631   2.9700   2.9874   2.9921   2.9994
     3.0067   3.0214   3.0351   3.0394   3.0426   3.0499   3.0690   3.0859
     3.0989   3.1286   3.3328   3.3725   3.3955   3.4393   3.4714   3.4952
     3.5089   3.5205   3.5600   3.5713   3.6310   3.6587   3.6808   3.7164
     3.7741   3.8178   3.8398   3.8692   3.9090   3.9206   3.9352   3.9550
     3.9849   4.0188   4.0903   4.1661   4.1848   4.2145   4.2251   4.3034
     4.3383   4.3591   4.3882   4.4685   4.5062   4.5381   4.5941   4.6255
     4.7241   4.7537   4.7868   4.7958   4.9150   4.9917   5.0240   5.0470
     5.0881   5.1174   5.1387   5.1472   5.2221   5.2253   5.2454   5.2894
     5.4370   5.4656   5.4979   5.5070   5.5379   5.5422   5.5912   5.6018
     5.6328   5.6433   5.6639   5.6967   5.7083   5.7181   5.7193   5.7518
     5.7692   5.7767   5.7896   5.7950   5.9957   6.0414   6.0676   6.0840
     6.1435   6.1572   6.1862   6.1893   6.2397   6.2492   6.2891   6.3527
     6.3652   6.3763   6.3892   6.4195   6.4413   6.4498   6.4723   6.4730
     6.5013   6.5115   6.5211   6.5332   6.5604   6.5705   6.5753   6.5916
     6.6089   6.6485   6.9026   6.9193   6.9923   7.0158   9.6044   9.6930
    11.8437  11.8746  11.9097  11.9728  11.9859  11.9997  12.0729  12.1457
    12.2781  12.3988  12.4579  12.5371  12.6702  12.7478  13.8523  13.8655
    13.8988  13.9121  13.9488  13.9730  14.0254  14.0804  14.1099  14.1657
    14.1935  14.2687  14.7994  14.8047  14.8317  14.8372  15.0965  15.1154
    15.1510  15.1620  15.2406  15.2884  15.3094  15.4101  15.5553  15.5792
    15.6733  15.7025  15.7230  15.7398  15.7655  15.8046  15.8432  15.9132
    16.0467  16.0856  16.1057  16.1367  16.1507  16.1612  16.2505  16.3333
    16.3782  16.4832  16.5492  16.6410  16.7224  16.7505  16.9755  17.0025
    17.0621  17.2402  17.2873  17.3272  17.3910  17.4954  17.5997  17.6457
    17.8997  17.9887  18.0576  18.1934  18.3632  18.3716

     occupation numbers 
     1.0000   1.0000   1.0000   1.0000   1.0000   1.0000   1.0000   1.0000
     1.0000   1.0000   1.0000   1.0000   1.0000   1.0000   1.0000   1.0000
     1.0000   1.0000   1.0000   1.0000   1.0000   1.0000   1.0000   1.0000
     1.0000   1.0000   1.0000   1.0000   1.0000   1.0000   1.0000   1.0000
     1.0000   1.0000   1.0000   1.0000   1.0000   1.0000   1.0000   1.0000
     1.0000   1.0000   1.0000   1.0000   1.0000   1.0000   1.0000   1.0000
     1.0000   1.0000   1.0000   1.0000   1.0000   1.0000   1.0000   1.0000
     1.0000   1.0000   1.0000   1.0000   1.0000   1.0000   1.0000   1.0000
     1.0000   1.0000   1.0000   1.0000   1.0000   1.0000   1.0000   1.0000
     1.0000   1.0000   1.0000   1.0000   1.0000   1.0000   1.0000   1.0000
     1.0000   1.0000   1.0000   1.0000   1.0000   1.0000   1.0000   1.0000
     1.0000   1.0000   1.0000   1.0000   1.0000   1.0000   1.0000   1.0000
     1.0000   1.0000   1.0000   1.0000   1.0000   1.0000   1.0000   1.0000
     1.0000   1.0000   1.0000   1.0000   1.0000   1.0000   1.0000   1.0000
     1.0000   1.0000   1.0000   1.0000   1.0000   1.0000   1.0000   1.0000
     1.0000   1.0000   1.0000   1.0000   1.0000   1.0000   1.0000   1.0000
     1.0000   1.0000   1.0000   1.0000   1.0000   1.0000   1.0000   1.0000
     1.0000   1.0000   1.0000   1.0000   1.0000   1.0000   1.0000   1.0000
     1.0000   1.0000   1.0000   1.0000   1.0000   1.0000   1.0000   1.0000
     1.0000   1.0000   1.0000   1.0000   1.0000   1.0000   1.0000   1.0000
     1.0000   1.0000   1.0000   1.0000   1.0000   1.0000   1.0000   1.0000
     1.0000   1.0000   1.0000   1.0000   1.0000   1.0000   1.0000   1.0000
     1.0000   1.0000   1.0000   1.0000   1.0000   1.0000   1.0000   1.0000
     1.0000   1.0000   1.0000   1.0000   1.0000   1.0000   1.0000   1.0000
     1.0000   1.0000   1.0000   1.0000   1.0000   1.0000   1.0000   1.0000
     1.0000   1.0000   1.0000   1.0000   1.0000   1.0000   1.0000   1.0000
     1.0000   1.0000   1.0000   1.0000   1.0000   1.0000   1.0000   1.0000
     1.0000   1.0000   1.0000   1.0000   1.0000   1.0000   1.0000   1.0000
     1.0000   1.0000   1.0000   1.0000   1.0000   1.0000   1.0000   1.0000
     1.0000   1.0000   1.0000   1.0000   1.0000   1.0000   1.0000   1.0000
     1.0000   1.0000   1.0000   1.0000   1.0000   1.0000   1.0000   1.0000
     1.0000   1.0000   1.0000   1.0000   1.0000   1.0000   1.0000   1.0000
     1.0000   1.0000   1.0000   1.0000   1.0000   1.0000   1.0000   1.0000
     1.0000   1.0000   1.0000   1.0000   1.0000   1.0000   1.0000   1.0000
     1.0000   1.0000   1.0000   1.0000   1.0000   1.0000   1.0000   1.0000
     1.0000   1.0000   1.0000   1.0000   1.0000   1.0000   1.0000   1.0000
     1.0000   1.0000   1.0000   1.0000   1.0000   1.0000   1.0000   1.0000
     1.0000   1.0000   1.0000   1.0000   1.0000   1.0000   1.0000   1.0000
     1.0000   1.0000   1.0000   1.0000   1.0000   1.0000   1.0000   1.0000
     1.0000   1.0000   1.0000   1.0000   1.0000   1.0000   1.0000   1.0000
     1.0000   1.0000   1.0000   1.0000   1.0000   1.0000   1.0000   1.0000
     1.0000   1.0000   1.0000   1.0000   1.0000   1.0000   1.0000   1.0000
     1.0000   1.0000   1.0000   1.0000   1.0000   1.0000   1.0000   1.0000
     1.0000   1.0000   1.0000   1.0000   1.0000   1.0000   1.0000   1.0000
     1.0000   1.0000   1.0000   1.0000   1.0000   1.0000   1.0000   1.0000
     1.0000   1.0000   1.0000   1.0000   1.0000   1.0000   1.0000   1.0000
     1.0000   1.0000   1.0000   1.0000   1.0000   1.0000   1.0000   1.0000
     1.0000   1.0000   1.0000   1.0000   1.0000   1.0000   1.0000   1.0000
     1.0000   1.0000   1.0000   1.0000   1.0000   1.0000   1.0000   1.0000
     1.0000   1.0000   1.0000   1.0000   1.0000   1.0000   0.0000   0.0000
     0.0000   0.0000   0.0000   0.0000   0.0000   0.0000   0.0000   0.0000
     0.0000   0.0000   0.0000   0.0000   0.0000   0.0000   0.0000   0.0000
     0.0000   0.0000   0.0000   0.0000   0.0000   0.0000   0.0000   0.0000
     0.0000   0.0000   0.0000   0.0000   0.0000   0.0000   0.0000   0.0000
     0.0000   0.0000   0.0000   0.0000   0.0000   0.0000   0.0000   0.0000
     0.0000   0.0000   0.0000   0.0000   0.0000   0.0000   0.0000   0.0000
     0.0000   0.0000   0.0000   0.0000   0.0000   0.0000   0.0000   0.0000
     0.0000   0.0000   0.0000   0.0000   0.0000   0.0000   0.0000   0.0000
     0.0000   0.0000   0.0000   0.0000   0.0000   0.0000   0.0000   0.0000
     0.0000   0.0000   0.0000   0.0000   0.0000   0.0000

          k =-0.0001 0.2886-0.0001 ( 45669 PWs)   bands (ev):

  -115.7035-115.7033-115.6953-115.6941-115.6908-115.6907-115.6876-115.6872
  -115.6871-115.6865-115.6861-115.6857-115.6847-115.6847-115.6824-115.6821
  -115.6817-115.6806-115.6803-115.6802-115.6795-115.6686 -70.0620 -70.0605
   -70.0588 -70.0583 -70.0577 -70.0568 -70.0531 -70.0528 -70.0526 -70.0506
   -70.0498 -70.0495 -70.0476 -70.0474 -70.0466 -70.0464 -70.0464 -70.0462
   -70.0460 -70.0454 -70.0449 -70.0447 -70.0443 -70.0440 -70.0436 -70.0435
   -70.0430 -70.0429 -70.0429 -70.0427 -70.0426 -70.0426 -70.0419 -70.0418
   -70.0417 -70.0409 -70.0405 -70.0404 -70.0402 -70.0401 -70.0395 -70.0394
   -70.0391 -70.0390 -70.0388 -70.0383 -70.0380 -70.0378 -70.0370 -70.0369
   -70.0368 -70.0362 -70.0358 -70.0358 -70.0357 -70.0355 -70.0345 -70.0341
   -70.0330 -70.0329 -70.0329 -70.0325 -70.0278 -70.0274 -70.0249 -70.0216
   -65.1746 -65.1740 -65.1723 -65.1668 -65.1627 -65.1620 -65.1611 -65.1538
   -65.1521 -65.1515 -65.1417 -65.1347 -65.1278 -65.1191 -32.1649 -32.1644
   -32.1625 -32.1617 -32.1613 -32.1593 -32.1591 -32.1567 -32.1560 -32.1554
   -32.1553 -32.1527 -32.1519 -32.1501 -32.1487 -32.1482 -32.1477 -32.1471
   -32.1452 -32.1445 -32.1442 -32.1409 -32.1399 -32.1392 -32.1387 -32.1383
   -32.1368 -32.1362 -32.1337 -32.1317 -32.1276 -32.1252 -32.1232 -32.1225
   -32.1202 -32.1176 -32.1133 -32.1110 -32.1091 -32.1056 -32.1036 -32.1025
   -10.2224 -10.0027  -9.9108  -9.8843  -9.8621  -9.7794  -9.7541  -9.7173
    -9.6778  -9.6571  -9.6398  -9.6238  -9.6028  -9.5702  -9.5497  -9.5287
    -9.5124  -9.4908  -9.4842  -9.4489  -9.4318  -9.4196  -9.4001  -9.3766
    -9.3684  -9.3529  -9.3453  -9.3184  -9.3133  -9.2988  -9.2877  -9.2669
    -9.1945  -9.1770  -9.1554  -9.1131   1.5631   1.5730   1.5910   1.6047
     1.6229   1.6340   1.6518   1.6602   1.6886   1.6981   1.7157   1.7372
     1.7611   1.7803   1.7990   1.8230   1.8366   1.8613   1.8759   1.8824
     1.8964   1.9067   1.9364   1.9586   1.9721   1.9763   1.9854   2.0007
     2.0142   2.0254   2.0450   2.0512   2.0596   2.0696   2.0873   2.0939
     2.0992   2.1152   2.1258   2.1398   2.1488   2.1549   2.1704   2.1722
     2.1835   2.1918   2.2089   2.2158   2.2243   2.2437   2.2558   2.2704
     2.2805   2.3092   2.3151   2.3269   2.3463   2.3605   2.3862   2.4040
     2.4338   2.4660   2.4895   2.4993   2.5089   2.5266   2.5375   2.5550
     2.5642   2.5882   2.5975   2.6181   2.6277   2.6379   2.6450   2.6557
     2.6777   2.6865   2.6958   2.7142   2.7333   2.7406   2.7585   2.7822
     2.7931   2.8196   2.8258   2.8311   2.8451   2.8729   2.8827   2.9076
     2.9152   2.9280   2.9403   2.9563   2.9672   2.9737   2.9931   3.0075
     3.0096   3.0217   3.0320   3.0384   3.0402   3.0631   3.0787   3.1026
     3.1102   3.1364   3.1699   3.2197   3.2619   3.3364   3.3734   3.3892
     3.4485   3.4857   3.5229   3.5539   3.5747   3.6039   3.6293   3.6672
     3.6899   3.7182   3.7874   3.8074   3.8247   3.8870   3.9370   4.0037
     4.0204   4.0904   4.1030   4.2246   4.2680   4.3260   4.3671   4.4102
     4.4239   4.4638   4.5000   4.5509   4.5928   4.5975   4.6780   4.7140
     4.7451   4.7764   4.7986   4.8129   4.8438   4.9150   4.9245   4.9831
     5.0373   5.0929   5.2026   5.2162   5.2997   5.3746   5.4023   5.4543
     5.4763   5.4836   5.5185   5.5426   5.5591   5.5938   5.6166   5.6399
     5.6612   5.6932   5.7206   5.7638   5.7824   5.8028   5.8152   5.8378
     5.8606   5.8814   5.8984   5.9484   5.9829   5.9982   6.0211   6.0453
     6.0641   6.0808   6.1117   6.1182   6.1407   6.1508   6.1640   6.1780
     6.1914   6.2278   6.2443   6.2605   6.2791   6.3051   6.3494   6.3586
     6.3900   6.4143   6.4596   6.5553   6.5730   6.5950   6.6274   6.6725
     6.6980   6.7233   6.7577   6.8233   6.9701   6.9903   9.1171  10.9245
    11.3169  11.3709  11.5049  11.8458  12.3545  12.3841  12.4303  12.6110
    12.6378  12.7142  12.8303  12.8665  12.9586  13.0546  13.1031  13.1874
    13.2234  13.3575  13.3999  13.5784  14.3297  14.3585  14.3951  14.4758
    14.5217  14.5817  14.6547  14.6783  14.7145  14.7546  14.8037  14.8324
    14.9351  14.9917  15.1567  15.2058  15.2688  15.2918  15.3437  15.3750
    15.5114  15.5767  15.7539  15.8092  15.8447  15.9262  15.9628  16.0792
    16.1058  16.1755  16.1960  16.2495  16.2992  16.3219  16.3696  16.4393
    16.4865  16.6096  16.7658  16.8177  16.9678  17.0421  17.1108  17.1554
    17.2349  17.3501  17.4596  17.5346  17.5638  17.6914  17.9269  17.9645
    18.0062  18.0551  18.2146  18.2411  18.2909  18.3923

     occupation numbers 
     1.0000   1.0000   1.0000   1.0000   1.0000   1.0000   1.0000   1.0000
     1.0000   1.0000   1.0000   1.0000   1.0000   1.0000   1.0000   1.0000
     1.0000   1.0000   1.0000   1.0000   1.0000   1.0000   1.0000   1.0000
     1.0000   1.0000   1.0000   1.0000   1.0000   1.0000   1.0000   1.0000
     1.0000   1.0000   1.0000   1.0000   1.0000   1.0000   1.0000   1.0000
     1.0000   1.0000   1.0000   1.0000   1.0000   1.0000   1.0000   1.0000
     1.0000   1.0000   1.0000   1.0000   1.0000   1.0000   1.0000   1.0000
     1.0000   1.0000   1.0000   1.0000   1.0000   1.0000   1.0000   1.0000
     1.0000   1.0000   1.0000   1.0000   1.0000   1.0000   1.0000   1.0000
     1.0000   1.0000   1.0000   1.0000   1.0000   1.0000   1.0000   1.0000
     1.0000   1.0000   1.0000   1.0000   1.0000   1.0000   1.0000   1.0000
     1.0000   1.0000   1.0000   1.0000   1.0000   1.0000   1.0000   1.0000
     1.0000   1.0000   1.0000   1.0000   1.0000   1.0000   1.0000   1.0000
     1.0000   1.0000   1.0000   1.0000   1.0000   1.0000   1.0000   1.0000
     1.0000   1.0000   1.0000   1.0000   1.0000   1.0000   1.0000   1.0000
     1.0000   1.0000   1.0000   1.0000   1.0000   1.0000   1.0000   1.0000
     1.0000   1.0000   1.0000   1.0000   1.0000   1.0000   1.0000   1.0000
     1.0000   1.0000   1.0000   1.0000   1.0000   1.0000   1.0000   1.0000
     1.0000   1.0000   1.0000   1.0000   1.0000   1.0000   1.0000   1.0000
     1.0000   1.0000   1.0000   1.0000   1.0000   1.0000   1.0000   1.0000
     1.0000   1.0000   1.0000   1.0000   1.0000   1.0000   1.0000   1.0000
     1.0000   1.0000   1.0000   1.0000   1.0000   1.0000   1.0000   1.0000
     1.0000   1.0000   1.0000   1.0000   1.0000   1.0000   1.0000   1.0000
     1.0000   1.0000   1.0000   1.0000   1.0000   1.0000   1.0000   1.0000
     1.0000   1.0000   1.0000   1.0000   1.0000   1.0000   1.0000   1.0000
     1.0000   1.0000   1.0000   1.0000   1.0000   1.0000   1.0000   1.0000
     1.0000   1.0000   1.0000   1.0000   1.0000   1.0000   1.0000   1.0000
     1.0000   1.0000   1.0000   1.0000   1.0000   1.0000   1.0000   1.0000
     1.0000   1.0000   1.0000   1.0000   1.0000   1.0000   1.0000   1.0000
     1.0000   1.0000   1.0000   1.0000   1.0000   1.0000   1.0000   1.0000
     1.0000   1.0000   1.0000   1.0000   1.0000   1.0000   1.0000   1.0000
     1.0000   1.0000   1.0000   1.0000   1.0000   1.0000   1.0000   1.0000
     1.0000   1.0000   1.0000   1.0000   1.0000   1.0000   1.0000   1.0000
     1.0000   1.0000   1.0000   1.0000   1.0000   1.0000   1.0000   1.0000
     1.0000   1.0000   1.0000   1.0000   1.0000   1.0000   1.0000   1.0000
     1.0000   1.0000   1.0000   1.0000   1.0000   1.0000   1.0000   1.0000
     1.0000   1.0000   1.0000   1.0000   1.0000   1.0000   1.0000   1.0000
     1.0000   1.0000   1.0000   1.0000   1.0000   1.0000   1.0000   1.0000
     1.0000   1.0000   1.0000   1.0000   1.0000   1.0000   1.0000   1.0000
     1.0000   1.0000   1.0000   1.0000   1.0000   1.0000   1.0000   1.0000
     1.0000   1.0000   1.0000   1.0000   1.0000   1.0000   1.0000   1.0000
     1.0000   1.0000   1.0000   1.0000   1.0000   1.0000   1.0000   1.0000
     1.0000   1.0000   1.0000   1.0000   1.0000   1.0000   1.0000   1.0000
     1.0000   1.0000   1.0000   1.0000   1.0000   1.0000   1.0000   1.0000
     1.0000   1.0000   1.0000   1.0000   1.0000   1.0000   1.0000   1.0000
     1.0000   1.0000   1.0000   1.0000   1.0000   1.0000   1.0000   1.0000
     1.0000   1.0000   1.0000   1.0000   1.0000   1.0000   1.0000   1.0000
     1.0000   1.0000   1.0000   1.0000   1.0000   1.0000   1.0000   1.0000
     1.0000   1.0000   1.0000   1.0000   1.0000   1.0000   1.0000   1.0000
     1.0000   1.0000   1.0000   1.0000   1.0000   1.0000   0.0000   0.0000
     0.0000   0.0000   0.0000   0.0000   0.0000   0.0000   0.0000   0.0000
     0.0000   0.0000   0.0000   0.0000   0.0000   0.0000   0.0000   0.0000
     0.0000   0.0000   0.0000   0.0000   0.0000   0.0000   0.0000   0.0000
     0.0000   0.0000   0.0000   0.0000   0.0000   0.0000   0.0000   0.0000
     0.0000   0.0000   0.0000   0.0000   0.0000   0.0000   0.0000   0.0000
     0.0000   0.0000   0.0000   0.0000   0.0000   0.0000   0.0000   0.0000
     0.0000   0.0000   0.0000   0.0000   0.0000   0.0000   0.0000   0.0000
     0.0000   0.0000   0.0000   0.0000   0.0000   0.0000   0.0000   0.0000
     0.0000   0.0000   0.0000   0.0000   0.0000   0.0000   0.0000   0.0000
     0.0000   0.0000   0.0000   0.0000   0.0000   0.0000

          k =-0.0000 0.2885 0.2328 ( 45677 PWs)   bands (ev):

  -115.7035-115.7033-115.6953-115.6941-115.6908-115.6907-115.6876-115.6872
  -115.6871-115.6865-115.6861-115.6857-115.6847-115.6847-115.6824-115.6821
  -115.6817-115.6806-115.6803-115.6802-115.6795-115.6686 -70.0620 -70.0605
   -70.0588 -70.0583 -70.0577 -70.0568 -70.0531 -70.0528 -70.0526 -70.0506
   -70.0498 -70.0495 -70.0476 -70.0474 -70.0466 -70.0464 -70.0464 -70.0462
   -70.0460 -70.0454 -70.0449 -70.0447 -70.0443 -70.0440 -70.0436 -70.0435
   -70.0430 -70.0429 -70.0429 -70.0427 -70.0426 -70.0426 -70.0419 -70.0418
   -70.0417 -70.0409 -70.0405 -70.0404 -70.0402 -70.0401 -70.0395 -70.0394
   -70.0391 -70.0390 -70.0388 -70.0383 -70.0380 -70.0378 -70.0370 -70.0369
   -70.0368 -70.0362 -70.0358 -70.0358 -70.0357 -70.0355 -70.0345 -70.0341
   -70.0330 -70.0329 -70.0329 -70.0325 -70.0278 -70.0274 -70.0249 -70.0216
   -65.1746 -65.1740 -65.1723 -65.1668 -65.1627 -65.1620 -65.1610 -65.1538
   -65.1521 -65.1515 -65.1417 -65.1347 -65.1278 -65.1191 -32.1648 -32.1644
   -32.1626 -32.1617 -32.1613 -32.1593 -32.1591 -32.1567 -32.1560 -32.1554
   -32.1553 -32.1527 -32.1520 -32.1501 -32.1487 -32.1481 -32.1477 -32.1471
   -32.1452 -32.1445 -32.1442 -32.1409 -32.1399 -32.1391 -32.1387 -32.1383
   -32.1368 -32.1362 -32.1337 -32.1317 -32.1276 -32.1253 -32.1232 -32.1225
   -32.1202 -32.1176 -32.1133 -32.1110 -32.1091 -32.1056 -32.1036 -32.1025
   -10.1988 -10.0425  -9.9320  -9.8752  -9.8236  -9.7913  -9.7533  -9.7420
    -9.6809  -9.6590  -9.6489  -9.6082  -9.5865  -9.5671  -9.5482  -9.5297
    -9.5114  -9.4872  -9.4739  -9.4549  -9.4330  -9.4161  -9.3911  -9.3821
    -9.3670  -9.3547  -9.3470  -9.3196  -9.3041  -9.2982  -9.2901  -9.2691
    -9.2001  -9.1803  -9.1561  -9.1165   1.5702   1.5908   1.6092   1.6194
     1.6361   1.6531   1.6643   1.6806   1.6991   1.7064   1.7259   1.7488
     1.7694   1.7876   1.8135   1.8297   1.8460   1.8608   1.8762   1.8936
     1.8997   1.9069   1.9305   1.9562   1.9640   1.9698   1.9873   1.9914
     2.0106   2.0245   2.0315   2.0478   2.0550   2.0667   2.0754   2.0844
     2.0891   2.1173   2.1217   2.1400   2.1443   2.1594   2.1633   2.1728
     2.1794   2.1875   2.2024   2.2156   2.2244   2.2444   2.2579   2.2673
     2.2848   2.2909   2.3133   2.3178   2.3413   2.3473   2.3605   2.3805
     2.4042   2.4216   2.4381   2.4684   2.4899   2.5018   2.5177   2.5444
     2.5653   2.5695   2.5860   2.5930   2.6043   2.6203   2.6359   2.6440
     2.6647   2.6895   2.6971   2.7010   2.7178   2.7412   2.7634   2.7730
     2.7925   2.7976   2.8283   2.8484   2.8559   2.8687   2.8881   2.9026
     2.9234   2.9311   2.9459   2.9496   2.9706   2.9753   2.9888   2.9980
     3.0089   3.0259   3.0286   3.0412   3.0445   3.0618   3.0648   3.0876
     3.1088   3.1321   3.2134   3.2923   3.3171   3.3709   3.3825   3.4380
     3.4931   3.5101   3.5347   3.5669   3.5808   3.6195   3.6393   3.6787
     3.6980   3.7469   3.7955   3.8485   3.8761   3.9207   3.9425   4.0194
     4.0624   4.1027   4.1323   4.2234   4.2653   4.3168   4.3500   4.3626
     4.4050   4.4309   4.4753   4.4916   4.5148   4.5720   4.6315   4.6593
     4.7124   4.8061   4.8371   4.9552   5.0174   5.0430   5.0644   5.0933
     5.1144   5.1505   5.2173   5.2308   5.2779   5.3000   5.3191   5.3552
     5.3810   5.4142   5.4307   5.4609   5.4822   5.5109   5.5435   5.6110
     5.6278   5.6520   5.6831   5.6979   5.7142   5.7453   5.7829   5.8197
     5.8525   5.8796   5.9008   5.9321   5.9585   5.9826   6.0165   6.0359
     6.0581   6.0934   6.1205   6.1336   6.1475   6.1881   6.2155   6.2267
     6.2527   6.2993   6.3079   6.3282   6.3418   6.3648   6.3693   6.4072
     6.4221   6.4351   6.4632   6.5071   6.5450   6.5840   6.6088   6.6383
     6.6699   6.6970   6.7939   6.8504   6.9436   6.9733   9.3520  10.6074
    11.0502  11.5299  11.7738  11.8754  12.0600  12.0966  12.3218  12.5225
    12.6608  12.7335  12.8492  12.9203  13.0411  13.1360  13.2578  13.3172
    13.5187  13.5532  13.6077  13.7845  14.2116  14.2763  14.3258  14.3813
    14.4221  14.5105  14.5518  14.5927  14.6413  14.6666  14.6936  14.7161
    14.8048  14.8515  15.1348  15.2713  15.3282  15.3865  15.4837  15.5620
    15.6102  15.6619  15.7507  15.8060  15.8686  15.9060  15.9943  16.0172
    16.0989  16.1334  16.2200  16.2752  16.3119  16.3560  16.4380  16.4918
    16.5354  16.6250  16.7011  16.8366  16.9421  17.0350  17.0942  17.1821
    17.2310  17.2916  17.4060  17.4480  17.5156  17.6040  17.6703  17.8499
    17.9320  18.0326  18.1204  18.2014  18.3321  18.3716

     occupation numbers 
     1.0000   1.0000   1.0000   1.0000   1.0000   1.0000   1.0000   1.0000
     1.0000   1.0000   1.0000   1.0000   1.0000   1.0000   1.0000   1.0000
     1.0000   1.0000   1.0000   1.0000   1.0000   1.0000   1.0000   1.0000
     1.0000   1.0000   1.0000   1.0000   1.0000   1.0000   1.0000   1.0000
     1.0000   1.0000   1.0000   1.0000   1.0000   1.0000   1.0000   1.0000
     1.0000   1.0000   1.0000   1.0000   1.0000   1.0000   1.0000   1.0000
     1.0000   1.0000   1.0000   1.0000   1.0000   1.0000   1.0000   1.0000
     1.0000   1.0000   1.0000   1.0000   1.0000   1.0000   1.0000   1.0000
     1.0000   1.0000   1.0000   1.0000   1.0000   1.0000   1.0000   1.0000
     1.0000   1.0000   1.0000   1.0000   1.0000   1.0000   1.0000   1.0000
     1.0000   1.0000   1.0000   1.0000   1.0000   1.0000   1.0000   1.0000
     1.0000   1.0000   1.0000   1.0000   1.0000   1.0000   1.0000   1.0000
     1.0000   1.0000   1.0000   1.0000   1.0000   1.0000   1.0000   1.0000
     1.0000   1.0000   1.0000   1.0000   1.0000   1.0000   1.0000   1.0000
     1.0000   1.0000   1.0000   1.0000   1.0000   1.0000   1.0000   1.0000
     1.0000   1.0000   1.0000   1.0000   1.0000   1.0000   1.0000   1.0000
     1.0000   1.0000   1.0000   1.0000   1.0000   1.0000   1.0000   1.0000
     1.0000   1.0000   1.0000   1.0000   1.0000   1.0000   1.0000   1.0000
     1.0000   1.0000   1.0000   1.0000   1.0000   1.0000   1.0000   1.0000
     1.0000   1.0000   1.0000   1.0000   1.0000   1.0000   1.0000   1.0000
     1.0000   1.0000   1.0000   1.0000   1.0000   1.0000   1.0000   1.0000
     1.0000   1.0000   1.0000   1.0000   1.0000   1.0000   1.0000   1.0000
     1.0000   1.0000   1.0000   1.0000   1.0000   1.0000   1.0000   1.0000
     1.0000   1.0000   1.0000   1.0000   1.0000   1.0000   1.0000   1.0000
     1.0000   1.0000   1.0000   1.0000   1.0000   1.0000   1.0000   1.0000
     1.0000   1.0000   1.0000   1.0000   1.0000   1.0000   1.0000   1.0000
     1.0000   1.0000   1.0000   1.0000   1.0000   1.0000   1.0000   1.0000
     1.0000   1.0000   1.0000   1.0000   1.0000   1.0000   1.0000   1.0000
     1.0000   1.0000   1.0000   1.0000   1.0000   1.0000   1.0000   1.0000
     1.0000   1.0000   1.0000   1.0000   1.0000   1.0000   1.0000   1.0000
     1.0000   1.0000   1.0000   1.0000   1.0000   1.0000   1.0000   1.0000
     1.0000   1.0000   1.0000   1.0000   1.0000   1.0000   1.0000   1.0000
     1.0000   1.0000   1.0000   1.0000   1.0000   1.0000   1.0000   1.0000
     1.0000   1.0000   1.0000   1.0000   1.0000   1.0000   1.0000   1.0000
     1.0000   1.0000   1.0000   1.0000   1.0000   1.0000   1.0000   1.0000
     1.0000   1.0000   1.0000   1.0000   1.0000   1.0000   1.0000   1.0000
     1.0000   1.0000   1.0000   1.0000   1.0000   1.0000   1.0000   1.0000
     1.0000   1.0000   1.0000   1.0000   1.0000   1.0000   1.0000   1.0000
     1.0000   1.0000   1.0000   1.0000   1.0000   1.0000   1.0000   1.0000
     1.0000   1.0000   1.0000   1.0000   1.0000   1.0000   1.0000   1.0000
     1.0000   1.0000   1.0000   1.0000   1.0000   1.0000   1.0000   1.0000
     1.0000   1.0000   1.0000   1.0000   1.0000   1.0000   1.0000   1.0000
     1.0000   1.0000   1.0000   1.0000   1.0000   1.0000   1.0000   1.0000
     1.0000   1.0000   1.0000   1.0000   1.0000   1.0000   1.0000   1.0000
     1.0000   1.0000   1.0000   1.0000   1.0000   1.0000   1.0000   1.0000
     1.0000   1.0000   1.0000   1.0000   1.0000   1.0000   1.0000   1.0000
     1.0000   1.0000   1.0000   1.0000   1.0000   1.0000   1.0000   1.0000
     1.0000   1.0000   1.0000   1.0000   1.0000   1.0000   1.0000   1.0000
     1.0000   1.0000   1.0000   1.0000   1.0000   1.0000   1.0000   1.0000
     1.0000   1.0000   1.0000   1.0000   1.0000   1.0000   0.0000   0.0000
     0.0000   0.0000   0.0000   0.0000   0.0000   0.0000   0.0000   0.0000
     0.0000   0.0000   0.0000   0.0000   0.0000   0.0000   0.0000   0.0000
     0.0000   0.0000   0.0000   0.0000   0.0000   0.0000   0.0000   0.0000
     0.0000   0.0000   0.0000   0.0000   0.0000   0.0000   0.0000   0.0000
     0.0000   0.0000   0.0000   0.0000   0.0000   0.0000   0.0000   0.0000
     0.0000   0.0000   0.0000   0.0000   0.0000   0.0000   0.0000   0.0000
     0.0000   0.0000   0.0000   0.0000   0.0000   0.0000   0.0000   0.0000
     0.0000   0.0000   0.0000   0.0000   0.0000   0.0000   0.0000   0.0000
     0.0000   0.0000   0.0000   0.0000   0.0000   0.0000   0.0000   0.0000
     0.0000   0.0000   0.0000   0.0000   0.0000   0.0000

          k =-0.0003 0.2887-0.4658 ( 45626 PWs)   bands (ev):

  -115.7035-115.7033-115.6953-115.6941-115.6908-115.6907-115.6876-115.6872
  -115.6871-115.6865-115.6861-115.6857-115.6847-115.6847-115.6824-115.6821
  -115.6817-115.6806-115.6803-115.6802-115.6795-115.6686 -70.0620 -70.0605
   -70.0588 -70.0583 -70.0577 -70.0568 -70.0531 -70.0528 -70.0526 -70.0506
   -70.0498 -70.0495 -70.0476 -70.0474 -70.0466 -70.0464 -70.0464 -70.0462
   -70.0460 -70.0454 -70.0449 -70.0447 -70.0443 -70.0440 -70.0436 -70.0435
   -70.0430 -70.0429 -70.0429 -70.0427 -70.0426 -70.0426 -70.0419 -70.0418
   -70.0417 -70.0409 -70.0405 -70.0404 -70.0402 -70.0401 -70.0395 -70.0394
   -70.0391 -70.0390 -70.0388 -70.0383 -70.0380 -70.0378 -70.0370 -70.0369
   -70.0368 -70.0362 -70.0358 -70.0358 -70.0357 -70.0355 -70.0345 -70.0341
   -70.0330 -70.0329 -70.0329 -70.0325 -70.0278 -70.0274 -70.0249 -70.0216
   -65.1746 -65.1740 -65.1723 -65.1668 -65.1627 -65.1620 -65.1610 -65.1538
   -65.1521 -65.1515 -65.1417 -65.1347 -65.1278 -65.1191 -32.1647 -32.1644
   -32.1628 -32.1617 -32.1613 -32.1593 -32.1591 -32.1566 -32.1560 -32.1554
   -32.1552 -32.1528 -32.1521 -32.1501 -32.1487 -32.1481 -32.1476 -32.1471
   -32.1452 -32.1445 -32.1442 -32.1409 -32.1399 -32.1392 -32.1387 -32.1383
   -32.1368 -32.1362 -32.1337 -32.1317 -32.1276 -32.1253 -32.1232 -32.1225
   -32.1202 -32.1176 -32.1133 -32.1110 -32.1091 -32.1056 -32.1036 -32.1025
   -10.1520 -10.1064  -9.9208  -9.8799  -9.8332  -9.8023  -9.7340  -9.7188
    -9.7015  -9.6768  -9.6381  -9.6076  -9.5874  -9.5641  -9.5404  -9.5298
    -9.5151  -9.4883  -9.4658  -9.4436  -9.4348  -9.4066  -9.3942  -9.3848
    -9.3679  -9.3519  -9.3416  -9.3155  -9.3113  -9.2990  -9.2887  -9.2719
    -9.2039  -9.1829  -9.1591  -9.1194   1.5860   1.5987   1.6312   1.6341
     1.6549   1.6630   1.6855   1.6916   1.7057   1.7338   1.7432   1.7620
     1.7770   1.7914   1.8261   1.8499   1.8546   1.8646   1.8814   1.8860
     1.9077   1.9152   1.9278   1.9376   1.9514   1.9633   1.9741   1.9923
     2.0059   2.0137   2.0247   2.0353   2.0485   2.0601   2.0723   2.0785
     2.0905   2.1098   2.1246   2.1325   2.1440   2.1566   2.1685   2.1747
     2.1890   2.1958   2.2044   2.2200   2.2221   2.2404   2.2430   2.2580
     2.2693   2.2760   2.2823   2.2898   2.3115   2.3287   2.3426   2.3626
     2.3712   2.3998   2.4177   2.4484   2.4524   2.4866   2.5008   2.5256
     2.5490   2.5556   2.5751   2.5859   2.6003   2.6113   2.6178   2.6359
     2.6548   2.6744   2.6877   2.7015   2.7272   2.7305   2.7627   2.7731
     2.7904   2.8086   2.8352   2.8502   2.8613   2.8719   2.8811   2.9035
     2.9144   2.9324   2.9421   2.9549   2.9669   2.9779   2.9864   3.0011
     3.0169   3.0203   3.0374   3.0391   3.0467   3.0596   3.0715   3.0866
     3.1046   3.1291   3.3002   3.3102   3.3754   3.3885   3.4210   3.4470
     3.5034   3.5166   3.5540   3.5707   3.6012   3.6243   3.6660   3.6967
     3.7499   3.7803   3.7983   3.8523   3.8810   3.9385   3.9598   4.0136
     4.1017   4.1315   4.1674   4.1930   4.2246   4.2676   4.3014   4.3323
     4.3470   4.4028   4.4400   4.4966   4.6280   4.6558   4.7471   4.7786
     4.8230   4.8403   4.8752   4.9161   4.9560   5.0093   5.0550   5.0853
     5.1510   5.1773   5.2067   5.2219   5.2683   5.2780   5.2977   5.3255
     5.3593   5.3849   5.3975   5.4308   5.4399   5.4763   5.4953   5.5093
     5.5326   5.5521   5.6167   5.6578   5.7086   5.7361   5.7675   5.7780
     5.8220   5.8640   5.8890   5.9326   5.9788   6.0197   6.0229   6.0617
     6.0930   6.1064   6.1187   6.1536   6.1702   6.1838   6.2112   6.2493
     6.2791   6.3224   6.3335   6.3409   6.3592   6.3744   6.4009   6.4374
     6.4441   6.4863   6.5006   6.5249   6.5394   6.5600   6.5860   6.6220
     6.6468   6.6604   6.8496   6.8762   6.9042   6.9558   9.8751   9.9585
    11.2720  11.3512  11.7179  11.7540  12.0105  12.1048  12.4279  12.5181
    12.5580  12.7499  12.7948  12.8336  12.9206  13.0679  13.7259  13.8018
    13.8744  13.8971  13.9391  13.9741  14.0241  14.0676  14.1228  14.1702
    14.1770  14.2828  14.3283  14.3847  14.4988  14.5498  14.6854  14.6982
    14.7655  14.7835  15.3452  15.3714  15.4106  15.4853  15.5618  15.6199
    15.6599  15.7075  15.8027  15.8265  15.8485  15.8813  15.9301  15.9870
    16.0532  16.1002  16.2228  16.2726  16.3134  16.3718  16.4794  16.5541
    16.6703  16.7262  16.7862  16.8081  16.8431  16.9337  17.0399  17.1087
    17.1967  17.3178  17.3508  17.4052  17.4696  17.5601  17.6880  17.7626
    17.8362  17.9293  18.0821  18.1467  18.3049  18.3573

     occupation numbers 
     1.0000   1.0000   1.0000   1.0000   1.0000   1.0000   1.0000   1.0000
     1.0000   1.0000   1.0000   1.0000   1.0000   1.0000   1.0000   1.0000
     1.0000   1.0000   1.0000   1.0000   1.0000   1.0000   1.0000   1.0000
     1.0000   1.0000   1.0000   1.0000   1.0000   1.0000   1.0000   1.0000
     1.0000   1.0000   1.0000   1.0000   1.0000   1.0000   1.0000   1.0000
     1.0000   1.0000   1.0000   1.0000   1.0000   1.0000   1.0000   1.0000
     1.0000   1.0000   1.0000   1.0000   1.0000   1.0000   1.0000   1.0000
     1.0000   1.0000   1.0000   1.0000   1.0000   1.0000   1.0000   1.0000
     1.0000   1.0000   1.0000   1.0000   1.0000   1.0000   1.0000   1.0000
     1.0000   1.0000   1.0000   1.0000   1.0000   1.0000   1.0000   1.0000
     1.0000   1.0000   1.0000   1.0000   1.0000   1.0000   1.0000   1.0000
     1.0000   1.0000   1.0000   1.0000   1.0000   1.0000   1.0000   1.0000
     1.0000   1.0000   1.0000   1.0000   1.0000   1.0000   1.0000   1.0000
     1.0000   1.0000   1.0000   1.0000   1.0000   1.0000   1.0000   1.0000
     1.0000   1.0000   1.0000   1.0000   1.0000   1.0000   1.0000   1.0000
     1.0000   1.0000   1.0000   1.0000   1.0000   1.0000   1.0000   1.0000
     1.0000   1.0000   1.0000   1.0000   1.0000   1.0000   1.0000   1.0000
     1.0000   1.0000   1.0000   1.0000   1.0000   1.0000   1.0000   1.0000
     1.0000   1.0000   1.0000   1.0000   1.0000   1.0000   1.0000   1.0000
     1.0000   1.0000   1.0000   1.0000   1.0000   1.0000   1.0000   1.0000
     1.0000   1.0000   1.0000   1.0000   1.0000   1.0000   1.0000   1.0000
[...]
     1.8971   1.9176   1.9365   1.9434   1.9509   1.9591   1.9749   2.0036
     2.0088   2.0163   2.0336   2.0399   2.0585   2.0654   2.0747   2.0840
     2.0942   2.1087   2.1179   2.1321   2.1361   2.1462   2.1580   2.1726
     2.1772   2.1900   2.1989   2.2128   2.2181   2.2343   2.2443   2.2491
     2.2586   2.2684   2.2816   2.2979   2.3241   2.3349   2.3481   2.3585
     2.4023   2.4172   2.4339   2.4479   2.4688   2.4866   2.4951   2.5167
     2.5327   2.5471   2.5696   2.5840   2.6058   2.6285   2.6498   2.6539
     2.6808   2.6912   2.6999   2.7066   2.7349   2.7426   2.7682   2.7891
     2.8037   2.8179   2.8272   2.8526   2.8588   2.8731   2.8861   2.8905
     2.9120   2.9220   2.9276   2.9398   2.9646   2.9748   2.9844   2.9934
     3.0018   3.0139   3.0235   3.0322   3.0429   3.0570   3.0771   3.0809
     3.1073   3.1213   3.2033   3.2652   3.2954   3.3308   3.3681   3.3905
     3.4301   3.4866   3.4965   3.5322   3.5756   3.5840   3.6188   3.6571
     3.7084   3.7474   3.8031   3.8441   3.8663   3.9433   3.9824   4.0140
     4.1200   4.1552   4.1901   4.2783   4.3014   4.3595   4.4326   4.4628
     4.5370   4.5765   4.6148   4.6524   4.6769   4.7075   4.7463   4.7993
     4.8347   4.8511   4.8752   4.9166   4.9391   4.9820   5.0129   5.0226
     5.1005   5.1525   5.1672   5.2719   5.2994   5.3213   5.3471   5.3803
     5.3880   5.4400   5.4595   5.4976   5.5180   5.5541   5.5809   5.6107
     5.6181   5.6429   5.6857   5.6934   5.7222   5.7475   5.7785   5.8215
     5.8515   5.8668   5.8946   5.9140   5.9324   5.9483   5.9842   5.9937
     6.0102   6.0252   6.0432   6.0969   6.1196   6.1348   6.1377   6.1546
     6.1969   6.2166   6.2371   6.2577   6.2796   6.3109   6.3296   6.3381
     6.3576   6.4027   6.4441   6.4588   6.4743   6.5186   6.5580   6.5957
     6.6413   6.6728   6.8242   6.8729   6.8873   6.9623  10.0786  10.1803
    11.1096  11.2119  11.5147  11.6847  12.1239  12.2779  12.5206  12.6067
    12.9742  13.1752  13.2251  13.2784  13.3340  13.3857  13.4324  13.5192
    13.5562  13.6012  13.6555  13.7347  13.7700  13.9570  14.0113  14.0534
    14.0846  14.1042  14.1366  14.1755  14.5801  14.6081  14.6313  14.6818
    14.7041  14.7740  15.0040  15.2802  15.3471  15.4115  15.4618  15.6012
    15.6479  15.6952  15.7432  15.7668  15.8514  15.9008  15.9820  16.0779
    16.1798  16.1951  16.2583  16.3613  16.4754  16.5377  16.5942  16.7476
    16.8966  16.9561  16.9994  17.0880  17.1057  17.1730  17.1993  17.2130
    17.3665  17.4295  17.4571  17.5358  17.6898  17.8244  17.8712  17.9088
    18.0014  18.0433  18.1010  18.2140  18.3058  18.3889

     occupation numbers 
     1.0000   1.0000   1.0000   1.0000   1.0000   1.0000   1.0000   1.0000
     1.0000   1.0000   1.0000   1.0000   1.0000   1.0000   1.0000   1.0000
     1.0000   1.0000   1.0000   1.0000   1.0000   1.0000   1.0000   1.0000
     1.0000   1.0000   1.0000   1.0000   1.0000   1.0000   1.0000   1.0000
     1.0000   1.0000   1.0000   1.0000   1.0000   1.0000   1.0000   1.0000
     1.0000   1.0000   1.0000   1.0000   1.0000   1.0000   1.0000   1.0000
     1.0000   1.0000   1.0000   1.0000   1.0000   1.0000   1.0000   1.0000
     1.0000   1.0000   1.0000   1.0000   1.0000   1.0000   1.0000   1.0000
     1.0000   1.0000   1.0000   1.0000   1.0000   1.0000   1.0000   1.0000
     1.0000   1.0000   1.0000   1.0000   1.0000   1.0000   1.0000   1.0000
     1.0000   1.0000   1.0000   1.0000   1.0000   1.0000   1.0000   1.0000
     1.0000   1.0000   1.0000   1.0000   1.0000   1.0000   1.0000   1.0000
     1.0000   1.0000   1.0000   1.0000   1.0000   1.0000   1.0000   1.0000
     1.0000   1.0000   1.0000   1.0000   1.0000   1.0000   1.0000   1.0000
     1.0000   1.0000   1.0000   1.0000   1.0000   1.0000   1.0000   1.0000
     1.0000   1.0000   1.0000   1.0000   1.0000   1.0000   1.0000   1.0000
     1.0000   1.0000   1.0000   1.0000   1.0000   1.0000   1.0000   1.0000
     1.0000   1.0000   1.0000   1.0000   1.0000   1.0000   1.0000   1.0000
     1.0000   1.0000   1.0000   1.0000   1.0000   1.0000   1.0000   1.0000
     1.0000   1.0000   1.0000   1.0000   1.0000   1.0000   1.0000   1.0000
     1.0000   1.0000   1.0000   1.0000   1.0000   1.0000   1.0000   1.0000
     1.0000   1.0000   1.0000   1.0000   1.0000   1.0000   1.0000   1.0000
     1.0000   1.0000   1.0000   1.0000   1.0000   1.0000   1.0000   1.0000
     1.0000   1.0000   1.0000   1.0000   1.0000   1.0000   1.0000   1.0000
     1.0000   1.0000   1.0000   1.0000   1.0000   1.0000   1.0000   1.0000
     1.0000   1.0000   1.0000   1.0000   1.0000   1.0000   1.0000   1.0000
     1.0000   1.0000   1.0000   1.0000   1.0000   1.0000   1.0000   1.0000
     1.0000   1.0000   1.0000   1.0000   1.0000   1.0000   1.0000   1.0000
     1.0000   1.0000   1.0000   1.0000   1.0000   1.0000   1.0000   1.0000
     1.0000   1.0000   1.0000   1.0000   1.0000   1.0000   1.0000   1.0000
     1.0000   1.0000   1.0000   1.0000   1.0000   1.0000   1.0000   1.0000
     1.0000   1.0000   1.0000   1.0000   1.0000   1.0000   1.0000   1.0000
     1.0000   1.0000   1.0000   1.0000   1.0000   1.0000   1.0000   1.0000
     1.0000   1.0000   1.0000   1.0000   1.0000   1.0000   1.0000   1.0000
     1.0000   1.0000   1.0000   1.0000   1.0000   1.0000   1.0000   1.0000
     1.0000   1.0000   1.0000   1.0000   1.0000   1.0000   1.0000   1.0000
     1.0000   1.0000   1.0000   1.0000   1.0000   1.0000   1.0000   1.0000
     1.0000   1.0000   1.0000   1.0000   1.0000   1.0000   1.0000   1.0000
     1.0000   1.0000   1.0000   1.0000   1.0000   1.0000   1.0000   1.0000
     1.0000   1.0000   1.0000   1.0000   1.0000   1.0000   1.0000   1.0000
     1.0000   1.0000   1.0000   1.0000   1.0000   1.0000   1.0000   1.0000
     1.0000   1.0000   1.0000   1.0000   1.0000   1.0000   1.0000   1.0000
     1.0000   1.0000   1.0000   1.0000   1.0000   1.0000   1.0000   1.0000
     1.0000   1.0000   1.0000   1.0000   1.0000   1.0000   1.0000   1.0000
     1.0000   1.0000   1.0000   1.0000   1.0000   1.0000   1.0000   1.0000
     1.0000   1.0000   1.0000   1.0000   1.0000   1.0000   1.0000   1.0000
     1.0000   1.0000   1.0000   1.0000   1.0000   1.0000   1.0000   1.0000
     1.0000   1.0000   1.0000   1.0000   1.0000   1.0000   1.0000   1.0000
     1.0000   1.0000   1.0000   1.0000   1.0000   1.0000   1.0000   1.0000
     1.0000   1.0000   1.0000   1.0000   1.0000   1.0000   0.0000   0.0000
     0.0000   0.0000   0.0000   0.0000   0.0000   0.0000   0.0000   0.0000
     0.0000   0.0000   0.0000   0.0000   0.0000   0.0000   0.0000   0.0000
     0.0000   0.0000   0.0000   0.0000   0.0000   0.0000   0.0000   0.0000
     0.0000   0.0000   0.0000   0.0000   0.0000   0.0000   0.0000   0.0000
     0.0000   0.0000   0.0000   0.0000   0.0000   0.0000   0.0000   0.0000
     0.0000   0.0000   0.0000   0.0000   0.0000   0.0000   0.0000   0.0000
     0.0000   0.0000   0.0000   0.0000   0.0000   0.0000   0.0000   0.0000
     0.0000   0.0000   0.0000   0.0000   0.0000   0.0000   0.0000   0.0000
     0.0000   0.0000   0.0000   0.0000   0.0000   0.0000   0.0000   0.0000
     0.0000   0.0000   0.0000   0.0000   0.0000   0.0000

          k =-0.4998-0.8654-0.4657 ( 45630 PWs)   bands (ev):

  -115.7035-115.7033-115.6953-115.6941-115.6908-115.6907-115.6876-115.6872
  -115.6871-115.6865-115.6861-115.6857-115.6847-115.6847-115.6824-115.6821
  -115.6817-115.6806-115.6803-115.6802-115.6795-115.6686 -70.0620 -70.0605
   -70.0588 -70.0583 -70.0577 -70.0568 -70.0531 -70.0528 -70.0526 -70.0506
   -70.0498 -70.0495 -70.0476 -70.0474 -70.0466 -70.0464 -70.0464 -70.0462
   -70.0460 -70.0454 -70.0449 -70.0447 -70.0443 -70.0440 -70.0436 -70.0435
   -70.0430 -70.0429 -70.0429 -70.0427 -70.0426 -70.0426 -70.0419 -70.0418
   -70.0417 -70.0409 -70.0405 -70.0404 -70.0402 -70.0401 -70.0395 -70.0394
   -70.0391 -70.0390 -70.0388 -70.0383 -70.0380 -70.0378 -70.0370 -70.0369
   -70.0368 -70.0362 -70.0358 -70.0358 -70.0357 -70.0355 -70.0345 -70.0341
   -70.0330 -70.0329 -70.0329 -70.0325 -70.0278 -70.0274 -70.0249 -70.0216
   -65.1746 -65.1740 -65.1723 -65.1668 -65.1627 -65.1620 -65.1610 -65.1538
   -65.1521 -65.1515 -65.1417 -65.1347 -65.1278 -65.1191 -32.1647 -32.1644
   -32.1628 -32.1617 -32.1613 -32.1593 -32.1591 -32.1566 -32.1560 -32.1554
   -32.1553 -32.1528 -32.1521 -32.1501 -32.1487 -32.1481 -32.1476 -32.1471
   -32.1452 -32.1445 -32.1442 -32.1409 -32.1399 -32.1392 -32.1387 -32.1383
   -32.1367 -32.1362 -32.1337 -32.1317 -32.1276 -32.1253 -32.1231 -32.1226
   -32.1202 -32.1176 -32.1133 -32.1110 -32.1091 -32.1057 -32.1036 -32.1025
   -10.0990 -10.0553 -10.0024  -9.9437  -9.8369  -9.8179  -9.7861  -9.7426
    -9.6592  -9.6535  -9.6233  -9.5836  -9.5681  -9.5392  -9.5296  -9.5212
    -9.5086  -9.4801  -9.4686  -9.4367  -9.4280  -9.4158  -9.4077  -9.4008
    -9.3875  -9.3637  -9.3426  -9.3248  -9.3191  -9.2922  -9.2748  -9.2640
    -9.1965  -9.1890  -9.1570  -9.1190   1.6137   1.6360   1.6473   1.6518
     1.6653   1.6783   1.6795   1.7095   1.7197   1.7315   1.7476   1.7761
     1.7992   1.8006   1.8362   1.8451   1.8531   1.8602   1.8740   1.8939
     1.9065   1.9136   1.9207   1.9298   1.9474   1.9582   1.9733   1.9885
     2.0007   2.0100   2.0217   2.0330   2.0500   2.0630   2.0673   2.0780
     2.0883   2.1042   2.1152   2.1227   2.1311   2.1486   2.1574   2.1645
     2.1776   2.1835   2.1948   2.2078   2.2152   2.2267   2.2361   2.2434
     2.2464   2.2665   2.2834   2.2891   2.3012   2.3245   2.3387   2.3540
     2.3549   2.3662   2.4061   2.4283   2.4418   2.4488   2.4896   2.4988
     2.5168   2.5309   2.5704   2.5806   2.5900   2.6261   2.6469   2.6546
     2.6657   2.6832   2.6893   2.7113   2.7196   2.7389   2.7587   2.7889
     2.8019   2.8240   2.8280   2.8501   2.8693   2.8758   2.8891   2.8953
     2.9127   2.9256   2.9314   2.9424   2.9644   2.9687   2.9802   2.9875
     3.0113   3.0150   3.0259   3.0329   3.0434   3.0605   3.0740   3.0868
     3.1057   3.1165   3.2378   3.3032   3.3374   3.3550   3.4027   3.4165
     3.4748   3.5233   3.5384   3.5434   3.5878   3.6186   3.6312   3.6828
     3.7437   3.7851   3.8243   3.8337   3.8556   3.9617   3.9863   4.0143
     4.0771   4.1275   4.1480   4.2022   4.2609   4.2752   4.4275   4.4620
     4.6000   4.6223   4.6296   4.6724   4.6894   4.7370   4.7964   4.8284
     4.8508   4.9073   4.9739   5.0084   5.0266   5.0565   5.0926   5.1148
     5.1470   5.1658   5.1860   5.1964   5.2344   5.2438   5.2642   5.2887
     5.3053   5.3505   5.3891   5.4098   5.4614   5.5102   5.5140   5.5572
     5.5834   5.6350   5.6554   5.6887   5.7144   5.7415   5.7820   5.7997
     5.8326   5.8447   5.8585   5.8945   5.9079   5.9502   5.9841   5.9907
     6.0034   6.0349   6.0715   6.0834   6.1208   6.1333   6.1572   6.1711
     6.1993   6.2153   6.2512   6.2766   6.2838   6.2844   6.3192   6.3688
     6.3980   6.4407   6.4569   6.5071   6.5195   6.5641   6.5927   6.6026
     6.6913   6.7069   6.7717   6.8533   6.8742   6.9481  10.3949  10.5301
    10.5844  10.7339  11.7133  11.7434  11.8471  11.9757  12.9258  12.9680
    13.1115  13.1591  13.1822  13.2080  13.2792  13.4234  13.4702  13.4902
    13.5942  13.6348  13.6978  13.7811  13.8627  13.8743  14.0679  14.0804
    14.1917  14.2184  14.2792  14.3104  14.3630  14.3924  14.4202  14.4529
    14.4833  14.5004  15.2877  15.3524  15.4603  15.5450  15.5917  15.6015
    15.6143  15.7048  15.7592  15.8229  15.9049  15.9343  15.9781  16.0078
    16.0427  16.1881  16.2017  16.2598  16.4744  16.5393  16.5917  16.7058
    16.8352  16.9589  17.0291  17.1002  17.1672  17.1857  17.2076  17.2535
    17.2733  17.3312  17.4911  17.5249  17.6223  17.6605  17.7334  17.9800
    18.0104  18.0671  18.2830  18.2928  18.3847  18.4576

     occupation numbers 
     1.0000   1.0000   1.0000   1.0000   1.0000   1.0000   1.0000   1.0000
     1.0000   1.0000   1.0000   1.0000   1.0000   1.0000   1.0000   1.0000
     1.0000   1.0000   1.0000   1.0000   1.0000   1.0000   1.0000   1.0000
     1.0000   1.0000   1.0000   1.0000   1.0000   1.0000   1.0000   1.0000
     1.0000   1.0000   1.0000   1.0000   1.0000   1.0000   1.0000   1.0000
     1.0000   1.0000   1.0000   1.0000   1.0000   1.0000   1.0000   1.0000
     1.0000   1.0000   1.0000   1.0000   1.0000   1.0000   1.0000   1.0000
     1.0000   1.0000   1.0000   1.0000   1.0000   1.0000   1.0000   1.0000
     1.0000   1.0000   1.0000   1.0000   1.0000   1.0000   1.0000   1.0000
     1.0000   1.0000   1.0000   1.0000   1.0000   1.0000   1.0000   1.0000
     1.0000   1.0000   1.0000   1.0000   1.0000   1.0000   1.0000   1.0000
     1.0000   1.0000   1.0000   1.0000   1.0000   1.0000   1.0000   1.0000
     1.0000   1.0000   1.0000   1.0000   1.0000   1.0000   1.0000   1.0000
     1.0000   1.0000   1.0000   1.0000   1.0000   1.0000   1.0000   1.0000
     1.0000   1.0000   1.0000   1.0000   1.0000   1.0000   1.0000   1.0000
     1.0000   1.0000   1.0000   1.0000   1.0000   1.0000   1.0000   1.0000
     1.0000   1.0000   1.0000   1.0000   1.0000   1.0000   1.0000   1.0000
     1.0000   1.0000   1.0000   1.0000   1.0000   1.0000   1.0000   1.0000
     1.0000   1.0000   1.0000   1.0000   1.0000   1.0000   1.0000   1.0000
     1.0000   1.0000   1.0000   1.0000   1.0000   1.0000   1.0000   1.0000
     1.0000   1.0000   1.0000   1.0000   1.0000   1.0000   1.0000   1.0000
     1.0000   1.0000   1.0000   1.0000   1.0000   1.0000   1.0000   1.0000
     1.0000   1.0000   1.0000   1.0000   1.0000   1.0000   1.0000   1.0000
     1.0000   1.0000   1.0000   1.0000   1.0000   1.0000   1.0000   1.0000
     1.0000   1.0000   1.0000   1.0000   1.0000   1.0000   1.0000   1.0000
     1.0000   1.0000   1.0000   1.0000   1.0000   1.0000   1.0000   1.0000
     1.0000   1.0000   1.0000   1.0000   1.0000   1.0000   1.0000   1.0000
     1.0000   1.0000   1.0000   1.0000   1.0000   1.0000   1.0000   1.0000
     1.0000   1.0000   1.0000   1.0000   1.0000   1.0000   1.0000   1.0000
     1.0000   1.0000   1.0000   1.0000   1.0000   1.0000   1.0000   1.0000
     1.0000   1.0000   1.0000   1.0000   1.0000   1.0000   1.0000   1.0000
     1.0000   1.0000   1.0000   1.0000   1.0000   1.0000   1.0000   1.0000
     1.0000   1.0000   1.0000   1.0000   1.0000   1.0000   1.0000   1.0000
     1.0000   1.0000   1.0000   1.0000   1.0000   1.0000   1.0000   1.0000
     1.0000   1.0000   1.0000   1.0000   1.0000   1.0000   1.0000   1.0000
     1.0000   1.0000   1.0000   1.0000   1.0000   1.0000   1.0000   1.0000
     1.0000   1.0000   1.0000   1.0000   1.0000   1.0000   1.0000   1.0000
     1.0000   1.0000   1.0000   1.0000   1.0000   1.0000   1.0000   1.0000
     1.0000   1.0000   1.0000   1.0000   1.0000   1.0000   1.0000   1.0000
     1.0000   1.0000   1.0000   1.0000   1.0000   1.0000   1.0000   1.0000
     1.0000   1.0000   1.0000   1.0000   1.0000   1.0000   1.0000   1.0000
     1.0000   1.0000   1.0000   1.0000   1.0000   1.0000   1.0000   1.0000
     1.0000   1.0000   1.0000   1.0000   1.0000   1.0000   1.0000   1.0000
     1.0000   1.0000   1.0000   1.0000   1.0000   1.0000   1.0000   1.0000
     1.0000   1.0000   1.0000   1.0000   1.0000   1.0000   1.0000   1.0000
     1.0000   1.0000   1.0000   1.0000   1.0000   1.0000   1.0000   1.0000
     1.0000   1.0000   1.0000   1.0000   1.0000   1.0000   1.0000   1.0000
     1.0000   1.0000   1.0000   1.0000   1.0000   1.0000   1.0000   1.0000
     1.0000   1.0000   1.0000   1.0000   1.0000   1.0000   1.0000   1.0000
     1.0000   1.0000   1.0000   1.0000   1.0000   1.0000   0.0000   0.0000
     0.0000   0.0000   0.0000   0.0000   0.0000   0.0000   0.0000   0.0000
     0.0000   0.0000   0.0000   0.0000   0.0000   0.0000   0.0000   0.0000
     0.0000   0.0000   0.0000   0.0000   0.0000   0.0000   0.0000   0.0000
     0.0000   0.0000   0.0000   0.0000   0.0000   0.0000   0.0000   0.0000
     0.0000   0.0000   0.0000   0.0000   0.0000   0.0000   0.0000   0.0000
     0.0000   0.0000   0.0000   0.0000   0.0000   0.0000   0.0000   0.0000
     0.0000   0.0000   0.0000   0.0000   0.0000   0.0000   0.0000   0.0000
     0.0000   0.0000   0.0000   0.0000   0.0000   0.0000   0.0000   0.0000
     0.0000   0.0000   0.0000   0.0000   0.0000   0.0000   0.0000   0.0000
     0.0000   0.0000   0.0000   0.0000   0.0000   0.0000

     the Fermi energy is     8.0321 ev

!    total energy              =  -13064.13027518 Ry
     Harris-Foulkes estimate   =  -13064.13027518 Ry
     estimated scf accuracy    <          5.9E-09 Ry

     The total energy is the sum of the following terms:

     one-electron contribution =  -10940.05380529 Ry
     hartree contribution      =    5734.83371477 Ry
     xc contribution           =   -1414.85942405 Ry
     ewald contribution        =   -6444.05076061 Ry
     smearing contrib. (-TS)   =       0.00000000 Ry

     convergence has been achieved in  12 iterations

     Writing output data file ZnO.save/
 
     init_run     :     13.97s CPU     14.62s WALL (       1 calls)
     electrons    :    676.16s CPU    690.07s WALL (       1 calls)

     Called by init_run:
     wfcinit      :     11.71s CPU     12.03s WALL (       1 calls)
     wfcinit:atom :      0.10s CPU      0.13s WALL (       5 calls)
     wfcinit:wfcr :     11.20s CPU     11.45s WALL (       5 calls)
     potinit      :      1.02s CPU      1.08s WALL (       1 calls)
     hinit0       :      0.79s CPU      0.95s WALL (       1 calls)

     Called by electrons:
     c_bands      :    624.26s CPU    636.81s WALL (      12 calls)
     sum_band     :     45.07s CPU     45.87s WALL (      12 calls)
     v_of_rho     :      5.47s CPU      5.78s WALL (      13 calls)
     v_h          :      0.15s CPU      0.20s WALL (      13 calls)
     v_xc         :      5.32s CPU      5.58s WALL (      13 calls)
     newd         :      1.21s CPU      1.29s WALL (      13 calls)
     mix_rho      :      0.32s CPU      0.43s WALL (      12 calls)

     Called by c_bands:
     init_us_2    :      4.26s CPU      4.30s WALL (     125 calls)
     cegterg      :    563.33s CPU    575.45s WALL (      60 calls)

     Called by sum_band:
     sum_band:bec :      0.24s CPU      0.24s WALL (      60 calls)
     addusdens    :      1.05s CPU      1.14s WALL (      12 calls)

     Called by *egterg:
     h_psi        :    196.36s CPU    199.36s WALL (     259 calls)
     s_psi        :     49.45s CPU     49.47s WALL (     259 calls)
     g_psi        :      0.75s CPU      0.75s WALL (     194 calls)
     cdiaghg      :    202.35s CPU    207.94s WALL (     254 calls)
     cegterg:over :     53.31s CPU     54.61s WALL (     194 calls)
     cegterg:upda :     34.44s CPU     34.83s WALL (     194 calls)
     cegterg:last :     19.25s CPU     19.30s WALL (      60 calls)
     cdiaghg:chol :      9.55s CPU      9.59s WALL (     254 calls)
     cdiaghg:inve :      3.05s CPU      3.05s WALL (     254 calls)
     cdiaghg:para :     48.88s CPU     53.43s WALL (     508 calls)

     Called by h_psi:
     h_psi:pot    :    194.76s CPU    196.73s WALL (     259 calls)
     h_psi:calbec :     50.83s CPU     52.12s WALL (     259 calls)
     vloc_psi     :     94.22s CPU     94.70s WALL (     259 calls)
     add_vuspsi   :     49.71s CPU     49.90s WALL (     259 calls)

     General routines
     calbec       :     70.89s CPU     72.71s WALL (     319 calls)
     fft          :      1.21s CPU      1.69s WALL (     167 calls)
     ffts         :      0.06s CPU      0.06s WALL (      25 calls)
     fftw         :    106.42s CPU    106.97s WALL (  169462 calls)
     interpolate  :      0.15s CPU      0.18s WALL (      13 calls)
 
     Parallel routines
     fft_scatt_xy :     17.68s CPU     17.77s WALL (  169654 calls)
     fft_scatt_yz :     28.31s CPU     28.92s WALL (  169654 calls)
 
     PWSCF        :  11m34.59s CPU  11m51.95s WALL

 
   This run was terminated on:   1:38:29  15Jul2022            

=------------------------------------------------------------------------------=
   JOB DONE.
=------------------------------------------------------------------------------=
