
     Program PWSCF v.6.4.1 starts on 16Jun2022 at 20:12:45 

     This program is part of the open-source Quantum ESPRESSO suite
     for quantum simulation of materials; please cite
         "P. Giannozzi et al., J. Phys.:Condens. Matter 21 395502 (2009);
         "P. Giannozzi et al., J. Phys.:Condens. Matter 29 465901 (2017);
          URL http://www.quantum-espresso.org", 
     in publications or presentations arising from this work. More details at
     http://www.quantum-espresso.org/quote

     Parallel version (MPI), running on    64 processors

     MPI processes distributed on     1 nodes
     K-points division:     npool     =       4
     R & G space division:  proc/nbgrp/npool/nimage =      16
     Waiting for input...
     Reading input from standard input
Warning: card &IONS ignored
Warning: card   UPSCALE           = 100.D0, ignored
Warning: card / ignored
Warning: card &CELL ignored
Warning: card   CELL_DYNAMICS     = 'BFGS' ignored
Warning: card   PRESS_CONV_THR    = 0.5D0 ignored
Warning: card   CELL_DOFREE = 'ALL' ignored
Warning: card / ignored

     Current dimensions of program PWSCF are:
     Max number of different atomic species (ntypx) = 10
     Max number of k-points (npk) =  40000
     Max angular momentum in pseudopotentials (lmaxx) =  3

     Subspace diagonalization in iterative solution of the eigenvalue problem:
     one sub-group per band group will be used
     scalapack distributed-memory algorithm (size of sub-group:  2*  2 procs)

 
     Parallelization info
     --------------------
     sticks:   dense  smooth     PW     G-vecs:    dense   smooth      PW
     Min         100      52     16                 4928     1916     330
     Max         101      53     18                 4933     1925     333
     Sum        1615     847    265                78895    30767    5311
 


     bravais-lattice index     =            0
     lattice parameter (alat)  =       6.2342  a.u.
     unit-cell volume          =     318.3264 (a.u.)^3
     number of atoms/cell      =            4
     number of atomic types    =            3
     number of electrons       =        42.00
     number of Kohn-Sham states=           21
     kinetic-energy cutoff     =      80.0000  Ry
     charge density cutoff     =     600.0000  Ry
     convergence threshold     =      1.0E-06
     mixing beta               =       0.5000
     number of iterations used =            8  plain     mixing
     Exchange-correlation      = SLA  PW   PSX  PSC ( 1  4 10  8 0 0)
     Using LIBXC version       =    4   3   4

     celldm(1)=   6.234212  celldm(2)=   0.000000  celldm(3)=   0.000000
     celldm(4)=   0.000000  celldm(5)=   0.000000  celldm(6)=   0.000000

     crystal axes: (cart. coord. in units of alat)
               a(1) = (   1.000000  -0.000000  -0.000000 )  
               a(2) = (  -0.500000   0.866025   0.000000 )  
               a(3) = (  -0.000000   0.000000   1.517041 )  

     reciprocal axes: (cart. coord. in units 2 pi/alat)
               b(1) = (  1.000000  0.577351  0.000000 )  
               b(2) = (  0.000000  1.154701 -0.000000 )  
               b(3) = (  0.000000 -0.000000  0.659178 )  


     PseudoPot. # 1 for Mg read from file:
     ./GBRV_PBEsol/mg_pbesol_v1.4.uspp.F.UPF
     MD5 check sum: 4059f37963cf5867752dbf5ab2400678
     Pseudo is Ultrasoft, Zval = 10.0
     Generated by new atomic code, or converted to UPF format
     Using radial grid of  821 points,  7 beta functions with: 
                l(1) =   0
                l(2) =   0
                l(3) =   0
                l(4) =   1
                l(5) =   1
                l(6) =   2
                l(7) =   2
     Q(r) pseudized with  8 coefficients,  rinner =    1.200   1.200   1.200
                                                       1.200   1.200

     PseudoPot. # 2 for Zn read from file:
     ./GBRV_PBEsol/zn_pbesol_v1.uspp.F.UPF
     MD5 check sum: 7d8615e52efe7c1e2b1899de8658bae2
     Pseudo is Ultrasoft, Zval = 20.0
     Generated by new atomic code, or converted to UPF format
     Using radial grid of  943 points,  6 beta functions with: 
                l(1) =   0
                l(2) =   0
                l(3) =   1
                l(4) =   1
                l(5) =   2
                l(6) =   2
     Q(r) pseudized with  8 coefficients,  rinner =    1.100   1.100   1.100
                                                       1.100   1.100

     PseudoPot. # 3 for O  read from file:
     ./GBRV_PBEsol/o_pbesol_v1.2.uspp.F.UPF
     MD5 check sum: 501638753501ef6325af9037351f7734
     Pseudo is Ultrasoft + core correction, Zval =  6.0
     Generated by new atomic code, or converted to UPF format
     Using radial grid of  737 points,  5 beta functions with: 
                l(1) =   0
                l(2) =   0
                l(3) =   1
                l(4) =   1
                l(5) =   2
     Q(r) pseudized with  8 coefficients,  rinner =    0.900   0.900   0.900
                                                       0.900   0.900

     atomic species   valence    mass     pseudopotential
        Mg            10.00    24.30500     Mg( 1.00)
        Zn            20.00    65.38000     Zn( 1.00)
        O              6.00    15.99900     O ( 1.00)

     No symmetry found


                                    s                        frac. trans.

      isym =  1     identity                                     

 cryst.   s( 1) = (     1          0          0      )
                  (     0          1          0      )
                  (     0          0          1      )

 cart.    s( 1) = (  1.0000000 -0.0000000 -0.0000000 )
                  (  0.0000000  1.0000000  0.0000000 )
                  (  0.0000000 -0.0000000  1.0000000 )


   Cartesian axes

     site n.     atom                  positions (alat units)
         1           O   tau(   1) = (   0.5000001   0.2886753   0.0111440  )
         2           O   tau(   2) = (  -0.0000001   0.5773493   0.7696645  )
         3           Zn  tau(   3) = (   0.4999998   0.2886747   0.9162836  )
         4           Mg  tau(   4) = (  -0.0000005   0.5773511   1.6797873  )

   Crystallographic axes

     site n.     atom                  positions (cryst. coord.)
         1           O   tau(   1) = (  0.6666670  0.3333337  0.0073459  )
         2           O   tau(   2) = (  0.3333329  0.6666657  0.5073458  )
         3           Zn  tau(   3) = (  0.6666664  0.3333329  0.6039939  )
         4           Mg  tau(   4) = (  0.3333337  0.6666677  1.1072785  )

     number of k points=   260
                       cart. coord. in units 2pi/alat
        k(    1) = (   0.0000000   0.0000000   0.0000000), wk =   0.0039062
        k(    2) = (   0.0000000  -0.0000000   0.0823972), wk =   0.0078125
        k(    3) = (   0.0000000  -0.0000000   0.1647945), wk =   0.0078125
        k(    4) = (   0.0000000  -0.0000000   0.2471917), wk =   0.0078125
        k(    5) = (  -0.0000000   0.0000000  -0.3295889), wk =   0.0039062
        k(    6) = (   0.0000000   0.1443376  -0.0000000), wk =   0.0078125
        k(    7) = (   0.0000000   0.1443376   0.0823972), wk =   0.0078125
        k(    8) = (   0.0000000   0.1443376   0.1647945), wk =   0.0078125
        k(    9) = (   0.0000000   0.1443376   0.2471917), wk =   0.0078125
        k(   10) = (  -0.0000000   0.1443377  -0.3295889), wk =   0.0078125
        k(   11) = (  -0.0000000   0.1443376  -0.2471917), wk =   0.0078125
        k(   12) = (  -0.0000000   0.1443376  -0.1647945), wk =   0.0078125
        k(   13) = (   0.0000000   0.1443376  -0.0823972), wk =   0.0078125
        k(   14) = (   0.0000000   0.2886752  -0.0000000), wk =   0.0078125
        k(   15) = (   0.0000000   0.2886752   0.0823972), wk =   0.0078125
        k(   16) = (   0.0000001   0.2886752   0.1647944), wk =   0.0078125
        k(   17) = (   0.0000001   0.2886752   0.2471917), wk =   0.0078125
        k(   18) = (  -0.0000000   0.2886753  -0.3295890), wk =   0.0078125
        k(   19) = (   0.0000000   0.2886753  -0.2471917), wk =   0.0078125
        k(   20) = (   0.0000000   0.2886753  -0.1647945), wk =   0.0078125
        k(   21) = (   0.0000000   0.2886753  -0.0823973), wk =   0.0078125
        k(   22) = (   0.0000001   0.4330129  -0.0000000), wk =   0.0078125
        k(   23) = (   0.0000001   0.4330129   0.0823972), wk =   0.0078125
        k(   24) = (   0.0000001   0.4330128   0.1647944), wk =   0.0078125
        k(   25) = (   0.0000001   0.4330128   0.2471917), wk =   0.0078125
        k(   26) = (   0.0000000   0.4330129  -0.3295890), wk =   0.0078125
        k(   27) = (   0.0000000   0.4330129  -0.2471917), wk =   0.0078125
        k(   28) = (   0.0000000   0.4330129  -0.1647945), wk =   0.0078125
        k(   29) = (   0.0000000   0.4330129  -0.0823973), wk =   0.0078125
        k(   30) = (  -0.0000001  -0.5773505   0.0000000), wk =   0.0039062
        k(   31) = (  -0.0000001  -0.5773505   0.0823973), wk =   0.0078125
        k(   32) = (  -0.0000001  -0.5773505   0.1647945), wk =   0.0078125
        k(   33) = (  -0.0000000  -0.5773505   0.2471917), wk =   0.0078125
        k(   34) = (  -0.0000001  -0.5773504  -0.3295889), wk =   0.0039062
        k(   35) = (   0.1250000   0.0721688   0.0000000), wk =   0.0078125
        k(   36) = (   0.1250000   0.0721688   0.0823972), wk =   0.0078125
        k(   37) = (   0.1250000   0.0721688   0.1647945), wk =   0.0078125
        k(   38) = (   0.1250000   0.0721688   0.2471917), wk =   0.0078125
        k(   39) = (   0.1250000   0.0721689  -0.3295889), wk =   0.0078125
        k(   40) = (   0.1250000   0.0721689  -0.2471917), wk =   0.0078125
        k(   41) = (   0.1250000   0.0721688  -0.1647945), wk =   0.0078125
        k(   42) = (   0.1250000   0.0721688  -0.0823972), wk =   0.0078125
        k(   43) = (   0.1250000   0.2165064  -0.0000000), wk =   0.0078125
        k(   44) = (   0.1250000   0.2165064   0.0823972), wk =   0.0078125
        k(   45) = (   0.1250000   0.2165064   0.1647945), wk =   0.0078125
        k(   46) = (   0.1250001   0.2165064   0.2471917), wk =   0.0078125
        k(   47) = (   0.1250000   0.2165065  -0.3295889), wk =   0.0078125
        k(   48) = (   0.1250000   0.2165065  -0.2471917), wk =   0.0078125
        k(   49) = (   0.1250000   0.2165065  -0.1647945), wk =   0.0078125
        k(   50) = (   0.1250000   0.2165065  -0.0823972), wk =   0.0078125
        k(   51) = (   0.1250000   0.3608441  -0.0000000), wk =   0.0078125
        k(   52) = (   0.1250001   0.3608441   0.0823972), wk =   0.0078125
        k(   53) = (   0.1250001   0.3608440   0.1647945), wk =   0.0078125
        k(   54) = (   0.1250001   0.3608440   0.2471917), wk =   0.0078125
        k(   55) = (   0.1250000   0.3608441  -0.3295889), wk =   0.0078125
        k(   56) = (   0.1250000   0.3608441  -0.2471917), wk =   0.0078125
        k(   57) = (   0.1250000   0.3608441  -0.1647945), wk =   0.0078125
        k(   58) = (   0.1250000   0.3608441  -0.0823972), wk =   0.0078125
        k(   59) = (   0.1250001   0.5051817  -0.0000000), wk =   0.0078125
        k(   60) = (   0.1250001   0.5051817   0.0823972), wk =   0.0078125
        k(   61) = (   0.1250001   0.5051817   0.1647944), wk =   0.0078125
        k(   62) = (   0.1250001   0.5051817   0.2471917), wk =   0.0078125
        k(   63) = (   0.1250000   0.5051817  -0.3295890), wk =   0.0078125
        k(   64) = (   0.1250000   0.5051817  -0.2471917), wk =   0.0078125
        k(   65) = (   0.1250000   0.5051817  -0.1647945), wk =   0.0078125
        k(   66) = (   0.1250001   0.5051817  -0.0823973), wk =   0.0078125
        k(   67) = (   0.1249999  -0.5051817   0.0000001), wk =   0.0078125
        k(   68) = (   0.1249999  -0.5051817   0.0823973), wk =   0.0078125
        k(   69) = (   0.1250000  -0.5051817   0.1647945), wk =   0.0078125
        k(   70) = (   0.1250000  -0.5051817   0.2471918), wk =   0.0078125
        k(   71) = (   0.1249999  -0.5051816  -0.3295889), wk =   0.0078125
        k(   72) = (   0.1249999  -0.5051816  -0.2471916), wk =   0.0078125
        k(   73) = (   0.1249999  -0.5051816  -0.1647944), wk =   0.0078125
        k(   74) = (   0.1249999  -0.5051816  -0.0823972), wk =   0.0078125
        k(   75) = (   0.1250000  -0.3608440   0.0000000), wk =   0.0078125
        k(   76) = (   0.1250000  -0.3608440   0.0823973), wk =   0.0078125
        k(   77) = (   0.1250000  -0.3608441   0.1647945), wk =   0.0078125
        k(   78) = (   0.1250000  -0.3608441   0.2471917), wk =   0.0078125
        k(   79) = (   0.1249999  -0.3608440  -0.3295889), wk =   0.0078125
        k(   80) = (   0.1249999  -0.3608440  -0.2471917), wk =   0.0078125
        k(   81) = (   0.1249999  -0.3608440  -0.1647944), wk =   0.0078125
        k(   82) = (   0.1249999  -0.3608440  -0.0823972), wk =   0.0078125
        k(   83) = (   0.1250000  -0.2165064   0.0000000), wk =   0.0078125
        k(   84) = (   0.1250000  -0.2165064   0.0823973), wk =   0.0078125
        k(   85) = (   0.1250000  -0.2165064   0.1647945), wk =   0.0078125
        k(   86) = (   0.1250000  -0.2165064   0.2471917), wk =   0.0078125
        k(   87) = (   0.1249999  -0.2165064  -0.3295889), wk =   0.0078125
        k(   88) = (   0.1249999  -0.2165064  -0.2471917), wk =   0.0078125
        k(   89) = (   0.1250000  -0.2165064  -0.1647944), wk =   0.0078125
        k(   90) = (   0.1250000  -0.2165064  -0.0823972), wk =   0.0078125
        k(   91) = (   0.1250000  -0.0721688   0.0000000), wk =   0.0078125
        k(   92) = (   0.1250000  -0.0721688   0.0823973), wk =   0.0078125
        k(   93) = (   0.1250000  -0.0721688   0.1647945), wk =   0.0078125
        k(   94) = (   0.1250000  -0.0721688   0.2471917), wk =   0.0078125
        k(   95) = (   0.1250000  -0.0721688  -0.3295889), wk =   0.0078125
        k(   96) = (   0.1250000  -0.0721688  -0.2471917), wk =   0.0078125
        k(   97) = (   0.1250000  -0.0721688  -0.1647944), wk =   0.0078125
        k(   98) = (   0.1250000  -0.0721688  -0.0823972), wk =   0.0078125
        k(   99) = (   0.2500000   0.1443377   0.0000000), wk =   0.0078125
        k(  100) = (   0.2500000   0.1443376   0.0823973), wk =   0.0078125
        k(  101) = (   0.2500000   0.1443376   0.1647945), wk =   0.0078125
        k(  102) = (   0.2500000   0.1443376   0.2471917), wk =   0.0078125
        k(  103) = (   0.2500000   0.1443377  -0.3295889), wk =   0.0078125
        k(  104) = (   0.2500000   0.1443377  -0.2471917), wk =   0.0078125
        k(  105) = (   0.2500000   0.1443377  -0.1647944), wk =   0.0078125
        k(  106) = (   0.2500000   0.1443377  -0.0823972), wk =   0.0078125
        k(  107) = (   0.2500000   0.2886753   0.0000000), wk =   0.0078125
        k(  108) = (   0.2500000   0.2886753   0.0823972), wk =   0.0078125
        k(  109) = (   0.2500001   0.2886753   0.1647945), wk =   0.0078125
        k(  110) = (   0.2500001   0.2886752   0.2471917), wk =   0.0078125
        k(  111) = (   0.2500000   0.2886753  -0.3295889), wk =   0.0078125
        k(  112) = (   0.2500000   0.2886753  -0.2471917), wk =   0.0078125
        k(  113) = (   0.2500000   0.2886753  -0.1647945), wk =   0.0078125
        k(  114) = (   0.2500000   0.2886753  -0.0823972), wk =   0.0078125
        k(  115) = (   0.2500001   0.4330129  -0.0000000), wk =   0.0078125
        k(  116) = (   0.2500001   0.4330129   0.0823972), wk =   0.0078125
        k(  117) = (   0.2500001   0.4330129   0.1647945), wk =   0.0078125
        k(  118) = (   0.2500001   0.4330129   0.2471917), wk =   0.0078125
        k(  119) = (   0.2500000   0.4330129  -0.3295889), wk =   0.0078125
        k(  120) = (   0.2500000   0.4330129  -0.2471917), wk =   0.0078125
        k(  121) = (   0.2500000   0.4330129  -0.1647945), wk =   0.0078125
        k(  122) = (   0.2500000   0.4330129  -0.0823972), wk =   0.0078125
        k(  123) = (   0.2500001   0.5773505  -0.0000000), wk =   0.0078125
        k(  124) = (   0.2500001   0.5773505   0.0823972), wk =   0.0078125
        k(  125) = (   0.2500001   0.5773505   0.1647945), wk =   0.0078125
        k(  126) = (   0.2500001   0.5773505   0.2471917), wk =   0.0078125
        k(  127) = (   0.2500000   0.5773506  -0.3295889), wk =   0.0078125
        k(  128) = (   0.2500000   0.5773505  -0.2471917), wk =   0.0078125
        k(  129) = (   0.2500001   0.5773505  -0.1647945), wk =   0.0078125
        k(  130) = (   0.2500001   0.5773505  -0.0823972), wk =   0.0078125
        k(  131) = (   0.2499999  -0.4330128   0.0000001), wk =   0.0078125
        k(  132) = (   0.2500000  -0.4330128   0.0823973), wk =   0.0078125
        k(  133) = (   0.2500000  -0.4330128   0.1647945), wk =   0.0078125
        k(  134) = (   0.2500000  -0.4330129   0.2471918), wk =   0.0078125
        k(  135) = (   0.2499999  -0.4330128  -0.3295889), wk =   0.0078125
        k(  136) = (   0.2499999  -0.4330128  -0.2471916), wk =   0.0078125
        k(  137) = (   0.2499999  -0.4330128  -0.1647944), wk =   0.0078125
        k(  138) = (   0.2499999  -0.4330128  -0.0823972), wk =   0.0078125
        k(  139) = (   0.2500000  -0.2886752   0.0000001), wk =   0.0078125
        k(  140) = (   0.2500000  -0.2886752   0.0823973), wk =   0.0078125
        k(  141) = (   0.2500000  -0.2886752   0.1647945), wk =   0.0078125
        k(  142) = (   0.2500000  -0.2886752   0.2471918), wk =   0.0078125
        k(  143) = (   0.2499999  -0.2886752  -0.3295889), wk =   0.0078125
        k(  144) = (   0.2499999  -0.2886752  -0.2471916), wk =   0.0078125
        k(  145) = (   0.2499999  -0.2886752  -0.1647944), wk =   0.0078125
        k(  146) = (   0.2500000  -0.2886752  -0.0823972), wk =   0.0078125
        k(  147) = (   0.2500000  -0.1443376   0.0000000), wk =   0.0078125
        k(  148) = (   0.2500000  -0.1443376   0.0823973), wk =   0.0078125
        k(  149) = (   0.2500000  -0.1443376   0.1647945), wk =   0.0078125
        k(  150) = (   0.2500000  -0.1443376   0.2471917), wk =   0.0078125
        k(  151) = (   0.2499999  -0.1443376  -0.3295889), wk =   0.0078125
        k(  152) = (   0.2500000  -0.1443376  -0.2471917), wk =   0.0078125
        k(  153) = (   0.2500000  -0.1443376  -0.1647944), wk =   0.0078125
        k(  154) = (   0.2500000  -0.1443376  -0.0823972), wk =   0.0078125
        k(  155) = (   0.2500000   0.0000000   0.0000000), wk =   0.0078125
        k(  156) = (   0.2500000   0.0000000   0.0823973), wk =   0.0078125
        k(  157) = (   0.2500000   0.0000000   0.1647945), wk =   0.0078125
        k(  158) = (   0.2500000   0.0000000   0.2471917), wk =   0.0078125
        k(  159) = (   0.2500000   0.0000001  -0.3295889), wk =   0.0078125
        k(  160) = (   0.2500000   0.0000001  -0.2471917), wk =   0.0078125
        k(  161) = (   0.2500000   0.0000001  -0.1647944), wk =   0.0078125
        k(  162) = (   0.2500000   0.0000000  -0.0823972), wk =   0.0078125
        k(  163) = (   0.3750000   0.2165065   0.0000000), wk =   0.0078125
        k(  164) = (   0.3750000   0.2165065   0.0823973), wk =   0.0078125
        k(  165) = (   0.3750000   0.2165065   0.1647945), wk =   0.0078125
        k(  166) = (   0.3750001   0.2165065   0.2471917), wk =   0.0078125
        k(  167) = (   0.3750000   0.2165065  -0.3295889), wk =   0.0078125
        k(  168) = (   0.3750000   0.2165065  -0.2471917), wk =   0.0078125
        k(  169) = (   0.3750000   0.2165065  -0.1647944), wk =   0.0078125
        k(  170) = (   0.3750000   0.2165065  -0.0823972), wk =   0.0078125
        k(  171) = (   0.3750000   0.3608441   0.0000000), wk =   0.0078125
        k(  172) = (   0.3750001   0.3608441   0.0823973), wk =   0.0078125
        k(  173) = (   0.3750001   0.3608441   0.1647945), wk =   0.0078125
        k(  174) = (   0.3750001   0.3608441   0.2471917), wk =   0.0078125
        k(  175) = (   0.3750000   0.3608441  -0.3295889), wk =   0.0078125
        k(  176) = (   0.3750000   0.3608441  -0.2471917), wk =   0.0078125
        k(  177) = (   0.3750000   0.3608441  -0.1647944), wk =   0.0078125
        k(  178) = (   0.3750000   0.3608441  -0.0823972), wk =   0.0078125
        k(  179) = (   0.3750001   0.5051817   0.0000000), wk =   0.0078125
        k(  180) = (   0.3750001   0.5051817   0.0823972), wk =   0.0078125
        k(  181) = (   0.3750001   0.5051817   0.1647945), wk =   0.0078125
        k(  182) = (   0.3750001   0.5051817   0.2471917), wk =   0.0078125
        k(  183) = (   0.3750000   0.5051818  -0.3295889), wk =   0.0078125
        k(  184) = (   0.3750000   0.5051818  -0.2471917), wk =   0.0078125
        k(  185) = (   0.3750000   0.5051817  -0.1647945), wk =   0.0078125
        k(  186) = (   0.3750001   0.5051817  -0.0823972), wk =   0.0078125
        k(  187) = (   0.3750001   0.6495193  -0.0000000), wk =   0.0078125
        k(  188) = (   0.3750001   0.6495193   0.0823972), wk =   0.0078125
        k(  189) = (   0.3750001   0.6495193   0.1647945), wk =   0.0078125
        k(  190) = (   0.3750001   0.6495193   0.2471917), wk =   0.0078125
        k(  191) = (   0.3750000   0.6495194  -0.3295889), wk =   0.0078125
        k(  192) = (   0.3750001   0.6495194  -0.2471917), wk =   0.0078125
        k(  193) = (   0.3750001   0.6495194  -0.1647945), wk =   0.0078125
        k(  194) = (   0.3750001   0.6495194  -0.0823972), wk =   0.0078125
        k(  195) = (   0.3750000  -0.3608440   0.0000001), wk =   0.0078125
        k(  196) = (   0.3750000  -0.3608440   0.0823973), wk =   0.0078125
        k(  197) = (   0.3750000  -0.3608440   0.1647945), wk =   0.0078125
        k(  198) = (   0.3750000  -0.3608440   0.2471918), wk =   0.0078125
        k(  199) = (   0.3749999  -0.3608440  -0.3295888), wk =   0.0078125
        k(  200) = (   0.3749999  -0.3608440  -0.2471916), wk =   0.0078125
        k(  201) = (   0.3749999  -0.3608440  -0.1647944), wk =   0.0078125
        k(  202) = (   0.3749999  -0.3608440  -0.0823972), wk =   0.0078125
        k(  203) = (   0.3750000  -0.2165064   0.0000001), wk =   0.0078125
        k(  204) = (   0.3750000  -0.2165064   0.0823973), wk =   0.0078125
        k(  205) = (   0.3750000  -0.2165064   0.1647945), wk =   0.0078125
        k(  206) = (   0.3750000  -0.2165064   0.2471918), wk =   0.0078125
        k(  207) = (   0.3749999  -0.2165063  -0.3295889), wk =   0.0078125
        k(  208) = (   0.3749999  -0.2165064  -0.2471916), wk =   0.0078125
        k(  209) = (   0.3750000  -0.2165064  -0.1647944), wk =   0.0078125
        k(  210) = (   0.3750000  -0.2165064  -0.0823972), wk =   0.0078125
        k(  211) = (   0.3750000  -0.0721688   0.0000001), wk =   0.0078125
        k(  212) = (   0.3750000  -0.0721688   0.0823973), wk =   0.0078125
        k(  213) = (   0.3750000  -0.0721688   0.1647945), wk =   0.0078125
        k(  214) = (   0.3750000  -0.0721688   0.2471918), wk =   0.0078125
        k(  215) = (   0.3750000  -0.0721687  -0.3295889), wk =   0.0078125
        k(  216) = (   0.3750000  -0.0721687  -0.2471916), wk =   0.0078125
        k(  217) = (   0.3750000  -0.0721687  -0.1647944), wk =   0.0078125
        k(  218) = (   0.3750000  -0.0721688  -0.0823972), wk =   0.0078125
        k(  219) = (   0.3750000   0.0721689   0.0000000), wk =   0.0078125
        k(  220) = (   0.3750000   0.0721689   0.0823973), wk =   0.0078125
        k(  221) = (   0.3750000   0.0721688   0.1647945), wk =   0.0078125
        k(  222) = (   0.3750000   0.0721688   0.2471917), wk =   0.0078125
        k(  223) = (   0.3750000   0.0721689  -0.3295889), wk =   0.0078125
        k(  224) = (   0.3750000   0.0721689  -0.2471917), wk =   0.0078125
        k(  225) = (   0.3750000   0.0721689  -0.1647944), wk =   0.0078125
        k(  226) = (   0.3750000   0.0721689  -0.0823972), wk =   0.0078125
        k(  227) = (  -0.5000000  -0.2886753  -0.0000000), wk =   0.0039062
        k(  228) = (  -0.5000000  -0.2886753   0.0823972), wk =   0.0078125
        k(  229) = (  -0.5000000  -0.2886753   0.1647944), wk =   0.0078125
        k(  230) = (  -0.5000000  -0.2886753   0.2471917), wk =   0.0078125
        k(  231) = (  -0.5000001  -0.2886753  -0.3295890), wk =   0.0039062
        k(  232) = (  -0.5000000  -0.1443377  -0.0000001), wk =   0.0078125
        k(  233) = (  -0.5000000  -0.1443377   0.0823972), wk =   0.0078125
        k(  234) = (  -0.5000000  -0.1443377   0.1647944), wk =   0.0078125
        k(  235) = (  -0.5000000  -0.1443377   0.2471916), wk =   0.0078125
        k(  236) = (  -0.5000001  -0.1443376  -0.3295890), wk =   0.0078125
        k(  237) = (  -0.5000000  -0.1443377  -0.2471918), wk =   0.0078125
        k(  238) = (  -0.5000000  -0.1443377  -0.1647945), wk =   0.0078125
        k(  239) = (  -0.5000000  -0.1443377  -0.0823973), wk =   0.0078125
        k(  240) = (  -0.5000000  -0.0000001  -0.0000001), wk =   0.0078125
        k(  241) = (  -0.5000000  -0.0000001   0.0823972), wk =   0.0078125
        k(  242) = (  -0.5000000  -0.0000001   0.1647944), wk =   0.0078125
        k(  243) = (  -0.5000000  -0.0000001   0.2471916), wk =   0.0078125
        k(  244) = (  -0.5000000  -0.0000000  -0.3295890), wk =   0.0078125
        k(  245) = (  -0.5000000  -0.0000000  -0.2471918), wk =   0.0078125
        k(  246) = (  -0.5000000  -0.0000000  -0.1647945), wk =   0.0078125
        k(  247) = (  -0.5000000  -0.0000001  -0.0823973), wk =   0.0078125
        k(  248) = (  -0.5000000   0.1443376  -0.0000001), wk =   0.0078125
        k(  249) = (  -0.5000000   0.1443375   0.0823972), wk =   0.0078125
        k(  250) = (  -0.5000000   0.1443375   0.1647944), wk =   0.0078125
        k(  251) = (  -0.5000000   0.1443375   0.2471916), wk =   0.0078125
        k(  252) = (  -0.5000000   0.1443376  -0.3295890), wk =   0.0078125
        k(  253) = (  -0.5000000   0.1443376  -0.2471918), wk =   0.0078125
        k(  254) = (  -0.5000000   0.1443376  -0.1647945), wk =   0.0078125
        k(  255) = (  -0.5000000   0.1443376  -0.0823973), wk =   0.0078125
        k(  256) = (  -0.5000001  -0.8660258   0.0000000), wk =   0.0039062
        k(  257) = (  -0.5000001  -0.8660258   0.0823972), wk =   0.0078125
        k(  258) = (  -0.5000001  -0.8660258   0.1647945), wk =   0.0078125
        k(  259) = (  -0.5000001  -0.8660258   0.2471917), wk =   0.0078125
        k(  260) = (  -0.5000002  -0.8660258  -0.3295889), wk =   0.0039062

                       cryst. coord.
        k(    1) = (   0.0000000   0.0000000   0.0000000), wk =   0.0039062
        k(    2) = (  -0.0000000   0.0000000   0.1250000), wk =   0.0078125
        k(    3) = (  -0.0000000   0.0000000   0.2500000), wk =   0.0078125
        k(    4) = (  -0.0000000   0.0000000   0.3750000), wk =   0.0078125
        k(    5) = (   0.0000000  -0.0000000  -0.5000000), wk =   0.0039062
        k(    6) = (   0.0000000   0.1250000  -0.0000000), wk =   0.0078125
        k(    7) = (   0.0000000   0.1250000   0.1250000), wk =   0.0078125
        k(    8) = (   0.0000000   0.1250000   0.2500000), wk =   0.0078125
        k(    9) = (   0.0000000   0.1250000   0.3750000), wk =   0.0078125
        k(   10) = (   0.0000000   0.1250000  -0.5000000), wk =   0.0078125
        k(   11) = (   0.0000000   0.1250000  -0.3750000), wk =   0.0078125
        k(   12) = (   0.0000000   0.1250000  -0.2500000), wk =   0.0078125
        k(   13) = (   0.0000000   0.1250000  -0.1250000), wk =   0.0078125
        k(   14) = (   0.0000000   0.2500000  -0.0000000), wk =   0.0078125
        k(   15) = (   0.0000000   0.2500000   0.1250000), wk =   0.0078125
        k(   16) = (   0.0000000   0.2500000   0.2500000), wk =   0.0078125
        k(   17) = (  -0.0000000   0.2500000   0.3750000), wk =   0.0078125
        k(   18) = (   0.0000000   0.2500000  -0.5000000), wk =   0.0078125
        k(   19) = (   0.0000000   0.2500000  -0.3750000), wk =   0.0078125
        k(   20) = (   0.0000000   0.2500000  -0.2500000), wk =   0.0078125
        k(   21) = (   0.0000000   0.2500000  -0.1250000), wk =   0.0078125
        k(   22) = (   0.0000000   0.3750000   0.0000000), wk =   0.0078125
        k(   23) = (   0.0000000   0.3750000   0.1250000), wk =   0.0078125
        k(   24) = (   0.0000000   0.3750000   0.2500000), wk =   0.0078125
        k(   25) = (   0.0000000   0.3750000   0.3750000), wk =   0.0078125
        k(   26) = (   0.0000000   0.3750000  -0.5000000), wk =   0.0078125
        k(   27) = (   0.0000000   0.3750000  -0.3750000), wk =   0.0078125
        k(   28) = (   0.0000000   0.3750000  -0.2500000), wk =   0.0078125
        k(   29) = (   0.0000000   0.3750000  -0.1250000), wk =   0.0078125
        k(   30) = (  -0.0000000  -0.5000000   0.0000000), wk =   0.0039062
        k(   31) = (  -0.0000000  -0.5000000   0.1250000), wk =   0.0078125
        k(   32) = (  -0.0000000  -0.5000000   0.2500000), wk =   0.0078125
        k(   33) = (  -0.0000000  -0.5000000   0.3750000), wk =   0.0078125
        k(   34) = (  -0.0000000  -0.5000000  -0.5000000), wk =   0.0039062
        k(   35) = (   0.1250000   0.0000000   0.0000000), wk =   0.0078125
        k(   36) = (   0.1250000   0.0000000   0.1250000), wk =   0.0078125
        k(   37) = (   0.1250000   0.0000000   0.2500000), wk =   0.0078125
        k(   38) = (   0.1250000   0.0000000   0.3750000), wk =   0.0078125
        k(   39) = (   0.1250000   0.0000000  -0.5000000), wk =   0.0078125
        k(   40) = (   0.1250000   0.0000000  -0.3750000), wk =   0.0078125
        k(   41) = (   0.1250000  -0.0000000  -0.2500000), wk =   0.0078125
        k(   42) = (   0.1250000   0.0000000  -0.1250000), wk =   0.0078125
        k(   43) = (   0.1250000   0.1250000   0.0000000), wk =   0.0078125
        k(   44) = (   0.1250000   0.1250000   0.1250000), wk =   0.0078125
        k(   45) = (   0.1250000   0.1250000   0.2500000), wk =   0.0078125
        k(   46) = (   0.1250000   0.1250000   0.3750000), wk =   0.0078125
        k(   47) = (   0.1250000   0.1250000  -0.5000000), wk =   0.0078125
        k(   48) = (   0.1250000   0.1250000  -0.3750000), wk =   0.0078125
        k(   49) = (   0.1250000   0.1250000  -0.2500000), wk =   0.0078125
        k(   50) = (   0.1250000   0.1250000  -0.1250000), wk =   0.0078125
        k(   51) = (   0.1250000   0.2500000   0.0000000), wk =   0.0078125
        k(   52) = (   0.1250000   0.2500000   0.1250000), wk =   0.0078125
        k(   53) = (   0.1250000   0.2500000   0.2500000), wk =   0.0078125
        k(   54) = (   0.1250000   0.2500000   0.3750000), wk =   0.0078125
        k(   55) = (   0.1250000   0.2500000  -0.5000000), wk =   0.0078125
        k(   56) = (   0.1250000   0.2500000  -0.3750000), wk =   0.0078125
        k(   57) = (   0.1250000   0.2500000  -0.2500000), wk =   0.0078125
        k(   58) = (   0.1250000   0.2500000  -0.1250000), wk =   0.0078125
        k(   59) = (   0.1250000   0.3750000   0.0000000), wk =   0.0078125
        k(   60) = (   0.1250000   0.3750000   0.1250000), wk =   0.0078125
        k(   61) = (   0.1250000   0.3750000   0.2500000), wk =   0.0078125
        k(   62) = (   0.1250000   0.3750000   0.3750000), wk =   0.0078125
        k(   63) = (   0.1250000   0.3750000  -0.5000000), wk =   0.0078125
        k(   64) = (   0.1250000   0.3750000  -0.3750000), wk =   0.0078125
        k(   65) = (   0.1250000   0.3750000  -0.2500000), wk =   0.0078125
        k(   66) = (   0.1250000   0.3750000  -0.1250000), wk =   0.0078125
        k(   67) = (   0.1250000  -0.5000000  -0.0000000), wk =   0.0078125
        k(   68) = (   0.1250000  -0.5000000   0.1250000), wk =   0.0078125
        k(   69) = (   0.1250000  -0.5000000   0.2500000), wk =   0.0078125
        k(   70) = (   0.1250000  -0.5000000   0.3750000), wk =   0.0078125
        k(   71) = (   0.1250000  -0.5000000  -0.5000000), wk =   0.0078125
        k(   72) = (   0.1250000  -0.5000000  -0.3750000), wk =   0.0078125
        k(   73) = (   0.1250000  -0.5000000  -0.2500000), wk =   0.0078125
        k(   74) = (   0.1250000  -0.5000000  -0.1250000), wk =   0.0078125
        k(   75) = (   0.1250000  -0.3750000  -0.0000000), wk =   0.0078125
        k(   76) = (   0.1250000  -0.3750000   0.1250000), wk =   0.0078125
        k(   77) = (   0.1250000  -0.3750000   0.2500000), wk =   0.0078125
        k(   78) = (   0.1250000  -0.3750000   0.3750000), wk =   0.0078125
        k(   79) = (   0.1250000  -0.3750000  -0.5000000), wk =   0.0078125
        k(   80) = (   0.1250000  -0.3750000  -0.3750000), wk =   0.0078125
        k(   81) = (   0.1250000  -0.3750000  -0.2500000), wk =   0.0078125
        k(   82) = (   0.1250000  -0.3750000  -0.1250000), wk =   0.0078125
        k(   83) = (   0.1250000  -0.2500000  -0.0000000), wk =   0.0078125
        k(   84) = (   0.1250000  -0.2500000   0.1250000), wk =   0.0078125
        k(   85) = (   0.1250000  -0.2500000   0.2500000), wk =   0.0078125
        k(   86) = (   0.1250000  -0.2500000   0.3750000), wk =   0.0078125
        k(   87) = (   0.1250000  -0.2500000  -0.5000000), wk =   0.0078125
        k(   88) = (   0.1250000  -0.2500000  -0.3750000), wk =   0.0078125
        k(   89) = (   0.1250000  -0.2500000  -0.2500000), wk =   0.0078125
        k(   90) = (   0.1250000  -0.2500000  -0.1250000), wk =   0.0078125
        k(   91) = (   0.1250000  -0.1250000   0.0000000), wk =   0.0078125
        k(   92) = (   0.1250000  -0.1250000   0.1250000), wk =   0.0078125
        k(   93) = (   0.1250000  -0.1250000   0.2500000), wk =   0.0078125
        k(   94) = (   0.1250000  -0.1250000   0.3750000), wk =   0.0078125
        k(   95) = (   0.1250000  -0.1250000  -0.5000000), wk =   0.0078125
        k(   96) = (   0.1250000  -0.1250000  -0.3750000), wk =   0.0078125
        k(   97) = (   0.1250000  -0.1250000  -0.2500000), wk =   0.0078125
        k(   98) = (   0.1250000  -0.1250000  -0.1250000), wk =   0.0078125
        k(   99) = (   0.2500000   0.0000000   0.0000000), wk =   0.0078125
        k(  100) = (   0.2500000   0.0000000   0.1250000), wk =   0.0078125
        k(  101) = (   0.2500000   0.0000000   0.2500000), wk =   0.0078125
        k(  102) = (   0.2500000   0.0000000   0.3750000), wk =   0.0078125
        k(  103) = (   0.2500000  -0.0000000  -0.5000000), wk =   0.0078125
        k(  104) = (   0.2500000   0.0000000  -0.3750000), wk =   0.0078125
        k(  105) = (   0.2500000   0.0000000  -0.2500000), wk =   0.0078125
        k(  106) = (   0.2500000   0.0000000  -0.1250000), wk =   0.0078125
        k(  107) = (   0.2500000   0.1250000   0.0000000), wk =   0.0078125
        k(  108) = (   0.2500000   0.1250000   0.1250000), wk =   0.0078125
        k(  109) = (   0.2500000   0.1250000   0.2500000), wk =   0.0078125
        k(  110) = (   0.2500000   0.1250000   0.3750000), wk =   0.0078125
        k(  111) = (   0.2500000   0.1250000  -0.5000000), wk =   0.0078125
        k(  112) = (   0.2500000   0.1250000  -0.3750000), wk =   0.0078125
        k(  113) = (   0.2500000   0.1250000  -0.2500000), wk =   0.0078125
        k(  114) = (   0.2500000   0.1250000  -0.1250000), wk =   0.0078125
        k(  115) = (   0.2500000   0.2500000   0.0000000), wk =   0.0078125
        k(  116) = (   0.2500000   0.2500000   0.1250000), wk =   0.0078125
        k(  117) = (   0.2500000   0.2500000   0.2500000), wk =   0.0078125
        k(  118) = (   0.2500000   0.2500000   0.3750000), wk =   0.0078125
        k(  119) = (   0.2500000   0.2500000  -0.5000000), wk =   0.0078125
        k(  120) = (   0.2500000   0.2500000  -0.3750000), wk =   0.0078125
        k(  121) = (   0.2500000   0.2500000  -0.2500000), wk =   0.0078125
        k(  122) = (   0.2500000   0.2500000  -0.1250000), wk =   0.0078125
        k(  123) = (   0.2500000   0.3750000   0.0000000), wk =   0.0078125
        k(  124) = (   0.2500000   0.3750000   0.1250000), wk =   0.0078125
        k(  125) = (   0.2500000   0.3750000   0.2500000), wk =   0.0078125
        k(  126) = (   0.2500000   0.3750000   0.3750000), wk =   0.0078125
        k(  127) = (   0.2500000   0.3750000  -0.5000000), wk =   0.0078125
        k(  128) = (   0.2500000   0.3750000  -0.3750000), wk =   0.0078125
        k(  129) = (   0.2500000   0.3750000  -0.2500000), wk =   0.0078125
        k(  130) = (   0.2500000   0.3750000  -0.1250000), wk =   0.0078125
        k(  131) = (   0.2500000  -0.5000000  -0.0000000), wk =   0.0078125
        k(  132) = (   0.2500000  -0.5000000   0.1250000), wk =   0.0078125
        k(  133) = (   0.2500000  -0.5000000   0.2500000), wk =   0.0078125
        k(  134) = (   0.2500000  -0.5000000   0.3750000), wk =   0.0078125
        k(  135) = (   0.2500000  -0.5000000  -0.5000000), wk =   0.0078125
        k(  136) = (   0.2500000  -0.5000000  -0.3750000), wk =   0.0078125
        k(  137) = (   0.2500000  -0.5000000  -0.2500000), wk =   0.0078125
        k(  138) = (   0.2500000  -0.5000000  -0.1250000), wk =   0.0078125
        k(  139) = (   0.2500000  -0.3750000   0.0000000), wk =   0.0078125
        k(  140) = (   0.2500000  -0.3750000   0.1250000), wk =   0.0078125
        k(  141) = (   0.2500000  -0.3750000   0.2500000), wk =   0.0078125
        k(  142) = (   0.2500000  -0.3750000   0.3750000), wk =   0.0078125
        k(  143) = (   0.2500000  -0.3750000  -0.5000000), wk =   0.0078125
        k(  144) = (   0.2500000  -0.3750000  -0.3750000), wk =   0.0078125
        k(  145) = (   0.2500000  -0.3750000  -0.2500000), wk =   0.0078125
        k(  146) = (   0.2500000  -0.3750000  -0.1250000), wk =   0.0078125
        k(  147) = (   0.2500000  -0.2500000   0.0000000), wk =   0.0078125
        k(  148) = (   0.2500000  -0.2500000   0.1250000), wk =   0.0078125
        k(  149) = (   0.2500000  -0.2500000   0.2500000), wk =   0.0078125
        k(  150) = (   0.2500000  -0.2500000   0.3750000), wk =   0.0078125
        k(  151) = (   0.2500000  -0.2500000  -0.5000000), wk =   0.0078125
        k(  152) = (   0.2500000  -0.2500000  -0.3750000), wk =   0.0078125
        k(  153) = (   0.2500000  -0.2500000  -0.2500000), wk =   0.0078125
        k(  154) = (   0.2500000  -0.2500000  -0.1250000), wk =   0.0078125
        k(  155) = (   0.2500000  -0.1250000   0.0000000), wk =   0.0078125
        k(  156) = (   0.2500000  -0.1250000   0.1250000), wk =   0.0078125
        k(  157) = (   0.2500000  -0.1250000   0.2500000), wk =   0.0078125
        k(  158) = (   0.2500000  -0.1250000   0.3750000), wk =   0.0078125
        k(  159) = (   0.2500000  -0.1250000  -0.5000000), wk =   0.0078125
        k(  160) = (   0.2500000  -0.1250000  -0.3750000), wk =   0.0078125
        k(  161) = (   0.2500000  -0.1250000  -0.2500000), wk =   0.0078125
        k(  162) = (   0.2500000  -0.1250000  -0.1250000), wk =   0.0078125
        k(  163) = (   0.3750000   0.0000000   0.0000000), wk =   0.0078125
        k(  164) = (   0.3750000   0.0000000   0.1250000), wk =   0.0078125
        k(  165) = (   0.3750000   0.0000000   0.2500000), wk =   0.0078125
        k(  166) = (   0.3750000   0.0000000   0.3750000), wk =   0.0078125
        k(  167) = (   0.3750000   0.0000000  -0.5000000), wk =   0.0078125
        k(  168) = (   0.3750000   0.0000000  -0.3750000), wk =   0.0078125
        k(  169) = (   0.3750000   0.0000000  -0.2500000), wk =   0.0078125
        k(  170) = (   0.3750000   0.0000000  -0.1250000), wk =   0.0078125
        k(  171) = (   0.3750000   0.1250000   0.0000000), wk =   0.0078125
        k(  172) = (   0.3750000   0.1250000   0.1250000), wk =   0.0078125
        k(  173) = (   0.3750000   0.1250000   0.2500000), wk =   0.0078125
        k(  174) = (   0.3750000   0.1250000   0.3750000), wk =   0.0078125
        k(  175) = (   0.3750000   0.1250000  -0.5000000), wk =   0.0078125
        k(  176) = (   0.3750000   0.1250000  -0.3750000), wk =   0.0078125
        k(  177) = (   0.3750000   0.1250000  -0.2500000), wk =   0.0078125
        k(  178) = (   0.3750000   0.1250000  -0.1250000), wk =   0.0078125
        k(  179) = (   0.3750000   0.2500000   0.0000000), wk =   0.0078125
        k(  180) = (   0.3750000   0.2500000   0.1250000), wk =   0.0078125
        k(  181) = (   0.3750000   0.2500000   0.2500000), wk =   0.0078125
        k(  182) = (   0.3750000   0.2500000   0.3750000), wk =   0.0078125
        k(  183) = (   0.3750000   0.2500000  -0.5000000), wk =   0.0078125
        k(  184) = (   0.3750000   0.2500000  -0.3750000), wk =   0.0078125
        k(  185) = (   0.3750000   0.2500000  -0.2500000), wk =   0.0078125
        k(  186) = (   0.3750000   0.2500000  -0.1250000), wk =   0.0078125
        k(  187) = (   0.3750000   0.3750000   0.0000000), wk =   0.0078125
        k(  188) = (   0.3750000   0.3750000   0.1250000), wk =   0.0078125
        k(  189) = (   0.3750000   0.3750000   0.2500000), wk =   0.0078125
        k(  190) = (   0.3750000   0.3750000   0.3750000), wk =   0.0078125
        k(  191) = (   0.3750000   0.3750000  -0.5000000), wk =   0.0078125
        k(  192) = (   0.3750000   0.3750000  -0.3750000), wk =   0.0078125
        k(  193) = (   0.3750000   0.3750000  -0.2500000), wk =   0.0078125
        k(  194) = (   0.3750000   0.3750000  -0.1250000), wk =   0.0078125
        k(  195) = (   0.3750000  -0.5000000   0.0000000), wk =   0.0078125
        k(  196) = (   0.3750000  -0.5000000   0.1250000), wk =   0.0078125
        k(  197) = (   0.3750000  -0.5000000   0.2500000), wk =   0.0078125
        k(  198) = (   0.3750000  -0.5000000   0.3750000), wk =   0.0078125
        k(  199) = (   0.3750000  -0.5000000  -0.5000000), wk =   0.0078125
        k(  200) = (   0.3750000  -0.5000000  -0.3750000), wk =   0.0078125
        k(  201) = (   0.3750000  -0.5000000  -0.2500000), wk =   0.0078125
        k(  202) = (   0.3750000  -0.5000000  -0.1250000), wk =   0.0078125
        k(  203) = (   0.3750000  -0.3750000   0.0000000), wk =   0.0078125
        k(  204) = (   0.3750000  -0.3750000   0.1250000), wk =   0.0078125
        k(  205) = (   0.3750000  -0.3750000   0.2500000), wk =   0.0078125
        k(  206) = (   0.3750000  -0.3750000   0.3750000), wk =   0.0078125
        k(  207) = (   0.3750000  -0.3750000  -0.5000000), wk =   0.0078125
        k(  208) = (   0.3750000  -0.3750000  -0.3750000), wk =   0.0078125
        k(  209) = (   0.3750000  -0.3750000  -0.2500000), wk =   0.0078125
        k(  210) = (   0.3750000  -0.3750000  -0.1250000), wk =   0.0078125
        k(  211) = (   0.3750000  -0.2500000   0.0000000), wk =   0.0078125
        k(  212) = (   0.3750000  -0.2500000   0.1250000), wk =   0.0078125
        k(  213) = (   0.3750000  -0.2500000   0.2500000), wk =   0.0078125
        k(  214) = (   0.3750000  -0.2500000   0.3750000), wk =   0.0078125
        k(  215) = (   0.3750000  -0.2500000  -0.5000000), wk =   0.0078125
        k(  216) = (   0.3750000  -0.2500000  -0.3750000), wk =   0.0078125
        k(  217) = (   0.3750000  -0.2500000  -0.2500000), wk =   0.0078125
        k(  218) = (   0.3750000  -0.2500000  -0.1250000), wk =   0.0078125
        k(  219) = (   0.3750000  -0.1250000   0.0000000), wk =   0.0078125
        k(  220) = (   0.3750000  -0.1250000   0.1250000), wk =   0.0078125
        k(  221) = (   0.3750000  -0.1250000   0.2500000), wk =   0.0078125
        k(  222) = (   0.3750000  -0.1250000   0.3750000), wk =   0.0078125
        k(  223) = (   0.3750000  -0.1250000  -0.5000000), wk =   0.0078125
        k(  224) = (   0.3750000  -0.1250000  -0.3750000), wk =   0.0078125
        k(  225) = (   0.3750000  -0.1250000  -0.2500000), wk =   0.0078125
        k(  226) = (   0.3750000  -0.1250000  -0.1250000), wk =   0.0078125
        k(  227) = (  -0.5000000  -0.0000000  -0.0000000), wk =   0.0039062
        k(  228) = (  -0.5000000  -0.0000000   0.1250000), wk =   0.0078125
        k(  229) = (  -0.5000000  -0.0000000   0.2500000), wk =   0.0078125
        k(  230) = (  -0.5000000  -0.0000000   0.3750000), wk =   0.0078125
        k(  231) = (  -0.5000000  -0.0000000  -0.5000000), wk =   0.0039062
        k(  232) = (  -0.5000000   0.1250000  -0.0000000), wk =   0.0078125
        k(  233) = (  -0.5000000   0.1250000   0.1250000), wk =   0.0078125
        k(  234) = (  -0.5000000   0.1250000   0.2500000), wk =   0.0078125
        k(  235) = (  -0.5000000   0.1250000   0.3750000), wk =   0.0078125
        k(  236) = (  -0.5000000   0.1250000  -0.5000000), wk =   0.0078125
        k(  237) = (  -0.5000000   0.1250000  -0.3750000), wk =   0.0078125
        k(  238) = (  -0.5000000   0.1250000  -0.2500000), wk =   0.0078125
        k(  239) = (  -0.5000000   0.1250000  -0.1250000), wk =   0.0078125
        k(  240) = (  -0.5000000   0.2500000  -0.0000000), wk =   0.0078125
        k(  241) = (  -0.5000000   0.2500000   0.1250000), wk =   0.0078125
        k(  242) = (  -0.5000000   0.2500000   0.2500000), wk =   0.0078125
        k(  243) = (  -0.5000000   0.2500000   0.3750000), wk =   0.0078125
        k(  244) = (  -0.5000000   0.2500000  -0.5000000), wk =   0.0078125
        k(  245) = (  -0.5000000   0.2500000  -0.3750000), wk =   0.0078125
        k(  246) = (  -0.5000000   0.2500000  -0.2500000), wk =   0.0078125
        k(  247) = (  -0.5000000   0.2500000  -0.1250000), wk =   0.0078125
        k(  248) = (  -0.5000000   0.3750000  -0.0000000), wk =   0.0078125
        k(  249) = (  -0.5000000   0.3750000   0.1250000), wk =   0.0078125
        k(  250) = (  -0.5000000   0.3750000   0.2500000), wk =   0.0078125
        k(  251) = (  -0.5000000   0.3750000   0.3750000), wk =   0.0078125
        k(  252) = (  -0.5000000   0.3750000  -0.5000000), wk =   0.0078125
        k(  253) = (  -0.5000000   0.3750000  -0.3750000), wk =   0.0078125
        k(  254) = (  -0.5000000   0.3750000  -0.2500000), wk =   0.0078125
        k(  255) = (  -0.5000000   0.3750000  -0.1250000), wk =   0.0078125
        k(  256) = (  -0.5000000  -0.5000000  -0.0000000), wk =   0.0039062
        k(  257) = (  -0.5000000  -0.5000000   0.1250000), wk =   0.0078125
        k(  258) = (  -0.5000000  -0.5000000   0.2500000), wk =   0.0078125
        k(  259) = (  -0.5000000  -0.5000000   0.3750000), wk =   0.0078125
        k(  260) = (  -0.5000000  -0.5000000  -0.5000000), wk =   0.0039062

     Dense  grid:    78895 G-vectors     FFT dimensions: (  50,  50,  75)

     Smooth grid:    30767 G-vectors     FFT dimensions: (  36,  36,  54)

     Dynamical RAM for                 wfc:       0.08 MB

     Dynamical RAM for     wfc (w. buffer):       5.08 MB

     Dynamical RAM for           str. fact:       0.23 MB

     Dynamical RAM for           local pot:       0.00 MB

     Dynamical RAM for          nlocal pot:       0.23 MB

     Dynamical RAM for                qrad:       7.80 MB

     Dynamical RAM for          rho,v,vnew:       0.51 MB

     Dynamical RAM for               rhoin:       0.17 MB

     Dynamical RAM for            rho*nmix:       1.20 MB

     Dynamical RAM for           G-vectors:       0.30 MB

     Dynamical RAM for          h,s,v(r/c):       0.08 MB

     Dynamical RAM for          <psi|beta>:       0.02 MB

     Dynamical RAM for                 psi:       0.31 MB

     Dynamical RAM for                hpsi:       0.31 MB

     Dynamical RAM for                spsi:       0.31 MB

     Dynamical RAM for      wfcinit/wfcrot:       0.21 MB

     Dynamical RAM for           addusdens:       3.95 MB

     Dynamical RAM for          addusforce:       4.10 MB

     Dynamical RAM for         addusstress:       4.17 MB

     Estimated static dynamical RAM per process >      16.29 MB

     Estimated max dynamical RAM per process >      20.46 MB

     Estimated total dynamical RAM >       1.28 GB

     Check: negative core charge=   -0.000003

     Initial potential from superposition of free atoms

     starting charge   41.69964, renormalised to   42.00000
     Starting wfcs are   26 randomized atomic wfcs

     total cpu time spent up to now is        1.1 secs

     Self-consistent Calculation

     iteration #  1     ecut=    80.00 Ry     beta= 0.50
     Davidson diagonalization with overlap
     ethr =  1.00E-02,  avg # of iterations =  2.0

     total cpu time spent up to now is        2.1 secs

     total energy              =    -650.62052755 Ry
     Harris-Foulkes estimate   =    -651.46260989 Ry
     estimated scf accuracy    <       1.26224266 Ry

     iteration #  2     ecut=    80.00 Ry     beta= 0.50
     Davidson diagonalization with overlap
     ethr =  3.01E-03,  avg # of iterations =  3.0

     total cpu time spent up to now is        3.1 secs

     total energy              =    -651.01566789 Ry
     Harris-Foulkes estimate   =    -651.30478608 Ry
     estimated scf accuracy    <       0.66430010 Ry

     iteration #  3     ecut=    80.00 Ry     beta= 0.50
     Davidson diagonalization with overlap
     ethr =  1.58E-03,  avg # of iterations =  2.0

     total cpu time spent up to now is        4.0 secs

     total energy              =    -651.12839385 Ry
     Harris-Foulkes estimate   =    -651.13175571 Ry
     estimated scf accuracy    <       0.01014585 Ry

     iteration #  4     ecut=    80.00 Ry     beta= 0.50
     Davidson diagonalization with overlap
     ethr =  2.42E-05,  avg # of iterations =  2.4

     total cpu time spent up to now is        5.0 secs

     total energy              =    -651.12937310 Ry
     Harris-Foulkes estimate   =    -651.12996729 Ry
     estimated scf accuracy    <       0.00128648 Ry

     iteration #  5     ecut=    80.00 Ry     beta= 0.50
     Davidson diagonalization with overlap
     ethr =  3.06E-06,  avg # of iterations =  2.9

     total cpu time spent up to now is        6.0 secs

     total energy              =    -651.12964664 Ry
     Harris-Foulkes estimate   =    -651.12971368 Ry
     estimated scf accuracy    <       0.00022761 Ry

     iteration #  6     ecut=    80.00 Ry     beta= 0.50
     Davidson diagonalization with overlap
     ethr =  5.42E-07,  avg # of iterations =  2.8

     total cpu time spent up to now is        6.9 secs

     total energy              =    -651.12968951 Ry
     Harris-Foulkes estimate   =    -651.12968734 Ry
     estimated scf accuracy    <       0.00001649 Ry

     iteration #  7     ecut=    80.00 Ry     beta= 0.50
     Davidson diagonalization with overlap
     ethr =  3.93E-08,  avg # of iterations =  2.4

     total cpu time spent up to now is        7.9 secs

     total energy              =    -651.12969210 Ry
     Harris-Foulkes estimate   =    -651.12969132 Ry
     estimated scf accuracy    <       0.00000139 Ry

     iteration #  8     ecut=    80.00 Ry     beta= 0.50
     Davidson diagonalization with overlap
     ethr =  3.30E-09,  avg # of iterations =  2.0

     total cpu time spent up to now is        8.7 secs

     End of self-consistent calculation

          k = 0.0000 0.0000 0.0000 (  3837 PWs)   bands (ev):

  -115.8860 -70.2585 -70.2355 -70.2355 -65.2184 -32.2205 -32.1831 -32.1831
   -10.4652  -9.3690   1.4972   1.4972   2.1286   2.6780   2.7190   2.7190
     5.6374   5.6374   6.7020   6.8793   6.8793

     occupation numbers 
     1.0000   1.0000   1.0000   1.0000   1.0000   1.0000   1.0000   1.0000
     1.0000   1.0000   1.0000   1.0000   1.0000   1.0000   1.0000   1.0000
     1.0000   1.0000   1.0000   1.0000   1.0000

          k = 0.0000-0.0000 0.0824 (  3825 PWs)   bands (ev):

  -115.8860 -70.2585 -70.2355 -70.2355 -65.2184 -32.2205 -32.1831 -32.1831
   -10.4427  -9.3949   1.4969   1.4969   2.0143   2.7150   2.7150   2.8366
     5.6531   5.6531   6.4670   6.8704   6.8704

     occupation numbers 
     1.0000   1.0000   1.0000   1.0000   1.0000   1.0000   1.0000   1.0000
     1.0000   1.0000   1.0000   1.0000   1.0000   1.0000   1.0000   1.0000
     1.0000   1.0000   1.0000   1.0000   1.0000

          k = 0.0000-0.0000 0.1648 (  3849 PWs)   bands (ev):

  -115.8860 -70.2586 -70.2356 -70.2355 -65.2184 -32.2206 -32.1831 -32.1831
   -10.3833  -9.4624   1.4963   1.4963   1.8442   2.7054   2.7054   3.1237
     5.6919   5.6919   6.0289   6.8478   6.8478

     occupation numbers 
     1.0000   1.0000   1.0000   1.0000   1.0000   1.0000   1.0000   1.0000
     1.0000   1.0000   1.0000   1.0000   1.0000   1.0000   1.0000   1.0000
     1.0000   1.0000   1.0000   1.0000   1.0000

          k = 0.0000-0.0000 0.2472 (  3855 PWs)   bands (ev):

  -115.8860 -70.2586 -70.2356 -70.2356 -65.2184 -32.2207 -32.1831 -32.1831
   -10.3138  -9.5402   1.4956   1.4957   1.7289   2.6960   2.6960   3.3770
     5.6613   5.7321   5.7321   6.8236   6.8236

     occupation numbers 
     1.0000   1.0000   1.0000   1.0000   1.0000   1.0000   1.0000   1.0000
     1.0000   1.0000   1.0000   1.0000   1.0000   1.0000   1.0000   1.0000
     1.0000   1.0000   1.0000   1.0000   1.0000

          k =-0.0000 0.0000-0.3296 (  3866 PWs)   bands (ev):

  -115.8860 -70.2586 -70.2356 -70.2356 -65.2184 -32.2207 -32.1832 -32.1832
   -10.2805  -9.5769   1.4954   1.4954   1.6895   2.6921   2.6921   3.4831
     5.5148   5.7492   5.7492   6.8131   6.8131

     occupation numbers 
     1.0000   1.0000   1.0000   1.0000   1.0000   1.0000   1.0000   1.0000
     1.0000   1.0000   1.0000   1.0000   1.0000   1.0000   1.0000   1.0000
     1.0000   1.0000   1.0000   1.0000   1.0000

          k = 0.0000 0.1443-0.0000 (  3833 PWs)   bands (ev):

  -115.8860 -70.2585 -70.2358 -70.2356 -65.2182 -32.2201 -32.1873 -32.1841
   -10.3849  -9.3343   1.4559   1.5703   2.1527   2.6210   2.7140   2.9142
     5.2521   5.5572   6.1715   6.6227   6.7310

     occupation numbers 
     1.0000   1.0000   1.0000   1.0000   1.0000   1.0000   1.0000   1.0000
     1.0000   1.0000   1.0000   1.0000   1.0000   1.0000   1.0000   1.0000
     1.0000   1.0000   1.0000   1.0000   1.0000

          k = 0.0000 0.1443 0.0824 (  3838 PWs)   bands (ev):

  -115.8860 -70.2585 -70.2358 -70.2356 -65.2182 -32.2201 -32.1873 -32.1841
   -10.3642  -9.3574   1.4533   1.5694   2.0502   2.6084   2.7103   3.0644
     5.2535   5.5821   6.0314   6.6674   6.7106

     occupation numbers 
     1.0000   1.0000   1.0000   1.0000   1.0000   1.0000   1.0000   1.0000
     1.0000   1.0000   1.0000   1.0000   1.0000   1.0000   1.0000   1.0000
     1.0000   1.0000   1.0000   1.0000   1.0000

          k = 0.0000 0.1443 0.1648 (  3829 PWs)   bands (ev):

  -115.8860 -70.2585 -70.2358 -70.2356 -65.2182 -32.2201 -32.1873 -32.1841
   -10.3096  -9.4176   1.4464   1.5683   1.8843   2.5840   2.7007   3.3397
     5.2471   5.6331   5.8365   6.6527   6.6729

     occupation numbers 
     1.0000   1.0000   1.0000   1.0000   1.0000   1.0000   1.0000   1.0000
     1.0000   1.0000   1.0000   1.0000   1.0000   1.0000   1.0000   1.0000
     1.0000   1.0000   1.0000   1.0000   1.0000

          k = 0.0000 0.1443 0.2472 (  3832 PWs)   bands (ev):

  -115.8860 -70.2585 -70.2358 -70.2356 -65.2182 -32.2202 -32.1873 -32.1841
   -10.2465  -9.4865   1.4380   1.5678   1.7680   2.5617   2.6910   3.5757
     5.1787   5.6820   5.7608   6.5878   6.6380

     occupation numbers 
     1.0000   1.0000   1.0000   1.0000   1.0000   1.0000   1.0000   1.0000
     1.0000   1.0000   1.0000   1.0000   1.0000   1.0000   1.0000   1.0000
     1.0000   1.0000   1.0000   1.0000   1.0000

          k =-0.0000 0.1443-0.3296 (  3832 PWs)   bands (ev):

  -115.8860 -70.2585 -70.2358 -70.2356 -65.2182 -32.2202 -32.1873 -32.1841
   -10.2167  -9.5187   1.4352   1.5680   1.7270   2.5530   2.6867   3.6640
     5.1488   5.6973   5.7564   6.5387   6.6294

     occupation numbers 
     1.0000   1.0000   1.0000   1.0000   1.0000   1.0000   1.0000   1.0000
     1.0000   1.0000   1.0000   1.0000   1.0000   1.0000   1.0000   1.0000
     1.0000   1.0000   1.0000   1.0000   1.0000

          k =-0.0000 0.1443-0.2472 (  3832 PWs)   bands (ev):

  -115.8860 -70.2585 -70.2358 -70.2356 -65.2182 -32.2202 -32.1873 -32.1841
   -10.2465  -9.4865   1.4410   1.5689   1.7656   2.5628   2.6902   3.5581
     5.2405   5.6682   5.7447   6.5516   6.6541

     occupation numbers 
     1.0000   1.0000   1.0000   1.0000   1.0000   1.0000   1.0000   1.0000
     1.0000   1.0000   1.0000   1.0000   1.0000   1.0000   1.0000   1.0000
     1.0000   1.0000   1.0000   1.0000   1.0000

          k =-0.0000 0.1443-0.1648 (  3829 PWs)   bands (ev):

  -115.8860 -70.2585 -70.2358 -70.2356 -65.2182 -32.2201 -32.1873 -32.1841
   -10.3096  -9.4177   1.4489   1.5700   1.8838   2.5852   2.6996   3.3197
     5.3118   5.6153   5.8383   6.5931   6.6939

     occupation numbers 
     1.0000   1.0000   1.0000   1.0000   1.0000   1.0000   1.0000   1.0000
     1.0000   1.0000   1.0000   1.0000   1.0000   1.0000   1.0000   1.0000
     1.0000   1.0000   1.0000   1.0000   1.0000

          k = 0.0000 0.1443-0.0824 (  3838 PWs)   bands (ev):

  -115.8860 -70.2585 -70.2358 -70.2356 -65.2182 -32.2201 -32.1873 -32.1841
   -10.3642  -9.3574   1.4543   1.5706   2.0527   2.6086   2.7095   3.0514
     5.2822   5.5705   6.0628   6.6087   6.7245

     occupation numbers 
     1.0000   1.0000   1.0000   1.0000   1.0000   1.0000   1.0000   1.0000
     1.0000   1.0000   1.0000   1.0000   1.0000   1.0000   1.0000   1.0000
     1.0000   1.0000   1.0000   1.0000   1.0000

          k = 0.0000 0.2887-0.0000 (  3847 PWs)   bands (ev):

  -115.8860 -70.2585 -70.2364 -70.2358 -65.2176 -32.2190 -32.1974 -32.1863
   -10.1813  -9.2538   1.3964   1.7602   2.1846   2.6255   2.7116   3.3080
     4.4418   5.1655   5.3290   6.3683   6.4021

     occupation numbers 
     1.0000   1.0000   1.0000   1.0000   1.0000   1.0000   1.0000   1.0000
     1.0000   1.0000   1.0000   1.0000   1.0000   1.0000   1.0000   1.0000
     1.0000   1.0000   1.0000   1.0000   1.0000

          k = 0.0000 0.2887 0.0824 (  3833 PWs)   bands (ev):

  -115.8860 -70.2585 -70.2364 -70.2358 -65.2176 -32.2190 -32.1974 -32.1863
   -10.1655  -9.2693   1.3908   1.7582   2.1064   2.5500   2.7085   3.4933
     4.4169   5.1139   5.3658   6.3672   6.4477

     occupation numbers 
     1.0000   1.0000   1.0000   1.0000   1.0000   1.0000   1.0000   1.0000
     1.0000   1.0000   1.0000   1.0000   1.0000   1.0000   1.0000   1.0000
     1.0000   1.0000   1.0000   1.0000   1.0000

          k = 0.0000 0.2887 0.1648 (  3837 PWs)   bands (ev):

  -115.8860 -70.2585 -70.2364 -70.2358 -65.2176 -32.2191 -32.1974 -32.1863
   -10.1248  -9.3094   1.3728   1.7558   1.9660   2.4434   2.6994   3.7358
     4.4024   5.1580   5.4443   6.2965   6.4856

     occupation numbers 
     1.0000   1.0000   1.0000   1.0000   1.0000   1.0000   1.0000   1.0000
     1.0000   1.0000   1.0000   1.0000   1.0000   1.0000   1.0000   1.0000
     1.0000   1.0000   1.0000   1.0000   1.0000

          k = 0.0000 0.2887 0.2472 (  3840 PWs)   bands (ev):

  -115.8860 -70.2585 -70.2364 -70.2358 -65.2176 -32.2191 -32.1974 -32.1863
   -10.0794  -9.3543   1.3514   1.7543   1.8545   2.3694   2.6898   3.8800
     4.3695   5.3521   5.5265   6.2230   6.4155

     occupation numbers 
     1.0000   1.0000   1.0000   1.0000   1.0000   1.0000   1.0000   1.0000
     1.0000   1.0000   1.0000   1.0000   1.0000   1.0000   1.0000   1.0000
     1.0000   1.0000   1.0000   1.0000   1.0000

          k =-0.0000 0.2887-0.3296 (  3834 PWs)   bands (ev):

  -115.8860 -70.2585 -70.2364 -70.2358 -65.2176 -32.2191 -32.1974 -32.1863
   -10.0588  -9.3748   1.3444   1.7547   1.8138   2.3429   2.6851   3.8499
     4.4485   5.4893   5.5536   6.2008   6.3044

     occupation numbers 
     1.0000   1.0000   1.0000   1.0000   1.0000   1.0000   1.0000   1.0000
     1.0000   1.0000   1.0000   1.0000   1.0000   1.0000   1.0000   1.0000
     1.0000   1.0000   1.0000   1.0000   1.0000

          k = 0.0000 0.2887-0.2472 (  3840 PWs)   bands (ev):

  -115.8860 -70.2585 -70.2364 -70.2358 -65.2176 -32.2191 -32.1974 -32.1863
   -10.0793  -9.3545   1.3569   1.7567   1.8592   2.3674   2.6879   3.7160
     4.6046   5.3647   5.5004   6.2522   6.3029

     occupation numbers 
     1.0000   1.0000   1.0000   1.0000   1.0000   1.0000   1.0000   1.0000
     1.0000   1.0000   1.0000   1.0000   1.0000   1.0000   1.0000   1.0000
     1.0000   1.0000   1.0000   1.0000   1.0000

          k = 0.0000 0.2887-0.1648 (  3837 PWs)   bands (ev):

  -115.8860 -70.2585 -70.2364 -70.2358 -65.2176 -32.2191 -32.1974 -32.1863
   -10.1247  -9.3097   1.3758   1.7591   1.9873   2.4375   2.6968   3.5457
     4.6948   5.1555   5.4142   6.3308   6.3390

     occupation numbers 
     1.0000   1.0000   1.0000   1.0000   1.0000   1.0000   1.0000   1.0000
     1.0000   1.0000   1.0000   1.0000   1.0000   1.0000   1.0000   1.0000
     1.0000   1.0000   1.0000   1.0000   1.0000

          k = 0.0000 0.2887-0.0824 (  3833 PWs)   bands (ev):

  -115.8860 -70.2585 -70.2364 -70.2358 -65.2176 -32.2190 -32.1974 -32.1863
   -10.1654  -9.2695   1.3903   1.7605   2.1337   2.5479   2.7067   3.3681
     4.5673   5.1528   5.3475   6.3395   6.3885

     occupation numbers 
     1.0000   1.0000   1.0000   1.0000   1.0000   1.0000   1.0000   1.0000
     1.0000   1.0000   1.0000   1.0000   1.0000   1.0000   1.0000   1.0000
     1.0000   1.0000   1.0000   1.0000   1.0000

          k = 0.0000 0.4330-0.0000 (  3852 PWs)   bands (ev):

  -115.8859 -70.2584 -70.2371 -70.2360 -65.2170 -32.2179 -32.2075 -32.1886
    -9.9594  -9.1817   1.4114   1.9676   2.2204   2.6524   2.7401   3.4559
     3.9943   4.4723   5.0235   5.9689   6.1239

     occupation numbers 
     1.0000   1.0000   1.0000   1.0000   1.0000   1.0000   1.0000   1.0000
     1.0000   1.0000   1.0000   1.0000   1.0000   1.0000   1.0000   1.0000
     1.0000   1.0000   1.0000   1.0000   1.0000

          k = 0.0000 0.4330 0.0824 (  3850 PWs)   bands (ev):

  -115.8859 -70.2584 -70.2371 -70.2360 -65.2170 -32.2179 -32.2075 -32.1886
    -9.9506  -9.1875   1.4082   1.9643   2.1479   2.5596   2.7379   3.5268
     4.0534   4.4463   5.0639   6.0842   6.1030

     occupation numbers 
     1.0000   1.0000   1.0000   1.0000   1.0000   1.0000   1.0000   1.0000
     1.0000   1.0000   1.0000   1.0000   1.0000   1.0000   1.0000   1.0000
     1.0000   1.0000   1.0000   1.0000   1.0000

          k = 0.0000 0.4330 0.1648 (  3848 PWs)   bands (ev):

  -115.8859 -70.2584 -70.2371 -70.2359 -65.2170 -32.2179 -32.2075 -32.1886
    -9.9286  -9.2023   1.3820   1.9586   2.0389   2.4049   2.7308   3.4700
     4.0769   4.7463   5.1601   5.9916   6.2739

     occupation numbers 
     1.0000   1.0000   1.0000   1.0000   1.0000   1.0000   1.0000   1.0000
     1.0000   1.0000   1.0000   1.0000   1.0000   1.0000   1.0000   1.0000
     1.0000   1.0000   1.0000   1.0000   1.0000

          k = 0.0000 0.4330 0.2472 (  3852 PWs)   bands (ev):

  -115.8859 -70.2584 -70.2371 -70.2360 -65.2170 -32.2180 -32.2075 -32.1886
    -9.9053  -9.2185   1.3465   1.9531   1.9540   2.2810   2.7232   3.4186
     4.0542   5.1166   5.2743   5.8816   6.3566

     occupation numbers 
     1.0000   1.0000   1.0000   1.0000   1.0000   1.0000   1.0000   1.0000
     1.0000   1.0000   1.0000   1.0000   1.0000   1.0000   1.0000   1.0000
     1.0000   1.0000   1.0000   1.0000   1.0000

          k = 0.0000 0.4330-0.3296 (  3848 PWs)   bands (ev):

  -115.8859 -70.2584 -70.2371 -70.2360 -65.2170 -32.2180 -32.2075 -32.1886
    -9.8953  -9.2256   1.3283   1.9330   1.9531   2.2319   2.7193   3.3594
     4.0861   5.3092   5.3244   5.8339   6.3215

     occupation numbers 
     1.0000   1.0000   1.0000   1.0000   1.0000   1.0000   1.0000   1.0000
     1.0000   1.0000   1.0000   1.0000   1.0000   1.0000   1.0000   1.0000
     1.0000   1.0000   1.0000   1.0000   1.0000

          k = 0.0000 0.4330-0.2472 (  3852 PWs)   bands (ev):

  -115.8859 -70.2584 -70.2371 -70.2360 -65.2170 -32.2180 -32.2075 -32.1886
    -9.9052  -9.2187   1.3386   1.9565   2.0031   2.2620   2.7212   3.2948
     4.1599   5.2106   5.2528   5.9050   6.2337

     occupation numbers 
     1.0000   1.0000   1.0000   1.0000   1.0000   1.0000   1.0000   1.0000
     1.0000   1.0000   1.0000   1.0000   1.0000   1.0000   1.0000   1.0000
     1.0000   1.0000   1.0000   1.0000   1.0000

          k = 0.0000 0.4330-0.1648 (  3848 PWs)   bands (ev):

  -115.8859 -70.2584 -70.2371 -70.2359 -65.2170 -32.2179 -32.2075 -32.1886
    -9.9283  -9.2027   1.3659   1.9621   2.1285   2.3855   2.7280   3.2445
     4.2310   4.8979   5.1380   6.0165   6.1089

     occupation numbers 
     1.0000   1.0000   1.0000   1.0000   1.0000   1.0000   1.0000   1.0000
     1.0000   1.0000   1.0000   1.0000   1.0000   1.0000   1.0000   1.0000
     1.0000   1.0000   1.0000   1.0000   1.0000

          k = 0.0000 0.4330-0.0824 (  3850 PWs)   bands (ev):

  -115.8859 -70.2584 -70.2371 -70.2360 -65.2170 -32.2179 -32.2075 -32.1886
    -9.9504  -9.1877   1.3943   1.9667   2.2133   2.5799   2.7359   3.2697
     4.1840   4.6026   5.0511   5.9817   6.0990

     occupation numbers 
     1.0000   1.0000   1.0000   1.0000   1.0000   1.0000   1.0000   1.0000
     1.0000   1.0000   1.0000   1.0000   1.0000   1.0000   1.0000   1.0000
     1.0000   1.0000   1.0000   1.0000   1.0000

          k =-0.0000-0.5774 0.0000 (  3848 PWs)   bands (ev):

  -115.8859 -70.2584 -70.2374 -70.2360 -65.2168 -32.2173 -32.2117 -32.1895
    -9.8600  -9.1561   1.4525   2.0553   2.2672   2.6660   2.7729   3.1198
     4.0697   4.4214   4.8633   5.6928   6.0252

     occupation numbers 
     1.0000   1.0000   1.0000   1.0000   1.0000   1.0000   1.0000   1.0000
     1.0000   1.0000   1.0000   1.0000   1.0000   1.0000   1.0000   1.0000
     1.0000   1.0000   1.0000   1.0000   1.0000

          k =-0.0000-0.5774 0.0824 (  3852 PWs)   bands (ev):

  -115.8859 -70.2584 -70.2374 -70.2360 -65.2168 -32.2173 -32.2117 -32.1895
    -9.8551  -9.1569   1.4372   2.0522   2.2376   2.6173   2.7704   3.0193
     4.0611   4.5858   4.8984   5.8037   5.9912

     occupation numbers 
     1.0000   1.0000   1.0000   1.0000   1.0000   1.0000   1.0000   1.0000
     1.0000   1.0000   1.0000   1.0000   1.0000   1.0000   1.0000   1.0000
     1.0000   1.0000   1.0000   1.0000   1.0000

          k =-0.0000-0.5774 0.1648 (  3852 PWs)   bands (ev):

  -115.8859 -70.2584 -70.2374 -70.2360 -65.2168 -32.2174 -32.2117 -32.1895
    -9.8431  -9.1590   1.3983   2.0446   2.1725   2.4461   2.7646   2.9253
     4.0282   4.9179   4.9929   5.8994   6.0496

     occupation numbers 
     1.0000   1.0000   1.0000   1.0000   1.0000   1.0000   1.0000   1.0000
     1.0000   1.0000   1.0000   1.0000   1.0000   1.0000   1.0000   1.0000
     1.0000   1.0000   1.0000   1.0000   1.0000

          k =-0.0000-0.5774 0.2472 (  3838 PWs)   bands (ev):

  -115.8859 -70.2584 -70.2374 -70.2360 -65.2168 -32.2174 -32.2117 -32.1895
    -9.8309  -9.1612   1.3567   2.0370   2.1042   2.2787   2.7591   2.9038
     3.9993   5.1106   5.2054   5.7841   6.2649

     occupation numbers 
     1.0000   1.0000   1.0000   1.0000   1.0000   1.0000   1.0000   1.0000
     1.0000   1.0000   1.0000   1.0000   1.0000   1.0000   1.0000   1.0000
     1.0000   1.0000   1.0000   1.0000   1.0000

          k =-0.0000-0.5774-0.3296 (  3840 PWs)   bands (ev):

  -115.8859 -70.2584 -70.2374 -70.2360 -65.2168 -32.2175 -32.2117 -32.1895
    -9.8258  -9.1622   1.3388   2.0339   2.0681   2.2244   2.7569   2.9009
     3.9889   5.1729   5.3194   5.7227   6.3443

     occupation numbers 
     1.0000   1.0000   1.0000   1.0000   1.0000   1.0000   1.0000   1.0000
     1.0000   1.0000   1.0000   1.0000   1.0000   1.0000   1.0000   1.0000
     1.0000   1.0000   1.0000   1.0000   1.0000

          k = 0.1250 0.0722 0.0000 (  3833 PWs)   bands (ev):

  -115.8860 -70.2585 -70.2358 -70.2356 -65.2182 -32.2201 -32.1873 -32.1841
   -10.3849  -9.3343   1.4559   1.5703   2.1527   2.6210   2.7140   2.9142
     5.2521   5.5572   6.1715   6.6227   6.7310

     occupation numbers 
     1.0000   1.0000   1.0000   1.0000   1.0000   1.0000   1.0000   1.0000
     1.0000   1.0000   1.0000   1.0000   1.0000   1.0000   1.0000   1.0000
     1.0000   1.0000   1.0000   1.0000   1.0000

          k = 0.1250 0.0722 0.0824 (  3838 PWs)   bands (ev):

  -115.8860 -70.2585 -70.2358 -70.2356 -65.2182 -32.2201 -32.1873 -32.1841
   -10.3642  -9.3574   1.4543   1.5706   2.0527   2.6086   2.7095   3.0514
     5.2822   5.5705   6.0628   6.6087   6.7245

     occupation numbers 
     1.0000   1.0000   1.0000   1.0000   1.0000   1.0000   1.0000   1.0000
     1.0000   1.0000   1.0000   1.0000   1.0000   1.0000   1.0000   1.0000
     1.0000   1.0000   1.0000   1.0000   1.0000

          k = 0.1250 0.0722 0.1648 (  3829 PWs)   bands (ev):

  -115.8860 -70.2585 -70.2358 -70.2356 -65.2182 -32.2201 -32.1873 -32.1841
   -10.3096  -9.4177   1.4489   1.5700   1.8838   2.5852   2.6996   3.3197
     5.3118   5.6153   5.8383   6.5931   6.6939

     occupation numbers 
     1.0000   1.0000   1.0000   1.0000   1.0000   1.0000   1.0000   1.0000
     1.0000   1.0000   1.0000   1.0000   1.0000   1.0000   1.0000   1.0000
     1.0000   1.0000   1.0000   1.0000   1.0000

          k = 0.1250 0.0722 0.2472 (  3832 PWs)   bands (ev):

  -115.8860 -70.2585 -70.2358 -70.2356 -65.2182 -32.2202 -32.1873 -32.1841
   -10.2465  -9.4865   1.4410   1.5689   1.7656   2.5628   2.6902   3.5581
     5.2405   5.6682   5.7447   6.5516   6.6541

     occupation numbers 
     1.0000   1.0000   1.0000   1.0000   1.0000   1.0000   1.0000   1.0000
     1.0000   1.0000   1.0000   1.0000   1.0000   1.0000   1.0000   1.0000
     1.0000   1.0000   1.0000   1.0000   1.0000

          k = 0.1250 0.0722-0.3296 (  3832 PWs)   bands (ev):

  -115.8860 -70.2585 -70.2358 -70.2356 -65.2182 -32.2202 -32.1873 -32.1841
   -10.2167  -9.5187   1.4352   1.5680   1.7270   2.5530   2.6867   3.6640
     5.1488   5.6973   5.7564   6.5387   6.6294

     occupation numbers 
     1.0000   1.0000   1.0000   1.0000   1.0000   1.0000   1.0000   1.0000
     1.0000   1.0000   1.0000   1.0000   1.0000   1.0000   1.0000   1.0000
     1.0000   1.0000   1.0000   1.0000   1.0000

          k = 0.1250 0.0722-0.2472 (  3832 PWs)   bands (ev):

  -115.8860 -70.2585 -70.2358 -70.2356 -65.2182 -32.2202 -32.1873 -32.1841
   -10.2465  -9.4865   1.4380   1.5678   1.7680   2.5617   2.6910   3.5757
     5.1787   5.6820   5.7608   6.5878   6.6380

     occupation numbers 
     1.0000   1.0000   1.0000   1.0000   1.0000   1.0000   1.0000   1.0000
     1.0000   1.0000   1.0000   1.0000   1.0000   1.0000   1.0000   1.0000
     1.0000   1.0000   1.0000   1.0000   1.0000

          k = 0.1250 0.0722-0.1648 (  3829 PWs)   bands (ev):

  -115.8860 -70.2585 -70.2358 -70.2356 -65.2182 -32.2201 -32.1873 -32.1841
   -10.3096  -9.4176   1.4464   1.5683   1.8843   2.5840   2.7007   3.3397
     5.2471   5.6331   5.8365   6.6527   6.6729

     occupation numbers 
     1.0000   1.0000   1.0000   1.0000   1.0000   1.0000   1.0000   1.0000
     1.0000   1.0000   1.0000   1.0000   1.0000   1.0000   1.0000   1.0000
     1.0000   1.0000   1.0000   1.0000   1.0000

          k = 0.1250 0.0722-0.0824 (  3838 PWs)   bands (ev):

  -115.8860 -70.2585 -70.2358 -70.2356 -65.2182 -32.2201 -32.1873 -32.1841
   -10.3642  -9.3574   1.4533   1.5694   2.0502   2.6084   2.7103   3.0644
     5.2535   5.5821   6.0314   6.6674   6.7106

     occupation numbers 
     1.0000   1.0000   1.0000   1.0000   1.0000   1.0000   1.0000   1.0000
     1.0000   1.0000   1.0000   1.0000   1.0000   1.0000   1.0000   1.0000
     1.0000   1.0000   1.0000   1.0000   1.0000

          k = 0.1250 0.2165-0.0000 (  3823 PWs)   bands (ev):

  -115.8860 -70.2585 -70.2362 -70.2357 -65.2178 -32.2193 -32.1940 -32.1861
   -10.2427  -9.2767   1.4271   1.6805   2.1819   2.6222   2.7020   3.1974
     4.7443   5.1796   5.6046   6.3507   6.5183

     occupation numbers 
     1.0000   1.0000   1.0000   1.0000   1.0000   1.0000   1.0000   1.0000
     1.0000   1.0000   1.0000   1.0000   1.0000   1.0000   1.0000   1.0000
     1.0000   1.0000   1.0000   1.0000   1.0000

          k = 0.1250 0.2165 0.0824 (  3831 PWs)   bands (ev):

  -115.8860 -70.2585 -70.2362 -70.2358 -65.2178 -32.2193 -32.1940 -32.1861
   -10.2253  -9.2947   1.4228   1.6783   2.1082   2.5607   2.6976   3.3359
     4.7667   5.2116   5.5580   6.3456   6.5251

     occupation numbers 
     1.0000   1.0000   1.0000   1.0000   1.0000   1.0000   1.0000   1.0000
     1.0000   1.0000   1.0000   1.0000   1.0000   1.0000   1.0000   1.0000
     1.0000   1.0000   1.0000   1.0000   1.0000

          k = 0.1250 0.2165 0.1648 (  3828 PWs)   bands (ev):

  -115.8860 -70.2585 -70.2362 -70.2357 -65.2178 -32.2194 -32.1940 -32.1861
   -10.1801  -9.3412   1.4101   1.6717   1.9598   2.4783   2.6872   3.5789
     4.7723   5.3207   5.5125   6.3048   6.5143

     occupation numbers 
     1.0000   1.0000   1.0000   1.0000   1.0000   1.0000   1.0000   1.0000
     1.0000   1.0000   1.0000   1.0000   1.0000   1.0000   1.0000   1.0000
     1.0000   1.0000   1.0000   1.0000   1.0000

          k = 0.1250 0.2165 0.2472 (  3837 PWs)   bands (ev):

  -115.8860 -70.2585 -70.2362 -70.2358 -65.2178 -32.2194 -32.1940 -32.1861
   -10.1291  -9.3935   1.3933   1.6622   1.8475   2.4223   2.6770   3.7736
     4.7052   5.4602   5.5782   6.2460   6.4403

     occupation numbers 
     1.0000   1.0000   1.0000   1.0000   1.0000   1.0000   1.0000   1.0000
     1.0000   1.0000   1.0000   1.0000   1.0000   1.0000   1.0000   1.0000
     1.0000   1.0000   1.0000   1.0000   1.0000

          k = 0.1250 0.2165-0.3296 (  3834 PWs)   bands (ev):

  -115.8860 -70.2585 -70.2362 -70.2357 -65.2178 -32.2195 -32.1940 -32.1861
   -10.1057  -9.4175   1.3847   1.6569   1.8104   2.4020   2.6728   3.8504
     4.6590   5.5019   5.6679   6.2199   6.3766

     occupation numbers 
     1.0000   1.0000   1.0000   1.0000   1.0000   1.0000   1.0000   1.0000
     1.0000   1.0000   1.0000   1.0000   1.0000   1.0000   1.0000   1.0000
     1.0000   1.0000   1.0000   1.0000   1.0000

          k = 0.1250 0.2165-0.2472 (  3837 PWs)   bands (ev):

  -115.8860 -70.2585 -70.2362 -70.2358 -65.2178 -32.2194 -32.1940 -32.1861
   -10.1291  -9.3935   1.3933   1.6622   1.8475   2.4223   2.6770   3.7736
     4.7052   5.4602   5.5782   6.2460   6.4403

     occupation numbers 
     1.0000   1.0000   1.0000   1.0000   1.0000   1.0000   1.0000   1.0000
     1.0000   1.0000   1.0000   1.0000   1.0000   1.0000   1.0000   1.0000
     1.0000   1.0000   1.0000   1.0000   1.0000

          k = 0.1250 0.2165-0.1648 (  3828 PWs)   bands (ev):

  -115.8860 -70.2585 -70.2362 -70.2357 -65.2178 -32.2194 -32.1940 -32.1861
   -10.1801  -9.3412   1.4101   1.6717   1.9598   2.4783   2.6872   3.5789
     4.7723   5.3207   5.5125   6.3048   6.5143

     occupation numbers 
     1.0000   1.0000   1.0000   1.0000   1.0000   1.0000   1.0000   1.0000
     1.0000   1.0000   1.0000   1.0000   1.0000   1.0000   1.0000   1.0000
     1.0000   1.0000   1.0000   1.0000   1.0000

          k = 0.1250 0.2165-0.0824 (  3831 PWs)   bands (ev):

  -115.8860 -70.2585 -70.2362 -70.2358 -65.2178 -32.2193 -32.1940 -32.1861
   -10.2253  -9.2947   1.4228   1.6783   2.1082   2.5607   2.6976   3.3359
     4.7667   5.2116   5.5580   6.3456   6.5251

     occupation numbers 
     1.0000   1.0000   1.0000   1.0000   1.0000   1.0000   1.0000   1.0000
     1.0000   1.0000   1.0000   1.0000   1.0000   1.0000   1.0000   1.0000
     1.0000   1.0000   1.0000   1.0000   1.0000

          k = 0.1250 0.3608-0.0000 (  3850 PWs)   bands (ev):

  -115.8860 -70.2585 -70.2368 -70.2360 -65.2172 -32.2182 -32.2032 -32.1893
   -10.0280  -9.2012   1.4601   1.8464   2.2181   2.6483   2.7052   3.6209
     4.0924   4.5421   5.1038   5.9590   6.1874

     occupation numbers 
     1.0000   1.0000   1.0000   1.0000   1.0000   1.0000   1.0000   1.0000
     1.0000   1.0000   1.0000   1.0000   1.0000   1.0000   1.0000   1.0000
     1.0000   1.0000   1.0000   1.0000   1.0000

          k = 0.1250 0.3608 0.0824 (  3848 PWs)   bands (ev):

  -115.8860 -70.2585 -70.2368 -70.2360 -65.2172 -32.2182 -32.2032 -32.1893
   -10.0168  -9.2103   1.4580   1.8335   2.1637   2.5622   2.7017   3.7355
     4.0601   4.6174   5.0956   5.9640   6.2413

     occupation numbers 
     1.0000   1.0000   1.0000   1.0000   1.0000   1.0000   1.0000   1.0000
     1.0000   1.0000   1.0000   1.0000   1.0000   1.0000   1.0000   1.0000
     1.0000   1.0000   1.0000   1.0000   1.0000

          k = 0.1250 0.3608 0.1648 (  3844 PWs)   bands (ev):

  -115.8860 -70.2584 -70.2368 -70.2360 -65.2172 -32.2183 -32.2032 -32.1893
    -9.9884  -9.2336   1.4407   1.8040   2.0665   2.4162   2.6931   3.7734
     4.0863   4.8808   5.1462   5.8844   6.3491

     occupation numbers 
     1.0000   1.0000   1.0000   1.0000   1.0000   1.0000   1.0000   1.0000
     1.0000   1.0000   1.0000   1.0000   1.0000   1.0000   1.0000   1.0000
     1.0000   1.0000   1.0000   1.0000   1.0000

          k = 0.1250 0.3608 0.2472 (  3849 PWs)   bands (ev):

  -115.8860 -70.2584 -70.2368 -70.2360 -65.2172 -32.2183 -32.2032 -32.1893
    -9.9579  -9.2591   1.4148   1.7695   1.9897   2.3118   2.6842   3.7805
     4.0853   5.1240   5.3002   5.7936   6.3864

     occupation numbers 
     1.0000   1.0000   1.0000   1.0000   1.0000   1.0000   1.0000   1.0000
     1.0000   1.0000   1.0000   1.0000   1.0000   1.0000   1.0000   1.0000
     1.0000   1.0000   1.0000   1.0000   1.0000

          k = 0.1250 0.3608-0.3296 (  3844 PWs)   bands (ev):

  -115.8860 -70.2584 -70.2368 -70.2360 -65.2172 -32.2183 -32.2032 -32.1893
    -9.9445  -9.2704   1.4014   1.7564   1.9649   2.2747   2.6802   3.7236
     4.1474   5.2140   5.3801   5.7798   6.3519

     occupation numbers 
     1.0000   1.0000   1.0000   1.0000   1.0000   1.0000   1.0000   1.0000
     1.0000   1.0000   1.0000   1.0000   1.0000   1.0000   1.0000   1.0000
     1.0000   1.0000   1.0000   1.0000   1.0000

          k = 0.1250 0.3608-0.2472 (  3849 PWs)   bands (ev):

  -115.8860 -70.2584 -70.2368 -70.2360 -65.2172 -32.2183 -32.2032 -32.1893
    -9.9578  -9.2592   1.4113   1.7804   1.9998   2.3044   2.6834   3.6360
     4.2495   5.1193   5.3317   5.7754   6.3369

     occupation numbers 
     1.0000   1.0000   1.0000   1.0000   1.0000   1.0000   1.0000   1.0000
     1.0000   1.0000   1.0000   1.0000   1.0000   1.0000   1.0000   1.0000
     1.0000   1.0000   1.0000   1.0000   1.0000

          k = 0.1250 0.3608-0.1648 (  3844 PWs)   bands (ev):

  -115.8860 -70.2584 -70.2368 -70.2360 -65.2172 -32.2183 -32.2032 -32.1893
    -9.9883  -9.2338   1.4320   1.8183   2.0951   2.4039   2.6921   3.5572
     4.3263   4.9125   5.1415   5.8514   6.2951

     occupation numbers 
     1.0000   1.0000   1.0000   1.0000   1.0000   1.0000   1.0000   1.0000
     1.0000   1.0000   1.0000   1.0000   1.0000   1.0000   1.0000   1.0000
     1.0000   1.0000   1.0000   1.0000   1.0000

          k = 0.1250 0.3608-0.0824 (  3848 PWs)   bands (ev):

  -115.8860 -70.2585 -70.2368 -70.2360 -65.2172 -32.2182 -32.2032 -32.1893
   -10.0167  -9.2104   1.4502   1.8416   2.1913   2.5616   2.7015   3.5300
     4.2760   4.6328   5.0974   5.9204   6.2202

     occupation numbers 
     1.0000   1.0000   1.0000   1.0000   1.0000   1.0000   1.0000   1.0000
     1.0000   1.0000   1.0000   1.0000   1.0000   1.0000   1.0000   1.0000
     1.0000   1.0000   1.0000   1.0000   1.0000

          k = 0.1250 0.5052-0.0000 (  3862 PWs)   bands (ev):

  -115.8859 -70.2584 -70.2373 -70.2362 -65.2168 -32.2173 -32.2097 -32.1916
    -9.8631  -9.1550   1.5536   2.0132   2.2585   2.6712   2.7498   3.2646
     4.0926   4.3875   4.7187   5.6817   5.8483

     occupation numbers 
     1.0000   1.0000   1.0000   1.0000   1.0000   1.0000   1.0000   1.0000
     1.0000   1.0000   1.0000   1.0000   1.0000   1.0000   1.0000   1.0000
     1.0000   1.0000   1.0000   1.0000   1.0000

          k = 0.1250 0.5052 0.0824 (  3851 PWs)   bands (ev):

  -115.8859 -70.2584 -70.2372 -70.2362 -65.2168 -32.2174 -32.2097 -32.1916
    -9.8580  -9.1561   1.5492   1.9988   2.2128   2.6006   2.7504   3.2312
     4.0751   4.4446   4.8205   5.7462   5.8777

     occupation numbers 
     1.0000   1.0000   1.0000   1.0000   1.0000   1.0000   1.0000   1.0000
     1.0000   1.0000   1.0000   1.0000   1.0000   1.0000   1.0000   1.0000
     1.0000   1.0000   1.0000   1.0000   1.0000

          k = 0.1250 0.5052 0.1648 (  3851 PWs)   bands (ev):

[...]
    -9.8454  -9.1590   1.4987   1.9971   2.1964   2.4281   2.7578   3.0301
     4.0645   4.6749   5.1045   5.6499   6.0528

     occupation numbers 
     1.0000   1.0000   1.0000   1.0000   1.0000   1.0000   1.0000   1.0000
     1.0000   1.0000   1.0000   1.0000   1.0000   1.0000   1.0000   1.0000
     1.0000   1.0000   1.0000   1.0000   1.0000

          k =-0.5000-0.1443-0.0824 (  3851 PWs)   bands (ev):

  -115.8859 -70.2584 -70.2372 -70.2362 -65.2168 -32.2174 -32.2097 -32.1916
    -9.8579  -9.1562   1.5336   2.0113   2.2493   2.6205   2.7543   3.1141
     4.0711   4.5813   4.8012   5.6813   5.8823

     occupation numbers 
     1.0000   1.0000   1.0000   1.0000   1.0000   1.0000   1.0000   1.0000
     1.0000   1.0000   1.0000   1.0000   1.0000   1.0000   1.0000   1.0000
     1.0000   1.0000   1.0000   1.0000   1.0000

          k =-0.5000-0.0000-0.0000 (  3851 PWs)   bands (ev):

  -115.8859 -70.2584 -70.2370 -70.2364 -65.2168 -32.2173 -32.2070 -32.1942
    -9.8662  -9.1539   1.7097   1.9138   2.2346   2.6736   2.7570   3.6152
     3.7708   4.3974   4.7129   5.5013   5.7960

     occupation numbers 
     1.0000   1.0000   1.0000   1.0000   1.0000   1.0000   1.0000   1.0000
     1.0000   1.0000   1.0000   1.0000   1.0000   1.0000   1.0000   1.0000
     1.0000   1.0000   1.0000   1.0000   1.0000

          k =-0.5000-0.0000 0.0824 (  3854 PWs)   bands (ev):

  -115.8859 -70.2584 -70.2370 -70.2364 -65.2168 -32.2174 -32.2070 -32.1942
    -9.8609  -9.1553   1.7068   1.8948   2.2097   2.6036   2.7580   3.4855
     3.7891   4.5686   4.7713   5.4727   5.8818

     occupation numbers 
     1.0000   1.0000   1.0000   1.0000   1.0000   1.0000   1.0000   1.0000
     1.0000   1.0000   1.0000   1.0000   1.0000   1.0000   1.0000   1.0000
     1.0000   1.0000   1.0000   1.0000   1.0000

          k =-0.5000-0.0000 0.1648 (  3855 PWs)   bands (ev):

  -115.8859 -70.2584 -70.2371 -70.2364 -65.2168 -32.2174 -32.2070 -32.1942
    -9.8478  -9.1589   1.6977   1.8456   2.1545   2.4292   2.7558   3.3631
     3.8589   4.5739   5.1075   5.4100   6.0946

     occupation numbers 
     1.0000   1.0000   1.0000   1.0000   1.0000   1.0000   1.0000   1.0000
     1.0000   1.0000   1.0000   1.0000   1.0000   1.0000   1.0000   1.0000
     1.0000   1.0000   1.0000   1.0000   1.0000

          k =-0.5000-0.0000 0.2472 (  3859 PWs)   bands (ev):

  -115.8859 -70.2584 -70.2371 -70.2364 -65.2168 -32.2175 -32.2070 -32.1942
    -9.8344  -9.1628   1.6843   1.7918   2.0984   2.2779   2.7524   3.3285
     3.9289   4.5910   5.1012   5.5901   6.3019

     occupation numbers 
     1.0000   1.0000   1.0000   1.0000   1.0000   1.0000   1.0000   1.0000
     1.0000   1.0000   1.0000   1.0000   1.0000   1.0000   1.0000   1.0000
     1.0000   1.0000   1.0000   1.0000   1.0000

          k =-0.5000-0.0000-0.3296 (  3868 PWs)   bands (ev):

  -115.8859 -70.2584 -70.2371 -70.2364 -65.2168 -32.2175 -32.2070 -32.1942
    -9.8287  -9.1645   1.6767   1.7682   2.0713   2.2284   2.7509   3.3236
     3.9554   4.6296   5.0167   5.7054   6.3868

     occupation numbers 
     1.0000   1.0000   1.0000   1.0000   1.0000   1.0000   1.0000   1.0000
     1.0000   1.0000   1.0000   1.0000   1.0000   1.0000   1.0000   1.0000
     1.0000   1.0000   1.0000   1.0000   1.0000

          k =-0.5000-0.0000-0.2472 (  3859 PWs)   bands (ev):

  -115.8859 -70.2584 -70.2371 -70.2364 -65.2168 -32.2175 -32.2070 -32.1942
    -9.8344  -9.1628   1.6843   1.7918   2.0984   2.2779   2.7524   3.3285
     3.9289   4.5910   5.1012   5.5901   6.3019

     occupation numbers 
     1.0000   1.0000   1.0000   1.0000   1.0000   1.0000   1.0000   1.0000
     1.0000   1.0000   1.0000   1.0000   1.0000   1.0000   1.0000   1.0000
     1.0000   1.0000   1.0000   1.0000   1.0000

          k =-0.5000-0.0000-0.1648 (  3855 PWs)   bands (ev):

  -115.8859 -70.2584 -70.2371 -70.2364 -65.2168 -32.2174 -32.2070 -32.1942
    -9.8478  -9.1589   1.6977   1.8456   2.1545   2.4292   2.7558   3.3631
     3.8589   4.5739   5.1075   5.4100   6.0946

     occupation numbers 
     1.0000   1.0000   1.0000   1.0000   1.0000   1.0000   1.0000   1.0000
     1.0000   1.0000   1.0000   1.0000   1.0000   1.0000   1.0000   1.0000
     1.0000   1.0000   1.0000   1.0000   1.0000

          k =-0.5000-0.0000-0.0824 (  3854 PWs)   bands (ev):

  -115.8859 -70.2584 -70.2370 -70.2364 -65.2168 -32.2174 -32.2070 -32.1942
    -9.8609  -9.1553   1.7068   1.8948   2.2097   2.6036   2.7580   3.4855
     3.7891   4.5686   4.7713   5.4727   5.8818

     occupation numbers 
     1.0000   1.0000   1.0000   1.0000   1.0000   1.0000   1.0000   1.0000
     1.0000   1.0000   1.0000   1.0000   1.0000   1.0000   1.0000   1.0000
     1.0000   1.0000   1.0000   1.0000   1.0000

          k =-0.5000 0.1443-0.0000 (  3862 PWs)   bands (ev):

  -115.8859 -70.2584 -70.2373 -70.2362 -65.2168 -32.2173 -32.2097 -32.1916
    -9.8631  -9.1550   1.5536   2.0132   2.2585   2.6712   2.7498   3.2646
     4.0926   4.3875   4.7187   5.6817   5.8483

     occupation numbers 
     1.0000   1.0000   1.0000   1.0000   1.0000   1.0000   1.0000   1.0000
     1.0000   1.0000   1.0000   1.0000   1.0000   1.0000   1.0000   1.0000
     1.0000   1.0000   1.0000   1.0000   1.0000

          k =-0.5000 0.1443 0.0824 (  3851 PWs)   bands (ev):

  -115.8859 -70.2584 -70.2372 -70.2362 -65.2168 -32.2174 -32.2097 -32.1916
    -9.8579  -9.1562   1.5336   2.0113   2.2493   2.6205   2.7543   3.1141
     4.0711   4.5813   4.8012   5.6813   5.8823

     occupation numbers 
     1.0000   1.0000   1.0000   1.0000   1.0000   1.0000   1.0000   1.0000
     1.0000   1.0000   1.0000   1.0000   1.0000   1.0000   1.0000   1.0000
     1.0000   1.0000   1.0000   1.0000   1.0000

          k =-0.5000 0.1443 0.1648 (  3851 PWs)   bands (ev):

  -115.8859 -70.2584 -70.2372 -70.2362 -65.2168 -32.2174 -32.2097 -32.1916
    -9.8454  -9.1590   1.4987   1.9971   2.1964   2.4281   2.7578   3.0301
     4.0645   4.6749   5.1045   5.6499   6.0528

     occupation numbers 
     1.0000   1.0000   1.0000   1.0000   1.0000   1.0000   1.0000   1.0000
     1.0000   1.0000   1.0000   1.0000   1.0000   1.0000   1.0000   1.0000
     1.0000   1.0000   1.0000   1.0000   1.0000

          k =-0.5000 0.1443 0.2472 (  3843 PWs)   bands (ev):

  -115.8859 -70.2584 -70.2372 -70.2362 -65.2168 -32.2175 -32.2097 -32.1916
    -9.8326  -9.1621   1.4653   1.9756   2.1202   2.2670   2.7550   3.0342
     4.0419   4.7988   5.2303   5.6619   6.2659

     occupation numbers 
     1.0000   1.0000   1.0000   1.0000   1.0000   1.0000   1.0000   1.0000
     1.0000   1.0000   1.0000   1.0000   1.0000   1.0000   1.0000   1.0000
     1.0000   1.0000   1.0000   1.0000   1.0000

          k =-0.5000 0.1443-0.3296 (  3840 PWs)   bands (ev):

  -115.8859 -70.2584 -70.2372 -70.2362 -65.2168 -32.2175 -32.2097 -32.1916
    -9.8272  -9.1633   1.4545   1.9512   2.0721   2.2324   2.7518   3.0582
     4.0189   4.8869   5.1822   5.7077   6.3717

     occupation numbers 
     1.0000   1.0000   1.0000   1.0000   1.0000   1.0000   1.0000   1.0000
     1.0000   1.0000   1.0000   1.0000   1.0000   1.0000   1.0000   1.0000
     1.0000   1.0000   1.0000   1.0000   1.0000

          k =-0.5000 0.1443-0.2472 (  3843 PWs)   bands (ev):

  -115.8859 -70.2584 -70.2372 -70.2362 -65.2168 -32.2175 -32.2097 -32.1916
    -9.8327  -9.1619   1.4772   1.9497   2.0921   2.2922   2.7505   3.0877
     4.0124   4.7825   5.2176   5.6528   6.3103

     occupation numbers 
     1.0000   1.0000   1.0000   1.0000   1.0000   1.0000   1.0000   1.0000
     1.0000   1.0000   1.0000   1.0000   1.0000   1.0000   1.0000   1.0000
     1.0000   1.0000   1.0000   1.0000   1.0000

          k =-0.5000 0.1443-0.1648 (  3851 PWs)   bands (ev):

  -115.8859 -70.2584 -70.2372 -70.2362 -65.2168 -32.2174 -32.2097 -32.1916
    -9.8455  -9.1589   1.5185   1.9722   2.1464   2.4414   2.7506   3.1368
     4.0302   4.6194   5.0727   5.6729   6.1047

     occupation numbers 
     1.0000   1.0000   1.0000   1.0000   1.0000   1.0000   1.0000   1.0000
     1.0000   1.0000   1.0000   1.0000   1.0000   1.0000   1.0000   1.0000
     1.0000   1.0000   1.0000   1.0000   1.0000

          k =-0.5000 0.1443-0.0824 (  3851 PWs)   bands (ev):

  -115.8859 -70.2584 -70.2372 -70.2362 -65.2168 -32.2174 -32.2097 -32.1916
    -9.8580  -9.1561   1.5492   1.9988   2.2128   2.6006   2.7504   3.2312
     4.0751   4.4446   4.8205   5.7462   5.8777

     occupation numbers 
     1.0000   1.0000   1.0000   1.0000   1.0000   1.0000   1.0000   1.0000
     1.0000   1.0000   1.0000   1.0000   1.0000   1.0000   1.0000   1.0000
     1.0000   1.0000   1.0000   1.0000   1.0000

          k =-0.5000-0.8660 0.0000 (  3848 PWs)   bands (ev):

  -115.8859 -70.2584 -70.2374 -70.2360 -65.2168 -32.2173 -32.2117 -32.1895
    -9.8600  -9.1561   1.4525   2.0553   2.2672   2.6660   2.7729   3.1198
     4.0697   4.4214   4.8633   5.6928   6.0252

     occupation numbers 
     1.0000   1.0000   1.0000   1.0000   1.0000   1.0000   1.0000   1.0000
     1.0000   1.0000   1.0000   1.0000   1.0000   1.0000   1.0000   1.0000
     1.0000   1.0000   1.0000   1.0000   1.0000

          k =-0.5000-0.8660 0.0824 (  3852 PWs)   bands (ev):

  -115.8859 -70.2584 -70.2374 -70.2360 -65.2168 -32.2173 -32.2117 -32.1895
    -9.8551  -9.1569   1.4372   2.0522   2.2376   2.6173   2.7704   3.0193
     4.0611   4.5858   4.8984   5.8037   5.9912

     occupation numbers 
     1.0000   1.0000   1.0000   1.0000   1.0000   1.0000   1.0000   1.0000
     1.0000   1.0000   1.0000   1.0000   1.0000   1.0000   1.0000   1.0000
     1.0000   1.0000   1.0000   1.0000   1.0000

          k =-0.5000-0.8660 0.1648 (  3852 PWs)   bands (ev):

  -115.8859 -70.2584 -70.2374 -70.2360 -65.2168 -32.2174 -32.2117 -32.1895
    -9.8431  -9.1590   1.3983   2.0446   2.1725   2.4461   2.7646   2.9253
     4.0282   4.9179   4.9929   5.8994   6.0496

     occupation numbers 
     1.0000   1.0000   1.0000   1.0000   1.0000   1.0000   1.0000   1.0000
     1.0000   1.0000   1.0000   1.0000   1.0000   1.0000   1.0000   1.0000
     1.0000   1.0000   1.0000   1.0000   1.0000

          k =-0.5000-0.8660 0.2472 (  3838 PWs)   bands (ev):

  -115.8859 -70.2584 -70.2374 -70.2360 -65.2168 -32.2174 -32.2117 -32.1895
    -9.8309  -9.1612   1.3567   2.0370   2.1042   2.2787   2.7591   2.9038
     3.9993   5.1106   5.2054   5.7840   6.2649

     occupation numbers 
     1.0000   1.0000   1.0000   1.0000   1.0000   1.0000   1.0000   1.0000
     1.0000   1.0000   1.0000   1.0000   1.0000   1.0000   1.0000   1.0000
     1.0000   1.0000   1.0000   1.0000   1.0000

          k =-0.5000-0.8660-0.3296 (  3840 PWs)   bands (ev):

  -115.8859 -70.2584 -70.2374 -70.2360 -65.2168 -32.2175 -32.2117 -32.1895
    -9.8258  -9.1622   1.3388   2.0339   2.0681   2.2244   2.7569   2.9009
     3.9889   5.1729   5.3194   5.7227   6.3443

     occupation numbers 
     1.0000   1.0000   1.0000   1.0000   1.0000   1.0000   1.0000   1.0000
     1.0000   1.0000   1.0000   1.0000   1.0000   1.0000   1.0000   1.0000
     1.0000   1.0000   1.0000   1.0000   1.0000

     highest occupied level (ev):     6.8793

!    total energy              =    -651.12969229 Ry
     Harris-Foulkes estimate   =    -651.12969226 Ry
     estimated scf accuracy    <       0.00000011 Ry

     The total energy is the sum of the following terms:

     one-electron contribution =    -536.84551623 Ry
     hartree contribution      =     281.71922657 Ry
     xc contribution           =     -73.07100933 Ry
     ewald contribution        =    -322.93239330 Ry

     convergence has been achieved in   8 iterations

     Forces acting on atoms (cartesian axes, Ry/au):

     atom    1 type  3   force =    -0.00000074    0.00000026   -0.00067763
     atom    2 type  3   force =     0.00000001    0.00000104   -0.00952216
     atom    3 type  2   force =     0.00000077   -0.00000051    0.01722088
     atom    4 type  1   force =    -0.00000004   -0.00000079   -0.00702109
     The non-local contrib.  to forces
     atom    1 type  3   force =     0.00000000   -0.00000142   -0.14802854
     atom    2 type  3   force =    -0.00000002    0.00000065    0.05446015
     atom    3 type  2   force =    -0.00000032   -0.00000417   -0.18672504
     atom    4 type  1   force =     0.00000228   -0.00000157   -0.03550414
     The ionic contribution  to forces
     atom    1 type  3   force =    -0.00001384    0.00003168    5.98926820
     atom    2 type  3   force =     0.00000164    0.00000964   -4.94334523
     atom    3 type  2   force =    -0.00000396   -0.00002107   -0.21879909
     atom    4 type  1   force =     0.00001616   -0.00002025   -0.82712388
     The local contribution  to forces
     atom    1 type  3   force =     0.00001293   -0.00003037   -5.84321734
     atom    2 type  3   force =    -0.00000087   -0.00000891    4.88018205
     atom    3 type  2   force =     0.00000372    0.00002451    0.42319322
     atom    4 type  1   force =    -0.00001753    0.00002179    0.85525856
     The core correction contribution to forces
     atom    1 type  3   force =     0.00000001   -0.00000001    0.00143287
     atom    2 type  3   force =     0.00000000   -0.00000001   -0.00096964
     atom    3 type  2   force =     0.00000000    0.00000000    0.00000000
     atom    4 type  1   force =     0.00000000    0.00000000    0.00000000
     The Hubbard contrib.    to forces
     atom    1 type  3   force =     0.00000000    0.00000000    0.00000000
     atom    2 type  3   force =     0.00000000    0.00000000    0.00000000
     atom    3 type  2   force =     0.00000000    0.00000000    0.00000000
     atom    4 type  1   force =     0.00000000    0.00000000    0.00000000
     The SCF correction term to forces
     atom    1 type  3   force =     0.00000000    0.00000000    0.00000000
     atom    2 type  3   force =     0.00000000    0.00000000    0.00000000
     atom    3 type  2   force =     0.00000000    0.00000000    0.00000000
     atom    4 type  1   force =     0.00000000    0.00000000    0.00000000

     Total force =     0.000000     Total SCF correction =     0.000000


     Computing stress (Cartesian axis) and pressure

          total   stress  (Ry/bohr**3)                   (kbar)     P=    3.50
   0.00002496   0.00000000   0.00000001          3.67      0.00      0.00
   0.00000000   0.00002496  -0.00000001          0.00      3.67     -0.00
   0.00000001  -0.00000001   0.00002155          0.00     -0.00      3.17

     kinetic stress (kbar)  26486.02      0.00      0.00
                                0.00  26486.02     -0.00
                                0.00     -0.00  26598.77

     local   stress (kbar) -18164.53     -0.03     -0.00
                               -0.03 -18164.55      0.02
                               -0.00      0.02   2680.45

     nonloc. stress (kbar)   1791.71      0.00     -0.00
                                0.00   1791.71      0.00
                               -0.00      0.00   1740.88

     hartree stress (kbar)  46636.61      0.01      0.00
                                0.01  46636.62     -0.01
                                0.00     -0.01  36914.92

     exc-cor stress (kbar) -10479.58      0.00     -0.00
                                0.00 -10479.58     -0.00
                               -0.00     -0.00 -10482.00

     corecor stress (kbar)   -249.72     -0.00     -0.00
                               -0.00   -249.72      0.00
                               -0.00      0.00   -249.93

     ewald   stress (kbar) -46016.84      0.02      0.01
                                0.02 -46016.83     -0.02
                                0.01     -0.02 -57199.91

     hubbard stress (kbar)      0.00      0.00      0.00
                                0.00      0.00      0.00
                                0.00      0.00      0.00

     london  stress (kbar)      0.00      0.00      0.00
                                0.00      0.00      0.00
                                0.00      0.00      0.00

     DFT-D3  stress (kbar)      0.00      0.00      0.00
                                0.00      0.00      0.00
                                0.00      0.00      0.00

     XDM     stress (kbar)      0.00      0.00      0.00
                                0.00      0.00      0.00
                                0.00      0.00      0.00

     dft-nl  stress (kbar)      0.00      0.00      0.00
                                0.00      0.00      0.00
                                0.00      0.00      0.00

     TS-vdW  stress (kbar)      0.00      0.00      0.00
                                0.00      0.00      0.00
                                0.00      0.00      0.00



     Writing output data file ZnO.save/
 
     init_run     :      0.47s CPU      0.77s WALL (       1 calls)
     electrons    :      6.95s CPU      7.60s WALL (       1 calls)
     forces       :      0.16s CPU      0.17s WALL (       1 calls)
     stress       :      0.29s CPU      0.30s WALL (       1 calls)

     Called by init_run:
     wfcinit      :      0.28s CPU      0.50s WALL (       1 calls)
     wfcinit:atom :      0.00s CPU      0.00s WALL (      65 calls)
     wfcinit:wfcr :      0.27s CPU      0.48s WALL (      65 calls)
     potinit      :      0.07s CPU      0.08s WALL (       1 calls)
     hinit0       :      0.10s CPU      0.15s WALL (       1 calls)

     Called by electrons:
     c_bands      :      5.85s CPU      6.26s WALL (       8 calls)
     sum_band     :      0.81s CPU      0.93s WALL (       8 calls)
     v_of_rho     :      0.24s CPU      0.26s WALL (       9 calls)
     v_h          :      0.00s CPU      0.00s WALL (       9 calls)
     v_xc         :      0.29s CPU      0.30s WALL (      11 calls)
     newd         :      0.06s CPU      0.07s WALL (       9 calls)
     mix_rho      :      0.01s CPU      0.04s WALL (       8 calls)

     Called by c_bands:
     init_us_2    :      0.10s CPU      0.10s WALL (    1235 calls)
     cegterg      :      5.47s CPU      5.73s WALL (     520 calls)

     Called by sum_band:
     sum_band:bec :      0.01s CPU      0.01s WALL (     520 calls)
     addusdens    :      0.06s CPU      0.06s WALL (       8 calls)

     Called by *egterg:
     h_psi        :      3.25s CPU      3.37s WALL (    1900 calls)
     s_psi        :      0.12s CPU      0.12s WALL (    1900 calls)
     g_psi        :      0.01s CPU      0.01s WALL (    1315 calls)
     cdiaghg      :      1.49s CPU      1.76s WALL (    1835 calls)
     cegterg:over :      0.41s CPU      0.47s WALL (    1315 calls)
     cegterg:upda :      0.19s CPU      0.20s WALL (    1315 calls)
     cegterg:last :      0.10s CPU      0.11s WALL (     520 calls)
     cdiaghg:chol :      0.07s CPU      0.10s WALL (    1835 calls)
     cdiaghg:inve :      0.03s CPU      0.03s WALL (    1835 calls)
     cdiaghg:para :      0.15s CPU      0.16s WALL (    3670 calls)

     Called by h_psi:
     h_psi:pot    :      3.24s CPU      3.35s WALL (    1900 calls)
     h_psi:calbec :      0.20s CPU      0.21s WALL (    1900 calls)
     vloc_psi     :      2.92s CPU      3.02s WALL (    1900 calls)
     add_vuspsi   :      0.12s CPU      0.12s WALL (    1900 calls)

     General routines
     calbec       :      0.31s CPU      0.32s WALL (    2745 calls)
     fft          :      0.04s CPU      0.05s WALL (     140 calls)
     ffts         :      0.00s CPU      0.00s WALL (      17 calls)
     fftw         :      3.32s CPU      3.44s WALL (   69020 calls)
     interpolate  :      0.00s CPU      0.00s WALL (       9 calls)
 
     Parallel routines
     fft_scatt_xy :      0.45s CPU      0.47s WALL (   69177 calls)
     fft_scatt_yz :      1.74s CPU      1.81s WALL (   69177 calls)
 
     PWSCF        :      8.60s CPU     10.31s WALL

 
   This run was terminated on:  20:12:55  16Jun2022            

=------------------------------------------------------------------------------=
   JOB DONE.
=------------------------------------------------------------------------------=
