
     Program PWSCF v.6.4.1 starts on 16Jun2022 at 15:48:41 

     This program is part of the open-source Quantum ESPRESSO suite
     for quantum simulation of materials; please cite
         "P. Giannozzi et al., J. Phys.:Condens. Matter 21 395502 (2009);
         "P. Giannozzi et al., J. Phys.:Condens. Matter 29 465901 (2017);
          URL http://www.quantum-espresso.org", 
     in publications or presentations arising from this work. More details at
     http://www.quantum-espresso.org/quote

     Parallel version (MPI), running on    64 processors

     MPI processes distributed on     1 nodes
     K-points division:     npool     =       4
     R & G space division:  proc/nbgrp/npool/nimage =      16
     Waiting for input...
     Reading input from standard input

     Current dimensions of program PWSCF are:
     Max number of different atomic species (ntypx) = 10
     Max number of k-points (npk) =  40000
     Max angular momentum in pseudopotentials (lmaxx) =  3

     Subspace diagonalization in iterative solution of the eigenvalue problem:
     one sub-group per band group will be used
     scalapack distributed-memory algorithm (size of sub-group:  2*  2 procs)

 
     Parallelization info
     --------------------
     sticks:   dense  smooth     PW     G-vecs:    dense   smooth      PW
     Min          99      52     16                 4991     1944     338
     Max         100      53     18                 4996     1953     341
     Sum        1597     847    265                79923    31213    5419
 


     bravais-lattice index     =            0
     lattice parameter (alat)  =       6.2163  a.u.
     unit-cell volume          =     322.1646 (a.u.)^3
     number of atoms/cell      =            4
     number of atomic types    =            2
     number of electrons       =        32.00
     number of Kohn-Sham states=           16
     kinetic-energy cutoff     =      80.0000  Ry
     charge density cutoff     =     600.0000  Ry
     convergence threshold     =      1.0E-06
     mixing beta               =       0.5000
     number of iterations used =            8  plain     mixing
     Exchange-correlation      = SLA  PW   PSX  PSC ( 1  4 10  8 0 0)
     Using LIBXC version       =    4   3   4
     nstep                     =          200


     celldm(1)=   6.216343  celldm(2)=   0.000000  celldm(3)=   0.000000
     celldm(4)=   0.000000  celldm(5)=   0.000000  celldm(6)=   0.000000

     crystal axes: (cart. coord. in units of alat)
               a(1) = (   1.000000   0.000000   0.000000 )  
               a(2) = (  -0.500000   0.866026  -0.000000 )  
               a(3) = (   0.000000  -0.000000   1.548611 )  

     reciprocal axes: (cart. coord. in units 2 pi/alat)
               b(1) = (  1.000000  0.577350  0.000000 )  
               b(2) = ( -0.000000  1.154700  0.000000 )  
               b(3) = ( -0.000000  0.000000  0.645740 )  


     PseudoPot. # 1 for Mg read from file:
     ./GBRV_PBEsol/mg_pbesol_v1.4.uspp.F.UPF
     MD5 check sum: 4059f37963cf5867752dbf5ab2400678
     Pseudo is Ultrasoft, Zval = 10.0
     Generated by new atomic code, or converted to UPF format
     Using radial grid of  821 points,  7 beta functions with: 
                l(1) =   0
                l(2) =   0
                l(3) =   0
                l(4) =   1
                l(5) =   1
                l(6) =   2
                l(7) =   2
     Q(r) pseudized with  8 coefficients,  rinner =    1.200   1.200   1.200
                                                       1.200   1.200

     PseudoPot. # 2 for O  read from file:
     ./GBRV_PBEsol/o_pbesol_v1.2.uspp.F.UPF
     MD5 check sum: 501638753501ef6325af9037351f7734
     Pseudo is Ultrasoft + core correction, Zval =  6.0
     Generated by new atomic code, or converted to UPF format
     Using radial grid of  737 points,  5 beta functions with: 
                l(1) =   0
                l(2) =   0
                l(3) =   1
                l(4) =   1
                l(5) =   2
     Q(r) pseudized with  8 coefficients,  rinner =    0.900   0.900   0.900
                                                       0.900   0.900

     atomic species   valence    mass     pseudopotential
        Mg            10.00    24.30500     Mg( 1.00)
        O              6.00    15.99900     O ( 1.00)

     No symmetry found


                                    s                        frac. trans.

      isym =  1     identity                                     

 cryst.   s( 1) = (     1          0          0      )
                  (     0          1          0      )
                  (     0          0          1      )

 cart.    s( 1) = (  1.0000000 -0.0000000 -0.0000000 )
                  (  0.0000000  1.0000000  0.0000000 )
                  ( -0.0000000  0.0000000  1.0000000 )


   Cartesian axes

     site n.     atom                  positions (alat units)
         1           O   tau(   1) = (   0.5000002   0.2886755   0.0113759  )
         2           O   tau(   2) = (   0.0000001   0.5773495   0.7856811  )
         3           Mg  tau(   3) = (   0.5000000   0.2886748   0.9544925  )
         4           Mg  tau(   4) = (  -0.0000001   0.5773512   1.7287978  )

   Crystallographic axes

     site n.     atom                  positions (cryst. coord.)
         1           O   tau(   1) = (  0.6666670  0.3333337  0.0073459  )
         2           O   tau(   2) = (  0.3333329  0.6666657  0.5073458  )
         3           Mg  tau(   3) = (  0.6666664  0.3333329  0.6163540  )
         4           Mg  tau(   4) = (  0.3333336  0.6666677  1.1163539  )

     number of k points=   260
                       cart. coord. in units 2pi/alat
        k(    1) = (   0.0000000   0.0000000   0.0000000), wk =   0.0039062
        k(    2) = (  -0.0000000   0.0000000   0.0807175), wk =   0.0078125
        k(    3) = (  -0.0000000   0.0000000   0.1614350), wk =   0.0078125
        k(    4) = (  -0.0000000   0.0000000   0.2421525), wk =   0.0078125
        k(    5) = (   0.0000000  -0.0000000  -0.3228700), wk =   0.0039062
        k(    6) = (  -0.0000000   0.1443375   0.0000000), wk =   0.0078125
        k(    7) = (  -0.0000000   0.1443375   0.0807175), wk =   0.0078125
        k(    8) = (  -0.0000000   0.1443375   0.1614350), wk =   0.0078125
        k(    9) = (  -0.0000000   0.1443376   0.2421525), wk =   0.0078125
        k(   10) = (  -0.0000000   0.1443375  -0.3228700), wk =   0.0078125
        k(   11) = (  -0.0000000   0.1443375  -0.2421525), wk =   0.0078125
        k(   12) = (  -0.0000000   0.1443375  -0.1614350), wk =   0.0078125
        k(   13) = (  -0.0000000   0.1443375  -0.0807175), wk =   0.0078125
        k(   14) = (  -0.0000000   0.2886751   0.0000000), wk =   0.0078125
        k(   15) = (  -0.0000000   0.2886751   0.0807175), wk =   0.0078125
        k(   16) = (  -0.0000000   0.2886751   0.1614350), wk =   0.0078125
        k(   17) = (  -0.0000000   0.2886751   0.2421525), wk =   0.0078125
        k(   18) = (  -0.0000000   0.2886751  -0.3228700), wk =   0.0078125
        k(   19) = (  -0.0000000   0.2886751  -0.2421525), wk =   0.0078125
        k(   20) = (  -0.0000000   0.2886751  -0.1614350), wk =   0.0078125
        k(   21) = (  -0.0000000   0.2886751  -0.0807175), wk =   0.0078125
        k(   22) = (  -0.0000000   0.4330126   0.0000000), wk =   0.0078125
        k(   23) = (  -0.0000000   0.4330126   0.0807175), wk =   0.0078125
        k(   24) = (  -0.0000000   0.4330126   0.1614350), wk =   0.0078125
        k(   25) = (  -0.0000000   0.4330126   0.2421525), wk =   0.0078125
        k(   26) = (  -0.0000000   0.4330126  -0.3228700), wk =   0.0078125
        k(   27) = (  -0.0000000   0.4330126  -0.2421525), wk =   0.0078125
        k(   28) = (  -0.0000000   0.4330126  -0.1614350), wk =   0.0078125
        k(   29) = (  -0.0000000   0.4330126  -0.0807175), wk =   0.0078125
        k(   30) = (   0.0000000  -0.5773502  -0.0000000), wk =   0.0039062
        k(   31) = (   0.0000000  -0.5773502   0.0807175), wk =   0.0078125
        k(   32) = (   0.0000000  -0.5773502   0.1614350), wk =   0.0078125
        k(   33) = (   0.0000000  -0.5773502   0.2421525), wk =   0.0078125
        k(   34) = (   0.0000000  -0.5773502  -0.3228700), wk =   0.0039062
        k(   35) = (   0.1250000   0.0721688   0.0000000), wk =   0.0078125
        k(   36) = (   0.1250000   0.0721688   0.0807175), wk =   0.0078125
        k(   37) = (   0.1250000   0.0721688   0.1614350), wk =   0.0078125
        k(   38) = (   0.1250000   0.0721688   0.2421525), wk =   0.0078125
        k(   39) = (   0.1250000   0.0721688  -0.3228700), wk =   0.0078125
        k(   40) = (   0.1250000   0.0721688  -0.2421525), wk =   0.0078125
        k(   41) = (   0.1250000   0.0721688  -0.1614350), wk =   0.0078125
        k(   42) = (   0.1250000   0.0721688  -0.0807175), wk =   0.0078125
        k(   43) = (   0.1250000   0.2165063   0.0000000), wk =   0.0078125
        k(   44) = (   0.1250000   0.2165063   0.0807175), wk =   0.0078125
        k(   45) = (   0.1250000   0.2165063   0.1614350), wk =   0.0078125
        k(   46) = (   0.1250000   0.2165063   0.2421525), wk =   0.0078125
        k(   47) = (   0.1250000   0.2165063  -0.3228700), wk =   0.0078125
        k(   48) = (   0.1250000   0.2165063  -0.2421525), wk =   0.0078125
        k(   49) = (   0.1250000   0.2165063  -0.1614350), wk =   0.0078125
        k(   50) = (   0.1250000   0.2165063  -0.0807175), wk =   0.0078125
        k(   51) = (   0.1250000   0.3608439   0.0000000), wk =   0.0078125
        k(   52) = (   0.1250000   0.3608439   0.0807175), wk =   0.0078125
        k(   53) = (   0.1250000   0.3608439   0.1614350), wk =   0.0078125
        k(   54) = (   0.1250000   0.3608439   0.2421525), wk =   0.0078125
        k(   55) = (   0.1250000   0.3608438  -0.3228700), wk =   0.0078125
        k(   56) = (   0.1250000   0.3608438  -0.2421525), wk =   0.0078125
        k(   57) = (   0.1250000   0.3608438  -0.1614350), wk =   0.0078125
        k(   58) = (   0.1250000   0.3608438  -0.0807175), wk =   0.0078125
        k(   59) = (   0.1250000   0.5051814   0.0000000), wk =   0.0078125
        k(   60) = (   0.1250000   0.5051814   0.0807175), wk =   0.0078125
        k(   61) = (   0.1250000   0.5051814   0.1614350), wk =   0.0078125
        k(   62) = (   0.1250000   0.5051814   0.2421525), wk =   0.0078125
        k(   63) = (   0.1250000   0.5051814  -0.3228700), wk =   0.0078125
        k(   64) = (   0.1250000   0.5051814  -0.2421525), wk =   0.0078125
        k(   65) = (   0.1250000   0.5051814  -0.1614350), wk =   0.0078125
        k(   66) = (   0.1250000   0.5051814  -0.0807175), wk =   0.0078125
        k(   67) = (   0.1250000  -0.5051814  -0.0000000), wk =   0.0078125
        k(   68) = (   0.1250000  -0.5051814   0.0807175), wk =   0.0078125
        k(   69) = (   0.1250000  -0.5051814   0.1614350), wk =   0.0078125
        k(   70) = (   0.1250000  -0.5051814   0.2421525), wk =   0.0078125
        k(   71) = (   0.1250000  -0.5051814  -0.3228700), wk =   0.0078125
        k(   72) = (   0.1250000  -0.5051814  -0.2421525), wk =   0.0078125
        k(   73) = (   0.1250000  -0.5051814  -0.1614350), wk =   0.0078125
        k(   74) = (   0.1250000  -0.5051814  -0.0807175), wk =   0.0078125
        k(   75) = (   0.1250000  -0.3608439  -0.0000000), wk =   0.0078125
        k(   76) = (   0.1250000  -0.3608439   0.0807175), wk =   0.0078125
        k(   77) = (   0.1250000  -0.3608439   0.1614350), wk =   0.0078125
        k(   78) = (   0.1250000  -0.3608439   0.2421525), wk =   0.0078125
        k(   79) = (   0.1250000  -0.3608439  -0.3228700), wk =   0.0078125
        k(   80) = (   0.1250000  -0.3608439  -0.2421525), wk =   0.0078125
        k(   81) = (   0.1250000  -0.3608439  -0.1614350), wk =   0.0078125
        k(   82) = (   0.1250000  -0.3608439  -0.0807175), wk =   0.0078125
        k(   83) = (   0.1250000  -0.2165063  -0.0000000), wk =   0.0078125
        k(   84) = (   0.1250000  -0.2165063   0.0807175), wk =   0.0078125
        k(   85) = (   0.1250000  -0.2165063   0.1614350), wk =   0.0078125
        k(   86) = (   0.1250000  -0.2165063   0.2421525), wk =   0.0078125
        k(   87) = (   0.1250000  -0.2165063  -0.3228700), wk =   0.0078125
        k(   88) = (   0.1250000  -0.2165063  -0.2421525), wk =   0.0078125
        k(   89) = (   0.1250000  -0.2165063  -0.1614350), wk =   0.0078125
        k(   90) = (   0.1250000  -0.2165063  -0.0807175), wk =   0.0078125
        k(   91) = (   0.1250000  -0.0721688  -0.0000000), wk =   0.0078125
        k(   92) = (   0.1250000  -0.0721688   0.0807175), wk =   0.0078125
        k(   93) = (   0.1250000  -0.0721688   0.1614350), wk =   0.0078125
        k(   94) = (   0.1250000  -0.0721688   0.2421525), wk =   0.0078125
        k(   95) = (   0.1250000  -0.0721688  -0.3228700), wk =   0.0078125
        k(   96) = (   0.1250000  -0.0721688  -0.2421525), wk =   0.0078125
        k(   97) = (   0.1250000  -0.0721688  -0.1614350), wk =   0.0078125
        k(   98) = (   0.1250000  -0.0721688  -0.0807175), wk =   0.0078125
        k(   99) = (   0.2500000   0.1443375   0.0000000), wk =   0.0078125
        k(  100) = (   0.2500000   0.1443375   0.0807175), wk =   0.0078125
        k(  101) = (   0.2500000   0.1443375   0.1614350), wk =   0.0078125
        k(  102) = (   0.2500000   0.1443375   0.2421525), wk =   0.0078125
        k(  103) = (   0.2500000   0.1443375  -0.3228700), wk =   0.0078125
        k(  104) = (   0.2500000   0.1443375  -0.2421525), wk =   0.0078125
        k(  105) = (   0.2500000   0.1443375  -0.1614350), wk =   0.0078125
        k(  106) = (   0.2500000   0.1443375  -0.0807175), wk =   0.0078125
        k(  107) = (   0.2500000   0.2886751   0.0000000), wk =   0.0078125
        k(  108) = (   0.2500000   0.2886751   0.0807175), wk =   0.0078125
        k(  109) = (   0.2500000   0.2886751   0.1614350), wk =   0.0078125
        k(  110) = (   0.2500000   0.2886751   0.2421525), wk =   0.0078125
        k(  111) = (   0.2500000   0.2886751  -0.3228700), wk =   0.0078125
        k(  112) = (   0.2500000   0.2886751  -0.2421525), wk =   0.0078125
        k(  113) = (   0.2500000   0.2886751  -0.1614350), wk =   0.0078125
        k(  114) = (   0.2500000   0.2886751  -0.0807175), wk =   0.0078125
        k(  115) = (   0.2500000   0.4330126   0.0000000), wk =   0.0078125
        k(  116) = (   0.2500000   0.4330126   0.0807175), wk =   0.0078125
        k(  117) = (   0.2500000   0.4330126   0.1614350), wk =   0.0078125
        k(  118) = (   0.2500000   0.4330126   0.2421525), wk =   0.0078125
        k(  119) = (   0.2500000   0.4330126  -0.3228700), wk =   0.0078125
        k(  120) = (   0.2500000   0.4330126  -0.2421525), wk =   0.0078125
        k(  121) = (   0.2500000   0.4330126  -0.1614350), wk =   0.0078125
        k(  122) = (   0.2500000   0.4330126  -0.0807175), wk =   0.0078125
        k(  123) = (   0.2500000   0.5773502   0.0000000), wk =   0.0078125
        k(  124) = (   0.2500000   0.5773502   0.0807175), wk =   0.0078125
        k(  125) = (   0.2500000   0.5773502   0.1614350), wk =   0.0078125
        k(  126) = (   0.2500000   0.5773502   0.2421525), wk =   0.0078125
        k(  127) = (   0.2500000   0.5773501  -0.3228700), wk =   0.0078125
        k(  128) = (   0.2500000   0.5773501  -0.2421525), wk =   0.0078125
        k(  129) = (   0.2500000   0.5773502  -0.1614350), wk =   0.0078125
        k(  130) = (   0.2500000   0.5773502  -0.0807175), wk =   0.0078125
        k(  131) = (   0.2500000  -0.4330126  -0.0000000), wk =   0.0078125
        k(  132) = (   0.2500000  -0.4330126   0.0807175), wk =   0.0078125
        k(  133) = (   0.2500000  -0.4330126   0.1614350), wk =   0.0078125
        k(  134) = (   0.2500000  -0.4330126   0.2421525), wk =   0.0078125
        k(  135) = (   0.2500000  -0.4330127  -0.3228700), wk =   0.0078125
        k(  136) = (   0.2500000  -0.4330127  -0.2421525), wk =   0.0078125
        k(  137) = (   0.2500000  -0.4330126  -0.1614350), wk =   0.0078125
        k(  138) = (   0.2500000  -0.4330126  -0.0807175), wk =   0.0078125
        k(  139) = (   0.2500000  -0.2886751  -0.0000000), wk =   0.0078125
        k(  140) = (   0.2500000  -0.2886751   0.0807175), wk =   0.0078125
        k(  141) = (   0.2500000  -0.2886751   0.1614350), wk =   0.0078125
        k(  142) = (   0.2500000  -0.2886751   0.2421525), wk =   0.0078125
        k(  143) = (   0.2500000  -0.2886751  -0.3228700), wk =   0.0078125
        k(  144) = (   0.2500000  -0.2886751  -0.2421525), wk =   0.0078125
        k(  145) = (   0.2500000  -0.2886751  -0.1614350), wk =   0.0078125
        k(  146) = (   0.2500000  -0.2886751  -0.0807175), wk =   0.0078125
        k(  147) = (   0.2500000  -0.1443376  -0.0000000), wk =   0.0078125
        k(  148) = (   0.2500000  -0.1443376   0.0807175), wk =   0.0078125
        k(  149) = (   0.2500000  -0.1443376   0.1614350), wk =   0.0078125
        k(  150) = (   0.2500000  -0.1443375   0.2421525), wk =   0.0078125
        k(  151) = (   0.2500000  -0.1443376  -0.3228700), wk =   0.0078125
        k(  152) = (   0.2500000  -0.1443376  -0.2421525), wk =   0.0078125
        k(  153) = (   0.2500000  -0.1443376  -0.1614350), wk =   0.0078125
        k(  154) = (   0.2500000  -0.1443376  -0.0807175), wk =   0.0078125
        k(  155) = (   0.2500000  -0.0000000  -0.0000000), wk =   0.0078125
        k(  156) = (   0.2500000  -0.0000000   0.0807175), wk =   0.0078125
        k(  157) = (   0.2500000  -0.0000000   0.1614350), wk =   0.0078125
        k(  158) = (   0.2500000  -0.0000000   0.2421525), wk =   0.0078125
        k(  159) = (   0.2500000  -0.0000000  -0.3228700), wk =   0.0078125
        k(  160) = (   0.2500000  -0.0000000  -0.2421525), wk =   0.0078125
        k(  161) = (   0.2500000  -0.0000000  -0.1614350), wk =   0.0078125
        k(  162) = (   0.2500000  -0.0000000  -0.0807175), wk =   0.0078125
        k(  163) = (   0.3750000   0.2165063   0.0000000), wk =   0.0078125
        k(  164) = (   0.3750000   0.2165063   0.0807175), wk =   0.0078125
        k(  165) = (   0.3750000   0.2165063   0.1614350), wk =   0.0078125
        k(  166) = (   0.3750000   0.2165063   0.2421525), wk =   0.0078125
        k(  167) = (   0.3750000   0.2165063  -0.3228700), wk =   0.0078125
        k(  168) = (   0.3750000   0.2165063  -0.2421525), wk =   0.0078125
        k(  169) = (   0.3750000   0.2165063  -0.1614350), wk =   0.0078125
        k(  170) = (   0.3750000   0.2165063  -0.0807175), wk =   0.0078125
        k(  171) = (   0.3750000   0.3608438   0.0000000), wk =   0.0078125
        k(  172) = (   0.3750000   0.3608438   0.0807175), wk =   0.0078125
        k(  173) = (   0.3750000   0.3608438   0.1614350), wk =   0.0078125
        k(  174) = (   0.3750000   0.3608438   0.2421525), wk =   0.0078125
        k(  175) = (   0.3750000   0.3608438  -0.3228700), wk =   0.0078125
        k(  176) = (   0.3750000   0.3608438  -0.2421525), wk =   0.0078125
        k(  177) = (   0.3750000   0.3608438  -0.1614350), wk =   0.0078125
        k(  178) = (   0.3750000   0.3608438  -0.0807175), wk =   0.0078125
        k(  179) = (   0.3750000   0.5051814   0.0000000), wk =   0.0078125
        k(  180) = (   0.3750000   0.5051814   0.0807175), wk =   0.0078125
        k(  181) = (   0.3750000   0.5051814   0.1614350), wk =   0.0078125
        k(  182) = (   0.3750000   0.5051814   0.2421525), wk =   0.0078125
        k(  183) = (   0.3750000   0.5051814  -0.3228700), wk =   0.0078125
        k(  184) = (   0.3750000   0.5051814  -0.2421525), wk =   0.0078125
        k(  185) = (   0.3750000   0.5051814  -0.1614350), wk =   0.0078125
        k(  186) = (   0.3750000   0.5051814  -0.0807175), wk =   0.0078125
        k(  187) = (   0.3750000   0.6495189   0.0000000), wk =   0.0078125
        k(  188) = (   0.3750000   0.6495189   0.0807175), wk =   0.0078125
        k(  189) = (   0.3750000   0.6495189   0.1614350), wk =   0.0078125
        k(  190) = (   0.3750000   0.6495189   0.2421525), wk =   0.0078125
        k(  191) = (   0.3750000   0.6495189  -0.3228700), wk =   0.0078125
        k(  192) = (   0.3750000   0.6495189  -0.2421525), wk =   0.0078125
        k(  193) = (   0.3750000   0.6495189  -0.1614350), wk =   0.0078125
        k(  194) = (   0.3750000   0.6495189  -0.0807175), wk =   0.0078125
        k(  195) = (   0.3750000  -0.3608439  -0.0000000), wk =   0.0078125
        k(  196) = (   0.3750000  -0.3608439   0.0807175), wk =   0.0078125
        k(  197) = (   0.3750000  -0.3608439   0.1614350), wk =   0.0078125
        k(  198) = (   0.3750000  -0.3608439   0.2421525), wk =   0.0078125
        k(  199) = (   0.3750000  -0.3608439  -0.3228700), wk =   0.0078125
        k(  200) = (   0.3750000  -0.3608439  -0.2421525), wk =   0.0078125
        k(  201) = (   0.3750000  -0.3608439  -0.1614350), wk =   0.0078125
        k(  202) = (   0.3750000  -0.3608439  -0.0807175), wk =   0.0078125
        k(  203) = (   0.3750000  -0.2165063  -0.0000000), wk =   0.0078125
        k(  204) = (   0.3750000  -0.2165063   0.0807175), wk =   0.0078125
        k(  205) = (   0.3750000  -0.2165063   0.1614350), wk =   0.0078125
        k(  206) = (   0.3750000  -0.2165063   0.2421525), wk =   0.0078125
        k(  207) = (   0.3750000  -0.2165063  -0.3228700), wk =   0.0078125
        k(  208) = (   0.3750000  -0.2165063  -0.2421525), wk =   0.0078125
        k(  209) = (   0.3750000  -0.2165063  -0.1614350), wk =   0.0078125
        k(  210) = (   0.3750000  -0.2165063  -0.0807175), wk =   0.0078125
        k(  211) = (   0.3750000  -0.0721688  -0.0000000), wk =   0.0078125
        k(  212) = (   0.3750000  -0.0721688   0.0807175), wk =   0.0078125
        k(  213) = (   0.3750000  -0.0721688   0.1614350), wk =   0.0078125
        k(  214) = (   0.3750000  -0.0721688   0.2421525), wk =   0.0078125
        k(  215) = (   0.3750000  -0.0721688  -0.3228700), wk =   0.0078125
        k(  216) = (   0.3750000  -0.0721688  -0.2421525), wk =   0.0078125
        k(  217) = (   0.3750000  -0.0721688  -0.1614350), wk =   0.0078125
        k(  218) = (   0.3750000  -0.0721688  -0.0807175), wk =   0.0078125
        k(  219) = (   0.3750000   0.0721687  -0.0000000), wk =   0.0078125
        k(  220) = (   0.3750000   0.0721688   0.0807175), wk =   0.0078125
        k(  221) = (   0.3750000   0.0721688   0.1614350), wk =   0.0078125
        k(  222) = (   0.3750000   0.0721688   0.2421525), wk =   0.0078125
        k(  223) = (   0.3750000   0.0721687  -0.3228700), wk =   0.0078125
        k(  224) = (   0.3750000   0.0721687  -0.2421525), wk =   0.0078125
        k(  225) = (   0.3750000   0.0721687  -0.1614350), wk =   0.0078125
        k(  226) = (   0.3750000   0.0721687  -0.0807175), wk =   0.0078125
        k(  227) = (  -0.5000000  -0.2886751  -0.0000000), wk =   0.0039062
        k(  228) = (  -0.5000000  -0.2886751   0.0807175), wk =   0.0078125
        k(  229) = (  -0.5000000  -0.2886751   0.1614350), wk =   0.0078125
        k(  230) = (  -0.5000000  -0.2886750   0.2421525), wk =   0.0078125
        k(  231) = (  -0.5000000  -0.2886751  -0.3228700), wk =   0.0039062
        k(  232) = (  -0.5000000  -0.1443375   0.0000000), wk =   0.0078125
        k(  233) = (  -0.5000000  -0.1443375   0.0807175), wk =   0.0078125
        k(  234) = (  -0.5000000  -0.1443375   0.1614350), wk =   0.0078125
        k(  235) = (  -0.5000000  -0.1443375   0.2421525), wk =   0.0078125
        k(  236) = (  -0.5000000  -0.1443375  -0.3228700), wk =   0.0078125
        k(  237) = (  -0.5000000  -0.1443375  -0.2421525), wk =   0.0078125
        k(  238) = (  -0.5000000  -0.1443375  -0.1614350), wk =   0.0078125
        k(  239) = (  -0.5000000  -0.1443375  -0.0807175), wk =   0.0078125
        k(  240) = (  -0.5000000   0.0000000   0.0000000), wk =   0.0078125
        k(  241) = (  -0.5000000   0.0000000   0.0807175), wk =   0.0078125
        k(  242) = (  -0.5000000   0.0000000   0.1614350), wk =   0.0078125
        k(  243) = (  -0.5000000   0.0000000   0.2421525), wk =   0.0078125
        k(  244) = (  -0.5000000   0.0000000  -0.3228700), wk =   0.0078125
        k(  245) = (  -0.5000000   0.0000000  -0.2421525), wk =   0.0078125
        k(  246) = (  -0.5000000   0.0000000  -0.1614350), wk =   0.0078125
        k(  247) = (  -0.5000000   0.0000000  -0.0807175), wk =   0.0078125
        k(  248) = (  -0.5000000   0.1443376   0.0000000), wk =   0.0078125
        k(  249) = (  -0.5000000   0.1443376   0.0807175), wk =   0.0078125
        k(  250) = (  -0.5000000   0.1443376   0.1614350), wk =   0.0078125
        k(  251) = (  -0.5000000   0.1443376   0.2421525), wk =   0.0078125
        k(  252) = (  -0.5000000   0.1443376  -0.3228700), wk =   0.0078125
        k(  253) = (  -0.5000000   0.1443376  -0.2421525), wk =   0.0078125
        k(  254) = (  -0.5000000   0.1443376  -0.1614350), wk =   0.0078125
        k(  255) = (  -0.5000000   0.1443376  -0.0807175), wk =   0.0078125
        k(  256) = (  -0.4999999  -0.8660252  -0.0000000), wk =   0.0039062
        k(  257) = (  -0.5000000  -0.8660252   0.0807175), wk =   0.0078125
        k(  258) = (  -0.5000000  -0.8660252   0.1614350), wk =   0.0078125
        k(  259) = (  -0.5000000  -0.8660252   0.2421525), wk =   0.0078125
        k(  260) = (  -0.4999999  -0.8660252  -0.3228701), wk =   0.0039062

                       cryst. coord.
        k(    1) = (   0.0000000   0.0000000   0.0000000), wk =   0.0039062
        k(    2) = (  -0.0000000   0.0000000   0.1250000), wk =   0.0078125
        k(    3) = (  -0.0000000   0.0000000   0.2500000), wk =   0.0078125
        k(    4) = (   0.0000000   0.0000000   0.3750000), wk =   0.0078125
        k(    5) = (   0.0000000  -0.0000000  -0.5000000), wk =   0.0039062
        k(    6) = (   0.0000000   0.1250000  -0.0000000), wk =   0.0078125
        k(    7) = (   0.0000000   0.1250000   0.1250000), wk =   0.0078125
        k(    8) = (  -0.0000000   0.1250000   0.2500000), wk =   0.0078125
        k(    9) = (  -0.0000000   0.1250000   0.3750000), wk =   0.0078125
        k(   10) = (   0.0000000   0.1250000  -0.5000000), wk =   0.0078125
        k(   11) = (   0.0000000   0.1250000  -0.3750000), wk =   0.0078125
        k(   12) = (   0.0000000   0.1250000  -0.2500000), wk =   0.0078125
        k(   13) = (   0.0000000   0.1250000  -0.1250000), wk =   0.0078125
        k(   14) = (   0.0000000   0.2500000  -0.0000000), wk =   0.0078125
        k(   15) = (   0.0000000   0.2500000   0.1250000), wk =   0.0078125
        k(   16) = (   0.0000000   0.2500000   0.2500000), wk =   0.0078125
        k(   17) = (   0.0000000   0.2500000   0.3750000), wk =   0.0078125
        k(   18) = (   0.0000000   0.2500000  -0.5000000), wk =   0.0078125
        k(   19) = (   0.0000000   0.2500000  -0.3750000), wk =   0.0078125
        k(   20) = (   0.0000000   0.2500000  -0.2500000), wk =   0.0078125
        k(   21) = (   0.0000000   0.2500000  -0.1250000), wk =   0.0078125
        k(   22) = (   0.0000000   0.3750000   0.0000000), wk =   0.0078125
        k(   23) = (   0.0000000   0.3750000   0.1250000), wk =   0.0078125
        k(   24) = (   0.0000000   0.3750000   0.2500000), wk =   0.0078125
        k(   25) = (   0.0000000   0.3750000   0.3750000), wk =   0.0078125
        k(   26) = (   0.0000000   0.3750000  -0.5000000), wk =   0.0078125
        k(   27) = (   0.0000000   0.3750000  -0.3750000), wk =   0.0078125
        k(   28) = (   0.0000000   0.3750000  -0.2500000), wk =   0.0078125
        k(   29) = (   0.0000000   0.3750000  -0.1250000), wk =   0.0078125
        k(   30) = (  -0.0000000  -0.5000000   0.0000000), wk =   0.0039062
        k(   31) = (  -0.0000000  -0.5000000   0.1250000), wk =   0.0078125
        k(   32) = (  -0.0000000  -0.5000000   0.2500000), wk =   0.0078125
        k(   33) = (   0.0000000  -0.5000000   0.3750000), wk =   0.0078125
        k(   34) = (  -0.0000000  -0.5000000  -0.5000000), wk =   0.0039062
        k(   35) = (   0.1250000  -0.0000000   0.0000000), wk =   0.0078125
        k(   36) = (   0.1250000  -0.0000000   0.1250000), wk =   0.0078125
        k(   37) = (   0.1250000  -0.0000000   0.2500000), wk =   0.0078125
        k(   38) = (   0.1250000  -0.0000000   0.3750000), wk =   0.0078125
        k(   39) = (   0.1250000  -0.0000000  -0.5000000), wk =   0.0078125
        k(   40) = (   0.1250000  -0.0000000  -0.3750000), wk =   0.0078125
        k(   41) = (   0.1250000  -0.0000000  -0.2500000), wk =   0.0078125
        k(   42) = (   0.1250000  -0.0000000  -0.1250000), wk =   0.0078125
        k(   43) = (   0.1250000   0.1250000  -0.0000000), wk =   0.0078125
        k(   44) = (   0.1250000   0.1250000   0.1250000), wk =   0.0078125
        k(   45) = (   0.1250000   0.1250000   0.2500000), wk =   0.0078125
        k(   46) = (   0.1250000   0.1250000   0.3750000), wk =   0.0078125
        k(   47) = (   0.1250000   0.1250000  -0.5000000), wk =   0.0078125
        k(   48) = (   0.1250000   0.1250000  -0.3750000), wk =   0.0078125
        k(   49) = (   0.1250000   0.1250000  -0.2500000), wk =   0.0078125
        k(   50) = (   0.1250000   0.1250000  -0.1250000), wk =   0.0078125
        k(   51) = (   0.1250000   0.2500000   0.0000000), wk =   0.0078125
        k(   52) = (   0.1250000   0.2500000   0.1250000), wk =   0.0078125
        k(   53) = (   0.1250000   0.2500000   0.2500000), wk =   0.0078125
        k(   54) = (   0.1250000   0.2500000   0.3750000), wk =   0.0078125
        k(   55) = (   0.1250000   0.2500000  -0.5000000), wk =   0.0078125
        k(   56) = (   0.1250000   0.2500000  -0.3750000), wk =   0.0078125
        k(   57) = (   0.1250000   0.2500000  -0.2500000), wk =   0.0078125
        k(   58) = (   0.1250000   0.2500000  -0.1250000), wk =   0.0078125
        k(   59) = (   0.1250000   0.3750000  -0.0000000), wk =   0.0078125
        k(   60) = (   0.1250000   0.3750000   0.1250000), wk =   0.0078125
        k(   61) = (   0.1250000   0.3750000   0.2500000), wk =   0.0078125
        k(   62) = (   0.1250000   0.3750000   0.3750000), wk =   0.0078125
        k(   63) = (   0.1250000   0.3750000  -0.5000000), wk =   0.0078125
        k(   64) = (   0.1250000   0.3750000  -0.3750000), wk =   0.0078125
        k(   65) = (   0.1250000   0.3750000  -0.2500000), wk =   0.0078125
        k(   66) = (   0.1250000   0.3750000  -0.1250000), wk =   0.0078125
        k(   67) = (   0.1250000  -0.5000000  -0.0000000), wk =   0.0078125
        k(   68) = (   0.1250000  -0.5000000   0.1250000), wk =   0.0078125
        k(   69) = (   0.1250000  -0.5000000   0.2500000), wk =   0.0078125
        k(   70) = (   0.1250000  -0.5000000   0.3750000), wk =   0.0078125
        k(   71) = (   0.1250000  -0.5000000  -0.5000000), wk =   0.0078125
        k(   72) = (   0.1250000  -0.5000000  -0.3750000), wk =   0.0078125
        k(   73) = (   0.1250000  -0.5000000  -0.2500000), wk =   0.0078125
        k(   74) = (   0.1250000  -0.5000000  -0.1250000), wk =   0.0078125
        k(   75) = (   0.1250000  -0.3750000  -0.0000000), wk =   0.0078125
        k(   76) = (   0.1250000  -0.3750000   0.1250000), wk =   0.0078125
        k(   77) = (   0.1250000  -0.3750000   0.2500000), wk =   0.0078125
        k(   78) = (   0.1250000  -0.3750000   0.3750000), wk =   0.0078125
        k(   79) = (   0.1250000  -0.3750000  -0.5000000), wk =   0.0078125
        k(   80) = (   0.1250000  -0.3750000  -0.3750000), wk =   0.0078125
        k(   81) = (   0.1250000  -0.3750000  -0.2500000), wk =   0.0078125
        k(   82) = (   0.1250000  -0.3750000  -0.1250000), wk =   0.0078125
        k(   83) = (   0.1250000  -0.2500000  -0.0000000), wk =   0.0078125
        k(   84) = (   0.1250000  -0.2500000   0.1250000), wk =   0.0078125
        k(   85) = (   0.1250000  -0.2500000   0.2500000), wk =   0.0078125
        k(   86) = (   0.1250000  -0.2500000   0.3750000), wk =   0.0078125
        k(   87) = (   0.1250000  -0.2500000  -0.5000000), wk =   0.0078125
        k(   88) = (   0.1250000  -0.2500000  -0.3750000), wk =   0.0078125
        k(   89) = (   0.1250000  -0.2500000  -0.2500000), wk =   0.0078125
        k(   90) = (   0.1250000  -0.2500000  -0.1250000), wk =   0.0078125
        k(   91) = (   0.1250000  -0.1250000   0.0000000), wk =   0.0078125
        k(   92) = (   0.1250000  -0.1250000   0.1250000), wk =   0.0078125
        k(   93) = (   0.1250000  -0.1250000   0.2500000), wk =   0.0078125
        k(   94) = (   0.1250000  -0.1250000   0.3750000), wk =   0.0078125
        k(   95) = (   0.1250000  -0.1250000  -0.5000000), wk =   0.0078125
        k(   96) = (   0.1250000  -0.1250000  -0.3750000), wk =   0.0078125
        k(   97) = (   0.1250000  -0.1250000  -0.2500000), wk =   0.0078125
        k(   98) = (   0.1250000  -0.1250000  -0.1250000), wk =   0.0078125
        k(   99) = (   0.2500000  -0.0000000   0.0000000), wk =   0.0078125
        k(  100) = (   0.2500000  -0.0000000   0.1250000), wk =   0.0078125
        k(  101) = (   0.2500000  -0.0000000   0.2500000), wk =   0.0078125
        k(  102) = (   0.2500000  -0.0000000   0.3750000), wk =   0.0078125
        k(  103) = (   0.2500000  -0.0000000  -0.5000000), wk =   0.0078125
        k(  104) = (   0.2500000  -0.0000000  -0.3750000), wk =   0.0078125
        k(  105) = (   0.2500000  -0.0000000  -0.2500000), wk =   0.0078125
        k(  106) = (   0.2500000  -0.0000000  -0.1250000), wk =   0.0078125
        k(  107) = (   0.2500000   0.1250000  -0.0000000), wk =   0.0078125
        k(  108) = (   0.2500000   0.1250000   0.1250000), wk =   0.0078125
        k(  109) = (   0.2500000   0.1250000   0.2500000), wk =   0.0078125
        k(  110) = (   0.2500000   0.1250000   0.3750000), wk =   0.0078125
        k(  111) = (   0.2500000   0.1250000  -0.5000000), wk =   0.0078125
        k(  112) = (   0.2500000   0.1250000  -0.3750000), wk =   0.0078125
        k(  113) = (   0.2500000   0.1250000  -0.2500000), wk =   0.0078125
        k(  114) = (   0.2500000   0.1250000  -0.1250000), wk =   0.0078125
        k(  115) = (   0.2500000   0.2500000  -0.0000000), wk =   0.0078125
        k(  116) = (   0.2500000   0.2500000   0.1250000), wk =   0.0078125
        k(  117) = (   0.2500000   0.2500000   0.2500000), wk =   0.0078125
        k(  118) = (   0.2500000   0.2500000   0.3750000), wk =   0.0078125
        k(  119) = (   0.2500000   0.2500000  -0.5000000), wk =   0.0078125
        k(  120) = (   0.2500000   0.2500000  -0.3750000), wk =   0.0078125
        k(  121) = (   0.2500000   0.2500000  -0.2500000), wk =   0.0078125
        k(  122) = (   0.2500000   0.2500000  -0.1250000), wk =   0.0078125
        k(  123) = (   0.2500000   0.3750000  -0.0000000), wk =   0.0078125
        k(  124) = (   0.2500000   0.3750000   0.1250000), wk =   0.0078125
        k(  125) = (   0.2500000   0.3750000   0.2500000), wk =   0.0078125
        k(  126) = (   0.2500000   0.3750000   0.3750000), wk =   0.0078125
        k(  127) = (   0.2500000   0.3750000  -0.5000000), wk =   0.0078125
        k(  128) = (   0.2500000   0.3750000  -0.3750000), wk =   0.0078125
        k(  129) = (   0.2500000   0.3750000  -0.2500000), wk =   0.0078125
        k(  130) = (   0.2500000   0.3750000  -0.1250000), wk =   0.0078125
        k(  131) = (   0.2500000  -0.5000000  -0.0000000), wk =   0.0078125
        k(  132) = (   0.2500000  -0.5000000   0.1250000), wk =   0.0078125
        k(  133) = (   0.2500000  -0.5000000   0.2500000), wk =   0.0078125
        k(  134) = (   0.2500000  -0.5000000   0.3750000), wk =   0.0078125
        k(  135) = (   0.2500000  -0.5000000  -0.5000000), wk =   0.0078125
        k(  136) = (   0.2500000  -0.5000000  -0.3750000), wk =   0.0078125
        k(  137) = (   0.2500000  -0.5000000  -0.2500000), wk =   0.0078125
        k(  138) = (   0.2500000  -0.5000000  -0.1250000), wk =   0.0078125
        k(  139) = (   0.2500000  -0.3750000  -0.0000000), wk =   0.0078125
        k(  140) = (   0.2500000  -0.3750000   0.1250000), wk =   0.0078125
        k(  141) = (   0.2500000  -0.3750000   0.2500000), wk =   0.0078125
        k(  142) = (   0.2500000  -0.3750000   0.3750000), wk =   0.0078125
        k(  143) = (   0.2500000  -0.3750000  -0.5000000), wk =   0.0078125
        k(  144) = (   0.2500000  -0.3750000  -0.3750000), wk =   0.0078125
        k(  145) = (   0.2500000  -0.3750000  -0.2500000), wk =   0.0078125
        k(  146) = (   0.2500000  -0.3750000  -0.1250000), wk =   0.0078125
        k(  147) = (   0.2500000  -0.2500000   0.0000000), wk =   0.0078125
        k(  148) = (   0.2500000  -0.2500000   0.1250000), wk =   0.0078125
        k(  149) = (   0.2500000  -0.2500000   0.2500000), wk =   0.0078125
        k(  150) = (   0.2500000  -0.2500000   0.3750000), wk =   0.0078125
        k(  151) = (   0.2500000  -0.2500000  -0.5000000), wk =   0.0078125
        k(  152) = (   0.2500000  -0.2500000  -0.3750000), wk =   0.0078125
        k(  153) = (   0.2500000  -0.2500000  -0.2500000), wk =   0.0078125
        k(  154) = (   0.2500000  -0.2500000  -0.1250000), wk =   0.0078125
        k(  155) = (   0.2500000  -0.1250000   0.0000000), wk =   0.0078125
        k(  156) = (   0.2500000  -0.1250000   0.1250000), wk =   0.0078125
        k(  157) = (   0.2500000  -0.1250000   0.2500000), wk =   0.0078125
        k(  158) = (   0.2500000  -0.1250000   0.3750000), wk =   0.0078125
        k(  159) = (   0.2500000  -0.1250000  -0.5000000), wk =   0.0078125
        k(  160) = (   0.2500000  -0.1250000  -0.3750000), wk =   0.0078125
        k(  161) = (   0.2500000  -0.1250000  -0.2500000), wk =   0.0078125
        k(  162) = (   0.2500000  -0.1250000  -0.1250000), wk =   0.0078125
        k(  163) = (   0.3750000  -0.0000000   0.0000000), wk =   0.0078125
        k(  164) = (   0.3750000  -0.0000000   0.1250000), wk =   0.0078125
        k(  165) = (   0.3750000  -0.0000000   0.2500000), wk =   0.0078125
        k(  166) = (   0.3750000  -0.0000000   0.3750000), wk =   0.0078125
        k(  167) = (   0.3750000  -0.0000000  -0.5000000), wk =   0.0078125
        k(  168) = (   0.3750000  -0.0000000  -0.3750000), wk =   0.0078125
        k(  169) = (   0.3750000  -0.0000000  -0.2500000), wk =   0.0078125
        k(  170) = (   0.3750000  -0.0000000  -0.1250000), wk =   0.0078125
        k(  171) = (   0.3750000   0.1250000   0.0000000), wk =   0.0078125
        k(  172) = (   0.3750000   0.1250000   0.1250000), wk =   0.0078125
        k(  173) = (   0.3750000   0.1250000   0.2500000), wk =   0.0078125
        k(  174) = (   0.3750000   0.1250000   0.3750000), wk =   0.0078125
        k(  175) = (   0.3750000   0.1250000  -0.5000000), wk =   0.0078125
        k(  176) = (   0.3750000   0.1250000  -0.3750000), wk =   0.0078125
        k(  177) = (   0.3750000   0.1250000  -0.2500000), wk =   0.0078125
        k(  178) = (   0.3750000   0.1250000  -0.1250000), wk =   0.0078125
        k(  179) = (   0.3750000   0.2500000  -0.0000000), wk =   0.0078125
        k(  180) = (   0.3750000   0.2500000   0.1250000), wk =   0.0078125
        k(  181) = (   0.3750000   0.2500000   0.2500000), wk =   0.0078125
        k(  182) = (   0.3750000   0.2500000   0.3750000), wk =   0.0078125
        k(  183) = (   0.3750000   0.2500000  -0.5000000), wk =   0.0078125
        k(  184) = (   0.3750000   0.2500000  -0.3750000), wk =   0.0078125
        k(  185) = (   0.3750000   0.2500000  -0.2500000), wk =   0.0078125
        k(  186) = (   0.3750000   0.2500000  -0.1250000), wk =   0.0078125
        k(  187) = (   0.3750000   0.3750000   0.0000000), wk =   0.0078125
        k(  188) = (   0.3750000   0.3750000   0.1250000), wk =   0.0078125
        k(  189) = (   0.3750000   0.3750000   0.2500000), wk =   0.0078125
        k(  190) = (   0.3750000   0.3750000   0.3750000), wk =   0.0078125
        k(  191) = (   0.3750000   0.3750000  -0.5000000), wk =   0.0078125
        k(  192) = (   0.3750000   0.3750000  -0.3750000), wk =   0.0078125
        k(  193) = (   0.3750000   0.3750000  -0.2500000), wk =   0.0078125
        k(  194) = (   0.3750000   0.3750000  -0.1250000), wk =   0.0078125
        k(  195) = (   0.3750000  -0.5000000   0.0000000), wk =   0.0078125
        k(  196) = (   0.3750000  -0.5000000   0.1250000), wk =   0.0078125
        k(  197) = (   0.3750000  -0.5000000   0.2500000), wk =   0.0078125
        k(  198) = (   0.3750000  -0.5000000   0.3750000), wk =   0.0078125
        k(  199) = (   0.3750000  -0.5000000  -0.5000000), wk =   0.0078125
        k(  200) = (   0.3750000  -0.5000000  -0.3750000), wk =   0.0078125
        k(  201) = (   0.3750000  -0.5000000  -0.2500000), wk =   0.0078125
        k(  202) = (   0.3750000  -0.5000000  -0.1250000), wk =   0.0078125
        k(  203) = (   0.3750000  -0.3750000   0.0000000), wk =   0.0078125
        k(  204) = (   0.3750000  -0.3750000   0.1250000), wk =   0.0078125
        k(  205) = (   0.3750000  -0.3750000   0.2500000), wk =   0.0078125
        k(  206) = (   0.3750000  -0.3750000   0.3750000), wk =   0.0078125
        k(  207) = (   0.3750000  -0.3750000  -0.5000000), wk =   0.0078125
        k(  208) = (   0.3750000  -0.3750000  -0.3750000), wk =   0.0078125
        k(  209) = (   0.3750000  -0.3750000  -0.2500000), wk =   0.0078125
        k(  210) = (   0.3750000  -0.3750000  -0.1250000), wk =   0.0078125
        k(  211) = (   0.3750000  -0.2500000   0.0000000), wk =   0.0078125
        k(  212) = (   0.3750000  -0.2500000   0.1250000), wk =   0.0078125
        k(  213) = (   0.3750000  -0.2500000   0.2500000), wk =   0.0078125
        k(  214) = (   0.3750000  -0.2500000   0.3750000), wk =   0.0078125
        k(  215) = (   0.3750000  -0.2500000  -0.5000000), wk =   0.0078125
        k(  216) = (   0.3750000  -0.2500000  -0.3750000), wk =   0.0078125
        k(  217) = (   0.3750000  -0.2500000  -0.2500000), wk =   0.0078125
        k(  218) = (   0.3750000  -0.2500000  -0.1250000), wk =   0.0078125
        k(  219) = (   0.3750000  -0.1250000   0.0000000), wk =   0.0078125
        k(  220) = (   0.3750000  -0.1250000   0.1250000), wk =   0.0078125
        k(  221) = (   0.3750000  -0.1250000   0.2500000), wk =   0.0078125
        k(  222) = (   0.3750000  -0.1250000   0.3750000), wk =   0.0078125
        k(  223) = (   0.3750000  -0.1250000  -0.5000000), wk =   0.0078125
        k(  224) = (   0.3750000  -0.1250000  -0.3750000), wk =   0.0078125
        k(  225) = (   0.3750000  -0.1250000  -0.2500000), wk =   0.0078125
        k(  226) = (   0.3750000  -0.1250000  -0.1250000), wk =   0.0078125
        k(  227) = (  -0.5000000   0.0000000  -0.0000000), wk =   0.0039062
        k(  228) = (  -0.5000000   0.0000000   0.1250000), wk =   0.0078125
        k(  229) = (  -0.5000000   0.0000000   0.2500000), wk =   0.0078125
        k(  230) = (  -0.5000000   0.0000000   0.3750000), wk =   0.0078125
        k(  231) = (  -0.5000000   0.0000000  -0.5000000), wk =   0.0039062
        k(  232) = (  -0.5000000   0.1250000  -0.0000000), wk =   0.0078125
        k(  233) = (  -0.5000000   0.1250000   0.1250000), wk =   0.0078125
        k(  234) = (  -0.5000000   0.1250000   0.2500000), wk =   0.0078125
        k(  235) = (  -0.5000000   0.1250000   0.3750000), wk =   0.0078125
        k(  236) = (  -0.5000000   0.1250000  -0.5000000), wk =   0.0078125
        k(  237) = (  -0.5000000   0.1250000  -0.3750000), wk =   0.0078125
        k(  238) = (  -0.5000000   0.1250000  -0.2500000), wk =   0.0078125
        k(  239) = (  -0.5000000   0.1250000  -0.1250000), wk =   0.0078125
        k(  240) = (  -0.5000000   0.2500000  -0.0000000), wk =   0.0078125
        k(  241) = (  -0.5000000   0.2500000   0.1250000), wk =   0.0078125
        k(  242) = (  -0.5000000   0.2500000   0.2500000), wk =   0.0078125
        k(  243) = (  -0.5000000   0.2500000   0.3750000), wk =   0.0078125
        k(  244) = (  -0.5000000   0.2500000  -0.5000000), wk =   0.0078125
        k(  245) = (  -0.5000000   0.2500000  -0.3750000), wk =   0.0078125
        k(  246) = (  -0.5000000   0.2500000  -0.2500000), wk =   0.0078125
        k(  247) = (  -0.5000000   0.2500000  -0.1250000), wk =   0.0078125
        k(  248) = (  -0.5000000   0.3750000  -0.0000000), wk =   0.0078125
        k(  249) = (  -0.5000000   0.3750000   0.1250000), wk =   0.0078125
        k(  250) = (  -0.5000000   0.3750000   0.2500000), wk =   0.0078125
        k(  251) = (  -0.5000000   0.3750000   0.3750000), wk =   0.0078125
        k(  252) = (  -0.5000000   0.3750000  -0.5000000), wk =   0.0078125
        k(  253) = (  -0.5000000   0.3750000  -0.3750000), wk =   0.0078125
        k(  254) = (  -0.5000000   0.3750000  -0.2500000), wk =   0.0078125
        k(  255) = (  -0.5000000   0.3750000  -0.1250000), wk =   0.0078125
        k(  256) = (  -0.5000000  -0.5000000   0.0000000), wk =   0.0039062
        k(  257) = (  -0.5000000  -0.5000000   0.1250000), wk =   0.0078125
        k(  258) = (  -0.5000000  -0.5000000   0.2500000), wk =   0.0078125
        k(  259) = (  -0.5000000  -0.5000000   0.3750000), wk =   0.0078125
        k(  260) = (  -0.5000000  -0.5000000  -0.5000000), wk =   0.0039062

     Dense  grid:    79923 G-vectors     FFT dimensions: (  50,  50,  80)

     Smooth grid:    31213 G-vectors     FFT dimensions: (  36,  36,  60)

     Dynamical RAM for                 wfc:       0.06 MB

     Dynamical RAM for     wfc (w. buffer):       3.92 MB

     Dynamical RAM for           str. fact:       0.15 MB

     Dynamical RAM for           local pot:       0.00 MB

     Dynamical RAM for          nlocal pot:       0.24 MB

     Dynamical RAM for                qrad:      10.37 MB

     Dynamical RAM for          rho,v,vnew:       0.51 MB

     Dynamical RAM for               rhoin:       0.17 MB

     Dynamical RAM for            rho*nmix:       1.22 MB

     Dynamical RAM for           G-vectors:       0.30 MB

     Dynamical RAM for          h,s,v(r/c):       0.05 MB

     Dynamical RAM for          <psi|beta>:       0.02 MB

     Dynamical RAM for                 psi:       0.24 MB

     Dynamical RAM for                hpsi:       0.24 MB

     Dynamical RAM for                spsi:       0.24 MB

     Dynamical RAM for      wfcinit/wfcrot:       0.14 MB

     Dynamical RAM for           addusdens:       4.00 MB

     Dynamical RAM for          addusforce:       4.15 MB

     Dynamical RAM for         addusstress:       4.22 MB

     Estimated static dynamical RAM per process >      17.59 MB

     Estimated max dynamical RAM per process >      21.80 MB

     Estimated total dynamical RAM >       1.36 GB

     Check: negative core charge=   -0.000003

     Initial potential from superposition of free atoms

     starting charge   31.39954, renormalised to   32.00000
     Starting wfcs are   18 randomized atomic wfcs

     total cpu time spent up to now is        2.9 secs

     Self-consistent Calculation

     iteration #  1     ecut=    80.00 Ry     beta= 0.50
     Davidson diagonalization with overlap
     ethr =  1.00E-02,  avg # of iterations =  2.0

     total cpu time spent up to now is        4.1 secs

     total energy              =    -314.89175770 Ry
     Harris-Foulkes estimate   =    -315.46021253 Ry
     estimated scf accuracy    <       0.89942232 Ry

     iteration #  2     ecut=    80.00 Ry     beta= 0.50
     Davidson diagonalization with overlap
     ethr =  2.81E-03,  avg # of iterations =  2.9

     total cpu time spent up to now is        5.0 secs

     total energy              =    -315.13261198 Ry
     Harris-Foulkes estimate   =    -315.24823332 Ry
     estimated scf accuracy    <       0.26753991 Ry

     iteration #  3     ecut=    80.00 Ry     beta= 0.50
     Davidson diagonalization with overlap
     ethr =  8.36E-04,  avg # of iterations =  2.0

     total cpu time spent up to now is        5.7 secs

     total energy              =    -315.17844327 Ry
     Harris-Foulkes estimate   =    -315.18134299 Ry
     estimated scf accuracy    <       0.00970877 Ry

     iteration #  4     ecut=    80.00 Ry     beta= 0.50
     Davidson diagonalization with overlap
     ethr =  3.03E-05,  avg # of iterations =  1.9

     total cpu time spent up to now is        6.3 secs

     total energy              =    -315.17906092 Ry
     Harris-Foulkes estimate   =    -315.17908813 Ry
     estimated scf accuracy    <       0.00051838 Ry

     iteration #  5     ecut=    80.00 Ry     beta= 0.50
     Davidson diagonalization with overlap
     ethr =  1.62E-06,  avg # of iterations =  2.0

     total cpu time spent up to now is        7.0 secs

     total energy              =    -315.17911856 Ry
     Harris-Foulkes estimate   =    -315.17912063 Ry
     estimated scf accuracy    <       0.00002438 Ry

     iteration #  6     ecut=    80.00 Ry     beta= 0.50
     Davidson diagonalization with overlap
     ethr =  7.62E-08,  avg # of iterations =  2.5

     total cpu time spent up to now is        7.7 secs

     End of self-consistent calculation

          k = 0.0000 0.0000 0.0000 (  3885 PWs)   bands (ev):

   -66.9001 -66.8961 -33.9162 -33.8702 -33.8698 -33.8698 -33.8621 -33.8621
   -11.5250 -10.7406   1.2586   3.8889   3.8889   4.1814   4.1814   4.4809

     occupation numbers 
     1.0000   1.0000   1.0000   1.0000   1.0000   1.0000   1.0000   1.0000
     1.0000   1.0000   1.0000   1.0000   1.0000   1.0000   1.0000   1.0000

          k =-0.0000 0.0000 0.0807 (  3891 PWs)   bands (ev):

   -66.8999 -66.8963 -33.9145 -33.8720 -33.8695 -33.8695 -33.8624 -33.8624
   -11.4971 -10.7727   1.3425   3.8996   3.8996   4.1698   4.1698   4.2533

     occupation numbers 
     1.0000   1.0000   1.0000   1.0000   1.0000   1.0000   1.0000   1.0000
     1.0000   1.0000   1.0000   1.0000   1.0000   1.0000   1.0000   1.0000

          k =-0.0000 0.0000 0.1614 (  3897 PWs)   bands (ev):

   -66.8995 -66.8967 -33.9095 -33.8770 -33.8687 -33.8687 -33.8633 -33.8633
   -11.4168 -10.8628   1.5890   3.7222   3.9303   3.9303   4.1370   4.1370

     occupation numbers 
     1.0000   1.0000   1.0000   1.0000   1.0000   1.0000   1.0000   1.0000
     1.0000   1.0000   1.0000   1.0000   1.0000   1.0000   1.0000   1.0000

          k =-0.0000 0.0000 0.2422 (  3874 PWs)   bands (ev):

   -66.8988 -66.8973 -33.9021 -33.8845 -33.8674 -33.8674 -33.8645 -33.8645
   -11.2944 -10.9949   1.9828   3.0985   3.9766   3.9766   4.0885   4.0885

     occupation numbers 
     1.0000   1.0000   1.0000   1.0000   1.0000   1.0000   1.0000   1.0000
     1.0000   1.0000   1.0000   1.0000   1.0000   1.0000   1.0000   1.0000

          k = 0.0000-0.0000-0.3229 (  3892 PWs)   bands (ev):

   -66.8981 -66.8981 -33.8933 -33.8933 -33.8660 -33.8660 -33.8659 -33.8659
   -11.1468 -11.1466   2.4983   2.4985   4.0320   4.0320   4.0322   4.0322

     occupation numbers 
     1.0000   1.0000   1.0000   1.0000   1.0000   1.0000   1.0000   1.0000
     1.0000   1.0000   1.0000   1.0000   1.0000   1.0000   1.0000   1.0000

          k =-0.0000 0.1443 0.0000 (  3901 PWs)   bands (ev):

   -66.8997 -66.8960 -33.9143 -33.8737 -33.8713 -33.8710 -33.8665 -33.8628
   -11.4431 -10.7096   1.4138   3.4770   3.7285   3.7886   4.1825   4.4346

     occupation numbers 
     1.0000   1.0000   1.0000   1.0000   1.0000   1.0000   1.0000   1.0000
     1.0000   1.0000   1.0000   1.0000   1.0000   1.0000   1.0000   1.0000

          k =-0.0000 0.1443 0.0807 (  3885 PWs)   bands (ev):

   -66.8995 -66.8961 -33.9128 -33.8737 -33.8732 -33.8707 -33.8661 -33.8631
   -11.4167 -10.7392   1.4821   3.4607   3.6753   3.8028   4.1666   4.3531

     occupation numbers 
     1.0000   1.0000   1.0000   1.0000   1.0000   1.0000   1.0000   1.0000
     1.0000   1.0000   1.0000   1.0000   1.0000   1.0000   1.0000   1.0000

          k =-0.0000 0.1443 0.1614 (  3882 PWs)   bands (ev):

   -66.8991 -66.8965 -33.9085 -33.8790 -33.8722 -33.8698 -33.8662 -33.8640
   -11.3409 -10.8226   1.6824   3.2592   3.6621   3.8434   4.1218   4.1876

     occupation numbers 
     1.0000   1.0000   1.0000   1.0000   1.0000   1.0000   1.0000   1.0000
     1.0000   1.0000   1.0000   1.0000   1.0000   1.0000   1.0000   1.0000

          k =-0.0000 0.1443 0.2422 (  3873 PWs)   bands (ev):

   -66.8985 -66.8971 -33.9020 -33.8862 -33.8706 -33.8685 -33.8672 -33.8653
   -11.2257 -10.9454   1.9998   2.8560   3.7515   3.9052   4.0255   4.0558

     occupation numbers 
     1.0000   1.0000   1.0000   1.0000   1.0000   1.0000   1.0000   1.0000
     1.0000   1.0000   1.0000   1.0000   1.0000   1.0000   1.0000   1.0000

          k =-0.0000 0.1443-0.3229 (  3874 PWs)   bands (ev):

   -66.8979 -66.8978 -33.8942 -33.8942 -33.8688 -33.8688 -33.8669 -33.8669
   -11.0872 -11.0870   2.4070   2.4071   3.8789   3.8791   3.9796   3.9797

     occupation numbers 
     1.0000   1.0000   1.0000   1.0000   1.0000   1.0000   1.0000   1.0000
     1.0000   1.0000   1.0000   1.0000   1.0000   1.0000   1.0000   1.0000

          k =-0.0000 0.1443-0.2422 (  3873 PWs)   bands (ev):

   -66.8985 -66.8971 -33.9020 -33.8862 -33.8706 -33.8685 -33.8672 -33.8653
   -11.2257 -10.9454   1.9998   2.8560   3.7515   3.9052   4.0255   4.0558

     occupation numbers 
     1.0000   1.0000   1.0000   1.0000   1.0000   1.0000   1.0000   1.0000
     1.0000   1.0000   1.0000   1.0000   1.0000   1.0000   1.0000   1.0000

          k =-0.0000 0.1443-0.1614 (  3882 PWs)   bands (ev):

   -66.8991 -66.8965 -33.9085 -33.8790 -33.8722 -33.8698 -33.8662 -33.8640
   -11.3409 -10.8226   1.6824   3.2592   3.6621   3.8434   4.1218   4.1876

     occupation numbers 
     1.0000   1.0000   1.0000   1.0000   1.0000   1.0000   1.0000   1.0000
     1.0000   1.0000   1.0000   1.0000   1.0000   1.0000   1.0000   1.0000

          k =-0.0000 0.1443-0.0807 (  3885 PWs)   bands (ev):

   -66.8995 -66.8961 -33.9128 -33.8737 -33.8732 -33.8707 -33.8661 -33.8631
   -11.4167 -10.7392   1.4821   3.4607   3.6753   3.8028   4.1666   4.3531

     occupation numbers 
     1.0000   1.0000   1.0000   1.0000   1.0000   1.0000   1.0000   1.0000
     1.0000   1.0000   1.0000   1.0000   1.0000   1.0000   1.0000   1.0000

          k =-0.0000 0.2887 0.0000 (  3883 PWs)   bands (ev):

   -66.8987 -66.8958 -33.9093 -33.8830 -33.8774 -33.8739 -33.8739 -33.8644
   -11.2305 -10.6427   1.8421   2.5212   3.0766   3.5904   4.1480   4.2745

     occupation numbers 
     1.0000   1.0000   1.0000   1.0000   1.0000   1.0000   1.0000   1.0000
     1.0000   1.0000   1.0000   1.0000   1.0000   1.0000   1.0000   1.0000

          k =-0.0000 0.2887 0.0807 (  3882 PWs)   bands (ev):

   -66.8986 -66.8959 -33.9086 -33.8825 -33.8803 -33.8736 -33.8723 -33.8648
   -11.2086 -10.6655   1.8309   2.5388   3.0744   3.6099   4.1248   4.2528

     occupation numbers 
     1.0000   1.0000   1.0000   1.0000   1.0000   1.0000   1.0000   1.0000
     1.0000   1.0000   1.0000   1.0000   1.0000   1.0000   1.0000   1.0000

          k =-0.0000 0.2887 0.1614 (  3890 PWs)   bands (ev):

   -66.8983 -66.8962 -33.9064 -33.8862 -33.8798 -33.8725 -33.8714 -33.8658
   -11.1461 -10.7304   1.8371   2.4648   3.1856   3.6662   4.0598   4.1662

     occupation numbers 
     1.0000   1.0000   1.0000   1.0000   1.0000   1.0000   1.0000   1.0000
     1.0000   1.0000   1.0000   1.0000   1.0000   1.0000   1.0000   1.0000

          k =-0.0000 0.2887 0.2422 (  3885 PWs)   bands (ev):

   -66.8978 -66.8967 -33.9027 -33.8921 -33.8769 -33.8720 -33.8710 -33.8673
   -11.0519 -10.8268   1.9104   2.2682   3.4413   3.7522   3.9650   3.9894

     occupation numbers 
     1.0000   1.0000   1.0000   1.0000   1.0000   1.0000   1.0000   1.0000
     1.0000   1.0000   1.0000   1.0000   1.0000   1.0000   1.0000   1.0000

          k =-0.0000 0.2887-0.3229 (  3896 PWs)   bands (ev):

   -66.8973 -66.8972 -33.8979 -33.8978 -33.8741 -33.8741 -33.8692 -33.8691
   -10.9399 -10.9397   2.0619   2.0619   3.7334   3.7334   3.8567   3.8569

     occupation numbers 
     1.0000   1.0000   1.0000   1.0000   1.0000   1.0000   1.0000   1.0000
     1.0000   1.0000   1.0000   1.0000   1.0000   1.0000   1.0000   1.0000

          k =-0.0000 0.2887-0.2422 (  3885 PWs)   bands (ev):

   -66.8978 -66.8967 -33.9027 -33.8921 -33.8769 -33.8720 -33.8710 -33.8673
   -11.0519 -10.8268   1.9104   2.2682   3.4413   3.7522   3.9650   3.9894

     occupation numbers 
     1.0000   1.0000   1.0000   1.0000   1.0000   1.0000   1.0000   1.0000
     1.0000   1.0000   1.0000   1.0000   1.0000   1.0000   1.0000   1.0000

          k =-0.0000 0.2887-0.1614 (  3890 PWs)   bands (ev):

   -66.8983 -66.8962 -33.9064 -33.8862 -33.8798 -33.8725 -33.8714 -33.8658
   -11.1461 -10.7304   1.8371   2.4648   3.1856   3.6662   4.0598   4.1662

     occupation numbers 
     1.0000   1.0000   1.0000   1.0000   1.0000   1.0000   1.0000   1.0000
     1.0000   1.0000   1.0000   1.0000   1.0000   1.0000   1.0000   1.0000

          k =-0.0000 0.2887-0.0807 (  3882 PWs)   bands (ev):

   -66.8986 -66.8959 -33.9086 -33.8825 -33.8803 -33.8736 -33.8723 -33.8648
   -11.2086 -10.6655   1.8309   2.5388   3.0744   3.6099   4.1248   4.2528

     occupation numbers 
     1.0000   1.0000   1.0000   1.0000   1.0000   1.0000   1.0000   1.0000
     1.0000   1.0000   1.0000   1.0000   1.0000   1.0000   1.0000   1.0000

          k =-0.0000 0.4330 0.0000 (  3900 PWs)   bands (ev):

   -66.8976 -66.8957 -33.9037 -33.8917 -33.8877 -33.8784 -33.8768 -33.8661
   -10.9812 -10.6023   1.7497   2.4092   2.5679   3.4215   3.9762   4.0931

     occupation numbers 
     1.0000   1.0000   1.0000   1.0000   1.0000   1.0000   1.0000   1.0000
     1.0000   1.0000   1.0000   1.0000   1.0000   1.0000   1.0000   1.0000

          k =-0.0000 0.4330 0.0807 (  3888 PWs)   bands (ev):

   -66.8975 -66.8958 -33.9047 -33.8913 -33.8886 -33.8770 -33.8764 -33.8665
   -10.9662 -10.6159   1.6815   2.2788   2.7463   3.4445   4.0128   4.0647

     occupation numbers 
     1.0000   1.0000   1.0000   1.0000   1.0000   1.0000   1.0000   1.0000
     1.0000   1.0000   1.0000   1.0000   1.0000   1.0000   1.0000   1.0000

          k =-0.0000 0.4330 0.1614 (  3894 PWs)   bands (ev):

   -66.8973 -66.8960 -33.9060 -33.8955 -33.8848 -33.8753 -33.8752 -33.8676
   -10.9235 -10.6552   1.5810   2.0435   3.0813   3.5112   3.9851   4.0499

     occupation numbers 
     1.0000   1.0000   1.0000   1.0000   1.0000   1.0000   1.0000   1.0000
     1.0000   1.0000   1.0000   1.0000   1.0000   1.0000   1.0000   1.0000

          k =-0.0000 0.4330 0.2422 (  3901 PWs)   bands (ev):

   -66.8970 -66.8963 -33.9059 -33.9002 -33.8804 -33.8752 -33.8735 -33.8694
   -10.8603 -10.7150   1.5535   1.8051   3.4480   3.6137   3.8697   3.9802

     occupation numbers 
     1.0000   1.0000   1.0000   1.0000   1.0000   1.0000   1.0000   1.0000
     1.0000   1.0000   1.0000   1.0000   1.0000   1.0000   1.0000   1.0000

          k =-0.0000 0.4330-0.3229 (  3894 PWs)   bands (ev):

   -66.8967 -66.8966 -33.9039 -33.9039 -33.8769 -33.8769 -33.8714 -33.8714
   -10.7871 -10.7869   1.6302   1.6303   3.7389   3.7391   3.7687   3.7688

     occupation numbers 
     1.0000   1.0000   1.0000   1.0000   1.0000   1.0000   1.0000   1.0000
     1.0000   1.0000   1.0000   1.0000   1.0000   1.0000   1.0000   1.0000

          k =-0.0000 0.4330-0.2422 (  3901 PWs)   bands (ev):

   -66.8970 -66.8963 -33.9059 -33.9002 -33.8804 -33.8752 -33.8735 -33.8694
   -10.8603 -10.7150   1.5535   1.8051   3.4480   3.6137   3.8697   3.9802

     occupation numbers 
     1.0000   1.0000   1.0000   1.0000   1.0000   1.0000   1.0000   1.0000
     1.0000   1.0000   1.0000   1.0000   1.0000   1.0000   1.0000   1.0000

          k =-0.0000 0.4330-0.1614 (  3894 PWs)   bands (ev):

   -66.8973 -66.8960 -33.9060 -33.8955 -33.8848 -33.8753 -33.8752 -33.8676
   -10.9235 -10.6552   1.5810   2.0435   3.0813   3.5112   3.9851   4.0499

     occupation numbers 
     1.0000   1.0000   1.0000   1.0000   1.0000   1.0000   1.0000   1.0000
     1.0000   1.0000   1.0000   1.0000   1.0000   1.0000   1.0000   1.0000

          k =-0.0000 0.4330-0.0807 (  3888 PWs)   bands (ev):

   -66.8975 -66.8958 -33.9047 -33.8912 -33.8886 -33.8770 -33.8764 -33.8665
   -10.9662 -10.6159   1.6815   2.2788   2.7463   3.4445   4.0128   4.0647

     occupation numbers 
     1.0000   1.0000   1.0000   1.0000   1.0000   1.0000   1.0000   1.0000
     1.0000   1.0000   1.0000   1.0000   1.0000   1.0000   1.0000   1.0000

          k = 0.0000-0.5774-0.0000 (  3912 PWs)   bands (ev):

   -66.8971 -66.8958 -33.9021 -33.8931 -33.8925 -33.8812 -33.8779 -33.8668
   -10.8495 -10.6107   1.4693   2.3288   2.8222   3.3568   3.7216   4.0675

     occupation numbers 
     1.0000   1.0000   1.0000   1.0000   1.0000   1.0000   1.0000   1.0000
     1.0000   1.0000   1.0000   1.0000   1.0000   1.0000   1.0000   1.0000

          k = 0.0000-0.5774 0.0807 (  3906 PWs)   bands (ev):

   -66.8970 -66.8958 -33.9042 -33.8950 -33.8902 -33.8795 -33.8775 -33.8672
   -10.8393 -10.6186   1.4281   2.1958   2.9361   3.3810   3.8091   4.0372

     occupation numbers 
     1.0000   1.0000   1.0000   1.0000   1.0000   1.0000   1.0000   1.0000
     1.0000   1.0000   1.0000   1.0000   1.0000   1.0000   1.0000   1.0000

          k = 0.0000-0.5774 0.1614 (  3898 PWs)   bands (ev):

   -66.8969 -66.8960 -33.9069 -33.8996 -33.8852 -33.8772 -33.8763 -33.8684
   -10.8106 -10.6414   1.3620   1.9163   3.2112   3.4512   3.9420   3.9525

     occupation numbers 
     1.0000   1.0000   1.0000   1.0000   1.0000   1.0000   1.0000   1.0000
     1.0000   1.0000   1.0000   1.0000   1.0000   1.0000   1.0000   1.0000

          k = 0.0000-0.5774 0.2422 (  3892 PWs)   bands (ev):

   -66.8967 -66.8962 -33.9079 -33.9040 -33.8807 -33.8764 -33.8745 -33.8702
   -10.7689 -10.6773   1.3538   1.6416   3.5343   3.5592   3.8300   3.9582

     occupation numbers 
     1.0000   1.0000   1.0000   1.0000   1.0000   1.0000   1.0000   1.0000
     1.0000   1.0000   1.0000   1.0000   1.0000   1.0000   1.0000   1.0000

          k = 0.0000-0.5774-0.3229 (  3900 PWs)   bands (ev):

   -66.8964 -66.8964 -33.9069 -33.9069 -33.8776 -33.8776 -33.8724 -33.8723
   -10.7220 -10.7218   1.4452   1.4452   3.6915   3.6917   3.8095   3.8096

     occupation numbers 
     1.0000   1.0000   1.0000   1.0000   1.0000   1.0000   1.0000   1.0000
     1.0000   1.0000   1.0000   1.0000   1.0000   1.0000   1.0000   1.0000

          k = 0.1250 0.0722 0.0000 (  3901 PWs)   bands (ev):

   -66.8997 -66.8960 -33.9143 -33.8737 -33.8713 -33.8710 -33.8665 -33.8628
   -11.4431 -10.7096   1.4138   3.4770   3.7285   3.7886   4.1825   4.4346

     occupation numbers 
     1.0000   1.0000   1.0000   1.0000   1.0000   1.0000   1.0000   1.0000
     1.0000   1.0000   1.0000   1.0000   1.0000   1.0000   1.0000   1.0000

          k = 0.1250 0.0722 0.0807 (  3885 PWs)   bands (ev):

   -66.8995 -66.8961 -33.9128 -33.8737 -33.8732 -33.8707 -33.8661 -33.8631
   -11.4167 -10.7392   1.4821   3.4607   3.6753   3.8028   4.1666   4.3531

     occupation numbers 
     1.0000   1.0000   1.0000   1.0000   1.0000   1.0000   1.0000   1.0000
     1.0000   1.0000   1.0000   1.0000   1.0000   1.0000   1.0000   1.0000

          k = 0.1250 0.0722 0.1614 (  3882 PWs)   bands (ev):

   -66.8991 -66.8965 -33.9085 -33.8790 -33.8722 -33.8698 -33.8662 -33.8640
   -11.3409 -10.8226   1.6824   3.2592   3.6621   3.8434   4.1218   4.1876

     occupation numbers 
     1.0000   1.0000   1.0000   1.0000   1.0000   1.0000   1.0000   1.0000
     1.0000   1.0000   1.0000   1.0000   1.0000   1.0000   1.0000   1.0000

          k = 0.1250 0.0722 0.2422 (  3873 PWs)   bands (ev):

   -66.8985 -66.8971 -33.9020 -33.8862 -33.8706 -33.8685 -33.8672 -33.8653
   -11.2257 -10.9454   1.9998   2.8560   3.7515   3.9052   4.0255   4.0558

     occupation numbers 
     1.0000   1.0000   1.0000   1.0000   1.0000   1.0000   1.0000   1.0000
     1.0000   1.0000   1.0000   1.0000   1.0000   1.0000   1.0000   1.0000

          k = 0.1250 0.0722-0.3229 (  3874 PWs)   bands (ev):

   -66.8979 -66.8978 -33.8942 -33.8942 -33.8688 -33.8688 -33.8669 -33.8669
   -11.0872 -11.0870   2.4070   2.4071   3.8789   3.8791   3.9796   3.9797

     occupation numbers 
     1.0000   1.0000   1.0000   1.0000   1.0000   1.0000   1.0000   1.0000
     1.0000   1.0000   1.0000   1.0000   1.0000   1.0000   1.0000   1.0000

          k = 0.1250 0.0722-0.2422 (  3873 PWs)   bands (ev):

   -66.8985 -66.8971 -33.9020 -33.8862 -33.8706 -33.8685 -33.8672 -33.8653
   -11.2257 -10.9454   1.9998   2.8560   3.7515   3.9052   4.0255   4.0558

     occupation numbers 
     1.0000   1.0000   1.0000   1.0000   1.0000   1.0000   1.0000   1.0000
     1.0000   1.0000   1.0000   1.0000   1.0000   1.0000   1.0000   1.0000

          k = 0.1250 0.0722-0.1614 (  3882 PWs)   bands (ev):

   -66.8991 -66.8965 -33.9085 -33.8790 -33.8722 -33.8698 -33.8662 -33.8640
   -11.3409 -10.8226   1.6824   3.2592   3.6621   3.8434   4.1218   4.1876

     occupation numbers 
     1.0000   1.0000   1.0000   1.0000   1.0000   1.0000   1.0000   1.0000
     1.0000   1.0000   1.0000   1.0000   1.0000   1.0000   1.0000   1.0000

          k = 0.1250 0.0722-0.0807 (  3885 PWs)   bands (ev):

   -66.8995 -66.8961 -33.9128 -33.8737 -33.8732 -33.8707 -33.8661 -33.8631
   -11.4167 -10.7392   1.4821   3.4607   3.6753   3.8028   4.1666   4.3531

     occupation numbers 
     1.0000   1.0000   1.0000   1.0000   1.0000   1.0000   1.0000   1.0000
     1.0000   1.0000   1.0000   1.0000   1.0000   1.0000   1.0000   1.0000

          k = 0.1250 0.2165 0.0000 (  3885 PWs)   bands (ev):

   -66.8990 -66.8958 -33.9108 -33.8794 -33.8760 -33.8735 -33.8711 -33.8645
   -11.2956 -10.6606   1.7065   2.8750   3.1257   3.7407   4.0700   4.3322

     occupation numbers 
     1.0000   1.0000   1.0000   1.0000   1.0000   1.0000   1.0000   1.0000
     1.0000   1.0000   1.0000   1.0000   1.0000   1.0000   1.0000   1.0000

          k = 0.1250 0.2165 0.0807 (  3885 PWs)   bands (ev):

   -66.8989 -66.8960 -33.9098 -33.8788 -33.8784 -33.8737 -33.8698 -33.8649
   -11.2722 -10.6856   1.7339   2.8273   3.1831   3.7147   4.0486   4.3080

     occupation numbers 
     1.0000   1.0000   1.0000   1.0000   1.0000   1.0000   1.0000   1.0000
     1.0000   1.0000   1.0000   1.0000   1.0000   1.0000   1.0000   1.0000

          k = 0.1250 0.2165 0.1614 (  3885 PWs)   bands (ev):

   -66.8985 -66.8963 -33.9069 -33.8837 -33.8771 -33.8730 -33.8690 -33.8659
   -11.2053 -10.7564   1.8216   2.6776   3.3388   3.6836   3.9904   4.2218

     occupation numbers 
     1.0000   1.0000   1.0000   1.0000   1.0000   1.0000   1.0000   1.0000
     1.0000   1.0000   1.0000   1.0000   1.0000   1.0000   1.0000   1.0000

          k = 0.1250 0.2165 0.2422 (  3882 PWs)   bands (ev):

   -66.8980 -66.8968 -33.9022 -33.8900 -33.8748 -33.8720 -33.8693 -33.8673
   -11.1043 -10.8613   1.9771   2.4466   3.5494   3.6975   3.9159   4.0682

     occupation numbers 
     1.0000   1.0000   1.0000   1.0000   1.0000   1.0000   1.0000   1.0000
     1.0000   1.0000   1.0000   1.0000   1.0000   1.0000   1.0000   1.0000

          k = 0.1250 0.2165-0.3229 (  3888 PWs)   bands (ev):

   -66.8974 -66.8974 -33.8964 -33.8964 -33.8726 -33.8726 -33.8688 -33.8688
   -10.9837 -10.9835   2.1949   2.1949   3.7104   3.7105   3.9057   3.9058

     occupation numbers 
     1.0000   1.0000   1.0000   1.0000   1.0000   1.0000   1.0000   1.0000
     1.0000   1.0000   1.0000   1.0000   1.0000   1.0000   1.0000   1.0000

          k = 0.1250 0.2165-0.2422 (  3882 PWs)   bands (ev):

   -66.8980 -66.8968 -33.9023 -33.8900 -33.8748 -33.8720 -33.8693 -33.8673
   -11.1043 -10.8613   1.9771   2.4466   3.5494   3.6975   3.9159   4.0682

     occupation numbers 
     1.0000   1.0000   1.0000   1.0000   1.0000   1.0000   1.0000   1.0000
     1.0000   1.0000   1.0000   1.0000   1.0000   1.0000   1.0000   1.0000

          k = 0.1250 0.2165-0.1614 (  3885 PWs)   bands (ev):

   -66.8985 -66.8963 -33.9069 -33.8837 -33.8771 -33.8730 -33.8690 -33.8659
   -11.2053 -10.7564   1.8216   2.6776   3.3388   3.6836   3.9904   4.2218

     occupation numbers 
     1.0000   1.0000   1.0000   1.0000   1.0000   1.0000   1.0000   1.0000
     1.0000   1.0000   1.0000   1.0000   1.0000   1.0000   1.0000   1.0000

          k = 0.1250 0.2165-0.0807 (  3885 PWs)   bands (ev):

   -66.8989 -66.8960 -33.9098 -33.8788 -33.8784 -33.8737 -33.8698 -33.8649
   -11.2722 -10.6856   1.7339   2.8273   3.1831   3.7147   4.0486   4.3080

     occupation numbers 
     1.0000   1.0000   1.0000   1.0000   1.0000   1.0000   1.0000   1.0000
     1.0000   1.0000   1.0000   1.0000   1.0000   1.0000   1.0000   1.0000

          k = 0.1250 0.3608 0.0000 (  3879 PWs)   bands (ev):

   -66.8980 -66.8957 -33.9052 -33.8876 -33.8845 -33.8777 -33.8756 -33.8671
   -11.0622 -10.6081   2.0906   2.2232   2.6984   3.4316   3.9368   4.1042

     occupation numbers 
     1.0000   1.0000   1.0000   1.0000   1.0000   1.0000   1.0000   1.0000
     1.0000   1.0000   1.0000   1.0000   1.0000   1.0000   1.0000   1.0000

          k = 0.1250 0.3608 0.0807 (  3887 PWs)   bands (ev):

   -66.8979 -66.8958 -33.9054 -33.8877 -33.8853 -33.8777 -33.8741 -33.8675
   -11.0447 -10.6250   1.9769   2.2172   2.8411   3.4103   3.8976   4.1429

     occupation numbers 
     1.0000   1.0000   1.0000   1.0000   1.0000   1.0000   1.0000   1.0000
     1.0000   1.0000   1.0000   1.0000   1.0000   1.0000   1.0000   1.0000

          k = 0.1250 0.3608 0.1614 (  3896 PWs)   bands (ev):

   -66.8976 -66.8960 -33.9053 -33.8920 -33.8825 -33.8769 -33.8726 -33.8685
   -10.9947 -10.6733   1.8447   2.1173   3.1224   3.4211   3.8075   4.1740

     occupation numbers 
     1.0000   1.0000   1.0000   1.0000   1.0000   1.0000   1.0000   1.0000
     1.0000   1.0000   1.0000   1.0000   1.0000   1.0000   1.0000   1.0000

          k = 0.1250 0.3608 0.2422 (  3897 PWs)   bands (ev):

   -66.8973 -66.8964 -33.9040 -33.8970 -33.8790 -33.8758 -33.8721 -33.8700
   -10.9203 -10.7462   1.7972   1.9697   3.3342   3.5330   3.7454   4.1062

     occupation numbers 
     1.0000   1.0000   1.0000   1.0000   1.0000   1.0000   1.0000   1.0000
     1.0000   1.0000   1.0000   1.0000   1.0000   1.0000   1.0000   1.0000

          k = 0.1250 0.3608-0.3229 (  3896 PWs)   bands (ev):

   -66.8968 -66.8968 -33.9012 -33.9012 -33.8763 -33.8763 -33.8715 -33.8714
   -10.8330 -10.8328   1.8461   1.8461   3.4700   3.4701   3.9259   3.9259

     occupation numbers 
     1.0000   1.0000   1.0000   1.0000   1.0000   1.0000   1.0000   1.0000
     1.0000   1.0000   1.0000   1.0000   1.0000   1.0000   1.0000   1.0000

          k = 0.1250 0.3608-0.2422 (  3897 PWs)   bands (ev):

   -66.8973 -66.8964 -33.9040 -33.8970 -33.8790 -33.8758 -33.8721 -33.8700
   -10.9203 -10.7462   1.7972   1.9697   3.3342   3.5330   3.7454   4.1062

     occupation numbers 
     1.0000   1.0000   1.0000   1.0000   1.0000   1.0000   1.0000   1.0000
     1.0000   1.0000   1.0000   1.0000   1.0000   1.0000   1.0000   1.0000

          k = 0.1250 0.3608-0.1614 (  3896 PWs)   bands (ev):

   -66.8976 -66.8960 -33.9053 -33.8920 -33.8825 -33.8769 -33.8726 -33.8685
   -10.9947 -10.6733   1.8447   2.1173   3.1224   3.4211   3.8075   4.1740

     occupation numbers 
     1.0000   1.0000   1.0000   1.0000   1.0000   1.0000   1.0000   1.0000
     1.0000   1.0000   1.0000   1.0000   1.0000   1.0000   1.0000   1.0000

          k = 0.1250 0.3608-0.0807 (  3887 PWs)   bands (ev):

   -66.8979 -66.8958 -33.9054 -33.8877 -33.8853 -33.8777 -33.8741 -33.8675
   -11.0447 -10.6250   1.9769   2.2172   2.8411   3.4103   3.8976   4.1429

     occupation numbers 
     1.0000   1.0000   1.0000   1.0000   1.0000   1.0000   1.0000   1.0000
     1.0000   1.0000   1.0000   1.0000   1.0000   1.0000   1.0000   1.0000

          k = 0.1250 0.5052 0.0000 (  3902 PWs)   bands (ev):

   -66.8971 -66.8958 -33.9010 -33.8925 -33.8904 -33.8813 -33.8795 -33.8689
   -10.8558 -10.6062   1.6257   2.4325   2.7864   3.1811   3.7672   3.8563

     occupation numbers 
     1.0000   1.0000   1.0000   1.0000   1.0000   1.0000   1.0000   1.0000
     1.0000   1.0000   1.0000   1.0000   1.0000   1.0000   1.0000   1.0000

          k = 0.1250 0.5052 0.0807 (  3901 PWs)   bands (ev):

   -66.8970 -66.8958 -33.9029 -33.8939 -33.8891 -33.8801 -33.8784 -33.8693
   -10.8452 -10.6145   1.5910   2.2799   2.8775   3.2476   3.7572   3.9131

     occupation numbers 
     1.0000   1.0000   1.0000   1.0000   1.0000   1.0000   1.0000   1.0000
     1.0000   1.0000   1.0000   1.0000   1.0000   1.0000   1.0000   1.0000

          k = 0.1250 0.5052 0.1614 (  3893 PWs)   bands (ev):

   -66.8969 -66.8960 -33.9055 -33.8984 -33.8848 -33.8784 -33.8763 -33.8702
   -10.8154 -10.6387   1.5301   2.0129   2.9881   3.4674   3.6602   4.0477

     occupation numbers 
     1.0000   1.0000   1.0000   1.0000   1.0000   1.0000   1.0000   1.0000
     1.0000   1.0000   1.0000   1.0000   1.0000   1.0000   1.0000   1.0000

          k = 0.1250 0.5052 0.2422 (  3895 PWs)   bands (ev):

   -66.8967 -66.8962 -33.9065 -33.9027 -33.8810 -33.8771 -33.8749 -33.8715
   -10.7721 -10.6763   1.5155   1.7639   3.1221   3.4696   3.7775   4.0956

     occupation numbers 
     1.0000   1.0000   1.0000   1.0000   1.0000   1.0000   1.0000   1.0000
     1.0000   1.0000   1.0000   1.0000   1.0000   1.0000   1.0000   1.0000

          k = 0.1250 0.5052-0.3229 (  3890 PWs)   bands (ev):

   -66.8964 -66.8964 -33.9056 -33.9056 -33.8782 -33.8782 -33.8731 -33.8731
   -10.7232 -10.7230   1.5905   1.5906   3.2914   3.2915   3.9975   3.9975

     occupation numbers 
     1.0000   1.0000   1.0000   1.0000   1.0000   1.0000   1.0000   1.0000
     1.0000   1.0000   1.0000   1.0000   1.0000   1.0000   1.0000   1.0000

          k = 0.1250 0.5052-0.2422 (  3895 PWs)   bands (ev):

   -66.8967 -66.8962 -33.9065 -33.9027 -33.8810 -33.8771 -33.8749 -33.8715
   -10.7721 -10.6763   1.5155   1.7639   3.1221   3.4696   3.7775   4.0956

     occupation numbers 
     1.0000   1.0000   1.0000   1.0000   1.0000   1.0000   1.0000   1.0000
     1.0000   1.0000   1.0000   1.0000   1.0000   1.0000   1.0000   1.0000

          k = 0.1250 0.5052-0.1614 (  3893 PWs)   bands (ev):

   -66.8969 -66.8960 -33.9055 -33.8984 -33.8848 -33.8784 -33.8763 -33.8702
   -10.8154 -10.6387   1.5301   2.0129   2.9881   3.4674   3.6602   4.0477

     occupation numbers 
     1.0000   1.0000   1.0000   1.0000   1.0000   1.0000   1.0000   1.0000
     1.0000   1.0000   1.0000   1.0000   1.0000   1.0000   1.0000   1.0000

          k = 0.1250 0.5052-0.0807 (  3901 PWs)   bands (ev):

   -66.8970 -66.8958 -33.9029 -33.8939 -33.8891 -33.8801 -33.8784 -33.8693
   -10.8452 -10.6145   1.5910   2.2799   2.8775   3.2476   3.7572   3.9131

     occupation numbers 
     1.0000   1.0000   1.0000   1.0000   1.0000   1.0000   1.0000   1.0000
     1.0000   1.0000   1.0000   1.0000   1.0000   1.0000   1.0000   1.0000

          k = 0.1250-0.5052-0.0000 (  3902 PWs)   bands (ev):

   -66.8971 -66.8958 -33.9010 -33.8925 -33.8904 -33.8813 -33.8795 -33.8689
   -10.8558 -10.6062   1.6257   2.4325   2.7864   3.1811   3.7672   3.8563

     occupation numbers 
     1.0000   1.0000   1.0000   1.0000   1.0000   1.0000   1.0000   1.0000
     1.0000   1.0000   1.0000   1.0000   1.0000   1.0000   1.0000   1.0000

          k = 0.1250-0.5052 0.0807 (  3901 PWs)   bands (ev):

   -66.8970 -66.8958 -33.9029 -33.8939 -33.8891 -33.8801 -33.8784 -33.8693
   -10.8452 -10.6145   1.5910   2.2799   2.8775   3.2476   3.7572   3.9131

     occupation numbers 
     1.0000   1.0000   1.0000   1.0000   1.0000   1.0000   1.0000   1.0000
     1.0000   1.0000   1.0000   1.0000   1.0000   1.0000   1.0000   1.0000

          k = 0.1250-0.5052 0.1614 (  3893 PWs)   bands (ev):

   -66.8969 -66.8960 -33.9055 -33.8984 -33.8848 -33.8784 -33.8763 -33.8702
   -10.8154 -10.6387   1.5301   2.0129   2.9881   3.4674   3.6602   4.0477

     occupation numbers 
     1.0000   1.0000   1.0000   1.0000   1.0000   1.0000   1.0000   1.0000
     1.0000   1.0000   1.0000   1.0000   1.0000   1.0000   1.0000   1.0000

          k = 0.1250-0.5052 0.2422 (  3895 PWs)   bands (ev):

   -66.8967 -66.8962 -33.9065 -33.9027 -33.8810 -33.8771 -33.8749 -33.8715
   -10.7721 -10.6763   1.5155   1.7639   3.1221   3.4696   3.7775   4.0956

     occupation numbers 
     1.0000   1.0000   1.0000   1.0000   1.0000   1.0000   1.0000   1.0000
     1.0000   1.0000   1.0000   1.0000   1.0000   1.0000   1.0000   1.0000

          k = 0.1250-0.5052-0.3229 (  3890 PWs)   bands (ev):

   -66.8964 -66.8964 -33.9056 -33.9056 -33.8782 -33.8782 -33.8731 -33.8731
   -10.7232 -10.7230   1.5905   1.5906   3.2914   3.2915   3.9975   3.9975

     occupation numbers 
     1.0000   1.0000   1.0000   1.0000   1.0000   1.0000   1.0000   1.0000
     1.0000   1.0000   1.0000   1.0000   1.0000   1.0000   1.0000   1.0000

          k = 0.1250-0.5052-0.2422 (  3895 PWs)   bands (ev):

   -66.8967 -66.8962 -33.9065 -33.9027 -33.8810 -33.8771 -33.8749 -33.8715
   -10.7721 -10.6763   1.5155   1.7639   3.1221   3.4696   3.7775   4.0956

     occupation numbers 
     1.0000   1.0000   1.0000   1.0000   1.0000   1.0000   1.0000   1.0000
     1.0000   1.0000   1.0000   1.0000   1.0000   1.0000   1.0000   1.0000

          k = 0.1250-0.5052-0.1614 (  3893 PWs)   bands (ev):

   -66.8969 -66.8960 -33.9055 -33.8984 -33.8848 -33.8784 -33.8763 -33.8702
   -10.8154 -10.6387   1.5301   2.0129   2.9881   3.4674   3.6602   4.0477

     occupation numbers 
     1.0000   1.0000   1.0000   1.0000   1.0000   1.0000   1.0000   1.0000
     1.0000   1.0000   1.0000   1.0000   1.0000   1.0000   1.0000   1.0000

          k = 0.1250-0.5052-0.0807 (  3901 PWs)   bands (ev):

   -66.8970 -66.8958 -33.9029 -33.8939 -33.8891 -33.8801 -33.8784 -33.8693
   -10.8452 -10.6145   1.5910   2.2799   2.8775   3.2476   3.7572   3.9131

     occupation numbers 
     1.0000   1.0000   1.0000   1.0000   1.0000   1.0000   1.0000   1.0000
     1.0000   1.0000   1.0000   1.0000   1.0000   1.0000   1.0000   1.0000

          k = 0.1250-0.3608-0.0000 (  3879 PWs)   bands (ev):

   -66.8980 -66.8957 -33.9052 -33.8876 -33.8845 -33.8777 -33.8756 -33.8671
   -11.0622 -10.6081   2.0906   2.2232   2.6984   3.4316   3.9368   4.1042

     occupation numbers 
     1.0000   1.0000   1.0000   1.0000   1.0000   1.0000   1.0000   1.0000
     1.0000   1.0000   1.0000   1.0000   1.0000   1.0000   1.0000   1.0000

          k = 0.1250-0.3608 0.0807 (  3887 PWs)   bands (ev):

   -66.8979 -66.8958 -33.9054 -33.8877 -33.8853 -33.8777 -33.8741 -33.8675
   -11.0447 -10.6250   1.9769   2.2172   2.8411   3.4103   3.8976   4.1429

     occupation numbers 
     1.0000   1.0000   1.0000   1.0000   1.0000   1.0000   1.0000   1.0000
     1.0000   1.0000   1.0000   1.0000   1.0000   1.0000   1.0000   1.0000

          k = 0.1250-0.3608 0.1614 (  3896 PWs)   bands (ev):

   -66.8976 -66.8960 -33.9053 -33.8920 -33.8825 -33.8769 -33.8726 -33.8685
   -10.9947 -10.6733   1.8447   2.1173   3.1224   3.4211   3.8075   4.1740

     occupation numbers 
     1.0000   1.0000   1.0000   1.0000   1.0000   1.0000   1.0000   1.0000
     1.0000   1.0000   1.0000   1.0000   1.0000   1.0000   1.0000   1.0000

          k = 0.1250-0.3608 0.2422 (  3897 PWs)   bands (ev):

   -66.8973 -66.8964 -33.9040 -33.8970 -33.8790 -33.8758 -33.8721 -33.8700
   -10.9203 -10.7462   1.7972   1.9697   3.3342   3.5330   3.7454   4.1062

     occupation numbers 
     1.0000   1.0000   1.0000   1.0000   1.0000   1.0000   1.0000   1.0000
     1.0000   1.0000   1.0000   1.0000   1.0000   1.0000   1.0000   1.0000

          k = 0.1250-0.3608-0.3229 (  3896 PWs)   bands (ev):

   -66.8968 -66.8968 -33.9012 -33.9012 -33.8763 -33.8763 -33.8715 -33.8714
   -10.8330 -10.8328   1.8461   1.8461   3.4700   3.4701   3.9259   3.9259

     occupation numbers 
     1.0000   1.0000   1.0000   1.0000   1.0000   1.0000   1.0000   1.0000
     1.0000   1.0000   1.0000   1.0000   1.0000   1.0000   1.0000   1.0000

          k = 0.1250-0.3608-0.2422 (  3897 PWs)   bands (ev):

[...]

          k =-0.5004-0.1444 0.0810 (  3881 PWs)   bands (ev):

   -66.8325 -66.8313 -33.8395 -33.8302 -33.8252 -33.8162 -33.8144 -33.8052
   -10.8120 -10.5779   1.6212   2.3160   2.9125   3.2833   3.7978   3.9548

     occupation numbers 
     1.0000   1.0000   1.0000   1.0000   1.0000   1.0000   1.0000   1.0000
     1.0000   1.0000   1.0000   1.0000   1.0000   1.0000   1.0000   1.0000

          k =-0.5004-0.1444 0.1619 (  3872 PWs)   bands (ev):

   -66.8324 -66.8314 -33.8421 -33.8349 -33.8209 -33.8145 -33.8122 -33.8062
   -10.7817 -10.6023   1.5593   2.0462   3.0220   3.5066   3.7000   4.0910

     occupation numbers 
     1.0000   1.0000   1.0000   1.0000   1.0000   1.0000   1.0000   1.0000
     1.0000   1.0000   1.0000   1.0000   1.0000   1.0000   1.0000   1.0000

          k =-0.5004-0.1444 0.2429 (  3881 PWs)   bands (ev):

   -66.8322 -66.8316 -33.8432 -33.8393 -33.8169 -33.8130 -33.8109 -33.8074
   -10.7377 -10.6405   1.5442   1.7947   3.1565   3.5076   3.8193   4.1398

     occupation numbers 
     1.0000   1.0000   1.0000   1.0000   1.0000   1.0000   1.0000   1.0000
     1.0000   1.0000   1.0000   1.0000   1.0000   1.0000   1.0000   1.0000

          k =-0.5004-0.1444-0.3239 (  3878 PWs)   bands (ev):

   -66.8319 -66.8319 -33.8422 -33.8422 -33.8141 -33.8141 -33.8090 -33.8090
   -10.6879 -10.6879   1.6198   1.6198   3.3274   3.3274   4.0412   4.0412

     occupation numbers 
     1.0000   1.0000   1.0000   1.0000   1.0000   1.0000   1.0000   1.0000
     1.0000   1.0000   1.0000   1.0000   1.0000   1.0000   1.0000   1.0000

          k =-0.5004-0.1444-0.2429 (  3881 PWs)   bands (ev):

   -66.8322 -66.8316 -33.8432 -33.8393 -33.8170 -33.8130 -33.8109 -33.8074
   -10.7377 -10.6405   1.5442   1.7947   3.1565   3.5076   3.8193   4.1398

     occupation numbers 
     1.0000   1.0000   1.0000   1.0000   1.0000   1.0000   1.0000   1.0000
     1.0000   1.0000   1.0000   1.0000   1.0000   1.0000   1.0000   1.0000

          k =-0.5004-0.1444-0.1619 (  3872 PWs)   bands (ev):

   -66.8324 -66.8314 -33.8421 -33.8349 -33.8209 -33.8145 -33.8122 -33.8062
   -10.7817 -10.6023   1.5593   2.0462   3.0220   3.5066   3.7000   4.0910

     occupation numbers 
     1.0000   1.0000   1.0000   1.0000   1.0000   1.0000   1.0000   1.0000
     1.0000   1.0000   1.0000   1.0000   1.0000   1.0000   1.0000   1.0000

          k =-0.5004-0.1444-0.0810 (  3881 PWs)   bands (ev):

   -66.8325 -66.8313 -33.8395 -33.8302 -33.8252 -33.8162 -33.8144 -33.8052
   -10.8120 -10.5779   1.6212   2.3160   2.9125   3.2833   3.7978   3.9548

     occupation numbers 
     1.0000   1.0000   1.0000   1.0000   1.0000   1.0000   1.0000   1.0000
     1.0000   1.0000   1.0000   1.0000   1.0000   1.0000   1.0000   1.0000

          k =-0.5004 0.0000 0.0000 (  3875 PWs)   bands (ev):

   -66.8326 -66.8312 -33.8364 -33.8272 -33.8245 -33.8194 -33.8156 -33.8075
   -10.8289 -10.5652   1.8850   2.4873   2.8212   3.1026   3.5997   3.8599

     occupation numbers 
     1.0000   1.0000   1.0000   1.0000   1.0000   1.0000   1.0000   1.0000
     1.0000   1.0000   1.0000   1.0000   1.0000   1.0000   1.0000   1.0000

          k =-0.5004 0.0000 0.0810 (  3880 PWs)   bands (ev):

   -66.8325 -66.8313 -33.8380 -33.8293 -33.8222 -33.8197 -33.8134 -33.8079
   -10.8177 -10.5740   1.8857   2.2691   3.0123   3.0779   3.5616   3.9621

     occupation numbers 
     1.0000   1.0000   1.0000   1.0000   1.0000   1.0000   1.0000   1.0000
     1.0000   1.0000   1.0000   1.0000   1.0000   1.0000   1.0000   1.0000

          k =-0.5004 0.0000 0.1619 (  3877 PWs)   bands (ev):

   -66.8324 -66.8314 -33.8405 -33.8337 -33.8189 -33.8180 -33.8105 -33.8091
   -10.7865 -10.5997   1.8733   2.0203   2.8928   3.3063   3.5852   4.1227

     occupation numbers 
     1.0000   1.0000   1.0000   1.0000   1.0000   1.0000   1.0000   1.0000
     1.0000   1.0000   1.0000   1.0000   1.0000   1.0000   1.0000   1.0000

          k =-0.5004 0.0000 0.2429 (  3880 PWs)   bands (ev):

   -66.8322 -66.8316 -33.8416 -33.8379 -33.8171 -33.8148 -33.8101 -33.8091
   -10.7409 -10.6397   1.8364   1.8666   2.8890   3.1774   3.8750   4.1890

     occupation numbers 
     1.0000   1.0000   1.0000   1.0000   1.0000   1.0000   1.0000   1.0000
     1.0000   1.0000   1.0000   1.0000   1.0000   1.0000   1.0000   1.0000

          k =-0.5004 0.0000-0.3239 (  3888 PWs)   bands (ev):

   -66.8319 -66.8319 -33.8407 -33.8407 -33.8152 -33.8152 -33.8095 -33.8095
   -10.6891 -10.6891   1.8149   1.8150   3.0045   3.0045   4.1041   4.1041

     occupation numbers 
     1.0000   1.0000   1.0000   1.0000   1.0000   1.0000   1.0000   1.0000
     1.0000   1.0000   1.0000   1.0000   1.0000   1.0000   1.0000   1.0000

          k =-0.5004 0.0000-0.2429 (  3880 PWs)   bands (ev):

   -66.8322 -66.8316 -33.8416 -33.8379 -33.8171 -33.8148 -33.8101 -33.8091
   -10.7409 -10.6397   1.8364   1.8666   2.8890   3.1774   3.8750   4.1890

     occupation numbers 
     1.0000   1.0000   1.0000   1.0000   1.0000   1.0000   1.0000   1.0000
     1.0000   1.0000   1.0000   1.0000   1.0000   1.0000   1.0000   1.0000

          k =-0.5004 0.0000-0.1619 (  3877 PWs)   bands (ev):

   -66.8324 -66.8314 -33.8405 -33.8337 -33.8189 -33.8180 -33.8105 -33.8091
   -10.7865 -10.5997   1.8733   2.0203   2.8928   3.3063   3.5852   4.1227

     occupation numbers 
     1.0000   1.0000   1.0000   1.0000   1.0000   1.0000   1.0000   1.0000
     1.0000   1.0000   1.0000   1.0000   1.0000   1.0000   1.0000   1.0000

          k =-0.5004 0.0000-0.0810 (  3880 PWs)   bands (ev):

   -66.8325 -66.8313 -33.8380 -33.8293 -33.8222 -33.8197 -33.8134 -33.8079
   -10.8177 -10.5740   1.8857   2.2691   3.0123   3.0779   3.5616   3.9621

     occupation numbers 
     1.0000   1.0000   1.0000   1.0000   1.0000   1.0000   1.0000   1.0000
     1.0000   1.0000   1.0000   1.0000   1.0000   1.0000   1.0000   1.0000

          k =-0.5004 0.1444 0.0000 (  3883 PWs)   bands (ev):

   -66.8326 -66.8312 -33.8375 -33.8288 -33.8267 -33.8173 -33.8156 -33.8048
   -10.8228 -10.5695   1.6564   2.4706   2.8214   3.2153   3.8067   3.8982

     occupation numbers 
     1.0000   1.0000   1.0000   1.0000   1.0000   1.0000   1.0000   1.0000
     1.0000   1.0000   1.0000   1.0000   1.0000   1.0000   1.0000   1.0000

          k =-0.5004 0.1444 0.0810 (  3881 PWs)   bands (ev):

   -66.8325 -66.8313 -33.8395 -33.8302 -33.8252 -33.8162 -33.8144 -33.8052
   -10.8120 -10.5779   1.6212   2.3160   2.9125   3.2833   3.7978   3.9548

     occupation numbers 
     1.0000   1.0000   1.0000   1.0000   1.0000   1.0000   1.0000   1.0000
     1.0000   1.0000   1.0000   1.0000   1.0000   1.0000   1.0000   1.0000

          k =-0.5004 0.1444 0.1619 (  3872 PWs)   bands (ev):

   -66.8324 -66.8314 -33.8421 -33.8349 -33.8209 -33.8145 -33.8122 -33.8062
   -10.7817 -10.6023   1.5593   2.0462   3.0220   3.5066   3.7000   4.0910

     occupation numbers 
     1.0000   1.0000   1.0000   1.0000   1.0000   1.0000   1.0000   1.0000
     1.0000   1.0000   1.0000   1.0000   1.0000   1.0000   1.0000   1.0000

          k =-0.5004 0.1444 0.2429 (  3881 PWs)   bands (ev):

   -66.8322 -66.8316 -33.8432 -33.8393 -33.8170 -33.8130 -33.8109 -33.8074
   -10.7377 -10.6405   1.5442   1.7947   3.1565   3.5076   3.8193   4.1398

     occupation numbers 
     1.0000   1.0000   1.0000   1.0000   1.0000   1.0000   1.0000   1.0000
     1.0000   1.0000   1.0000   1.0000   1.0000   1.0000   1.0000   1.0000

          k =-0.5004 0.1444-0.3239 (  3878 PWs)   bands (ev):

   -66.8319 -66.8319 -33.8423 -33.8422 -33.8141 -33.8141 -33.8090 -33.8090
   -10.6879 -10.6879   1.6198   1.6198   3.3274   3.3274   4.0412   4.0412

     occupation numbers 
     1.0000   1.0000   1.0000   1.0000   1.0000   1.0000   1.0000   1.0000
     1.0000   1.0000   1.0000   1.0000   1.0000   1.0000   1.0000   1.0000

          k =-0.5004 0.1444-0.2429 (  3881 PWs)   bands (ev):

   -66.8322 -66.8316 -33.8432 -33.8393 -33.8169 -33.8130 -33.8109 -33.8074
   -10.7377 -10.6405   1.5442   1.7947   3.1565   3.5076   3.8193   4.1398

     occupation numbers 
     1.0000   1.0000   1.0000   1.0000   1.0000   1.0000   1.0000   1.0000
     1.0000   1.0000   1.0000   1.0000   1.0000   1.0000   1.0000   1.0000

          k =-0.5004 0.1444-0.1619 (  3872 PWs)   bands (ev):

   -66.8324 -66.8314 -33.8421 -33.8349 -33.8209 -33.8145 -33.8122 -33.8062
   -10.7817 -10.6023   1.5593   2.0462   3.0220   3.5066   3.7000   4.0910

     occupation numbers 
     1.0000   1.0000   1.0000   1.0000   1.0000   1.0000   1.0000   1.0000
     1.0000   1.0000   1.0000   1.0000   1.0000   1.0000   1.0000   1.0000

          k =-0.5004 0.1444-0.0810 (  3881 PWs)   bands (ev):

   -66.8325 -66.8313 -33.8395 -33.8302 -33.8252 -33.8162 -33.8144 -33.8052
   -10.8120 -10.5779   1.6212   2.3160   2.9125   3.2833   3.7978   3.9548

     occupation numbers 
     1.0000   1.0000   1.0000   1.0000   1.0000   1.0000   1.0000   1.0000
     1.0000   1.0000   1.0000   1.0000   1.0000   1.0000   1.0000   1.0000

          k =-0.5004-0.8667-0.0000 (  3888 PWs)   bands (ev):

   -66.8326 -66.8312 -33.8386 -33.8293 -33.8288 -33.8171 -33.8141 -33.8027
   -10.8165 -10.5741   1.4999   2.3678   2.8569   3.3902   3.7612   4.1096

     occupation numbers 
     1.0000   1.0000   1.0000   1.0000   1.0000   1.0000   1.0000   1.0000
     1.0000   1.0000   1.0000   1.0000   1.0000   1.0000   1.0000   1.0000

          k =-0.5004-0.8667 0.0810 (  3888 PWs)   bands (ev):

   -66.8325 -66.8313 -33.8408 -33.8313 -33.8264 -33.8154 -33.8137 -33.8031
   -10.8061 -10.5820   1.4581   2.2329   2.9719   3.4147   3.8501   4.0789

     occupation numbers 
     1.0000   1.0000   1.0000   1.0000   1.0000   1.0000   1.0000   1.0000
     1.0000   1.0000   1.0000   1.0000   1.0000   1.0000   1.0000   1.0000

          k =-0.5004-0.8667 0.1619 (  3872 PWs)   bands (ev):

   -66.8324 -66.8314 -33.8435 -33.8361 -33.8212 -33.8130 -33.8125 -33.8043
   -10.7769 -10.6051   1.3908   1.9500   3.2492   3.4856   3.9850   3.9931

     occupation numbers 
     1.0000   1.0000   1.0000   1.0000   1.0000   1.0000   1.0000   1.0000
     1.0000   1.0000   1.0000   1.0000   1.0000   1.0000   1.0000   1.0000

          k =-0.5004-0.8667 0.2429 (  3874 PWs)   bands (ev):

   -66.8322 -66.8316 -33.8446 -33.8406 -33.8166 -33.8121 -33.8106 -33.8062
   -10.7345 -10.6415   1.3822   1.6724   3.5748   3.5949   3.8690   4.0018

     occupation numbers 
     1.0000   1.0000   1.0000   1.0000   1.0000   1.0000   1.0000   1.0000
     1.0000   1.0000   1.0000   1.0000   1.0000   1.0000   1.0000   1.0000

          k =-0.5004-0.8667-0.3239 (  3884 PWs)   bands (ev):

   -66.8319 -66.8319 -33.8436 -33.8436 -33.8134 -33.8133 -33.8084 -33.8084
   -10.6868 -10.6867   1.4742   1.4742   3.7289   3.7289   3.8521   3.8521

     occupation numbers 
     1.0000   1.0000   1.0000   1.0000   1.0000   1.0000   1.0000   1.0000
     1.0000   1.0000   1.0000   1.0000   1.0000   1.0000   1.0000   1.0000

     highest occupied level (ev):     4.5269

!    total energy              =    -315.17914635 Ry
     Harris-Foulkes estimate   =    -315.17914634 Ry
     estimated scf accuracy    <          2.7E-10 Ry

     The total energy is the sum of the following terms:

     one-electron contribution =    -213.33331916 Ry
     hartree contribution      =     112.86761490 Ry
     xc contribution           =     -48.05578004 Ry
     ewald contribution        =    -166.65766205 Ry

     convergence has been achieved in   9 iterations

     Forces acting on atoms (cartesian axes, Ry/au):

     atom    1 type  2   force =    -0.00000025    0.00000032    0.00187424
     atom    2 type  2   force =    -0.00000024    0.00000091    0.00187475
     atom    3 type  1   force =     0.00000023   -0.00000059   -0.00187691
     atom    4 type  1   force =     0.00000026   -0.00000064   -0.00187208
     The non-local contrib.  to forces
     atom    1 type  2   force =    -0.00000039   -0.00000094   -0.02450975
     atom    2 type  2   force =    -0.00000013    0.00000221   -0.02450780
     atom    3 type  1   force =     0.00000063   -0.00000211   -0.05623495
     atom    4 type  1   force =     0.00000044   -0.00000061   -0.05623497
     The ionic contribution  to forces
     atom    1 type  2   force =    -0.00000331    0.00001864    0.34200866
     atom    2 type  2   force =    -0.00000354   -0.00000113    0.34200844
     atom    3 type  1   force =     0.00000425   -0.00001158   -0.34200887
     atom    4 type  1   force =     0.00000261   -0.00000593   -0.34200822
     The local contribution  to forces
     atom    1 type  2   force =     0.00000344   -0.00001738   -0.31565760
     atom    2 type  2   force =     0.00000342   -0.00000016   -0.31565874
     atom    3 type  1   force =    -0.00000471    0.00001312    0.39639047
     atom    4 type  1   force =    -0.00000272    0.00000589    0.39638123
     The core correction contribution to forces
     atom    1 type  2   force =     0.00000001   -0.00000000    0.00002459
     atom    2 type  2   force =     0.00000000   -0.00000001    0.00002457
     atom    3 type  1   force =     0.00000000    0.00000000    0.00000000
     atom    4 type  1   force =     0.00000000    0.00000000    0.00000000
     The Hubbard contrib.    to forces
     atom    1 type  2   force =     0.00000000    0.00000000    0.00000000
     atom    2 type  2   force =     0.00000000    0.00000000    0.00000000
     atom    3 type  1   force =     0.00000000    0.00000000    0.00000000
     atom    4 type  1   force =     0.00000000    0.00000000    0.00000000
     The SCF correction term to forces
     atom    1 type  2   force =     0.00000000    0.00000000    0.00000000
     atom    2 type  2   force =     0.00000000    0.00000000    0.00000000
     atom    3 type  1   force =     0.00000000    0.00000000    0.00000000
     atom    4 type  1   force =     0.00000000    0.00000000    0.00000000

     Total force =     0.000000     Total SCF correction =     0.000000


     Computing stress (Cartesian axis) and pressure

          total   stress  (Ry/bohr**3)                   (kbar)     P=    0.22
   0.00000201  -0.00000000  -0.00000000          0.30     -0.00     -0.00
  -0.00000000   0.00000202   0.00000001         -0.00      0.30      0.00
  -0.00000000   0.00000001   0.00000055         -0.00      0.00      0.08

     kinetic stress (kbar)  18948.53     -0.00     -0.00
                               -0.00  18948.53      0.00
                               -0.00      0.00  18969.47

     local   stress (kbar)  -8285.95     -0.01     -0.02
                               -0.01  -8285.98      0.05
                               -0.02      0.05 -10248.16

     nonloc. stress (kbar)   5196.91      0.00      0.00
                                0.00   5196.91     -0.00
                                0.00     -0.00   5180.22

     hartree stress (kbar)  16930.47      0.01      0.01
                                0.01  16930.48     -0.02
                                0.01     -0.02  17911.18

     exc-cor stress (kbar)  -6733.62      0.00      0.00
                                0.00  -6733.62     -0.00
                                0.00     -0.00  -6734.57

     corecor stress (kbar)   -248.20     -0.00     -0.00
                               -0.00   -248.20      0.00
                               -0.00      0.00   -248.21

     ewald   stress (kbar) -25807.84      0.01      0.01
                                0.01 -25807.83     -0.03
                                0.01     -0.03 -24829.84

     hubbard stress (kbar)      0.00      0.00      0.00
                                0.00      0.00      0.00
                                0.00      0.00      0.00

     london  stress (kbar)      0.00      0.00      0.00
                                0.00      0.00      0.00
                                0.00      0.00      0.00

     DFT-D3  stress (kbar)      0.00      0.00      0.00
                                0.00      0.00      0.00
                                0.00      0.00      0.00

     XDM     stress (kbar)      0.00      0.00      0.00
                                0.00      0.00      0.00
                                0.00      0.00      0.00

     dft-nl  stress (kbar)      0.00      0.00      0.00
                                0.00      0.00      0.00
                                0.00      0.00      0.00

     TS-vdW  stress (kbar)      0.00      0.00      0.00
                                0.00      0.00      0.00
                                0.00      0.00      0.00



     Writing output data file ZnO.save/
 
     init_run     :      0.80s CPU      2.40s WALL (       2 calls)
     electrons    :     66.38s CPU     72.85s WALL (      15 calls)
     update_pot   :      1.63s CPU      1.65s WALL (      13 calls)
     forces       :      1.97s CPU      2.08s WALL (      15 calls)
     stress       :      3.72s CPU      3.88s WALL (      15 calls)

     Called by init_run:
     wfcinit      :      0.46s CPU      1.49s WALL (       2 calls)
     wfcinit:atom :      0.00s CPU      0.01s WALL (     130 calls)
     wfcinit:wfcr :      0.43s CPU      1.43s WALL (     130 calls)
     potinit      :      0.11s CPU      0.17s WALL (       2 calls)
     hinit0       :      0.20s CPU      0.42s WALL (       2 calls)

     Called by electrons:
     c_bands      :     55.03s CPU     60.31s WALL (     101 calls)
     sum_band     :      8.13s CPU      8.79s WALL (     101 calls)
     v_of_rho     :      2.89s CPU      2.94s WALL (     104 calls)
     v_h          :      0.04s CPU      0.04s WALL (     104 calls)
     v_xc         :      3.66s CPU      3.70s WALL (     134 calls)
     newd         :      0.47s CPU      0.54s WALL (     104 calls)
     mix_rho      :      0.09s CPU      0.18s WALL (     101 calls)

     Called by c_bands:
     init_us_2    :      1.09s CPU      1.16s WALL (   15210 calls)
     cegterg      :     50.38s CPU     53.11s WALL (    6565 calls)

     Called by sum_band:
     sum_band:bec :      0.06s CPU      0.07s WALL (    6565 calls)
     addusdens    :      0.50s CPU      0.52s WALL (     101 calls)

     Called by *egterg:
     h_psi        :     31.26s CPU     32.37s WALL (   19640 calls)
     s_psi        :      1.17s CPU      1.21s WALL (   19640 calls)
     g_psi        :      0.07s CPU      0.07s WALL (   12945 calls)
     cdiaghg      :     10.57s CPU     12.44s WALL (   17885 calls)
     cegterg:over :      3.69s CPU      4.24s WALL (   12945 calls)
     cegterg:upda :      1.78s CPU      1.83s WALL (   12945 calls)
     cegterg:last :      0.98s CPU      1.00s WALL (    6630 calls)
     cdiaghg:chol :      0.57s CPU      0.98s WALL (   17885 calls)
     cdiaghg:inve :      0.23s CPU      0.34s WALL (   17885 calls)
     cdiaghg:para :      1.04s CPU      1.13s WALL (   35770 calls)

     Called by h_psi:
     h_psi:pot    :     31.17s CPU     32.27s WALL (   19640 calls)
     h_psi:calbec :      1.97s CPU      2.06s WALL (   19640 calls)
     vloc_psi     :     27.91s CPU     28.87s WALL (   19640 calls)
     add_vuspsi   :      1.23s CPU      1.28s WALL (   19640 calls)

     General routines
     calbec       :      3.23s CPU      3.36s WALL (   31080 calls)
     fft          :      0.64s CPU      0.74s WALL (    1722 calls)
     ffts         :      0.03s CPU      0.03s WALL (     205 calls)
     fftw         :     32.03s CPU     33.12s WALL (  650586 calls)
     interpolate  :      0.05s CPU      0.05s WALL (     104 calls)
 
     Parallel routines
     fft_scatt_xy :      4.34s CPU      4.48s WALL (  652513 calls)
     fft_scatt_yz :     17.34s CPU     17.95s WALL (  652513 calls)
 
     PWSCF        :   1m15.46s CPU   1m25.97s WALL

 
   This run was terminated on:  15:50: 7  16Jun2022            

=------------------------------------------------------------------------------=
   JOB DONE.
=------------------------------------------------------------------------------=
