
     Program PWSCF v.6.4.1 starts on 15Jul2022 at  2:10:44 

     This program is part of the open-source Quantum ESPRESSO suite
     for quantum simulation of materials; please cite
         "P. Giannozzi et al., J. Phys.:Condens. Matter 21 395502 (2009);
         "P. Giannozzi et al., J. Phys.:Condens. Matter 29 465901 (2017);
          URL http://www.quantum-espresso.org", 
     in publications or presentations arising from this work. More details at
     http://www.quantum-espresso.org/quote

     Parallel version (MPI), running on   128 processors

     MPI processes distributed on     2 nodes
     R & G space division:  proc/nbgrp/npool/nimage =     128
     Waiting for input...
     Reading input from standard input
Warning: card &IONS ignored
Warning: card   UPSCALE           = 100.D0, ignored
Warning: card / ignored
Warning: card &CELL ignored
Warning: card   CELL_DYNAMICS     = 'BFGS' ignored
Warning: card   PRESS_CONV_THR    = 0.5D0 ignored
Warning: card   CELL_DOFREE = 'ALL' ignored
Warning: card / ignored

     Current dimensions of program PWSCF are:
     Max number of different atomic species (ntypx) = 10
     Max number of k-points (npk) =  40000
     Max angular momentum in pseudopotentials (lmaxx) =  3

     Atomic positions and unit cell read from directory:
     ./temp/ZnO.save/
 

     Subspace diagonalization in iterative solution of the eigenvalue problem:
     one sub-group per band group will be used
     scalapack distributed-memory algorithm (size of sub-group:  8*  8 procs)

 
     Parallelization info
     --------------------
     sticks:   dense  smooth     PW     G-vecs:    dense   smooth      PW
     Min          91      43     12                 8576     2848     422
     Max          92      44     13                 8583     2857     429
     Sum       11705    5617   1573              1098131   365325   54361
 


     bravais-lattice index     =            0
     lattice parameter (alat)  =      18.4226  a.u.
     unit-cell volume          =    5815.2054 (a.u.)^3
     number of atoms/cell      =           72
     number of atomic types    =            3
     number of electrons       =       816.00
     number of Kohn-Sham states=          408
     kinetic-energy cutoff     =      60.0000  Ry
     charge density cutoff     =     500.0000  Ry
     Exchange-correlation      = SLA  PW   PSX  PSC ( 1  4 10  8 0 0)
     Using LIBXC version       =    4   3   4

     celldm(1)=  18.422634  celldm(2)=   0.000000  celldm(3)=   0.000000
     celldm(4)=   0.000000  celldm(5)=   0.000000  celldm(6)=   0.000000

     crystal axes: (cart. coord. in units of alat)
               a(1) = (   1.000000  -0.000928  -0.000030 )  
               a(2) = (  -0.500802   0.866030   0.000259 )  
               a(3) = (  -0.000032   0.000301   1.074510 )  

     reciprocal axes: (cart. coord. in units 2 pi/alat)
               b(1) = (  1.000537  0.578584 -0.000132 )  
               b(2) = (  0.001072  1.155315 -0.000324 )  
               b(3) = (  0.000027 -0.000262  0.930657 )  


     PseudoPot. # 1 for Zn read from file:
     ./GBRV_PBEsol/zn_pbesol_v1.uspp.F.UPF
     MD5 check sum: 7d8615e52efe7c1e2b1899de8658bae2
     Pseudo is Ultrasoft, Zval = 20.0
     Generated by new atomic code, or converted to UPF format
     Using radial grid of  943 points,  6 beta functions with: 
                l(1) =   0
                l(2) =   0
                l(3) =   1
                l(4) =   1
                l(5) =   2
                l(6) =   2
     Q(r) pseudized with  8 coefficients,  rinner =    1.100   1.100   1.100
                                                       1.100   1.100

     PseudoPot. # 2 for O  read from file:
     ./GBRV_PBEsol/o_pbesol_v1.2.uspp.F.UPF
     MD5 check sum: 501638753501ef6325af9037351f7734
     Pseudo is Ultrasoft + core correction, Zval =  6.0
     Generated by new atomic code, or converted to UPF format
     Using radial grid of  737 points,  5 beta functions with: 
                l(1) =   0
                l(2) =   0
                l(3) =   1
                l(4) =   1
                l(5) =   2
     Q(r) pseudized with  8 coefficients,  rinner =    0.900   0.900   0.900
                                                       0.900   0.900

     PseudoPot. # 3 for Mg read from file:
     ./GBRV_PBEsol/mg_pbesol_v1.4.uspp.F.UPF
     MD5 check sum: 4059f37963cf5867752dbf5ab2400678
     Pseudo is Ultrasoft, Zval = 10.0
     Generated by new atomic code, or converted to UPF format
     Using radial grid of  821 points,  7 beta functions with: 
                l(1) =   0
                l(2) =   0
                l(3) =   0
                l(4) =   1
                l(5) =   1
                l(6) =   2
                l(7) =   2
     Q(r) pseudized with  8 coefficients,  rinner =    1.200   1.200   1.200
                                                       1.200   1.200

     atomic species   valence    mass     pseudopotential
        Zn            20.00    65.38000     Zn( 1.00)
        O              6.00    15.99900     O ( 1.00)
        Mg            10.00    24.30500     Mg( 1.00)

     No symmetry found


                                    s                        frac. trans.

      isym =  1     identity                                     

 cryst.   s( 1) = (     1          0          0      )
                  (     0          1          0      )
                  (     0          0          1      )

 cart.    s( 1) = (  1.0000000  0.0000000 -0.0000000 )
                  (  0.0000000  1.0000000  0.0000000 )
                  ( -0.0000000 -0.0000000  1.0000000 )


   Cartesian axes

     site n.     atom                  positions (alat units)
         1           Zn  tau(   1) = (   0.1666711   0.0964455   0.2083013  )
         2           Zn  tau(   2) = (   0.1669425   0.0959430   0.7451379  )
         3           Zn  tau(   3) = (   0.0008310   0.3842737   0.2074871  )
         4           Zn  tau(   4) = (  -0.0011049   0.3860517   0.7451904  )
         5           Zn  tau(   5) = (  -0.1667797   0.6764906   0.2071420  )
         6           Zn  tau(   6) = (  -0.1679508   0.6720268   0.7443935  )
         7           Zn  tau(   7) = (   0.4990966   0.0950392   0.2088259  )
         8           Zn  tau(   8) = (   0.5000996   0.0964043   0.7465723  )
         9           Zn  tau(   9) = (   0.3329076   0.3841761   0.2067151  )
        10           Mg  tau(  10) = (   0.3332695   0.3827779   0.7462895  )
        11           Mg  tau(  11) = (   0.1644929   0.6753430   0.2078005  )
        12           Zn  tau(  12) = (   0.1668147   0.6719038   0.7432863  )
        13           Zn  tau(  13) = (   0.8334466   0.0950995   0.2075039  )
        14           Mg  tau(  14) = (   0.8320054   0.0946848   0.7471474  )
        15           Zn  tau(  15) = (   0.6649595   0.3833370   0.2073050  )
        16           Mg  tau(  16) = (   0.6663935   0.3843889   0.7462545  )
        17           Mg  tau(  17) = (   0.4992775   0.6730159   0.2067544  )
        18           Mg  tau(  18) = (   0.4980823   0.6715447   0.7450627  )
        19           Zn  tau(  19) = (  -0.0014106   0.1926657   0.4777991  )
        20           Zn  tau(  20) = (   0.0010300   0.1943165   1.0141501  )
        21           Zn  tau(  21) = (  -0.1676501   0.4814674   0.4754166  )
        22           Mg  tau(  22) = (  -0.1659878   0.4812100   1.0164686  )
        23           Mg  tau(  23) = (  -0.3343003   0.7699298   0.4763703  )
        24           Mg  tau(  24) = (  -0.3327591   0.7719578   1.0129009  )
        25           Zn  tau(  25) = (   0.3338320   0.1937075   0.4777401  )
        26           Zn  tau(  26) = (   0.3337812   0.1920752   1.0150517  )
        27           Mg  tau(  27) = (   0.1672220   0.4789887   0.4757122  )
        28           Mg  tau(  28) = (   0.1664274   0.4812746   1.0133631  )
        29           Mg  tau(  29) = (  -0.0007476   0.7706734   0.4795086  )
        30           Zn  tau(  30) = (   0.0001563   0.7690067   1.0129671  )
        31           Zn  tau(  31) = (   0.6669937   0.1928338   0.4764103  )
        32           Zn  tau(  32) = (   0.6653897   0.1917110   1.0137582  )
        33           Zn  tau(  33) = (   0.4991496   0.4794210   0.4758240  )
        34           Zn  tau(  34) = (   0.4998695   0.4810003   1.0120438  )
        35           Zn  tau(  35) = (   0.3326764   0.7693284   0.4753589  )
        36           Zn  tau(  36) = (   0.3317416   0.7679480   1.0127938  )
        37           O   tau(  37) = (   0.1666095   0.0966445   0.0044768  )
        38           O   tau(  38) = (   0.1664575   0.0963504   0.5407827  )
        39           O   tau(  39) = (   0.0005865   0.3856505   0.0038339  )
        40           O   tau(  40) = (  -0.0007623   0.3854903   0.5407732  )
        41           O   tau(  41) = (  -0.1674559   0.6739232   0.0030900  )
        42           O   tau(  42) = (  -0.1678157   0.6740626   0.5405346  )
        43           O   tau(  43) = (   0.4998836   0.0946469   0.0047654  )
        44           O   tau(  44) = (   0.5000775   0.0968770   0.5421220  )
        45           O   tau(  45) = (   0.3331128   0.3849408   0.0023160  )
        46           O   tau(  46) = (   0.3327402   0.3848093   0.5430700  )
        47           O   tau(  47) = (   0.1657306   0.6723850   0.0047255  )
        48           O   tau(  48) = (   0.1656572   0.6719525   0.5386669  )
        49           O   tau(  49) = (   0.8335321   0.0952482   0.0026383  )
        50           O   tau(  50) = (   0.8325924   0.0951137   0.5431118  )
        51           O   tau(  51) = (   0.6663431   0.3842225   0.0029795  )
        52           O   tau(  52) = (   0.6664851   0.3847292   0.5423203  )
        53           O   tau(  53) = (   0.5006939   0.6735676   0.0028703  )
        54           O   tau(  54) = (   0.4994617   0.6729102   0.5408716  )
        55           O   tau(  55) = (  -0.0003684   0.1924494   0.2733510  )
        56           O   tau(  56) = (  -0.0005291   0.1923766   0.8095574  )
        57           O   tau(  57) = (  -0.1672018   0.4816962   0.2704925  )
        58           O   tau(  58) = (  -0.1675969   0.4807039   0.8125606  )
        59           O   tau(  59) = (  -0.3348394   0.7697491   0.2725553  )
        60           O   tau(  60) = (  -0.3351437   0.7689283   0.8091432  )
        61           O   tau(  61) = (   0.3332002   0.1926146   0.2731992  )
        62           O   tau(  62) = (   0.3331404   0.1912020   0.8110081  )
        63           O   tau(  63) = (   0.1668244   0.4822869   0.2718960  )
        64           O   tau(  64) = (   0.1670982   0.4799275   0.8096639  )
        65           O   tau(  65) = (  -0.0007232   0.7698634   0.2757995  )
        66           O   tau(  66) = (  -0.0003008   0.7686192   0.8082253  )
        67           O   tau(  67) = (   0.6666785   0.1913884   0.2724672  )
        68           O   tau(  68) = (   0.6668139   0.1924064   0.8099437  )
        69           O   tau(  69) = (   0.4993186   0.4808291   0.2718710  )
        70           O   tau(  70) = (   0.4994757   0.4798058   0.8080745  )
        71           O   tau(  71) = (   0.3326990   0.7686373   0.2711541  )
        72           O   tau(  72) = (   0.3326735   0.7684740   0.8090044  )

   Crystallographic axes

     site n.     atom                  positions (cryst. coord.)
         1           Zn  tau(   1) = (  0.2225349  0.1115361  0.1938363  )
         2           Zn  tau(   2) = (  0.2224447  0.1107818  0.6934473  )
         3           Zn  tau(   3) = (  0.2231385  0.4438906  0.1929986  )
         4           Zn  tau(   4) = (  0.2221593  0.4457684  0.6934155  )
         5           Zn  tau(   5) = (  0.2245099  0.7813135  0.1925963  )
         6           Zn  tau(   6) = (  0.2206844  0.7759810  0.6925944  )
         7           Zn  tau(   7) = (  0.5543253  0.1102676  0.1943340  )
         8           Zn  tau(   8) = (  0.5560475  0.1116715  0.6947912  )
         9           Zn  tau(   9) = (  0.5553373  0.4441342  0.1922893  )
        10           Mg  tau(  10) = (  0.5548191  0.4423444  0.6944484  )
        11           Mg  tau(  11) = (  0.5552965  0.7803427  0.1932185  )
        12           Zn  tau(  12) = (  0.5555588  0.7761982  0.6915731  )
        13           Zn  tau(  13) = (  0.8888901  0.1106962  0.1931129  )
        14           Mg  tau(  14) = (  0.8871368  0.1100407  0.6953360  )
        15           Zn  tau(  15) = (  0.8870821  0.4435206  0.1928475  )
        16           Mg  tau(  16) = (  0.8890542  0.4445628  0.6944245  )
        17           Mg  tau(  17) = (  0.8889147  0.7780134  0.1922547  )
        18           Mg  tau(  18) = (  0.8867964  0.7761380  0.6932355  )
        19           Zn  tau(  19) = (  0.1099987  0.2224331  0.4446166  )
        20           Zn  tau(  20) = (  0.1133248  0.2241691  0.9437751  )
        21           Zn  tau(  21) = (  0.1107662  0.5559124  0.4423191  )
        22           Mg  tau(  22) = (  0.1122090  0.5554415  0.9458531  )
        23           Mg  tau(  23) = (  0.1109260  0.8889982  0.4431265  )
        24           Mg  tau(  24) = (  0.1135704  0.8911689  0.9424520  )
        25           Zn  tau(  25) = (  0.4460242  0.2239962  0.4445706  )
        26           Zn  tau(  26) = (  0.4449579  0.2219362  0.9446238  )
        27           Mg  tau(  27) = (  0.4443840  0.5534077  0.4426040  )
        28           Mg  tau(  28) = (  0.4448405  0.5558736  0.9429720  )
        29           Mg  tau(  29) = (  0.4450877  0.8902140  0.4460560  )
        30           Zn  tau(  30) = (  0.4449573  0.8881165  0.9425235  )
        31           Zn  tau(  31) = (  0.7788597  0.2233445  0.4433423  )
        32           Zn  tau(  32) = (  0.7765340  0.2218713  0.9434292  )
        33           Zn  tau(  33) = (  0.7767401  0.5542630  0.4427169  )
        34           Zn  tau(  34) = (  0.7783033  0.5559146  0.9417533  )
        35           Zn  tau(  35) = (  0.7779133  0.8890189  0.4422036  )
        36           Zn  tau(  36) = (  0.7761083  0.8872489  0.9423715  )
        37           O   tau(  37) = (  0.2226154  0.1118320  0.0041456  )
        38           O   tau(  38) = (  0.2222222  0.1113183  0.5032626  )
        39           O   tau(  39) = (  0.2237175  0.4455470  0.0034670  )
        40           O   tau(  40) = (  0.2222042  0.4451865  0.5031733  )
        41           O   tau(  41) = (  0.2223748  0.7784127  0.0026945  )
        42           O   tau(  42) = (  0.2220244  0.7783992  0.5028711  )
        43           O   tau(  43) = (  0.5549128  0.1098815  0.0044238  )
        44           O   tau(  44) = (  0.5563260  0.1122839  0.5045180  )
        45           O   tau(  45) = (  0.5560121  0.4450842  0.0020636  )
        46           O   tau(  46) = (  0.5554916  0.4447566  0.5053202  )
        47           O   tau(  47) = (  0.5548502  0.7769924  0.0042261  )
        48           O   tau(  48) = (  0.5544559  0.7763195  0.5011426  )
        49           O   tau(  49) = (  0.8890888  0.1109345  0.0024532  )
        50           O   tau(  50) = (  0.8879993  0.1106029  0.5054487  )
        51           O   tau(  51) = (  0.8890057  0.4446113  0.0026904  )
        52           O   tau(  52) = (  0.8893697  0.4450221  0.5046316  )
        53           O   tau(  53) = (  0.8906780  0.7787184  0.0025084  )
        54           O   tau(  54) = (  0.8889936  0.7777832  0.5032033  )
        55           O   tau(  55) = (  0.1109434  0.2222506  0.2543456  )
        56           O   tau(  56) = (  0.1106695  0.2219926  0.7533699  )
        57           O   tau(  57) = (  0.1113742  0.5562437  0.2516049  )
        58           O   tau(  58) = (  0.1103331  0.5549212  0.7560848  )
        59           O   tau(  59) = (  0.1103091  0.8888550  0.2534446  )
        60           O   tau(  60) = (  0.1094587  0.8877324  0.7528242  )
        61           O   tau(  61) = (  0.4447869  0.2227992  0.2542134  )
        62           O   tau(  62) = (  0.4438385  0.2209927  0.7547294  )
        63           O   tau(  63) = (  0.4459216  0.5572838  0.2529201  )
        64           O   tau(  64) = (  0.4447593  0.5543840  0.7533982  )
        65           O   tau(  65) = (  0.4446705  0.8893443  0.2564729  )
        66           O   tau(  66) = (  0.4443028  0.8877346  0.7519791  )
        67           O   tau(  67) = (  0.7777350  0.2217403  0.2535416  )
        68           O   tau(  68) = (  0.7783884  0.2227424  0.7537476  )
        69           O   tau(  69) = (  0.7777509  0.5559561  0.2529063  )
        70           O   tau(  70) = (  0.7772451  0.5546003  0.7519282  )
        71           O   tau(  71) = (  0.7775631  0.8882867  0.2521591  )
        72           O   tau(  72) = (  0.7773720  0.8879237  0.7527134  )

     number of k points=    80
                       cart. coord. in units 2pi/alat
        k(    1) = (   0.0000000   0.0000000   0.0000000), wk =   0.0156250
        k(    2) = (   0.0000039  -0.0000374   0.1329510), wk =   0.0156250
        k(    3) = (   0.0000078  -0.0000749   0.2659020), wk =   0.0156250
        k(    4) = (   0.0000117  -0.0001123   0.3988530), wk =   0.0156250
        k(    5) = (   0.0000156  -0.0001498   0.5318041), wk =   0.0156250
        k(    6) = (   0.0000195  -0.0001872   0.6647551), wk =   0.0156250
        k(    7) = (   0.0000234  -0.0002247   0.7977061), wk =   0.0156250
        k(    8) = (   0.0000273  -0.0002621   0.9306571), wk =   0.0156250
        k(    9) = (   0.0002681   0.2888286  -0.0000810), wk =   0.0312500
        k(   10) = (   0.0002720   0.2887912   0.1328700), wk =   0.0312500
        k(   11) = (   0.0002759   0.2887537   0.2658210), wk =   0.0312500
        k(   12) = (   0.0002798   0.2887163   0.3987720), wk =   0.0312500
        k(   13) = (   0.0002837   0.2886789   0.5317230), wk =   0.0312500
        k(   14) = (   0.0002876   0.2886414   0.6646740), wk =   0.0312500
        k(   15) = (   0.0002915   0.2886040   0.7976251), wk =   0.0312500
        k(   16) = (   0.0002954   0.2885665   0.9305761), wk =   0.0312500
        k(   17) = (  -0.0005361  -0.5776573   0.0001621), wk =   0.0156250
        k(   18) = (  -0.0005322  -0.5776947   0.1331131), wk =   0.0156250
        k(   19) = (  -0.0005283  -0.5777322   0.2660641), wk =   0.0156250
        k(   20) = (  -0.0005244  -0.5777696   0.3990151), wk =   0.0156250
        k(   21) = (  -0.0005205  -0.5778071   0.5319661), wk =   0.0156250
        k(   22) = (  -0.0005166  -0.5778445   0.6649171), wk =   0.0156250
        k(   23) = (  -0.0005127  -0.5778820   0.7978682), wk =   0.0156250
        k(   24) = (  -0.0005088  -0.5779194   0.9308192), wk =   0.0156250
        k(   25) = (   0.2501344   0.1446460  -0.0000331), wk =   0.0312500
        k(   26) = (   0.2501383   0.1446085   0.1329179), wk =   0.0312500
        k(   27) = (   0.2501422   0.1445711   0.2658690), wk =   0.0312500
        k(   28) = (   0.2501461   0.1445336   0.3988200), wk =   0.0312500
        k(   29) = (   0.2501500   0.1444962   0.5317710), wk =   0.0312500
        k(   30) = (   0.2501539   0.1444587   0.6647220), wk =   0.0312500
        k(   31) = (   0.2501578   0.1444213   0.7976730), wk =   0.0312500
        k(   32) = (   0.2501617   0.1443839   0.9306240), wk =   0.0312500
        k(   33) = (   0.2504024   0.4334746  -0.0001141), wk =   0.0312500
        k(   34) = (   0.2504063   0.4334372   0.1328369), wk =   0.0312500
        k(   35) = (   0.2504102   0.4333997   0.2657879), wk =   0.0312500
        k(   36) = (   0.2504141   0.4333623   0.3987389), wk =   0.0312500
        k(   37) = (   0.2504180   0.4333248   0.5316900), wk =   0.0312500
        k(   38) = (   0.2504219   0.4332874   0.6646410), wk =   0.0312500
        k(   39) = (   0.2504258   0.4332499   0.7975920), wk =   0.0312500
        k(   40) = (   0.2504297   0.4332125   0.9305430), wk =   0.0312500
        k(   41) = (   0.2495982  -0.4330113   0.0001290), wk =   0.0312500
        k(   42) = (   0.2496021  -0.4330488   0.1330800), wk =   0.0312500
        k(   43) = (   0.2496060  -0.4330862   0.2660310), wk =   0.0312500
        k(   44) = (   0.2496099  -0.4331236   0.3989820), wk =   0.0312500
        k(   45) = (   0.2496138  -0.4331611   0.5319331), wk =   0.0312500
        k(   46) = (   0.2496178  -0.4331985   0.6648841), wk =   0.0312500
        k(   47) = (   0.2496217  -0.4332360   0.7978351), wk =   0.0312500
        k(   48) = (   0.2496256  -0.4332734   0.9307861), wk =   0.0312500
        k(   49) = (   0.2498663  -0.1441827   0.0000480), wk =   0.0312500
        k(   50) = (   0.2498702  -0.1442201   0.1329990), wk =   0.0312500
        k(   51) = (   0.2498741  -0.1442576   0.2659500), wk =   0.0312500
        k(   52) = (   0.2498780  -0.1442950   0.3989010), wk =   0.0312500
        k(   53) = (   0.2498819  -0.1443325   0.5318520), wk =   0.0312500
        k(   54) = (   0.2498858  -0.1443699   0.6648030), wk =   0.0312500
        k(   55) = (   0.2498897  -0.1444073   0.7977541), wk =   0.0312500
        k(   56) = (   0.2498936  -0.1444448   0.9307051), wk =   0.0312500
        k(   57) = (  -0.5002687  -0.2892920   0.0000661), wk =   0.0156250
        k(   58) = (  -0.5002648  -0.2893294   0.1330172), wk =   0.0156250
        k(   59) = (  -0.5002609  -0.2893669   0.2659682), wk =   0.0156250
        k(   60) = (  -0.5002570  -0.2894043   0.3989192), wk =   0.0156250
        k(   61) = (  -0.5002531  -0.2894418   0.5318702), wk =   0.0156250
        k(   62) = (  -0.5002492  -0.2894792   0.6648212), wk =   0.0156250
        k(   63) = (  -0.5002453  -0.2895166   0.7977722), wk =   0.0156250
        k(   64) = (  -0.5002414  -0.2895541   0.9307233), wk =   0.0156250
        k(   65) = (  -0.5000006  -0.0004633  -0.0000149), wk =   0.0312500
        k(   66) = (  -0.4999967  -0.0005008   0.1329361), wk =   0.0312500
        k(   67) = (  -0.4999928  -0.0005382   0.2658871), wk =   0.0312500
        k(   68) = (  -0.4999889  -0.0005757   0.3988382), wk =   0.0312500
        k(   69) = (  -0.4999850  -0.0006131   0.5317892), wk =   0.0312500
        k(   70) = (  -0.4999811  -0.0006506   0.6647402), wk =   0.0312500
        k(   71) = (  -0.4999772  -0.0006880   0.7976912), wk =   0.0312500
        k(   72) = (  -0.4999733  -0.0007254   0.9306422), wk =   0.0312500
        k(   73) = (  -0.5008048  -0.8669492   0.0002282), wk =   0.0156250
        k(   74) = (  -0.5008009  -0.8669867   0.1331792), wk =   0.0156250
        k(   75) = (  -0.5007970  -0.8670241   0.2661302), wk =   0.0156250
        k(   76) = (  -0.5007931  -0.8670616   0.3990813), wk =   0.0156250
        k(   77) = (  -0.5007892  -0.8670990   0.5320323), wk =   0.0156250
        k(   78) = (  -0.5007853  -0.8671365   0.6649833), wk =   0.0156250
        k(   79) = (  -0.5007814  -0.8671739   0.7979343), wk =   0.0156250
        k(   80) = (  -0.5007775  -0.8672114   0.9308853), wk =   0.0156250

                       cryst. coord.
        k(    1) = (   0.0000000   0.0000000   0.0000000), wk =   0.0156250
        k(    2) = (   0.0000000  -0.0000000   0.1428571), wk =   0.0156250
        k(    3) = (   0.0000000  -0.0000000   0.2857143), wk =   0.0156250
        k(    4) = (  -0.0000000   0.0000000   0.4285714), wk =   0.0156250
        k(    5) = (   0.0000000  -0.0000000   0.5714286), wk =   0.0156250
        k(    6) = (   0.0000000   0.0000000   0.7142857), wk =   0.0156250
        k(    7) = (  -0.0000000   0.0000000   0.8571429), wk =   0.0156250
        k(    8) = (   0.0000000  -0.0000000   1.0000000), wk =   0.0156250
        k(    9) = (   0.0000000   0.2500000   0.0000000), wk =   0.0312500
        k(   10) = (   0.0000000   0.2500000   0.1428571), wk =   0.0312500
        k(   11) = (   0.0000000   0.2500000   0.2857143), wk =   0.0312500
        k(   12) = (   0.0000000   0.2500000   0.4285714), wk =   0.0312500
        k(   13) = (   0.0000000   0.2500000   0.5714286), wk =   0.0312500
        k(   14) = (   0.0000000   0.2500000   0.7142857), wk =   0.0312500
        k(   15) = (   0.0000000   0.2500000   0.8571429), wk =   0.0312500
        k(   16) = (   0.0000000   0.2500000   1.0000000), wk =   0.0312500
        k(   17) = (  -0.0000000  -0.5000000  -0.0000000), wk =   0.0156250
        k(   18) = (  -0.0000000  -0.5000000   0.1428571), wk =   0.0156250
        k(   19) = (  -0.0000000  -0.5000000   0.2857143), wk =   0.0156250
        k(   20) = (  -0.0000000  -0.5000000   0.4285714), wk =   0.0156250
        k(   21) = (  -0.0000000  -0.5000000   0.5714286), wk =   0.0156250
        k(   22) = (  -0.0000000  -0.5000000   0.7142857), wk =   0.0156250
        k(   23) = (  -0.0000000  -0.5000000   0.8571429), wk =   0.0156250
        k(   24) = (  -0.0000000  -0.5000000   1.0000000), wk =   0.0156250
        k(   25) = (   0.2500000  -0.0000000   0.0000000), wk =   0.0312500
        k(   26) = (   0.2500000   0.0000000   0.1428571), wk =   0.0312500
        k(   27) = (   0.2500000   0.0000000   0.2857143), wk =   0.0312500
        k(   28) = (   0.2500000   0.0000000   0.4285714), wk =   0.0312500
        k(   29) = (   0.2500000   0.0000000   0.5714286), wk =   0.0312500
        k(   30) = (   0.2500000   0.0000000   0.7142857), wk =   0.0312500
        k(   31) = (   0.2500000  -0.0000000   0.8571429), wk =   0.0312500
        k(   32) = (   0.2500000   0.0000000   1.0000000), wk =   0.0312500
        k(   33) = (   0.2500000   0.2500000   0.0000000), wk =   0.0312500
        k(   34) = (   0.2500000   0.2500000   0.1428571), wk =   0.0312500
        k(   35) = (   0.2500000   0.2500000   0.2857143), wk =   0.0312500
        k(   36) = (   0.2500000   0.2500000   0.4285714), wk =   0.0312500
        k(   37) = (   0.2500000   0.2500000   0.5714286), wk =   0.0312500
        k(   38) = (   0.2500000   0.2500000   0.7142857), wk =   0.0312500
        k(   39) = (   0.2500000   0.2500000   0.8571429), wk =   0.0312500
        k(   40) = (   0.2500000   0.2500000   1.0000000), wk =   0.0312500
        k(   41) = (   0.2500000  -0.5000000  -0.0000000), wk =   0.0312500
        k(   42) = (   0.2500000  -0.5000000   0.1428571), wk =   0.0312500
        k(   43) = (   0.2500000  -0.5000000   0.2857143), wk =   0.0312500
        k(   44) = (   0.2500000  -0.5000000   0.4285714), wk =   0.0312500
        k(   45) = (   0.2500000  -0.5000000   0.5714286), wk =   0.0312500
        k(   46) = (   0.2500000  -0.5000000   0.7142857), wk =   0.0312500
        k(   47) = (   0.2500000  -0.5000000   0.8571429), wk =   0.0312500
        k(   48) = (   0.2500000  -0.5000000   1.0000000), wk =   0.0312500
        k(   49) = (   0.2500000  -0.2500000  -0.0000000), wk =   0.0312500
        k(   50) = (   0.2500000  -0.2500000   0.1428571), wk =   0.0312500
        k(   51) = (   0.2500000  -0.2500000   0.2857143), wk =   0.0312500
        k(   52) = (   0.2500000  -0.2500000   0.4285714), wk =   0.0312500
        k(   53) = (   0.2500000  -0.2500000   0.5714286), wk =   0.0312500
        k(   54) = (   0.2500000  -0.2500000   0.7142857), wk =   0.0312500
        k(   55) = (   0.2500000  -0.2500000   0.8571429), wk =   0.0312500
        k(   56) = (   0.2500000  -0.2500000   1.0000000), wk =   0.0312500
        k(   57) = (  -0.5000000   0.0000000  -0.0000000), wk =   0.0156250
        k(   58) = (  -0.5000000   0.0000000   0.1428571), wk =   0.0156250
        k(   59) = (  -0.5000000  -0.0000000   0.2857143), wk =   0.0156250
        k(   60) = (  -0.5000000   0.0000000   0.4285714), wk =   0.0156250
        k(   61) = (  -0.5000000  -0.0000000   0.5714286), wk =   0.0156250
        k(   62) = (  -0.5000000  -0.0000000   0.7142857), wk =   0.0156250
        k(   63) = (  -0.5000000   0.0000000   0.8571429), wk =   0.0156250
        k(   64) = (  -0.5000000  -0.0000000   1.0000000), wk =   0.0156250
        k(   65) = (  -0.5000000   0.2500000   0.0000000), wk =   0.0312500
        k(   66) = (  -0.5000000   0.2500000   0.1428571), wk =   0.0312500
        k(   67) = (  -0.5000000   0.2500000   0.2857143), wk =   0.0312500
        k(   68) = (  -0.5000000   0.2500000   0.4285714), wk =   0.0312500
        k(   69) = (  -0.5000000   0.2500000   0.5714286), wk =   0.0312500
        k(   70) = (  -0.5000000   0.2500000   0.7142857), wk =   0.0312500
        k(   71) = (  -0.5000000   0.2500000   0.8571429), wk =   0.0312500
        k(   72) = (  -0.5000000   0.2500000   1.0000000), wk =   0.0312500
        k(   73) = (  -0.5000000  -0.5000000  -0.0000000), wk =   0.0156250
        k(   74) = (  -0.5000000  -0.5000000   0.1428571), wk =   0.0156250
        k(   75) = (  -0.5000000  -0.5000000   0.2857143), wk =   0.0156250
        k(   76) = (  -0.5000000  -0.5000000   0.4285714), wk =   0.0156250
        k(   77) = (  -0.5000000  -0.5000000   0.5714286), wk =   0.0156250
        k(   78) = (  -0.5000000  -0.5000000   0.7142857), wk =   0.0156250
        k(   79) = (  -0.5000000  -0.5000000   0.8571429), wk =   0.0156250
        k(   80) = (  -0.5000000  -0.5000000   1.0000000), wk =   0.0156250

     Dense  grid:  1098131 G-vectors     FFT dimensions: ( 135, 135, 144)

     Smooth grid:   365325 G-vectors     FFT dimensions: (  96,  96, 100)

     Dynamical RAM for                 wfc:       2.22 MB

     Dynamical RAM for     wfc (w. buffer):     179.52 MB

     Dynamical RAM for           str. fact:       0.39 MB

     Dynamical RAM for           local pot:       0.00 MB

     Dynamical RAM for          nlocal pot:       6.13 MB

     Dynamical RAM for                qrad:      21.02 MB

     Dynamical RAM for          rho,v,vnew:       1.23 MB

     Dynamical RAM for           G-vectors:       0.51 MB

     Dynamical RAM for          h,s,v(r/c):       1.91 MB

     Dynamical RAM for          <psi|beta>:       7.02 MB

     Dynamical RAM for                 psi:       8.87 MB

     Dynamical RAM for                hpsi:       8.87 MB

     Dynamical RAM for                spsi:       8.87 MB

     Dynamical RAM for      wfcinit/wfcrot:      11.70 MB

     Dynamical RAM for           addusdens:      31.56 MB

     Estimated static dynamical RAM per process >     210.72 MB

     Estimated max dynamical RAM per process >     246.24 MB

     Estimated total dynamical RAM >      30.78 GB

     Check: negative core charge=   -0.000002

     The potential is recalculated from file :
     ./temp/ZnO.save/charge-density

     Starting wfcs are  516 randomized atomic wfcs

     Band Structure Calculation
     Davidson diagonalization with overlap

     Computing kpt #:     1
     total cpu time spent up to now is       19.6 secs

     Computing kpt #:     2
     total cpu time spent up to now is       33.1 secs

     Computing kpt #:     3
     total cpu time spent up to now is       46.5 secs

     Computing kpt #:     4
     total cpu time spent up to now is       59.7 secs

     Computing kpt #:     5
     total cpu time spent up to now is       73.0 secs

     Computing kpt #:     6
     total cpu time spent up to now is       86.3 secs

     Computing kpt #:     7
     total cpu time spent up to now is       99.8 secs

     Computing kpt #:     8
     total cpu time spent up to now is      113.1 secs

     Computing kpt #:     9
     total cpu time spent up to now is      126.4 secs

     Computing kpt #:    10
     total cpu time spent up to now is      139.8 secs

     Computing kpt #:    11
     total cpu time spent up to now is      153.0 secs

     Computing kpt #:    12
     total cpu time spent up to now is      166.2 secs

     Computing kpt #:    13
     total cpu time spent up to now is      179.5 secs

     Computing kpt #:    14
     total cpu time spent up to now is      192.8 secs

     Computing kpt #:    15
     total cpu time spent up to now is      206.1 secs

     Computing kpt #:    16
     total cpu time spent up to now is      219.4 secs

     Computing kpt #:    17
     total cpu time spent up to now is      232.8 secs

     Computing kpt #:    18
     total cpu time spent up to now is      246.1 secs

     Computing kpt #:    19
     total cpu time spent up to now is      259.4 secs

     Computing kpt #:    20
     total cpu time spent up to now is      272.7 secs

     Computing kpt #:    21
     total cpu time spent up to now is      285.9 secs

     Computing kpt #:    22
     total cpu time spent up to now is      299.2 secs

     Computing kpt #:    23
     total cpu time spent up to now is      312.5 secs

     Computing kpt #:    24
     total cpu time spent up to now is      325.8 secs

     Computing kpt #:    25
     total cpu time spent up to now is      339.1 secs

     Computing kpt #:    26
     total cpu time spent up to now is      352.5 secs

     Computing kpt #:    27
     total cpu time spent up to now is      365.8 secs

     Computing kpt #:    28
     total cpu time spent up to now is      379.1 secs

     Computing kpt #:    29
     total cpu time spent up to now is      392.4 secs

     Computing kpt #:    30
     total cpu time spent up to now is      405.7 secs

     Computing kpt #:    31
     total cpu time spent up to now is      419.0 secs

     Computing kpt #:    32
     total cpu time spent up to now is      432.4 secs

     Computing kpt #:    33
     total cpu time spent up to now is      445.6 secs

     Computing kpt #:    34
     total cpu time spent up to now is      458.9 secs

     Computing kpt #:    35
     total cpu time spent up to now is      472.2 secs

     Computing kpt #:    36
     total cpu time spent up to now is      485.6 secs

     Computing kpt #:    37
     total cpu time spent up to now is      498.8 secs

     Computing kpt #:    38
     total cpu time spent up to now is      512.1 secs

     Computing kpt #:    39
     total cpu time spent up to now is      525.4 secs

     Computing kpt #:    40
     total cpu time spent up to now is      538.8 secs

     Computing kpt #:    41
     total cpu time spent up to now is      552.0 secs

     Computing kpt #:    42
     total cpu time spent up to now is      565.3 secs

     Computing kpt #:    43
     total cpu time spent up to now is      578.6 secs

     Computing kpt #:    44
     total cpu time spent up to now is      591.9 secs

     Computing kpt #:    45
     total cpu time spent up to now is      605.2 secs

     Computing kpt #:    46
     total cpu time spent up to now is      618.5 secs

     Computing kpt #:    47
     total cpu time spent up to now is      631.8 secs

     Computing kpt #:    48
     total cpu time spent up to now is      645.1 secs

     Computing kpt #:    49
     total cpu time spent up to now is      658.7 secs

     Computing kpt #:    50
     total cpu time spent up to now is      672.0 secs

     Computing kpt #:    51
     total cpu time spent up to now is      685.3 secs

     Computing kpt #:    52
     total cpu time spent up to now is      698.5 secs

     Computing kpt #:    53
     total cpu time spent up to now is      711.9 secs

     Computing kpt #:    54
     total cpu time spent up to now is      725.2 secs

     Computing kpt #:    55
     total cpu time spent up to now is      738.5 secs

     Computing kpt #:    56
     total cpu time spent up to now is      752.0 secs

     Computing kpt #:    57
     total cpu time spent up to now is      765.2 secs

     Computing kpt #:    58
     total cpu time spent up to now is      778.5 secs

     Computing kpt #:    59
     total cpu time spent up to now is      791.7 secs

     Computing kpt #:    60
     total cpu time spent up to now is      804.9 secs

     Computing kpt #:    61
     total cpu time spent up to now is      818.2 secs

     Computing kpt #:    62
     total cpu time spent up to now is      831.4 secs

     Computing kpt #:    63
     total cpu time spent up to now is      844.7 secs

     Computing kpt #:    64
     total cpu time spent up to now is      857.9 secs

     Computing kpt #:    65
     total cpu time spent up to now is      871.2 secs

     Computing kpt #:    66
     total cpu time spent up to now is      884.4 secs

     Computing kpt #:    67
     total cpu time spent up to now is      897.6 secs

     Computing kpt #:    68
     total cpu time spent up to now is      910.8 secs

     Computing kpt #:    69
     total cpu time spent up to now is      924.0 secs

     Computing kpt #:    70
     total cpu time spent up to now is      937.3 secs

     Computing kpt #:    71
     total cpu time spent up to now is      950.5 secs

     Computing kpt #:    72
     total cpu time spent up to now is      963.7 secs

     Computing kpt #:    73
     total cpu time spent up to now is      976.9 secs

     Computing kpt #:    74
     total cpu time spent up to now is      990.2 secs

     Computing kpt #:    75
     total cpu time spent up to now is     1003.5 secs

     Computing kpt #:    76
     total cpu time spent up to now is     1016.7 secs

     Computing kpt #:    77
     total cpu time spent up to now is     1029.9 secs

     Computing kpt #:    78
     total cpu time spent up to now is     1043.1 secs

     Computing kpt #:    79
     total cpu time spent up to now is     1056.4 secs

     Computing kpt #:    80
     total cpu time spent up to now is     1069.7 secs

     ethr =  1.23E-12,  avg # of iterations = 12.4

     total cpu time spent up to now is     1069.7 secs

     End of band structure calculation

          k = 0.0000 0.0000 0.0000 ( 45687 PWs)   bands (ev):

  -115.5355-115.5336-115.5270-115.5269-115.5250-115.5239-115.5233-115.5204
  -115.5194-115.5191-115.5164-115.5157-115.5146-115.5126-115.5123-115.5094
  -115.5089-115.5081-115.5080-115.5064-115.5061-115.5057-115.5009-115.5009
   -69.8949 -69.8924 -69.8912 -69.8905 -69.8879 -69.8871 -69.8857 -69.8846
   -69.8838 -69.8836 -69.8830 -69.8828 -69.8823 -69.8816 -69.8802 -69.8795
   -69.8795 -69.8790 -69.8778 -69.8775 -69.8773 -69.8772 -69.8758 -69.8754
   -69.8752 -69.8751 -69.8748 -69.8737 -69.8737 -69.8736 -69.8734 -69.8733
   -69.8731 -69.8729 -69.8722 -69.8722 -69.8718 -69.8714 -69.8694 -69.8692
   -69.8684 -69.8679 -69.8675 -69.8673 -69.8671 -69.8666 -69.8660 -69.8655
   -69.8654 -69.8649 -69.8646 -69.8645 -69.8644 -69.8641 -69.8639 -69.8635
   -69.8634 -69.8628 -69.8627 -69.8623 -69.8622 -69.8615 -69.8608 -69.8607
   -69.8604 -69.8596 -69.8594 -69.8585 -69.8577 -69.8565 -69.8546 -69.8538
   -65.0132 -65.0089 -65.0059 -65.0053 -65.0008 -64.9948 -64.9894 -64.9826
   -64.9799 -64.9784 -64.9776 -64.9734 -32.0043 -31.9990 -31.9986 -31.9971
   -31.9962 -31.9946 -31.9941 -31.9930 -31.9918 -31.9916 -31.9894 -31.9892
   -31.9879 -31.9845 -31.9843 -31.9834 -31.9823 -31.9776 -31.9770 -31.9743
   -31.9741 -31.9731 -31.9714 -31.9686 -31.9658 -31.9650 -31.9646 -31.9644
   -31.9637 -31.9629 -31.9623 -31.9620 -31.9592 -31.9570 -31.9543 -31.9522
   -10.1423  -9.8217  -9.7899  -9.7339  -9.7181  -9.6814  -9.6393  -9.5914
    -9.5402  -9.5313  -9.5151  -9.4884  -9.4750  -9.4606  -9.4451  -9.4104
    -9.3773  -9.3711  -9.3599  -9.3271  -9.3205  -9.3016  -9.2874  -9.2516
    -9.2241  -9.2197  -9.2099  -9.1885  -9.1730  -9.1617  -9.1404  -9.1337
    -9.1232  -9.0922  -9.0840  -8.9977   1.6313   1.6605   1.6698   1.6738
     1.7069   1.7154   1.7534   1.7815   1.8012   1.8133   1.8303   1.8371
     1.8456   1.9029   1.9083   1.9231   1.9467   1.9722   1.9972   2.0082
     2.0195   2.0462   2.0558   2.0593   2.0886   2.1078   2.1185   2.1250
     2.1467   2.1637   2.1703   2.1744   2.1915   2.2028   2.2180   2.2280
     2.2355   2.2379   2.2554   2.2641   2.2717   2.2780   2.2856   2.2997
     2.3051   2.3134   2.3249   2.3293   2.3391   2.3477   2.3537   2.3729
     2.3869   2.3974   2.4068   2.4266   2.4599   2.4819   2.4920   2.5157
     2.5362   2.5549   2.5583   2.5804   2.5969   2.6071   2.6196   2.6428
     2.6600   2.6764   2.6852   2.7118   2.7290   2.7393   2.7514   2.7772
     2.7916   2.8088   2.8221   2.8270   2.8334   2.8564   2.8825   2.8997
     2.9075   2.9154   2.9330   2.9605   2.9704   2.9750   2.9798   3.0096
     3.0184   3.0241   3.0389   3.0505   3.0713   3.0806   3.0924   3.1071
     3.1171   3.1288   3.1382   3.1408   3.1498   3.1586   3.1724   3.1729
     3.1778   3.1848   3.1959   3.2032   3.2288   3.2322   3.2442   3.2488
     3.2752   3.3004   3.3143   3.3600   3.3870   3.4922   3.5291   3.5481
     3.5852   3.6345   3.6406   3.6785   3.7262   3.7404   3.7647   3.7877
     3.8354   3.8553   3.8566   3.8888   3.9345   3.9738   4.0305   4.1202
     4.1252   4.1602   4.1807   4.2093   4.2340   4.3286   4.3388   4.3791
     4.3898   4.4445   4.5003   4.5400   4.5559   4.6110   4.6350   4.7534
     4.7901   4.8116   4.8427   4.9120   4.9404   5.0320   5.0583   5.0910
     5.1692   5.2204   5.3421   5.4260   5.4626   5.4805   5.4907   5.5067
     5.5652   5.6325   5.6499   5.6827   5.7039   5.7172   5.7202   5.7422
     5.7701   5.7904   5.8659   5.9013   5.9193   5.9496   5.9817   6.0151
     6.0761   6.0817   6.1229   6.1349   6.1542   6.1861   6.2003   6.2290
     6.2314   6.2390   6.2568   6.2783   6.2823   6.3132   6.3288   6.3347
     6.3515   6.3729   6.3830   6.3876   6.4917   6.5289   6.5696   6.5946
     6.6054   6.6345   6.6492   6.6663   6.6844   6.7648   6.8051   6.8314
     6.8936   6.9431   6.9525   6.9792   6.9986   7.2265   7.2639   7.3159

     occupation numbers 
     1.0000   1.0000   1.0000   1.0000   1.0000   1.0000   1.0000   1.0000
     1.0000   1.0000   1.0000   1.0000   1.0000   1.0000   1.0000   1.0000
     1.0000   1.0000   1.0000   1.0000   1.0000   1.0000   1.0000   1.0000
     1.0000   1.0000   1.0000   1.0000   1.0000   1.0000   1.0000   1.0000
     1.0000   1.0000   1.0000   1.0000   1.0000   1.0000   1.0000   1.0000
     1.0000   1.0000   1.0000   1.0000   1.0000   1.0000   1.0000   1.0000
     1.0000   1.0000   1.0000   1.0000   1.0000   1.0000   1.0000   1.0000
     1.0000   1.0000   1.0000   1.0000   1.0000   1.0000   1.0000   1.0000
     1.0000   1.0000   1.0000   1.0000   1.0000   1.0000   1.0000   1.0000
     1.0000   1.0000   1.0000   1.0000   1.0000   1.0000   1.0000   1.0000
     1.0000   1.0000   1.0000   1.0000   1.0000   1.0000   1.0000   1.0000
     1.0000   1.0000   1.0000   1.0000   1.0000   1.0000   1.0000   1.0000
     1.0000   1.0000   1.0000   1.0000   1.0000   1.0000   1.0000   1.0000
     1.0000   1.0000   1.0000   1.0000   1.0000   1.0000   1.0000   1.0000
     1.0000   1.0000   1.0000   1.0000   1.0000   1.0000   1.0000   1.0000
     1.0000   1.0000   1.0000   1.0000   1.0000   1.0000   1.0000   1.0000
     1.0000   1.0000   1.0000   1.0000   1.0000   1.0000   1.0000   1.0000
     1.0000   1.0000   1.0000   1.0000   1.0000   1.0000   1.0000   1.0000
     1.0000   1.0000   1.0000   1.0000   1.0000   1.0000   1.0000   1.0000
     1.0000   1.0000   1.0000   1.0000   1.0000   1.0000   1.0000   1.0000
     1.0000   1.0000   1.0000   1.0000   1.0000   1.0000   1.0000   1.0000
     1.0000   1.0000   1.0000   1.0000   1.0000   1.0000   1.0000   1.0000
     1.0000   1.0000   1.0000   1.0000   1.0000   1.0000   1.0000   1.0000
     1.0000   1.0000   1.0000   1.0000   1.0000   1.0000   1.0000   1.0000
     1.0000   1.0000   1.0000   1.0000   1.0000   1.0000   1.0000   1.0000
     1.0000   1.0000   1.0000   1.0000   1.0000   1.0000   1.0000   1.0000
     1.0000   1.0000   1.0000   1.0000   1.0000   1.0000   1.0000   1.0000
     1.0000   1.0000   1.0000   1.0000   1.0000   1.0000   1.0000   1.0000
     1.0000   1.0000   1.0000   1.0000   1.0000   1.0000   1.0000   1.0000
     1.0000   1.0000   1.0000   1.0000   1.0000   1.0000   1.0000   1.0000
     1.0000   1.0000   1.0000   1.0000   1.0000   1.0000   1.0000   1.0000
     1.0000   1.0000   1.0000   1.0000   1.0000   1.0000   1.0000   1.0000
     1.0000   1.0000   1.0000   1.0000   1.0000   1.0000   1.0000   1.0000
     1.0000   1.0000   1.0000   1.0000   1.0000   1.0000   1.0000   1.0000
     1.0000   1.0000   1.0000   1.0000   1.0000   1.0000   1.0000   1.0000
     1.0000   1.0000   1.0000   1.0000   1.0000   1.0000   1.0000   1.0000
     1.0000   1.0000   1.0000   1.0000   1.0000   1.0000   1.0000   1.0000
     1.0000   1.0000   1.0000   1.0000   1.0000   1.0000   1.0000   1.0000
     1.0000   1.0000   1.0000   1.0000   1.0000   1.0000   1.0000   1.0000
     1.0000   1.0000   1.0000   1.0000   1.0000   1.0000   1.0000   1.0000
     1.0000   1.0000   1.0000   1.0000   1.0000   1.0000   1.0000   1.0000
     1.0000   1.0000   1.0000   1.0000   1.0000   1.0000   1.0000   1.0000
     1.0000   1.0000   1.0000   1.0000   1.0000   1.0000   1.0000   1.0000
     1.0000   1.0000   1.0000   1.0000   1.0000   1.0000   1.0000   1.0000
     1.0000   1.0000   1.0000   1.0000   1.0000   1.0000   1.0000   1.0000
     1.0000   1.0000   1.0000   1.0000   1.0000   1.0000   1.0000   1.0000
     1.0000   1.0000   1.0000   1.0000   1.0000   1.0000   1.0000   1.0000
     1.0000   1.0000   1.0000   1.0000   1.0000   1.0000   1.0000   1.0000
     1.0000   1.0000   1.0000   1.0000   1.0000   1.0000   1.0000   1.0000
     1.0000   1.0000   1.0000   1.0000   1.0000   1.0000   1.0000   1.0000
     1.0000   1.0000   1.0000   1.0000   1.0000   1.0000   1.0000   1.0000

          k = 0.0000-0.0000 0.1330 ( 45669 PWs)   bands (ev):

  -115.5355-115.5336-115.5270-115.5269-115.5250-115.5239-115.5233-115.5204
  -115.5194-115.5191-115.5164-115.5157-115.5146-115.5126-115.5123-115.5094
  -115.5089-115.5081-115.5080-115.5064-115.5061-115.5057-115.5009-115.5009
   -69.8949 -69.8924 -69.8912 -69.8905 -69.8879 -69.8871 -69.8857 -69.8846
   -69.8838 -69.8836 -69.8830 -69.8828 -69.8823 -69.8816 -69.8802 -69.8795
   -69.8795 -69.8790 -69.8778 -69.8775 -69.8773 -69.8772 -69.8758 -69.8754
   -69.8752 -69.8751 -69.8748 -69.8737 -69.8737 -69.8736 -69.8734 -69.8733
   -69.8731 -69.8729 -69.8722 -69.8722 -69.8718 -69.8714 -69.8694 -69.8692
   -69.8684 -69.8679 -69.8675 -69.8673 -69.8671 -69.8666 -69.8660 -69.8655
   -69.8654 -69.8649 -69.8646 -69.8645 -69.8644 -69.8641 -69.8639 -69.8635
   -69.8633 -69.8628 -69.8627 -69.8623 -69.8622 -69.8615 -69.8608 -69.8607
   -69.8604 -69.8596 -69.8594 -69.8585 -69.8577 -69.8565 -69.8546 -69.8538
   -65.0132 -65.0089 -65.0059 -65.0053 -65.0008 -64.9948 -64.9894 -64.9826
   -64.9799 -64.9784 -64.9776 -64.9734 -32.0043 -31.9990 -31.9986 -31.9971
   -31.9962 -31.9947 -31.9941 -31.9930 -31.9918 -31.9916 -31.9894 -31.9893
   -31.9879 -31.9845 -31.9843 -31.9834 -31.9823 -31.9776 -31.9770 -31.9743
   -31.9741 -31.9731 -31.9714 -31.9686 -31.9657 -31.9650 -31.9646 -31.9644
   -31.9637 -31.9629 -31.9623 -31.9620 -31.9592 -31.9570 -31.9543 -31.9522
   -10.1346  -9.8743  -9.7538  -9.7229  -9.7121  -9.6768  -9.6370  -9.5907
    -9.5521  -9.5328  -9.5133  -9.5021  -9.4828  -9.4591  -9.4310  -9.4104
    -9.3906  -9.3738  -9.3596  -9.3371  -9.3089  -9.2956  -9.2727  -9.2502
    -9.2222  -9.2167  -9.2092  -9.1896  -9.1721  -9.1600  -9.1416  -9.1364
    -9.1238  -9.0957  -9.0881  -8.9988   1.6366   1.6660   1.6752   1.6824
     1.7100   1.7223   1.7579   1.7859   1.8040   1.8149   1.8334   1.8444
     1.8512   1.9035   1.9103   1.9265   1.9460   1.9784   1.9988   2.0094
     2.0222   2.0472   2.0556   2.0605   2.0858   2.1038   2.1162   2.1193
     2.1430   2.1607   2.1698   2.1749   2.1909   2.2003   2.2111   2.2288
     2.2312   2.2402   2.2530   2.2539   2.2698   2.2805   2.2881   2.2991
     2.3088   2.3131   2.3263   2.3332   2.3442   2.3455   2.3542   2.3751
     2.3835   2.3956   2.4106   2.4243   2.4531   2.4750   2.4927   2.5120
     2.5328   2.5472   2.5544   2.5741   2.5822   2.6021   2.6092   2.6381
     2.6495   2.6690   2.6819   2.6987   2.7181   2.7358   2.7477   2.7700
     2.7803   2.7965   2.8115   2.8149   2.8345   2.8379   2.8680   2.8837
     2.8986   2.9242   2.9331   2.9570   2.9638   2.9774   2.9794   3.0037
     3.0194   3.0262   3.0395   3.0612   3.0771   3.0828   3.0964   3.1022
     3.1124   3.1226   3.1394   3.1449   3.1540   3.1633   3.1696   3.1750
     3.1827   3.1854   3.1985   3.2084   3.2248   3.2309   3.2494   3.2566
     3.2761   3.2936   3.3087   3.3444   3.4074   3.5051   3.5432   3.5745
     3.6056   3.6384   3.6634   3.6944   3.7334   3.7562   3.7729   3.8085
     3.8405   3.8571   3.8795   3.8894   3.9391   3.9729   4.0390   4.1272
     4.1348   4.1658   4.1890   4.2220   4.2495   4.3302   4.3433   4.3832
     4.3967   4.4452   4.4931   4.5339   4.5496   4.5867   4.6254   4.6843
     4.7380   4.7941   4.9200   4.9438   5.0047   5.0420   5.0620   5.1188
     5.1907   5.2326   5.3368   5.4287   5.4641   5.4894   5.4975   5.5227
     5.5620   5.6200   5.6342   5.6694   5.6747   5.6944   5.7156   5.7269
     5.7389   5.7715   5.7831   5.8189   5.8734   5.9231   5.9578   6.0085
     6.0244   6.0754   6.0903   6.1023   6.1304   6.1419   6.1924   6.2387
     6.2492   6.2599   6.2859   6.3019   6.3274   6.3336   6.3600   6.3719
     6.3884   6.4189   6.4287   6.4386   6.5095   6.5377   6.5814   6.5994
     6.6130   6.6376   6.6545   6.6790   6.6954   6.7576   6.7968   6.8219
     6.8841   6.8971   6.9319   7.0086   7.0412   7.1391   7.2590   7.3099

     occupation numbers 
     1.0000   1.0000   1.0000   1.0000   1.0000   1.0000   1.0000   1.0000
     1.0000   1.0000   1.0000   1.0000   1.0000   1.0000   1.0000   1.0000
     1.0000   1.0000   1.0000   1.0000   1.0000   1.0000   1.0000   1.0000
     1.0000   1.0000   1.0000   1.0000   1.0000   1.0000   1.0000   1.0000
     1.0000   1.0000   1.0000   1.0000   1.0000   1.0000   1.0000   1.0000
     1.0000   1.0000   1.0000   1.0000   1.0000   1.0000   1.0000   1.0000
     1.0000   1.0000   1.0000   1.0000   1.0000   1.0000   1.0000   1.0000
     1.0000   1.0000   1.0000   1.0000   1.0000   1.0000   1.0000   1.0000
     1.0000   1.0000   1.0000   1.0000   1.0000   1.0000   1.0000   1.0000
     1.0000   1.0000   1.0000   1.0000   1.0000   1.0000   1.0000   1.0000
     1.0000   1.0000   1.0000   1.0000   1.0000   1.0000   1.0000   1.0000
     1.0000   1.0000   1.0000   1.0000   1.0000   1.0000   1.0000   1.0000
     1.0000   1.0000   1.0000   1.0000   1.0000   1.0000   1.0000   1.0000
     1.0000   1.0000   1.0000   1.0000   1.0000   1.0000   1.0000   1.0000
     1.0000   1.0000   1.0000   1.0000   1.0000   1.0000   1.0000   1.0000
     1.0000   1.0000   1.0000   1.0000   1.0000   1.0000   1.0000   1.0000
     1.0000   1.0000   1.0000   1.0000   1.0000   1.0000   1.0000   1.0000
     1.0000   1.0000   1.0000   1.0000   1.0000   1.0000   1.0000   1.0000
     1.0000   1.0000   1.0000   1.0000   1.0000   1.0000   1.0000   1.0000
     1.0000   1.0000   1.0000   1.0000   1.0000   1.0000   1.0000   1.0000
     1.0000   1.0000   1.0000   1.0000   1.0000   1.0000   1.0000   1.0000
     1.0000   1.0000   1.0000   1.0000   1.0000   1.0000   1.0000   1.0000
     1.0000   1.0000   1.0000   1.0000   1.0000   1.0000   1.0000   1.0000
     1.0000   1.0000   1.0000   1.0000   1.0000   1.0000   1.0000   1.0000
     1.0000   1.0000   1.0000   1.0000   1.0000   1.0000   1.0000   1.0000
     1.0000   1.0000   1.0000   1.0000   1.0000   1.0000   1.0000   1.0000
     1.0000   1.0000   1.0000   1.0000   1.0000   1.0000   1.0000   1.0000
     1.0000   1.0000   1.0000   1.0000   1.0000   1.0000   1.0000   1.0000
     1.0000   1.0000   1.0000   1.0000   1.0000   1.0000   1.0000   1.0000
     1.0000   1.0000   1.0000   1.0000   1.0000   1.0000   1.0000   1.0000
     1.0000   1.0000   1.0000   1.0000   1.0000   1.0000   1.0000   1.0000
     1.0000   1.0000   1.0000   1.0000   1.0000   1.0000   1.0000   1.0000
     1.0000   1.0000   1.0000   1.0000   1.0000   1.0000   1.0000   1.0000
     1.0000   1.0000   1.0000   1.0000   1.0000   1.0000   1.0000   1.0000
     1.0000   1.0000   1.0000   1.0000   1.0000   1.0000   1.0000   1.0000
     1.0000   1.0000   1.0000   1.0000   1.0000   1.0000   1.0000   1.0000
     1.0000   1.0000   1.0000   1.0000   1.0000   1.0000   1.0000   1.0000
     1.0000   1.0000   1.0000   1.0000   1.0000   1.0000   1.0000   1.0000
     1.0000   1.0000   1.0000   1.0000   1.0000   1.0000   1.0000   1.0000
     1.0000   1.0000   1.0000   1.0000   1.0000   1.0000   1.0000   1.0000
     1.0000   1.0000   1.0000   1.0000   1.0000   1.0000   1.0000   1.0000
     1.0000   1.0000   1.0000   1.0000   1.0000   1.0000   1.0000   1.0000
     1.0000   1.0000   1.0000   1.0000   1.0000   1.0000   1.0000   1.0000
     1.0000   1.0000   1.0000   1.0000   1.0000   1.0000   1.0000   1.0000
     1.0000   1.0000   1.0000   1.0000   1.0000   1.0000   1.0000   1.0000
     1.0000   1.0000   1.0000   1.0000   1.0000   1.0000   1.0000   1.0000
     1.0000   1.0000   1.0000   1.0000   1.0000   1.0000   1.0000   1.0000
     1.0000   1.0000   1.0000   1.0000   1.0000   1.0000   1.0000   1.0000
     1.0000   1.0000   1.0000   1.0000   1.0000   1.0000   1.0000   1.0000
     1.0000   1.0000   1.0000   1.0000   1.0000   1.0000   1.0000   1.0000
     1.0000   1.0000   1.0000   1.0000   1.0000   1.0000   1.0000   1.0000

          k = 0.0000-0.0001 0.2659 ( 45609 PWs)   bands (ev):

  -115.5355-115.5336-115.5270-115.5269-115.5250-115.5239-115.5233-115.5204
  -115.5194-115.5191-115.5164-115.5157-115.5146-115.5126-115.5123-115.5094
  -115.5089-115.5081-115.5080-115.5064-115.5061-115.5057-115.5009-115.5009
   -69.8949 -69.8924 -69.8912 -69.8905 -69.8879 -69.8871 -69.8857 -69.8846
   -69.8838 -69.8836 -69.8830 -69.8828 -69.8823 -69.8816 -69.8802 -69.8795
   -69.8795 -69.8790 -69.8778 -69.8775 -69.8773 -69.8772 -69.8758 -69.8754
   -69.8752 -69.8751 -69.8748 -69.8737 -69.8737 -69.8736 -69.8734 -69.8733
   -69.8731 -69.8729 -69.8722 -69.8722 -69.8718 -69.8714 -69.8694 -69.8692
   -69.8684 -69.8679 -69.8675 -69.8673 -69.8671 -69.8666 -69.8660 -69.8655
   -69.8654 -69.8649 -69.8646 -69.8645 -69.8644 -69.8641 -69.8640 -69.8635
   -69.8633 -69.8628 -69.8627 -69.8623 -69.8622 -69.8615 -69.8608 -69.8607
   -69.8604 -69.8596 -69.8594 -69.8585 -69.8577 -69.8565 -69.8546 -69.8538
   -65.0132 -65.0089 -65.0059 -65.0053 -65.0008 -64.9948 -64.9894 -64.9826
   -64.9799 -64.9784 -64.9776 -64.9734 -32.0043 -31.9990 -31.9986 -31.9970
   -31.9960 -31.9948 -31.9942 -31.9930 -31.9918 -31.9916 -31.9894 -31.9893
   -31.9879 -31.9845 -31.9843 -31.9834 -31.9823 -31.9776 -31.9769 -31.9743
   -31.9741 -31.9731 -31.9714 -31.9686 -31.9657 -31.9651 -31.9646 -31.9644
   -31.9637 -31.9629 -31.9623 -31.9620 -31.9592 -31.9570 -31.9543 -31.9522
   -10.1128  -9.9390  -9.7331  -9.7083  -9.6887  -9.6659  -9.6315  -9.5917
    -9.5680  -9.5427  -9.5147  -9.5059  -9.5002  -9.4544  -9.4295  -9.4180
    -9.4034  -9.3847  -9.3552  -9.3311  -9.3018  -9.2810  -9.2581  -9.2427
    -9.2199  -9.2095  -9.2036  -9.1901  -9.1704  -9.1539  -9.1471  -9.1399
    -9.1250  -9.1055  -9.1000  -9.0013   1.6489   1.6760   1.6906   1.7023
     1.7195   1.7382   1.7659   1.7866   1.8122   1.8272   1.8369   1.8571
     1.8795   1.9031   1.9186   1.9349   1.9526   1.9885   2.0000   2.0145
     2.0278   2.0398   2.0564   2.0653   2.0760   2.0902   2.1038   2.1091
     2.1302   2.1510   2.1639   2.1786   2.1884   2.1920   2.1993   2.2222
     2.2307   2.2388   2.2470   2.2556   2.2736   2.2794   2.2892   2.2984
     2.3126   2.3215   2.3266   2.3403   2.3429   2.3518   2.3674   2.3769
     2.3837   2.3961   2.4141   2.4187   2.4347   2.4598   2.4806   2.5073
     2.5164   2.5226   2.5296   2.5480   2.5639   2.5745   2.5902   2.6262
     2.6309   2.6480   2.6653   2.6829   2.7030   2.7211   2.7377   2.7450
     2.7617   2.7796   2.7881   2.7961   2.8237   2.8267   2.8522   2.8758
     2.8950   2.9140   2.9272   2.9510   2.9570   2.9738   2.9813   3.0016
     3.0159   3.0237   3.0516   3.0593   3.0777   3.0910   3.0974   3.1063
     3.1162   3.1328   3.1428   3.1502   3.1545   3.1613   3.1754   3.1775
     3.1834   3.1927   3.1998   3.2131   3.2243   3.2383   3.2518   3.2590
     3.2737   3.2848   3.3075   3.3330   3.4647   3.5093   3.5588   3.6123
     3.6368   3.6784   3.6968   3.7162   3.7550   3.7773   3.8093   3.8404
     3.8491   3.8734   3.9098   3.9254   3.9450   3.9792   4.0511   4.1205
     4.1287   4.1581   4.1959   4.2626   4.2771   4.3223   4.3335   4.4058
     4.4246   4.4502   4.4724   4.5208   4.5515   4.5994   4.6458   4.6772
     4.7110   4.7714   4.9637   5.0078   5.0438   5.0768   5.1056   5.1715
     5.2003   5.2536   5.3307   5.3610   5.4007   5.4490   5.4666   5.4986
     5.5373   5.5532   5.5713   5.6109   5.6592   5.6866   5.6924   5.7130
     5.7368   5.7663   5.7813   5.7935   5.8325   5.8747   5.9052   5.9469
     5.9712   6.0097   6.0252   6.0535   6.0745   6.1129   6.1396   6.2489
     6.2646   6.2939   6.3198   6.3384   6.3714   6.3882   6.4078   6.4223
     6.4591   6.4890   6.5032   6.5147   6.5531   6.5733   6.6031   6.6190
     6.6329   6.6614   6.6734   6.7056   6.7169   6.7430   6.7763   6.7991
     6.8480   6.8633   6.8908   6.9458   7.0601   7.0909   7.2458   7.2943

     occupation numbers 
     1.0000   1.0000   1.0000   1.0000   1.0000   1.0000   1.0000   1.0000
     1.0000   1.0000   1.0000   1.0000   1.0000   1.0000   1.0000   1.0000
     1.0000   1.0000   1.0000   1.0000   1.0000   1.0000   1.0000   1.0000
     1.0000   1.0000   1.0000   1.0000   1.0000   1.0000   1.0000   1.0000
     1.0000   1.0000   1.0000   1.0000   1.0000   1.0000   1.0000   1.0000
     1.0000   1.0000   1.0000   1.0000   1.0000   1.0000   1.0000   1.0000
     1.0000   1.0000   1.0000   1.0000   1.0000   1.0000   1.0000   1.0000
     1.0000   1.0000   1.0000   1.0000   1.0000   1.0000   1.0000   1.0000
     1.0000   1.0000   1.0000   1.0000   1.0000   1.0000   1.0000   1.0000
     1.0000   1.0000   1.0000   1.0000   1.0000   1.0000   1.0000   1.0000
     1.0000   1.0000   1.0000   1.0000   1.0000   1.0000   1.0000   1.0000
     1.0000   1.0000   1.0000   1.0000   1.0000   1.0000   1.0000   1.0000
     1.0000   1.0000   1.0000   1.0000   1.0000   1.0000   1.0000   1.0000
     1.0000   1.0000   1.0000   1.0000   1.0000   1.0000   1.0000   1.0000
     1.0000   1.0000   1.0000   1.0000   1.0000   1.0000   1.0000   1.0000
     1.0000   1.0000   1.0000   1.0000   1.0000   1.0000   1.0000   1.0000
     1.0000   1.0000   1.0000   1.0000   1.0000   1.0000   1.0000   1.0000
     1.0000   1.0000   1.0000   1.0000   1.0000   1.0000   1.0000   1.0000
     1.0000   1.0000   1.0000   1.0000   1.0000   1.0000   1.0000   1.0000
     1.0000   1.0000   1.0000   1.0000   1.0000   1.0000   1.0000   1.0000
     1.0000   1.0000   1.0000   1.0000   1.0000   1.0000   1.0000   1.0000
     1.0000   1.0000   1.0000   1.0000   1.0000   1.0000   1.0000   1.0000
     1.0000   1.0000   1.0000   1.0000   1.0000   1.0000   1.0000   1.0000
     1.0000   1.0000   1.0000   1.0000   1.0000   1.0000   1.0000   1.0000
     1.0000   1.0000   1.0000   1.0000   1.0000   1.0000   1.0000   1.0000
     1.0000   1.0000   1.0000   1.0000   1.0000   1.0000   1.0000   1.0000
     1.0000   1.0000   1.0000   1.0000   1.0000   1.0000   1.0000   1.0000
     1.0000   1.0000   1.0000   1.0000   1.0000   1.0000   1.0000   1.0000
     1.0000   1.0000   1.0000   1.0000   1.0000   1.0000   1.0000   1.0000
     1.0000   1.0000   1.0000   1.0000   1.0000   1.0000   1.0000   1.0000
     1.0000   1.0000   1.0000   1.0000   1.0000   1.0000   1.0000   1.0000
     1.0000   1.0000   1.0000   1.0000   1.0000   1.0000   1.0000   1.0000
     1.0000   1.0000   1.0000   1.0000   1.0000   1.0000   1.0000   1.0000
     1.0000   1.0000   1.0000   1.0000   1.0000   1.0000   1.0000   1.0000
     1.0000   1.0000   1.0000   1.0000   1.0000   1.0000   1.0000   1.0000
     1.0000   1.0000   1.0000   1.0000   1.0000   1.0000   1.0000   1.0000
     1.0000   1.0000   1.0000   1.0000   1.0000   1.0000   1.0000   1.0000
     1.0000   1.0000   1.0000   1.0000   1.0000   1.0000   1.0000   1.0000
     1.0000   1.0000   1.0000   1.0000   1.0000   1.0000   1.0000   1.0000
     1.0000   1.0000   1.0000   1.0000   1.0000   1.0000   1.0000   1.0000
     1.0000   1.0000   1.0000   1.0000   1.0000   1.0000   1.0000   1.0000
     1.0000   1.0000   1.0000   1.0000   1.0000   1.0000   1.0000   1.0000
     1.0000   1.0000   1.0000   1.0000   1.0000   1.0000   1.0000   1.0000
     1.0000   1.0000   1.0000   1.0000   1.0000   1.0000   1.0000   1.0000
     1.0000   1.0000   1.0000   1.0000   1.0000   1.0000   1.0000   1.0000
     1.0000   1.0000   1.0000   1.0000   1.0000   1.0000   1.0000   1.0000
     1.0000   1.0000   1.0000   1.0000   1.0000   1.0000   1.0000   1.0000
     1.0000   1.0000   1.0000   1.0000   1.0000   1.0000   1.0000   1.0000
     1.0000   1.0000   1.0000   1.0000   1.0000   1.0000   1.0000   1.0000
     1.0000   1.0000   1.0000   1.0000   1.0000   1.0000   1.0000   1.0000
     1.0000   1.0000   1.0000   1.0000   1.0000   1.0000   1.0000   1.0000

          k = 0.0000-0.0001 0.3989 ( 45610 PWs)   bands (ev):

  -115.5355-115.5336-115.5270-115.5269-115.5250-115.5239-115.5233-115.5204
  -115.5194-115.5191-115.5164-115.5157-115.5146-115.5126-115.5123-115.5094
  -115.5089-115.5081-115.5080-115.5064-115.5061-115.5057-115.5009-115.5009
   -69.8949 -69.8924 -69.8912 -69.8905 -69.8879 -69.8871 -69.8857 -69.8846
   -69.8838 -69.8836 -69.8830 -69.8828 -69.8823 -69.8816 -69.8802 -69.8795
   -69.8795 -69.8790 -69.8778 -69.8775 -69.8773 -69.8772 -69.8758 -69.8754
   -69.8752 -69.8751 -69.8748 -69.8737 -69.8737 -69.8736 -69.8734 -69.8733
   -69.8731 -69.8729 -69.8722 -69.8722 -69.8718 -69.8714 -69.8694 -69.8692
   -69.8684 -69.8679 -69.8675 -69.8673 -69.8671 -69.8666 -69.8660 -69.8655
   -69.8654 -69.8649 -69.8646 -69.8645 -69.8644 -69.8641 -69.8640 -69.8635
   -69.8633 -69.8628 -69.8627 -69.8623 -69.8622 -69.8615 -69.8608 -69.8607
   -69.8604 -69.8596 -69.8594 -69.8585 -69.8577 -69.8565 -69.8546 -69.8538
   -65.0132 -65.0089 -65.0059 -65.0053 -65.0008 -64.9948 -64.9894 -64.9826
   -64.9799 -64.9784 -64.9776 -64.9734 -32.0043 -31.9990 -31.9986 -31.9970
   -31.9959 -31.9950 -31.9942 -31.9930 -31.9918 -31.9916 -31.9894 -31.9893
   -31.9879 -31.9845 -31.9843 -31.9834 -31.9823 -31.9776 -31.9769 -31.9743
   -31.9741 -31.9731 -31.9714 -31.9686 -31.9657 -31.9651 -31.9646 -31.9644
   -31.9637 -31.9628 -31.9623 -31.9620 -31.9592 -31.9570 -31.9543 -31.9522
   -10.0841  -9.9904  -9.7196  -9.6974  -9.6769  -9.6648  -9.6230  -9.5937
    -9.5754  -9.5557  -9.5260  -9.4966  -9.4851  -9.4620  -9.4456  -9.4394
    -9.4041  -9.3862  -9.3407  -9.3307  -9.2920  -9.2784  -9.2551  -9.2316
    -9.2180  -9.2078  -9.1932  -9.1856  -9.1754  -9.1495  -9.1439  -9.1380
    -9.1258  -9.1181  -9.1157  -9.0034   1.6589   1.6835   1.7046   1.7176
     1.7329   1.7515   1.7723   1.7811   1.8086   1.8256   1.8656   1.8827
     1.8970   1.9081   1.9310   1.9477   1.9647   1.9907   2.0042   2.0137
     2.0181   2.0271   2.0502   2.0657   2.0713   2.0789   2.0857   2.1005
     2.1206   2.1388   2.1591   2.1717   2.1861   2.1947   2.2007   2.2151
     2.2301   2.2389   2.2497   2.2614   2.2700   2.2792   2.2874   2.2985
     2.3142   2.3248   2.3351   2.3444   2.3500   2.3600   2.3766   2.3859
     2.3933   2.4033   2.4083   2.4168   2.4197   2.4477   2.4604   2.4707
     2.4845   2.4976   2.5083   2.5199   2.5458   2.5607   2.5781   2.6151
     2.6246   2.6331   2.6500   2.6800   2.6955   2.7074   2.7285   2.7371
     2.7499   2.7598   2.7749   2.7985   2.8142   2.8247   2.8456   2.8764
     2.8906   2.9002   2.9241   2.9366   2.9551   2.9736   2.9800   2.9971
     3.0202   3.0265   3.0467   3.0707   3.0757   3.0949   3.1023   3.1114
     3.1175   3.1367   3.1436   3.1510   3.1571   3.1625   3.1754   3.1810
     3.1876   3.1957   3.2085   3.2124   3.2256   3.2389   3.2489   3.2599
     3.2682   3.2813   3.3113   3.3285   3.5025   3.5477   3.5712   3.6139
     3.6588   3.7030   3.7336   3.7440   3.7611   3.7858   3.8033   3.8513
     3.8747   3.8932   3.9387   3.9496   3.9842   4.0180   4.0368   4.0816
     4.1162   4.1312   4.1815   4.2201   4.2267   4.3319   4.3650   4.3847
     4.4267   4.4993   4.5274   4.5950   4.6329   4.6488   4.6734   4.6995
     4.7266   4.7658   4.9900   5.0336   5.0551   5.0826   5.1217   5.1825
     5.2042   5.2253   5.2768   5.2961   5.3338   5.3424   5.3659   5.3929
     5.4631   5.4976   5.5644   5.6633   5.6741   5.7067   5.7174   5.7566
     5.7761   5.7904   5.8167   5.8326   5.8527   5.8794   5.8834   5.9047
     5.9201   5.9459   5.9576   5.9846   6.0002   6.0107   6.1916   6.2588
     6.2705   6.3035   6.3189   6.3718   6.4043   6.4162   6.4325   6.4597
     6.5022   6.5136   6.5301   6.5527   6.5780   6.6209   6.6299   6.6461
     6.6581   6.6805   6.6967   6.7115   6.7324   6.7449   6.7585   6.7792
     6.7845   6.8171   6.8355   6.8714   7.0934   7.1247   7.2318   7.2782

     occupation numbers 
     1.0000   1.0000   1.0000   1.0000   1.0000   1.0000   1.0000   1.0000
     1.0000   1.0000   1.0000   1.0000   1.0000   1.0000   1.0000   1.0000
     1.0000   1.0000   1.0000   1.0000   1.0000   1.0000   1.0000   1.0000
     1.0000   1.0000   1.0000   1.0000   1.0000   1.0000   1.0000   1.0000
     1.0000   1.0000   1.0000   1.0000   1.0000   1.0000   1.0000   1.0000
     1.0000   1.0000   1.0000   1.0000   1.0000   1.0000   1.0000   1.0000
     1.0000   1.0000   1.0000   1.0000   1.0000   1.0000   1.0000   1.0000
     1.0000   1.0000   1.0000   1.0000   1.0000   1.0000   1.0000   1.0000
     1.0000   1.0000   1.0000   1.0000   1.0000   1.0000   1.0000   1.0000
     1.0000   1.0000   1.0000   1.0000   1.0000   1.0000   1.0000   1.0000
     1.0000   1.0000   1.0000   1.0000   1.0000   1.0000   1.0000   1.0000
     1.0000   1.0000   1.0000   1.0000   1.0000   1.0000   1.0000   1.0000
     1.0000   1.0000   1.0000   1.0000   1.0000   1.0000   1.0000   1.0000
     1.0000   1.0000   1.0000   1.0000   1.0000   1.0000   1.0000   1.0000
     1.0000   1.0000   1.0000   1.0000   1.0000   1.0000   1.0000   1.0000
     1.0000   1.0000   1.0000   1.0000   1.0000   1.0000   1.0000   1.0000
     1.0000   1.0000   1.0000   1.0000   1.0000   1.0000   1.0000   1.0000
     1.0000   1.0000   1.0000   1.0000   1.0000   1.0000   1.0000   1.0000
     1.0000   1.0000   1.0000   1.0000   1.0000   1.0000   1.0000   1.0000
     1.0000   1.0000   1.0000   1.0000   1.0000   1.0000   1.0000   1.0000
     1.0000   1.0000   1.0000   1.0000   1.0000   1.0000   1.0000   1.0000
     1.0000   1.0000   1.0000   1.0000   1.0000   1.0000   1.0000   1.0000
     1.0000   1.0000   1.0000   1.0000   1.0000   1.0000   1.0000   1.0000
     1.0000   1.0000   1.0000   1.0000   1.0000   1.0000   1.0000   1.0000
     1.0000   1.0000   1.0000   1.0000   1.0000   1.0000   1.0000   1.0000
     1.0000   1.0000   1.0000   1.0000   1.0000   1.0000   1.0000   1.0000
     1.0000   1.0000   1.0000   1.0000   1.0000   1.0000   1.0000   1.0000
     1.0000   1.0000   1.0000   1.0000   1.0000   1.0000   1.0000   1.0000
     1.0000   1.0000   1.0000   1.0000   1.0000   1.0000   1.0000   1.0000
     1.0000   1.0000   1.0000   1.0000   1.0000   1.0000   1.0000   1.0000
     1.0000   1.0000   1.0000   1.0000   1.0000   1.0000   1.0000   1.0000
     1.0000   1.0000   1.0000   1.0000   1.0000   1.0000   1.0000   1.0000
     1.0000   1.0000   1.0000   1.0000   1.0000   1.0000   1.0000   1.0000
     1.0000   1.0000   1.0000   1.0000   1.0000   1.0000   1.0000   1.0000
     1.0000   1.0000   1.0000   1.0000   1.0000   1.0000   1.0000   1.0000
     1.0000   1.0000   1.0000   1.0000   1.0000   1.0000   1.0000   1.0000
     1.0000   1.0000   1.0000   1.0000   1.0000   1.0000   1.0000   1.0000
     1.0000   1.0000   1.0000   1.0000   1.0000   1.0000   1.0000   1.0000
     1.0000   1.0000   1.0000   1.0000   1.0000   1.0000   1.0000   1.0000
     1.0000   1.0000   1.0000   1.0000   1.0000   1.0000   1.0000   1.0000
     1.0000   1.0000   1.0000   1.0000   1.0000   1.0000   1.0000   1.0000
     1.0000   1.0000   1.0000   1.0000   1.0000   1.0000   1.0000   1.0000
     1.0000   1.0000   1.0000   1.0000   1.0000   1.0000   1.0000   1.0000
     1.0000   1.0000   1.0000   1.0000   1.0000   1.0000   1.0000   1.0000
     1.0000   1.0000   1.0000   1.0000   1.0000   1.0000   1.0000   1.0000
     1.0000   1.0000   1.0000   1.0000   1.0000   1.0000   1.0000   1.0000
     1.0000   1.0000   1.0000   1.0000   1.0000   1.0000   1.0000   1.0000
     1.0000   1.0000   1.0000   1.0000   1.0000   1.0000   1.0000   1.0000
     1.0000   1.0000   1.0000   1.0000   1.0000   1.0000   1.0000   1.0000
     1.0000   1.0000   1.0000   1.0000   1.0000   1.0000   1.0000   1.0000
     1.0000   1.0000   1.0000   1.0000   1.0000   1.0000   1.0000   1.0000

          k = 0.0000-0.0001 0.5318 ( 45610 PWs)   bands (ev):

  -115.5355-115.5336-115.5270-115.5269-115.5250-115.5239-115.5233-115.5204
  -115.5194-115.5191-115.5164-115.5157-115.5146-115.5126-115.5123-115.5094
  -115.5089-115.5081-115.5080-115.5064-115.5061-115.5057-115.5009-115.5009
   -69.8949 -69.8924 -69.8912 -69.8905 -69.8879 -69.8871 -69.8857 -69.8846
   -69.8838 -69.8836 -69.8830 -69.8828 -69.8823 -69.8816 -69.8802 -69.8795
   -69.8795 -69.8790 -69.8778 -69.8775 -69.8773 -69.8772 -69.8758 -69.8754
   -69.8752 -69.8751 -69.8748 -69.8737 -69.8737 -69.8736 -69.8734 -69.8733
   -69.8731 -69.8729 -69.8722 -69.8722 -69.8718 -69.8714 -69.8694 -69.8692
   -69.8684 -69.8679 -69.8675 -69.8673 -69.8671 -69.8666 -69.8660 -69.8655
   -69.8654 -69.8649 -69.8646 -69.8645 -69.8644 -69.8641 -69.8640 -69.8635
   -69.8633 -69.8628 -69.8627 -69.8623 -69.8622 -69.8615 -69.8608 -69.8607
   -69.8604 -69.8596 -69.8594 -69.8585 -69.8577 -69.8565 -69.8546 -69.8538
   -65.0132 -65.0089 -65.0059 -65.0053 -65.0008 -64.9948 -64.9894 -64.9826
   -64.9799 -64.9784 -64.9776 -64.9734 -32.0043 -31.9990 -31.9986 -31.9970
   -31.9959 -31.9950 -31.9942 -31.9930 -31.9918 -31.9916 -31.9894 -31.9893
   -31.9879 -31.9845 -31.9843 -31.9834 -31.9823 -31.9776 -31.9769 -31.9743
   -31.9741 -31.9731 -31.9714 -31.9686 -31.9657 -31.9651 -31.9646 -31.9644
   -31.9637 -31.9628 -31.9623 -31.9620 -31.9592 -31.9570 -31.9543 -31.9522
   -10.0841  -9.9904  -9.7196  -9.6974  -9.6769  -9.6648  -9.6230  -9.5937
    -9.5754  -9.5557  -9.5260  -9.4966  -9.4851  -9.4620  -9.4456  -9.4394
    -9.4041  -9.3862  -9.3407  -9.3307  -9.2920  -9.2784  -9.2551  -9.2316
    -9.2180  -9.2078  -9.1932  -9.1856  -9.1754  -9.1495  -9.1439  -9.1380
    -9.1258  -9.1181  -9.1157  -9.0034   1.6589   1.6835   1.7046   1.7176
     1.7329   1.7515   1.7723   1.7811   1.8086   1.8256   1.8656   1.8827
     1.8970   1.9081   1.9310   1.9477   1.9647   1.9907   2.0042   2.0137
     2.0181   2.0271   2.0502   2.0657   2.0713   2.0789   2.0857   2.1005
     2.1206   2.1388   2.1591   2.1717   2.1861   2.1947   2.2007   2.2151
     2.2301   2.2389   2.2497   2.2614   2.2700   2.2792   2.2874   2.2985
     2.3142   2.3248   2.3351   2.3444   2.3500   2.3600   2.3766   2.3859
     2.3933   2.4033   2.4083   2.4168   2.4197   2.4477   2.4604   2.4707
     2.4845   2.4976   2.5083   2.5199   2.5458   2.5607   2.5781   2.6151
     2.6246   2.6331   2.6500   2.6800   2.6955   2.7074   2.7285   2.7371
     2.7499   2.7598   2.7749   2.7985   2.8142   2.8247   2.8456   2.8764
     2.8906   2.9002   2.9241   2.9366   2.9551   2.9736   2.9800   2.9971
     3.0202   3.0265   3.0467   3.0707   3.0757   3.0949   3.1023   3.1114
     3.1175   3.1367   3.1436   3.1510   3.1571   3.1625   3.1754   3.1810
     3.1876   3.1957   3.2085   3.2124   3.2256   3.2389   3.2489   3.2599
     3.2682   3.2813   3.3113   3.3285   3.5025   3.5477   3.5712   3.6139
     3.6588   3.7030   3.7336   3.7440   3.7611   3.7858   3.8033   3.8513
     3.8747   3.8932   3.9387   3.9496   3.9842   4.0180   4.0368   4.0816
     4.1162   4.1312   4.1815   4.2201   4.2267   4.3319   4.3650   4.3847
     4.4267   4.4993   4.5274   4.5950   4.6329   4.6488   4.6734   4.6995
     4.7266   4.7658   4.9900   5.0336   5.0551   5.0826   5.1217   5.1825
     5.2042   5.2253   5.2768   5.2961   5.3338   5.3424   5.3659   5.3929
     5.4631   5.4976   5.5644   5.6633   5.6741   5.7067   5.7174   5.7566
     5.7761   5.7904   5.8167   5.8326   5.8527   5.8794   5.8834   5.9047
     5.9201   5.9459   5.9576   5.9846   6.0002   6.0107   6.1916   6.2588
     6.2705   6.3035   6.3189   6.3718   6.4043   6.4162   6.4325   6.4597
     6.5022   6.5136   6.5301   6.5527   6.5780   6.6209   6.6299   6.6461
     6.6581   6.6805   6.6967   6.7115   6.7324   6.7449   6.7585   6.7792
     6.7845   6.8171   6.8355   6.8714   7.0934   7.1247   7.2318   7.2782

     occupation numbers 
     1.0000   1.0000   1.0000   1.0000   1.0000   1.0000   1.0000   1.0000
     1.0000   1.0000   1.0000   1.0000   1.0000   1.0000   1.0000   1.0000
     1.0000   1.0000   1.0000   1.0000   1.0000   1.0000   1.0000   1.0000
     1.0000   1.0000   1.0000   1.0000   1.0000   1.0000   1.0000   1.0000
     1.0000   1.0000   1.0000   1.0000   1.0000   1.0000   1.0000   1.0000
     1.0000   1.0000   1.0000   1.0000   1.0000   1.0000   1.0000   1.0000
     1.0000   1.0000   1.0000   1.0000   1.0000   1.0000   1.0000   1.0000
     1.0000   1.0000   1.0000   1.0000   1.0000   1.0000   1.0000   1.0000
     1.0000   1.0000   1.0000   1.0000   1.0000   1.0000   1.0000   1.0000
     1.0000   1.0000   1.0000   1.0000   1.0000   1.0000   1.0000   1.0000
     1.0000   1.0000   1.0000   1.0000   1.0000   1.0000   1.0000   1.0000
     1.0000   1.0000   1.0000   1.0000   1.0000   1.0000   1.0000   1.0000
     1.0000   1.0000   1.0000   1.0000   1.0000   1.0000   1.0000   1.0000
     1.0000   1.0000   1.0000   1.0000   1.0000   1.0000   1.0000   1.0000
     1.0000   1.0000   1.0000   1.0000   1.0000   1.0000   1.0000   1.0000
     1.0000   1.0000   1.0000   1.0000   1.0000   1.0000   1.0000   1.0000
     1.0000   1.0000   1.0000   1.0000   1.0000   1.0000   1.0000   1.0000
     1.0000   1.0000   1.0000   1.0000   1.0000   1.0000   1.0000   1.0000
     1.0000   1.0000   1.0000   1.0000   1.0000   1.0000   1.0000   1.0000
     1.0000   1.0000   1.0000   1.0000   1.0000   1.0000   1.0000   1.0000
     1.0000   1.0000   1.0000   1.0000   1.0000   1.0000   1.0000   1.0000
     1.0000   1.0000   1.0000   1.0000   1.0000   1.0000   1.0000   1.0000
     1.0000   1.0000   1.0000   1.0000   1.0000   1.0000   1.0000   1.0000
     1.0000   1.0000   1.0000   1.0000   1.0000   1.0000   1.0000   1.0000
     1.0000   1.0000   1.0000   1.0000   1.0000   1.0000   1.0000   1.0000
     1.0000   1.0000   1.0000   1.0000   1.0000   1.0000   1.0000   1.0000
     1.0000   1.0000   1.0000   1.0000   1.0000   1.0000   1.0000   1.0000
     1.0000   1.0000   1.0000   1.0000   1.0000   1.0000   1.0000   1.0000
     1.0000   1.0000   1.0000   1.0000   1.0000   1.0000   1.0000   1.0000
     1.0000   1.0000   1.0000   1.0000   1.0000   1.0000   1.0000   1.0000
     1.0000   1.0000   1.0000   1.0000   1.0000   1.0000   1.0000   1.0000
     1.0000   1.0000   1.0000   1.0000   1.0000   1.0000   1.0000   1.0000
     1.0000   1.0000   1.0000   1.0000   1.0000   1.0000   1.0000   1.0000
     1.0000   1.0000   1.0000   1.0000   1.0000   1.0000   1.0000   1.0000
     1.0000   1.0000   1.0000   1.0000   1.0000   1.0000   1.0000   1.0000
     1.0000   1.0000   1.0000   1.0000   1.0000   1.0000   1.0000   1.0000
     1.0000   1.0000   1.0000   1.0000   1.0000   1.0000   1.0000   1.0000
     1.0000   1.0000   1.0000   1.0000   1.0000   1.0000   1.0000   1.0000
     1.0000   1.0000   1.0000   1.0000   1.0000   1.0000   1.0000   1.0000
     1.0000   1.0000   1.0000   1.0000   1.0000   1.0000   1.0000   1.0000
     1.0000   1.0000   1.0000   1.0000   1.0000   1.0000   1.0000   1.0000
     1.0000   1.0000   1.0000   1.0000   1.0000   1.0000   1.0000   1.0000
     1.0000   1.0000   1.0000   1.0000   1.0000   1.0000   1.0000   1.0000
     1.0000   1.0000   1.0000   1.0000   1.0000   1.0000   1.0000   1.0000
     1.0000   1.0000   1.0000   1.0000   1.0000   1.0000   1.0000   1.0000
     1.0000   1.0000   1.0000   1.0000   1.0000   1.0000   1.0000   1.0000
     1.0000   1.0000   1.0000   1.0000   1.0000   1.0000   1.0000   1.0000
     1.0000   1.0000   1.0000   1.0000   1.0000   1.0000   1.0000   1.0000
     1.0000   1.0000   1.0000   1.0000   1.0000   1.0000   1.0000   1.0000
     1.0000   1.0000   1.0000   1.0000   1.0000   1.0000   1.0000   1.0000
     1.0000   1.0000   1.0000   1.0000   1.0000   1.0000   1.0000   1.0000

          k = 0.0000-0.0002 0.6648 ( 45609 PWs)   bands (ev):

  -115.5355-115.5336-115.5270-115.5269-115.5250-115.5239-115.5233-115.5204
  -115.5194-115.5191-115.5164-115.5157-115.5146-115.5126-115.5123-115.5094
  -115.5089-115.5081-115.5080-115.5064-115.5061-115.5057-115.5009-115.5009
   -69.8949 -69.8924 -69.8912 -69.8905 -69.8879 -69.8871 -69.8857 -69.8846
   -69.8838 -69.8836 -69.8830 -69.8828 -69.8823 -69.8816 -69.8802 -69.8795
   -69.8795 -69.8790 -69.8778 -69.8775 -69.8773 -69.8772 -69.8758 -69.8754
   -69.8752 -69.8751 -69.8748 -69.8737 -69.8737 -69.8736 -69.8734 -69.8733
   -69.8731 -69.8729 -69.8722 -69.8722 -69.8718 -69.8714 -69.8694 -69.8692
   -69.8684 -69.8679 -69.8675 -69.8673 -69.8671 -69.8666 -69.8660 -69.8655
   -69.8654 -69.8649 -69.8646 -69.8645 -69.8644 -69.8641 -69.8640 -69.8635
   -69.8633 -69.8628 -69.8627 -69.8623 -69.8622 -69.8615 -69.8608 -69.8607
   -69.8604 -69.8596 -69.8594 -69.8585 -69.8577 -69.8565 -69.8546 -69.8538
   -65.0132 -65.0089 -65.0059 -65.0053 -65.0008 -64.9948 -64.9894 -64.9826
   -64.9799 -64.9784 -64.9776 -64.9734 -32.0043 -31.9990 -31.9986 -31.9970
   -31.9960 -31.9948 -31.9942 -31.9930 -31.9918 -31.9916 -31.9894 -31.9893
   -31.9879 -31.9845 -31.9843 -31.9834 -31.9823 -31.9776 -31.9769 -31.9743
   -31.9741 -31.9731 -31.9714 -31.9686 -31.9657 -31.9651 -31.9646 -31.9644
   -31.9637 -31.9629 -31.9623 -31.9620 -31.9592 -31.9570 -31.9543 -31.9522
   -10.1128  -9.9390  -9.7331  -9.7083  -9.6887  -9.6659  -9.6315  -9.5917
    -9.5680  -9.5427  -9.5147  -9.5059  -9.5002  -9.4544  -9.4295  -9.4180
    -9.4034  -9.3847  -9.3552  -9.3311  -9.3018  -9.2810  -9.2581  -9.2427
    -9.2199  -9.2095  -9.2036  -9.1901  -9.1704  -9.1539  -9.1471  -9.1399
    -9.1250  -9.1055  -9.1000  -9.0013   1.6489   1.6760   1.6906   1.7023
     1.7195   1.7382   1.7659   1.7866   1.8122   1.8272   1.8369   1.8571
     1.8795   1.9031   1.9186   1.9349   1.9526   1.9885   2.0000   2.0145
     2.0278   2.0398   2.0564   2.0653   2.0760   2.0902   2.1038   2.1091
     2.1302   2.1510   2.1639   2.1786   2.1884   2.1920   2.1993   2.2222
     2.2307   2.2388   2.2470   2.2556   2.2736   2.2794   2.2892   2.2984
     2.3126   2.3215   2.3266   2.3403   2.3429   2.3518   2.3674   2.3769
     2.3837   2.3961   2.4141   2.4187   2.4347   2.4598   2.4806   2.5073
     2.5164   2.5226   2.5296   2.5480   2.5639   2.5745   2.5902   2.6262
     2.6309   2.6480   2.6653   2.6829   2.7030   2.7211   2.7377   2.7450
     2.7617   2.7796   2.7881   2.7961   2.8237   2.8267   2.8522   2.8758
     2.8950   2.9140   2.9272   2.9510   2.9570   2.9738   2.9813   3.0016
     3.0159   3.0237   3.0516   3.0593   3.0777   3.0910   3.0974   3.1063
     3.1162   3.1328   3.1428   3.1502   3.1545   3.1613   3.1754   3.1775
     3.1834   3.1927   3.1998   3.2131   3.2243   3.2383   3.2518   3.2590
     3.2737   3.2848   3.3075   3.3330   3.4647   3.5093   3.5588   3.6123
     3.6368   3.6784   3.6968   3.7162   3.7550   3.7773   3.8093   3.8404
     3.8491   3.8734   3.9098   3.9254   3.9450   3.9792   4.0511   4.1205
     4.1287   4.1581   4.1959   4.2626   4.2771   4.3223   4.3335   4.4058
     4.4246   4.4502   4.4724   4.5208   4.5515   4.5994   4.6458   4.6772
     4.7110   4.7714   4.9637   5.0078   5.0438   5.0768   5.1056   5.1715
     5.2003   5.2536   5.3307   5.3610   5.4007   5.4490   5.4666   5.4986
     5.5373   5.5532   5.5713   5.6109   5.6592   5.6866   5.6924   5.7130
     5.7368   5.7663   5.7813   5.7935   5.8325   5.8747   5.9052   5.9469
     5.9712   6.0097   6.0252   6.0535   6.0745   6.1129   6.1396   6.2489
     6.2646   6.2939   6.3198   6.3384   6.3714   6.3882   6.4078   6.4223
     6.4591   6.4890   6.5032   6.5147   6.5531   6.5733   6.6031   6.6190
     6.6329   6.6614   6.6734   6.7056   6.7169   6.7430   6.7763   6.7991
[...]
   -31.9878 -31.9846 -31.9844 -31.9841 -31.9830 -31.9775 -31.9769 -31.9742
   -31.9742 -31.9731 -31.9697 -31.9686 -31.9657 -31.9649 -31.9645 -31.9645
   -31.9630 -31.9628 -31.9620 -31.9616 -31.9592 -31.9573 -31.9548 -31.9532
   -10.0277  -9.9783  -9.7878  -9.7480  -9.6960  -9.6689  -9.6545  -9.6418
    -9.5544  -9.5420  -9.5149  -9.4815  -9.4633  -9.4389  -9.4084  -9.3952
    -9.3890  -9.3612  -9.3506  -9.3412  -9.2891  -9.2821  -9.2680  -9.2656
    -9.2370  -9.2242  -9.2069  -9.1930  -9.1815  -9.1583  -9.1481  -9.1404
    -9.1148  -9.1010  -9.0809  -8.9917   1.6677   1.6780   1.7225   1.7319
     1.7576   1.7684   1.7832   1.7982   1.8168   1.8404   1.8656   1.8784
     1.8873   1.9049   1.9185   1.9260   1.9419   1.9665   1.9822   2.0062
     2.0199   2.0421   2.0589   2.0777   2.0925   2.0983   2.1222   2.1262
     2.1323   2.1416   2.1534   2.1782   2.1803   2.1823   2.1872   2.1986
     2.2166   2.2229   2.2303   2.2420   2.2570   2.2692   2.2770   2.2842
     2.2964   2.3058   2.3139   2.3222   2.3260   2.3412   2.3465   2.3496
     2.3727   2.3801   2.4200   2.4261   2.4314   2.4413   2.4431   2.4565
     2.4710   2.4971   2.5153   2.5242   2.5403   2.5548   2.5813   2.6093
     2.6270   2.6462   2.6502   2.6770   2.7153   2.7421   2.7431   2.7516
     2.7728   2.7793   2.7842   2.8075   2.8200   2.8411   2.8553   2.8841
     2.8994   2.9168   2.9280   2.9483   2.9537   2.9779   2.9881   3.0029
     3.0071   3.0284   3.0558   3.0622   3.0873   3.0899   3.1008   3.1140
     3.1280   3.1412   3.1475   3.1528   3.1662   3.1745   3.1782   3.1983
     3.2053   3.2193   3.2212   3.2268   3.2388   3.2524   3.2584   3.2653
     3.2739   3.3023   3.3114   3.3120   3.3392   3.3473   3.4685   3.4798
     3.5349   3.5789   3.5909   3.6102   3.6512   3.6872   3.7189   3.7665
     3.7951   3.8318   3.8724   3.9062   3.9564   4.0234   4.0694   4.1068
     4.1713   4.2028   4.2392   4.2826   4.4536   4.4696   4.5494   4.6056
     4.6287   4.6809   4.7128   4.7914   4.8196   4.8221   4.8520   4.8959
     4.9131   4.9403   4.9778   4.9835   5.0327   5.0513   5.1117   5.1722
     5.1796   5.2141   5.2735   5.3251   5.3704   5.3797   5.4136   5.4725
     5.4876   5.5409   5.5588   5.6648   5.7056   5.7264   5.7526   5.7843
     5.8645   5.8939   5.9038   5.9190   5.9444   5.9545   5.9923   6.0271
     6.0414   6.0498   6.0734   6.1071   6.1290   6.1513   6.1683   6.1864
     6.2066   6.2117   6.2376   6.2440   6.2584   6.2831   6.2883   6.3058
     6.3239   6.3335   6.3512   6.3629   6.3748   6.4197   6.4483   6.4737
     6.4787   6.5111   6.5171   6.5825   6.6596   6.6759   6.7186   6.7241
     6.7410   6.7593   6.7961   6.8161   7.0324   7.0630   7.1192   7.1584

     occupation numbers 
     1.0000   1.0000   1.0000   1.0000   1.0000   1.0000   1.0000   1.0000
     1.0000   1.0000   1.0000   1.0000   1.0000   1.0000   1.0000   1.0000
     1.0000   1.0000   1.0000   1.0000   1.0000   1.0000   1.0000   1.0000
     1.0000   1.0000   1.0000   1.0000   1.0000   1.0000   1.0000   1.0000
     1.0000   1.0000   1.0000   1.0000   1.0000   1.0000   1.0000   1.0000
     1.0000   1.0000   1.0000   1.0000   1.0000   1.0000   1.0000   1.0000
     1.0000   1.0000   1.0000   1.0000   1.0000   1.0000   1.0000   1.0000
     1.0000   1.0000   1.0000   1.0000   1.0000   1.0000   1.0000   1.0000
     1.0000   1.0000   1.0000   1.0000   1.0000   1.0000   1.0000   1.0000
     1.0000   1.0000   1.0000   1.0000   1.0000   1.0000   1.0000   1.0000
     1.0000   1.0000   1.0000   1.0000   1.0000   1.0000   1.0000   1.0000
     1.0000   1.0000   1.0000   1.0000   1.0000   1.0000   1.0000   1.0000
     1.0000   1.0000   1.0000   1.0000   1.0000   1.0000   1.0000   1.0000
     1.0000   1.0000   1.0000   1.0000   1.0000   1.0000   1.0000   1.0000
     1.0000   1.0000   1.0000   1.0000   1.0000   1.0000   1.0000   1.0000
     1.0000   1.0000   1.0000   1.0000   1.0000   1.0000   1.0000   1.0000
     1.0000   1.0000   1.0000   1.0000   1.0000   1.0000   1.0000   1.0000
     1.0000   1.0000   1.0000   1.0000   1.0000   1.0000   1.0000   1.0000
     1.0000   1.0000   1.0000   1.0000   1.0000   1.0000   1.0000   1.0000
     1.0000   1.0000   1.0000   1.0000   1.0000   1.0000   1.0000   1.0000
     1.0000   1.0000   1.0000   1.0000   1.0000   1.0000   1.0000   1.0000
     1.0000   1.0000   1.0000   1.0000   1.0000   1.0000   1.0000   1.0000
     1.0000   1.0000   1.0000   1.0000   1.0000   1.0000   1.0000   1.0000
     1.0000   1.0000   1.0000   1.0000   1.0000   1.0000   1.0000   1.0000
     1.0000   1.0000   1.0000   1.0000   1.0000   1.0000   1.0000   1.0000
     1.0000   1.0000   1.0000   1.0000   1.0000   1.0000   1.0000   1.0000
     1.0000   1.0000   1.0000   1.0000   1.0000   1.0000   1.0000   1.0000
     1.0000   1.0000   1.0000   1.0000   1.0000   1.0000   1.0000   1.0000
     1.0000   1.0000   1.0000   1.0000   1.0000   1.0000   1.0000   1.0000
     1.0000   1.0000   1.0000   1.0000   1.0000   1.0000   1.0000   1.0000
     1.0000   1.0000   1.0000   1.0000   1.0000   1.0000   1.0000   1.0000
     1.0000   1.0000   1.0000   1.0000   1.0000   1.0000   1.0000   1.0000
     1.0000   1.0000   1.0000   1.0000   1.0000   1.0000   1.0000   1.0000
     1.0000   1.0000   1.0000   1.0000   1.0000   1.0000   1.0000   1.0000
     1.0000   1.0000   1.0000   1.0000   1.0000   1.0000   1.0000   1.0000
     1.0000   1.0000   1.0000   1.0000   1.0000   1.0000   1.0000   1.0000
     1.0000   1.0000   1.0000   1.0000   1.0000   1.0000   1.0000   1.0000
     1.0000   1.0000   1.0000   1.0000   1.0000   1.0000   1.0000   1.0000
     1.0000   1.0000   1.0000   1.0000   1.0000   1.0000   1.0000   1.0000
     1.0000   1.0000   1.0000   1.0000   1.0000   1.0000   1.0000   1.0000
     1.0000   1.0000   1.0000   1.0000   1.0000   1.0000   1.0000   1.0000
     1.0000   1.0000   1.0000   1.0000   1.0000   1.0000   1.0000   1.0000
     1.0000   1.0000   1.0000   1.0000   1.0000   1.0000   1.0000   1.0000
     1.0000   1.0000   1.0000   1.0000   1.0000   1.0000   1.0000   1.0000
     1.0000   1.0000   1.0000   1.0000   1.0000   1.0000   1.0000   1.0000
     1.0000   1.0000   1.0000   1.0000   1.0000   1.0000   1.0000   1.0000
     1.0000   1.0000   1.0000   1.0000   1.0000   1.0000   1.0000   1.0000
     1.0000   1.0000   1.0000   1.0000   1.0000   1.0000   1.0000   1.0000
     1.0000   1.0000   1.0000   1.0000   1.0000   1.0000   1.0000   1.0000
     1.0000   1.0000   1.0000   1.0000   1.0000   1.0000   1.0000   1.0000
     1.0000   1.0000   1.0000   1.0000   1.0000   1.0000   1.0000   1.0000

     highest occupied level (ev):     7.3159



               ==================================================
                            POLARIZATION CALCULATION
                         !!! NOT THOROUGHLY TESTED !!!
               --------------------------------------------------


                     K-POINTS STRINGS USED IN CALCULATIONS
                     ~~~~~~~~~~~~~~~~~~~~~~~~~~~~~~~~~~~~~

       G-vector along string (2 pi/a):  0.00003 -0.00026  0.93066
       Modulus of the vector (1/bohr):  0.31741
       Number of k-points per string:   8
       Number of different strings  :  10


                               IONIC POLARIZATION
                               ~~~~~~~~~~~~~~~~~~

        Note: (mod 1) means that the phases (angles ranging from
        -pi to pi) have been mapped to the interval [-1/2,+1/2) by
        dividing by 2*pi; (mod 2) refers to the interval [-1,+1)

  ============================================================================
    Ion    Species    Charge              Position                Phase
  ----------------------------------------------------------------------------
     1        Zn      20.000       0.1667  0.0964  0.2083    -0.12327 (mod 2)
     2        Zn      20.000       0.1669  0.0959  0.7451    -0.13105 (mod 2)
     3        Zn      20.000       0.0008  0.3843  0.2075    -0.14003 (mod 2)
     4        Zn      20.000      -0.0011  0.3861  0.7452    -0.13169 (mod 2)
     5        Zn      20.000      -0.1668  0.6765  0.2071    -0.14807 (mod 2)
     6        Zn      20.000      -0.1680  0.6720  0.7444    -0.14811 (mod 2)
     7        Zn      20.000       0.4991  0.0950  0.2088    -0.11332 (mod 2)
     8        Zn      20.000       0.5001  0.0964  0.7466    -0.10418 (mod 2)
     9        Zn      20.000       0.3329  0.3842  0.2067    -0.15421 (mod 2)
    10        Mg      10.000       0.3333  0.3828  0.7463     0.94448 (mod 2)
    11        Mg      10.000       0.1645  0.6753  0.2078    -0.06782 (mod 2)
    12        Zn      20.000       0.1668  0.6719  0.7433    -0.16854 (mod 2)
    13        Zn      20.000       0.8334  0.0951  0.2075    -0.13774 (mod 2)
    14        Mg      10.000       0.8320  0.0947  0.7471     0.95336 (mod 2)
    15        Zn      20.000       0.6650  0.3833  0.2073    -0.14305 (mod 2)
    16        Mg      10.000       0.6664  0.3844  0.7463     0.94424 (mod 2)
    17        Mg      10.000       0.4993  0.6730  0.2068    -0.07745 (mod 2)
    18        Mg      10.000       0.4981  0.6715  0.7451     0.93235 (mod 2)
    19        Zn      20.000      -0.0014  0.1927  0.4778     0.89233 (mod 2)
    20        Zn      20.000       0.0010  0.1943  1.0142     0.87550 (mod 2)
    21        Zn      20.000      -0.1677  0.4815  0.4754     0.84638 (mod 2)
    22        Mg      10.000      -0.1660  0.4812  1.0165    -0.54147 (mod 2)
    23        Mg      10.000      -0.3343  0.7699  0.4764     0.43126 (mod 2)
    24        Mg      10.000      -0.3328  0.7720  1.0129    -0.57548 (mod 2)
    25        Zn      20.000       0.3338  0.1937  0.4777     0.89141 (mod 2)
    26        Zn      20.000       0.3338  0.1921  1.0151     0.89248 (mod 2)
    27        Mg      10.000       0.1672  0.4790  0.4757     0.42604 (mod 2)
    28        Mg      10.000       0.1664  0.4813  1.0134    -0.57028 (mod 2)
    29        Mg      10.000      -0.0007  0.7707  0.4795     0.46056 (mod 2)
    30        Zn      20.000       0.0002  0.7690  1.0130     0.85047 (mod 2)
    31        Zn      20.000       0.6670  0.1928  0.4764     0.86685 (mod 2)
    32        Zn      20.000       0.6654  0.1917  1.0138     0.86858 (mod 2)
    33        Zn      20.000       0.4991  0.4794  0.4758     0.85434 (mod 2)
    34        Zn      20.000       0.4999  0.4810  1.0120     0.83507 (mod 2)
    35        Zn      20.000       0.3327  0.7693  0.4754     0.84407 (mod 2)
    36        Zn      20.000       0.3317  0.7679  1.0128     0.84743 (mod 2)
    37        O        6.000       0.1666  0.0966  0.0045     0.02487 (mod 2)
    38        O        6.000       0.1665  0.0964  0.5408    -0.98042 (mod 2)
    39        O        6.000       0.0006  0.3857  0.0038     0.02080 (mod 2)
    40        O        6.000      -0.0008  0.3855  0.5408    -0.98096 (mod 2)
    41        O        6.000      -0.1675  0.6739  0.0031     0.01617 (mod 2)
    42        O        6.000      -0.1678  0.6741  0.5405    -0.98277 (mod 2)
    43        O        6.000       0.4999  0.0946  0.0048     0.02654 (mod 2)
    44        O        6.000       0.5001  0.0969  0.5421    -0.97289 (mod 2)
    45        O        6.000       0.3331  0.3849  0.0023     0.01238 (mod 2)
    46        O        6.000       0.3327  0.3848  0.5431    -0.96808 (mod 2)
    47        O        6.000       0.1657  0.6724  0.0047     0.02536 (mod 2)
    48        O        6.000       0.1657  0.6720  0.5387    -0.99314 (mod 2)
    49        O        6.000       0.8335  0.0952  0.0026     0.01472 (mod 2)
    50        O        6.000       0.8326  0.0951  0.5431    -0.96731 (mod 2)
    51        O        6.000       0.6663  0.3842  0.0030     0.01614 (mod 2)
    52        O        6.000       0.6665  0.3847  0.5423    -0.97221 (mod 2)
    53        O        6.000       0.5007  0.6736  0.0029     0.01505 (mod 2)
    54        O        6.000       0.4995  0.6729  0.5409    -0.98078 (mod 2)
    55        O        6.000      -0.0004  0.1924  0.2734    -0.47393 (mod 2)
    56        O        6.000      -0.0005  0.1924  0.8096     0.52022 (mod 2)
    57        O        6.000      -0.1672  0.4817  0.2705    -0.49037 (mod 2)
    58        O        6.000      -0.1676  0.4807  0.8126     0.53651 (mod 2)
    59        O        6.000      -0.3348  0.7697  0.2726    -0.47933 (mod 2)
    60        O        6.000      -0.3351  0.7689  0.8091     0.51695 (mod 2)
    61        O        6.000       0.3332  0.1926  0.2732    -0.47472 (mod 2)
    62        O        6.000       0.3331  0.1912  0.8110     0.52838 (mod 2)
    63        O        6.000       0.1668  0.4823  0.2719    -0.48248 (mod 2)
    64        O        6.000       0.1671  0.4799  0.8097     0.52039 (mod 2)
    65        O        6.000      -0.0007  0.7699  0.2758    -0.46116 (mod 2)
    66        O        6.000      -0.0003  0.7686  0.8082     0.51187 (mod 2)
    67        O        6.000       0.6667  0.1914  0.2725    -0.47875 (mod 2)
    68        O        6.000       0.6668  0.1924  0.8099     0.52249 (mod 2)
    69        O        6.000       0.4993  0.4808  0.2719    -0.48256 (mod 2)
    70        O        6.000       0.4995  0.4798  0.8081     0.51157 (mod 2)
    71        O        6.000       0.3327  0.7686  0.2712    -0.48705 (mod 2)
    72        O        6.000       0.3327  0.7685  0.8090     0.51628 (mod 2)
  ----------------------------------------------------------------------------
                                               IONIC PHASE:  -0.27079 (mod 2)
  ============================================================================


                            ELECTRONIC POLARIZATION
                            ~~~~~~~~~~~~~~~~~~~~~~~

        Note: (mod 1) means that the phases (angles ranging from
        -pi to pi) have been mapped to the interval [-1/2,+1/2) by
        dividing by 2*pi; (mod 2) refers to the interval [-1,+1)

  ============================================================================
   Spin    String     Weight      First k-point in string         Phase
  ----------------------------------------------------------------------------
    up        1      0.062500      0.0000  0.0000  0.0000    -0.00482 (mod 1)
    up        2      0.125000      0.0003  0.2888 -0.0001    -0.00885 (mod 1)
    up        3      0.062500     -0.0005 -0.5777  0.0002    -0.01152 (mod 1)
    up        4      0.125000      0.2501  0.1446 -0.0000    -0.00894 (mod 1)
    up        5      0.125000      0.2504  0.4335 -0.0001    -0.01160 (mod 1)
    up        6      0.125000      0.2496 -0.4330  0.0001    -0.01164 (mod 1)
    up        7      0.125000      0.2499 -0.1442  0.0000    -0.00903 (mod 1)
    up        8      0.062500     -0.5003 -0.2893  0.0001    -0.01164 (mod 1)
    up        9      0.125000     -0.5000 -0.0005 -0.0000    -0.01170 (mod 1)
    up       10      0.062500     -0.5008 -0.8669  0.0002    -0.01173 (mod 1)
  ----------------------------------------------------------------------------
   down       1      0.062500      0.0000  0.0000  0.0000    -0.00482 (mod 1)
   down       2      0.125000      0.0003  0.2888 -0.0001    -0.00885 (mod 1)
   down       3      0.062500     -0.0005 -0.5777  0.0002    -0.01152 (mod 1)
   down       4      0.125000      0.2501  0.1446 -0.0000    -0.00894 (mod 1)
   down       5      0.125000      0.2504  0.4335 -0.0001    -0.01160 (mod 1)
   down       6      0.125000      0.2496 -0.4330  0.0001    -0.01164 (mod 1)
   down       7      0.125000      0.2499 -0.1442  0.0000    -0.00903 (mod 1)
   down       8      0.062500     -0.5003 -0.2893  0.0001    -0.01164 (mod 1)
   down       9      0.125000     -0.5000 -0.0005 -0.0000    -0.01170 (mod 1)
   down      10      0.062500     -0.5008 -0.8669  0.0002    -0.01173 (mod 1)
  ----------------------------------------------------------------------------
                                        Average phase (up):  -0.01020 (mod 1)
                                      Average phase (down):  -0.01020 (mod 1)
                                          ELECTRONIC PHASE:  -0.02041 (mod 2)
  ============================================================================


                               SUMMARY OF PHASES
                               ~~~~~~~~~~~~~~~~~

                          Ionic Phase: -0.27079 (mod 2)
                     Electronic Phase: -0.02041 (mod 2)
                          TOTAL PHASE: -0.29120 (mod 2)


                             VALUES OF POLARIZATION
                             ~~~~~~~~~~~~~~~~~~~~~~

        The calculation of phases done along the direction of vector 3
        of the reciprocal lattice gives the following contribution to
        the polarization vector (in different units, and being Omega
        the volume of the unit cell):

           P =  -5.7643590  (mod  39.5905988)  (e/Omega).bohr

           P =  -0.0009913  (mod   0.0068081)  e/bohr^2

           P =  -0.0566718  (mod   0.3892318)  C/m^2

        The polarization direction is:  (-0.00003 , 0.00028 , 1.00000 )


               ==================================================



     Writing output data file ZnO.save/
 
     init_run     :      2.53s CPU      5.23s WALL (       1 calls)
     electrons    :   1476.21s CPU   1505.29s WALL (       1 calls)

     Called by init_run:
     wfcinit      :      0.00s CPU      0.00s WALL (       1 calls)
     wfcinit:atom :      0.14s CPU      0.15s WALL (      80 calls)
     wfcinit:wfcr :     65.96s CPU     67.31s WALL (      80 calls)
     potinit      :      0.19s CPU      0.23s WALL (       1 calls)
     hinit0       :      1.58s CPU      3.96s WALL (       1 calls)

     Called by electrons:
     c_bands      :   1036.46s CPU   1063.71s WALL (       1 calls)
     v_of_rho     :      0.14s CPU      0.16s WALL (       1 calls)
     v_h          :      0.01s CPU      0.01s WALL (       1 calls)
     v_xc         :      0.13s CPU      0.15s WALL (       1 calls)
     newd         :      0.09s CPU      0.13s WALL (       1 calls)

     Called by c_bands:
     init_us_2    :      0.72s CPU      0.73s WALL (     220 calls)
     cegterg      :    967.78s CPU    993.59s WALL (      80 calls)

     Called by sum_band:

     Called by *egterg:
     h_psi        :    420.46s CPU    430.71s WALL (    1152 calls)
     s_psi        :     37.47s CPU     37.51s WALL (    1152 calls)
     g_psi        :      0.32s CPU      0.33s WALL (     992 calls)
     cdiaghg      :    302.48s CPU    308.40s WALL (    1072 calls)
     cegterg:over :     76.91s CPU     87.38s WALL (     992 calls)
     cegterg:upda :     93.13s CPU     93.33s WALL (     992 calls)
     cegterg:last :     86.71s CPU     86.90s WALL (     320 calls)
     cdiaghg:chol :     16.66s CPU     16.95s WALL (    1072 calls)
     cdiaghg:inve :     13.10s CPU     13.15s WALL (    1072 calls)
     cdiaghg:para :     48.80s CPU     52.44s WALL (    2144 calls)

     Called by h_psi:
     h_psi:pot    :    419.41s CPU    429.64s WALL (    1152 calls)
     h_psi:calbec :     53.90s CPU     61.59s WALL (    1152 calls)
     vloc_psi     :    327.60s CPU    330.04s WALL (    1152 calls)
     add_vuspsi   :     37.90s CPU     38.00s WALL (    1152 calls)

     General routines
     calbec       :     65.48s CPU     74.38s WALL (    1292 calls)
     fft          :      1.50s CPU      3.65s WALL (      13 calls)
     ffts         :      0.01s CPU      0.01s WALL (       1 calls)
     fftw         :    323.91s CPU    326.33s WALL (  744670 calls)
     interpolate  :      0.01s CPU      0.02s WALL (       1 calls)
 
     Parallel routines
     fft_scatt_xy :      9.60s CPU      9.66s WALL (  744684 calls)
     fft_scatt_yz :    277.28s CPU    281.54s WALL (  744684 calls)
 
     PWSCF        :  25m48.38s CPU  26m40.09s WALL

 
   This run was terminated on:   2:37:24  15Jul2022            

=------------------------------------------------------------------------------=
   JOB DONE.
=------------------------------------------------------------------------------=
