
     Program PWSCF v.6.4.1 starts on 16Jun2022 at 19:56:47 

     This program is part of the open-source Quantum ESPRESSO suite
     for quantum simulation of materials; please cite
         "P. Giannozzi et al., J. Phys.:Condens. Matter 21 395502 (2009);
         "P. Giannozzi et al., J. Phys.:Condens. Matter 29 465901 (2017);
          URL http://www.quantum-espresso.org", 
     in publications or presentations arising from this work. More details at
     http://www.quantum-espresso.org/quote

     Parallel version (MPI), running on    64 processors

     MPI processes distributed on     1 nodes
     K-points division:     npool     =       4
     R & G space division:  proc/nbgrp/npool/nimage =      16
     Waiting for input...
     Reading input from standard input

     Current dimensions of program PWSCF are:
     Max number of different atomic species (ntypx) = 10
     Max number of k-points (npk) =  40000
     Max angular momentum in pseudopotentials (lmaxx) =  3

     Subspace diagonalization in iterative solution of the eigenvalue problem:
     one sub-group per band group will be used
     scalapack distributed-memory algorithm (size of sub-group:  2*  2 procs)

--------------------------------------------------------------------------------
NOTICE: Bravais lattice has wrong number (10) of symmetries - symmetries are disabled
--------------------------------------------------------------------------------
 
     Parallelization info
     --------------------
     sticks:   dense  smooth     PW     G-vecs:    dense   smooth      PW
     Min         104      57     17                 4806     1875     327
     Max         105      58     18                 4810     1880     330
     Sum        1675     913    283                76937    30013    5265
 


     bravais-lattice index     =            0
     lattice parameter (alat)  =       6.3955  a.u.
     unit-cell volume          =     310.5467 (a.u.)^3
     number of atoms/cell      =            4
     number of atomic types    =            3
     number of electrons       =        42.00
     number of Kohn-Sham states=           21
     kinetic-energy cutoff     =      80.0000  Ry
     charge density cutoff     =     600.0000  Ry
     convergence threshold     =      1.0E-06
     mixing beta               =       0.5000
     number of iterations used =            8  plain     mixing
     Exchange-correlation      = SLA  PW   PSX  PSC ( 1  4 10  8 0 0)
     Using LIBXC version       =    4   3   4
     nstep                     =          200


     celldm(1)=   6.395473  celldm(2)=   0.000000  celldm(3)=   0.000000
     celldm(4)=   0.000000  celldm(5)=   0.000000  celldm(6)=   0.000000

     crystal axes: (cart. coord. in units of alat)
               a(1) = (   1.000000   0.000000   0.000000 )  
               a(2) = (  -0.500000   0.866025  -0.000000 )  
               a(3) = (   0.000000  -0.000000   1.370814 )  

     reciprocal axes: (cart. coord. in units 2 pi/alat)
               b(1) = (  1.000000  0.577350  0.000000 )  
               b(2) = ( -0.000000  1.154701  0.000000 )  
               b(3) = ( -0.000000  0.000000  0.729494 )  


     PseudoPot. # 1 for Mg read from file:
     ./GBRV_PBEsol/mg_pbesol_v1.4.uspp.F.UPF
     MD5 check sum: 4059f37963cf5867752dbf5ab2400678
     Pseudo is Ultrasoft, Zval = 10.0
     Generated by new atomic code, or converted to UPF format
     Using radial grid of  821 points,  7 beta functions with: 
                l(1) =   0
                l(2) =   0
                l(3) =   0
                l(4) =   1
                l(5) =   1
                l(6) =   2
                l(7) =   2
     Q(r) pseudized with  8 coefficients,  rinner =    1.200   1.200   1.200
                                                       1.200   1.200

     PseudoPot. # 2 for Zn read from file:
     ./GBRV_PBEsol/zn_pbesol_v1.uspp.F.UPF
     MD5 check sum: 7d8615e52efe7c1e2b1899de8658bae2
     Pseudo is Ultrasoft, Zval = 20.0
     Generated by new atomic code, or converted to UPF format
     Using radial grid of  943 points,  6 beta functions with: 
                l(1) =   0
                l(2) =   0
                l(3) =   1
                l(4) =   1
                l(5) =   2
                l(6) =   2
     Q(r) pseudized with  8 coefficients,  rinner =    1.100   1.100   1.100
                                                       1.100   1.100

     PseudoPot. # 3 for O  read from file:
     ./GBRV_PBEsol/o_pbesol_v1.2.uspp.F.UPF
     MD5 check sum: 501638753501ef6325af9037351f7734
     Pseudo is Ultrasoft + core correction, Zval =  6.0
     Generated by new atomic code, or converted to UPF format
     Using radial grid of  737 points,  5 beta functions with: 
                l(1) =   0
                l(2) =   0
                l(3) =   1
                l(4) =   1
                l(5) =   2
     Q(r) pseudized with  8 coefficients,  rinner =    0.900   0.900   0.900
                                                       0.900   0.900

     atomic species   valence    mass     pseudopotential
        Mg            10.00    24.30500     Mg( 1.00)
        Zn            20.00    65.38000     Zn( 1.00)
        O              6.00    15.99900     O ( 1.00)

     No symmetry found


                                    s                        frac. trans.

      isym =  1     identity                                     

 cryst.   s( 1) = (     1          0          0      )
                  (     0          1          0      )
                  (     0          0          1      )

 cart.    s( 1) = (  1.0000000 -0.0000000  0.0000000 )
                  ( -0.0000000  1.0000000 -0.0000000 )
                  (  0.0000000 -0.0000000  1.0000000 )


   Cartesian axes

     site n.     atom                  positions (alat units)
         1           O   tau(   1) = (   0.5000002   0.2886754   0.0100698  )
         2           O   tau(   2) = (   0.0000002   0.5773490   0.6954764  )
         3           Zn  tau(   3) = (   0.5000001   0.2886744   0.7731305  )
         4           Mg  tau(   4) = (  -0.0000000   0.5773505   1.4630398  )

   Crystallographic axes

     site n.     atom                  positions (cryst. coord.)
         1           O   tau(   1) = (  0.6666670  0.3333337  0.0073459  )
         2           O   tau(   2) = (  0.3333329  0.6666657  0.5073458  )
         3           Zn  tau(   3) = (  0.6666664  0.3333329  0.5639939  )
         4           Mg  tau(   4) = (  0.3333337  0.6666677  1.0672785  )

     number of k points=   260
                       cart. coord. in units 2pi/alat
        k(    1) = (   0.0000000   0.0000000   0.0000000), wk =   0.0039062
        k(    2) = (  -0.0000000   0.0000000   0.0911867), wk =   0.0078125
        k(    3) = (  -0.0000000   0.0000000   0.1823734), wk =   0.0078125
        k(    4) = (  -0.0000000   0.0000001   0.2735602), wk =   0.0078125
        k(    5) = (   0.0000000  -0.0000001  -0.3647469), wk =   0.0039062
        k(    6) = (  -0.0000000   0.1443376   0.0000001), wk =   0.0078125
        k(    7) = (  -0.0000000   0.1443376   0.0911868), wk =   0.0078125
        k(    8) = (  -0.0000000   0.1443376   0.1823735), wk =   0.0078125
        k(    9) = (  -0.0000000   0.1443377   0.2735602), wk =   0.0078125
        k(   10) = (  -0.0000000   0.1443375  -0.3647468), wk =   0.0078125
        k(   11) = (  -0.0000000   0.1443376  -0.2735601), wk =   0.0078125
        k(   12) = (  -0.0000000   0.1443376  -0.1823734), wk =   0.0078125
        k(   13) = (  -0.0000000   0.1443376  -0.0911867), wk =   0.0078125
        k(   14) = (  -0.0000000   0.2886752   0.0000001), wk =   0.0078125
        k(   15) = (  -0.0000000   0.2886752   0.0911868), wk =   0.0078125
        k(   16) = (  -0.0000000   0.2886753   0.1823735), wk =   0.0078125
        k(   17) = (  -0.0000000   0.2886753   0.2735603), wk =   0.0078125
        k(   18) = (  -0.0000000   0.2886751  -0.3647468), wk =   0.0078125
        k(   19) = (  -0.0000000   0.2886752  -0.2735601), wk =   0.0078125
        k(   20) = (  -0.0000000   0.2886752  -0.1823733), wk =   0.0078125
        k(   21) = (  -0.0000000   0.2886752  -0.0911866), wk =   0.0078125
        k(   22) = (  -0.0000000   0.4330128   0.0000002), wk =   0.0078125
        k(   23) = (  -0.0000000   0.4330128   0.0911869), wk =   0.0078125
        k(   24) = (  -0.0000000   0.4330129   0.1823736), wk =   0.0078125
        k(   25) = (  -0.0000000   0.4330129   0.2735603), wk =   0.0078125
        k(   26) = (  -0.0000000   0.4330127  -0.3647467), wk =   0.0078125
        k(   27) = (  -0.0000000   0.4330128  -0.2735600), wk =   0.0078125
        k(   28) = (  -0.0000000   0.4330128  -0.1823733), wk =   0.0078125
        k(   29) = (  -0.0000000   0.4330128  -0.0911866), wk =   0.0078125
        k(   30) = (   0.0000000  -0.5773504  -0.0000002), wk =   0.0039062
        k(   31) = (   0.0000000  -0.5773504   0.0911865), wk =   0.0078125
        k(   32) = (   0.0000000  -0.5773504   0.1823732), wk =   0.0078125
        k(   33) = (   0.0000000  -0.5773504   0.2735600), wk =   0.0078125
        k(   34) = (   0.0000000  -0.5773505  -0.3647471), wk =   0.0039062
        k(   35) = (   0.1250000   0.0721688   0.0000000), wk =   0.0078125
        k(   36) = (   0.1250000   0.0721688   0.0911867), wk =   0.0078125
        k(   37) = (   0.1250000   0.0721688   0.1823735), wk =   0.0078125
        k(   38) = (   0.1250000   0.0721689   0.2735602), wk =   0.0078125
        k(   39) = (   0.1250000   0.0721687  -0.3647469), wk =   0.0078125
        k(   40) = (   0.1250000   0.0721687  -0.2735601), wk =   0.0078125
        k(   41) = (   0.1250000   0.0721688  -0.1823734), wk =   0.0078125
        k(   42) = (   0.1250000   0.0721688  -0.0911867), wk =   0.0078125
        k(   43) = (   0.1250000   0.2165064   0.0000001), wk =   0.0078125
        k(   44) = (   0.1250000   0.2165064   0.0911868), wk =   0.0078125
        k(   45) = (   0.1250000   0.2165064   0.1823735), wk =   0.0078125
        k(   46) = (   0.1250000   0.2165065   0.2735602), wk =   0.0078125
        k(   47) = (   0.1250000   0.2165063  -0.3647468), wk =   0.0078125
        k(   48) = (   0.1250000   0.2165063  -0.2735601), wk =   0.0078125
        k(   49) = (   0.1250000   0.2165064  -0.1823734), wk =   0.0078125
        k(   50) = (   0.1250000   0.2165064  -0.0911867), wk =   0.0078125
        k(   51) = (   0.1250000   0.3608440   0.0000001), wk =   0.0078125
        k(   52) = (   0.1250000   0.3608440   0.0911868), wk =   0.0078125
        k(   53) = (   0.1250000   0.3608441   0.1823736), wk =   0.0078125
        k(   54) = (   0.1250000   0.3608441   0.2735603), wk =   0.0078125
        k(   55) = (   0.1250000   0.3608439  -0.3647468), wk =   0.0078125
        k(   56) = (   0.1250000   0.3608440  -0.2735600), wk =   0.0078125
        k(   57) = (   0.1250000   0.3608440  -0.1823733), wk =   0.0078125
        k(   58) = (   0.1250000   0.3608440  -0.0911866), wk =   0.0078125
        k(   59) = (   0.1250000   0.5051816   0.0000002), wk =   0.0078125
        k(   60) = (   0.1250000   0.5051816   0.0911869), wk =   0.0078125
        k(   61) = (   0.1250000   0.5051817   0.1823736), wk =   0.0078125
        k(   62) = (   0.1250000   0.5051817   0.2735603), wk =   0.0078125
        k(   63) = (   0.1250000   0.5051815  -0.3647467), wk =   0.0078125
        k(   64) = (   0.1250000   0.5051816  -0.2735600), wk =   0.0078125
        k(   65) = (   0.1250000   0.5051816  -0.1823733), wk =   0.0078125
        k(   66) = (   0.1250000   0.5051816  -0.0911866), wk =   0.0078125
        k(   67) = (   0.1250000  -0.5051816  -0.0000002), wk =   0.0078125
        k(   68) = (   0.1250000  -0.5051816   0.0911865), wk =   0.0078125
        k(   69) = (   0.1250000  -0.5051816   0.1823732), wk =   0.0078125
        k(   70) = (   0.1250000  -0.5051816   0.2735600), wk =   0.0078125
        k(   71) = (   0.1250000  -0.5051817  -0.3647471), wk =   0.0078125
        k(   72) = (   0.1250000  -0.5051817  -0.2735604), wk =   0.0078125
        k(   73) = (   0.1250000  -0.5051817  -0.1823736), wk =   0.0078125
        k(   74) = (   0.1250000  -0.5051817  -0.0911869), wk =   0.0078125
        k(   75) = (   0.1250000  -0.3608440  -0.0000001), wk =   0.0078125
        k(   76) = (   0.1250000  -0.3608440   0.0911866), wk =   0.0078125
        k(   77) = (   0.1250000  -0.3608440   0.1823733), wk =   0.0078125
        k(   78) = (   0.1250000  -0.3608440   0.2735600), wk =   0.0078125
        k(   79) = (   0.1250000  -0.3608441  -0.3647470), wk =   0.0078125
        k(   80) = (   0.1250000  -0.3608441  -0.2735603), wk =   0.0078125
        k(   81) = (   0.1250000  -0.3608441  -0.1823736), wk =   0.0078125
        k(   82) = (   0.1250000  -0.3608440  -0.0911869), wk =   0.0078125
        k(   83) = (   0.1250000  -0.2165064  -0.0000001), wk =   0.0078125
        k(   84) = (   0.1250000  -0.2165064   0.0911866), wk =   0.0078125
        k(   85) = (   0.1250000  -0.2165064   0.1823734), wk =   0.0078125
        k(   86) = (   0.1250000  -0.2165064   0.2735601), wk =   0.0078125
        k(   87) = (   0.1250000  -0.2165065  -0.3647470), wk =   0.0078125
        k(   88) = (   0.1250000  -0.2165065  -0.2735603), wk =   0.0078125
        k(   89) = (   0.1250000  -0.2165065  -0.1823735), wk =   0.0078125
        k(   90) = (   0.1250000  -0.2165064  -0.0911868), wk =   0.0078125
        k(   91) = (   0.1250000  -0.0721688  -0.0000000), wk =   0.0078125
        k(   92) = (   0.1250000  -0.0721688   0.0911867), wk =   0.0078125
        k(   93) = (   0.1250000  -0.0721688   0.1823734), wk =   0.0078125
        k(   94) = (   0.1250000  -0.0721688   0.2735601), wk =   0.0078125
        k(   95) = (   0.1250000  -0.0721689  -0.3647469), wk =   0.0078125
        k(   96) = (   0.1250000  -0.0721689  -0.2735602), wk =   0.0078125
        k(   97) = (   0.1250000  -0.0721688  -0.1823735), wk =   0.0078125
        k(   98) = (   0.1250000  -0.0721688  -0.0911868), wk =   0.0078125
        k(   99) = (   0.2500000   0.1443376   0.0000000), wk =   0.0078125
        k(  100) = (   0.2500000   0.1443376   0.0911867), wk =   0.0078125
        k(  101) = (   0.2500000   0.1443376   0.1823735), wk =   0.0078125
        k(  102) = (   0.2500000   0.1443377   0.2735602), wk =   0.0078125
        k(  103) = (   0.2500000   0.1443375  -0.3647469), wk =   0.0078125
        k(  104) = (   0.2500000   0.1443375  -0.2735601), wk =   0.0078125
        k(  105) = (   0.2500000   0.1443376  -0.1823734), wk =   0.0078125
        k(  106) = (   0.2500000   0.1443376  -0.0911867), wk =   0.0078125
        k(  107) = (   0.2500000   0.2886752   0.0000001), wk =   0.0078125
        k(  108) = (   0.2500000   0.2886752   0.0911868), wk =   0.0078125
        k(  109) = (   0.2500000   0.2886752   0.1823735), wk =   0.0078125
        k(  110) = (   0.2500000   0.2886753   0.2735602), wk =   0.0078125
        k(  111) = (   0.2500000   0.2886751  -0.3647468), wk =   0.0078125
        k(  112) = (   0.2500000   0.2886751  -0.2735601), wk =   0.0078125
        k(  113) = (   0.2500000   0.2886752  -0.1823734), wk =   0.0078125
        k(  114) = (   0.2500000   0.2886752  -0.0911866), wk =   0.0078125
        k(  115) = (   0.2500000   0.4330128   0.0000001), wk =   0.0078125
        k(  116) = (   0.2500000   0.4330128   0.0911868), wk =   0.0078125
        k(  117) = (   0.2500000   0.4330129   0.1823736), wk =   0.0078125
        k(  118) = (   0.2500000   0.4330129   0.2735603), wk =   0.0078125
        k(  119) = (   0.2500000   0.4330127  -0.3647468), wk =   0.0078125
        k(  120) = (   0.2500000   0.4330128  -0.2735600), wk =   0.0078125
        k(  121) = (   0.2500000   0.4330128  -0.1823733), wk =   0.0078125
        k(  122) = (   0.2500000   0.4330128  -0.0911866), wk =   0.0078125
        k(  123) = (   0.2500000   0.5773504   0.0000002), wk =   0.0078125
        k(  124) = (   0.2500000   0.5773504   0.0911869), wk =   0.0078125
        k(  125) = (   0.2500000   0.5773505   0.1823736), wk =   0.0078125
        k(  126) = (   0.2500000   0.5773505   0.2735603), wk =   0.0078125
        k(  127) = (   0.2500000   0.5773503  -0.3647467), wk =   0.0078125
        k(  128) = (   0.2500000   0.5773504  -0.2735600), wk =   0.0078125
        k(  129) = (   0.2500000   0.5773504  -0.1823733), wk =   0.0078125
        k(  130) = (   0.2500000   0.5773504  -0.0911865), wk =   0.0078125
        k(  131) = (   0.2500000  -0.4330128  -0.0000002), wk =   0.0078125
        k(  132) = (   0.2500000  -0.4330128   0.0911865), wk =   0.0078125
        k(  133) = (   0.2500000  -0.4330128   0.1823733), wk =   0.0078125
        k(  134) = (   0.2500000  -0.4330128   0.2735600), wk =   0.0078125
        k(  135) = (   0.2500000  -0.4330129  -0.3647471), wk =   0.0078125
        k(  136) = (   0.2500000  -0.4330129  -0.2735603), wk =   0.0078125
        k(  137) = (   0.2500000  -0.4330129  -0.1823736), wk =   0.0078125
        k(  138) = (   0.2500000  -0.4330129  -0.0911869), wk =   0.0078125
        k(  139) = (   0.2500000  -0.2886752  -0.0000001), wk =   0.0078125
        k(  140) = (   0.2500000  -0.2886752   0.0911866), wk =   0.0078125
        k(  141) = (   0.2500000  -0.2886752   0.1823733), wk =   0.0078125
        k(  142) = (   0.2500000  -0.2886752   0.2735600), wk =   0.0078125
        k(  143) = (   0.2500000  -0.2886753  -0.3647470), wk =   0.0078125
        k(  144) = (   0.2500000  -0.2886753  -0.2735603), wk =   0.0078125
        k(  145) = (   0.2500000  -0.2886753  -0.1823736), wk =   0.0078125
        k(  146) = (   0.2500000  -0.2886752  -0.0911868), wk =   0.0078125
        k(  147) = (   0.2500000  -0.1443376  -0.0000001), wk =   0.0078125
        k(  148) = (   0.2500000  -0.1443376   0.0911866), wk =   0.0078125
        k(  149) = (   0.2500000  -0.1443376   0.1823734), wk =   0.0078125
        k(  150) = (   0.2500000  -0.1443376   0.2735601), wk =   0.0078125
        k(  151) = (   0.2500000  -0.1443377  -0.3647470), wk =   0.0078125
        k(  152) = (   0.2500000  -0.1443377  -0.2735602), wk =   0.0078125
        k(  153) = (   0.2500000  -0.1443377  -0.1823735), wk =   0.0078125
        k(  154) = (   0.2500000  -0.1443376  -0.0911868), wk =   0.0078125
        k(  155) = (   0.2500000  -0.0000000  -0.0000000), wk =   0.0078125
        k(  156) = (   0.2500000   0.0000000   0.0911867), wk =   0.0078125
        k(  157) = (   0.2500000   0.0000000   0.1823734), wk =   0.0078125
        k(  158) = (   0.2500000   0.0000000   0.2735601), wk =   0.0078125
        k(  159) = (   0.2500000  -0.0000001  -0.3647469), wk =   0.0078125
        k(  160) = (   0.2500000  -0.0000001  -0.2735602), wk =   0.0078125
        k(  161) = (   0.2500000  -0.0000000  -0.1823735), wk =   0.0078125
        k(  162) = (   0.2500000  -0.0000000  -0.0911867), wk =   0.0078125
        k(  163) = (   0.3750000   0.2165064   0.0000000), wk =   0.0078125
        k(  164) = (   0.3750000   0.2165064   0.0911868), wk =   0.0078125
        k(  165) = (   0.3750000   0.2165064   0.1823735), wk =   0.0078125
        k(  166) = (   0.3750000   0.2165065   0.2735602), wk =   0.0078125
        k(  167) = (   0.3750000   0.2165063  -0.3647468), wk =   0.0078125
        k(  168) = (   0.3750000   0.2165063  -0.2735601), wk =   0.0078125
        k(  169) = (   0.3750000   0.2165064  -0.1823734), wk =   0.0078125
        k(  170) = (   0.3750000   0.2165064  -0.0911867), wk =   0.0078125
        k(  171) = (   0.3750000   0.3608440   0.0000001), wk =   0.0078125
        k(  172) = (   0.3750000   0.3608440   0.0911868), wk =   0.0078125
        k(  173) = (   0.3750000   0.3608440   0.1823735), wk =   0.0078125
        k(  174) = (   0.3750000   0.3608441   0.2735603), wk =   0.0078125
        k(  175) = (   0.3750000   0.3608439  -0.3647468), wk =   0.0078125
        k(  176) = (   0.3750000   0.3608439  -0.2735601), wk =   0.0078125
        k(  177) = (   0.3750000   0.3608440  -0.1823733), wk =   0.0078125
        k(  178) = (   0.3750000   0.3608440  -0.0911866), wk =   0.0078125
        k(  179) = (   0.3750000   0.5051816   0.0000001), wk =   0.0078125
        k(  180) = (   0.3750000   0.5051816   0.0911869), wk =   0.0078125
        k(  181) = (   0.3750000   0.5051817   0.1823736), wk =   0.0078125
        k(  182) = (   0.3750000   0.5051817   0.2735603), wk =   0.0078125
        k(  183) = (   0.3750000   0.5051815  -0.3647467), wk =   0.0078125
        k(  184) = (   0.3750000   0.5051816  -0.2735600), wk =   0.0078125
        k(  185) = (   0.3750000   0.5051816  -0.1823733), wk =   0.0078125
        k(  186) = (   0.3750000   0.5051816  -0.0911866), wk =   0.0078125
        k(  187) = (   0.3750000   0.6495192   0.0000002), wk =   0.0078125
        k(  188) = (   0.3750000   0.6495192   0.0911869), wk =   0.0078125
        k(  189) = (   0.3750000   0.6495193   0.1823736), wk =   0.0078125
        k(  190) = (   0.3750000   0.6495193   0.2735604), wk =   0.0078125
        k(  191) = (   0.3750000   0.6495191  -0.3647467), wk =   0.0078125
        k(  192) = (   0.3750000   0.6495192  -0.2735600), wk =   0.0078125
        k(  193) = (   0.3750000   0.6495192  -0.1823732), wk =   0.0078125
        k(  194) = (   0.3750000   0.6495192  -0.0911865), wk =   0.0078125
        k(  195) = (   0.3750000  -0.3608440  -0.0000002), wk =   0.0078125
        k(  196) = (   0.3750000  -0.3608440   0.0911866), wk =   0.0078125
        k(  197) = (   0.3750000  -0.3608440   0.1823733), wk =   0.0078125
        k(  198) = (   0.3750000  -0.3608440   0.2735600), wk =   0.0078125
        k(  199) = (   0.3750000  -0.3608441  -0.3647470), wk =   0.0078125
        k(  200) = (   0.3750000  -0.3608441  -0.2735603), wk =   0.0078125
        k(  201) = (   0.3750000  -0.3608441  -0.1823736), wk =   0.0078125
        k(  202) = (   0.3750000  -0.3608441  -0.0911869), wk =   0.0078125
        k(  203) = (   0.3750000  -0.2165064  -0.0000001), wk =   0.0078125
        k(  204) = (   0.3750000  -0.2165064   0.0911866), wk =   0.0078125
        k(  205) = (   0.3750000  -0.2165064   0.1823733), wk =   0.0078125
        k(  206) = (   0.3750000  -0.2165064   0.2735600), wk =   0.0078125
        k(  207) = (   0.3750000  -0.2165065  -0.3647470), wk =   0.0078125
        k(  208) = (   0.3750000  -0.2165065  -0.2735603), wk =   0.0078125
        k(  209) = (   0.3750000  -0.2165065  -0.1823736), wk =   0.0078125
        k(  210) = (   0.3750000  -0.2165064  -0.0911868), wk =   0.0078125
        k(  211) = (   0.3750000  -0.0721688  -0.0000001), wk =   0.0078125
        k(  212) = (   0.3750000  -0.0721688   0.0911867), wk =   0.0078125
        k(  213) = (   0.3750000  -0.0721688   0.1823734), wk =   0.0078125
        k(  214) = (   0.3750000  -0.0721688   0.2735601), wk =   0.0078125
        k(  215) = (   0.3750000  -0.0721689  -0.3647469), wk =   0.0078125
        k(  216) = (   0.3750000  -0.0721689  -0.2735602), wk =   0.0078125
        k(  217) = (   0.3750000  -0.0721689  -0.1823735), wk =   0.0078125
        k(  218) = (   0.3750000  -0.0721688  -0.0911868), wk =   0.0078125
        k(  219) = (   0.3750000   0.0721688  -0.0000000), wk =   0.0078125
        k(  220) = (   0.3750000   0.0721688   0.0911867), wk =   0.0078125
        k(  221) = (   0.3750000   0.0721688   0.1823734), wk =   0.0078125
        k(  222) = (   0.3750000   0.0721688   0.2735601), wk =   0.0078125
        k(  223) = (   0.3750000   0.0721687  -0.3647469), wk =   0.0078125
        k(  224) = (   0.3750000   0.0721687  -0.2735602), wk =   0.0078125
        k(  225) = (   0.3750000   0.0721688  -0.1823735), wk =   0.0078125
        k(  226) = (   0.3750000   0.0721688  -0.0911867), wk =   0.0078125
        k(  227) = (  -0.5000000  -0.2886752  -0.0000001), wk =   0.0039062
        k(  228) = (  -0.5000000  -0.2886752   0.0911867), wk =   0.0078125
        k(  229) = (  -0.5000000  -0.2886752   0.1823734), wk =   0.0078125
        k(  230) = (  -0.5000000  -0.2886751   0.2735601), wk =   0.0078125
        k(  231) = (  -0.5000000  -0.2886753  -0.3647469), wk =   0.0039062
        k(  232) = (  -0.5000000  -0.1443376  -0.0000000), wk =   0.0078125
        k(  233) = (  -0.5000000  -0.1443376   0.0911867), wk =   0.0078125
        k(  234) = (  -0.5000000  -0.1443375   0.1823734), wk =   0.0078125
        k(  235) = (  -0.5000000  -0.1443375   0.2735602), wk =   0.0078125
        k(  236) = (  -0.5000000  -0.1443377  -0.3647469), wk =   0.0078125
        k(  237) = (  -0.5000000  -0.1443376  -0.2735602), wk =   0.0078125
        k(  238) = (  -0.5000000  -0.1443376  -0.1823734), wk =   0.0078125
        k(  239) = (  -0.5000000  -0.1443376  -0.0911867), wk =   0.0078125
        k(  240) = (  -0.5000000   0.0000000   0.0000000), wk =   0.0078125
        k(  241) = (  -0.5000000   0.0000000   0.0911868), wk =   0.0078125
        k(  242) = (  -0.5000000   0.0000001   0.1823735), wk =   0.0078125
        k(  243) = (  -0.5000000   0.0000001   0.2735602), wk =   0.0078125
        k(  244) = (  -0.5000000  -0.0000001  -0.3647468), wk =   0.0078125
        k(  245) = (  -0.5000000  -0.0000000  -0.2735601), wk =   0.0078125
        k(  246) = (  -0.5000000  -0.0000000  -0.1823734), wk =   0.0078125
        k(  247) = (  -0.5000000   0.0000000  -0.0911867), wk =   0.0078125
        k(  248) = (  -0.5000000   0.1443376   0.0000001), wk =   0.0078125
        k(  249) = (  -0.5000000   0.1443376   0.0911868), wk =   0.0078125
        k(  250) = (  -0.5000000   0.1443377   0.1823735), wk =   0.0078125
        k(  251) = (  -0.5000000   0.1443377   0.2735603), wk =   0.0078125
        k(  252) = (  -0.5000000   0.1443376  -0.3647468), wk =   0.0078125
        k(  253) = (  -0.5000000   0.1443376  -0.2735601), wk =   0.0078125
        k(  254) = (  -0.5000000   0.1443376  -0.1823733), wk =   0.0078125
        k(  255) = (  -0.5000000   0.1443376  -0.0911866), wk =   0.0078125
        k(  256) = (  -0.5000000  -0.8660256  -0.0000003), wk =   0.0039062
        k(  257) = (  -0.5000000  -0.8660256   0.0911865), wk =   0.0078125
        k(  258) = (  -0.5000000  -0.8660256   0.1823732), wk =   0.0078125
        k(  259) = (  -0.5000000  -0.8660256   0.2735599), wk =   0.0078125
        k(  260) = (  -0.5000000  -0.8660257  -0.3647471), wk =   0.0039062

                       cryst. coord.
        k(    1) = (   0.0000000   0.0000000   0.0000000), wk =   0.0039062
        k(    2) = (   0.0000000  -0.0000000   0.1250000), wk =   0.0078125
        k(    3) = (   0.0000000  -0.0000000   0.2500000), wk =   0.0078125
        k(    4) = (  -0.0000000  -0.0000000   0.3750000), wk =   0.0078125
        k(    5) = (  -0.0000000   0.0000000  -0.5000000), wk =   0.0039062
        k(    6) = (   0.0000000   0.1250000  -0.0000000), wk =   0.0078125
        k(    7) = (   0.0000000   0.1250000   0.1250000), wk =   0.0078125
        k(    8) = (   0.0000000   0.1250000   0.2500000), wk =   0.0078125
        k(    9) = (   0.0000000   0.1250000   0.3750000), wk =   0.0078125
        k(   10) = (   0.0000000   0.1250000  -0.5000000), wk =   0.0078125
        k(   11) = (   0.0000000   0.1250000  -0.3750000), wk =   0.0078125
        k(   12) = (   0.0000000   0.1250000  -0.2500000), wk =   0.0078125
        k(   13) = (   0.0000000   0.1250000  -0.1250000), wk =   0.0078125
        k(   14) = (   0.0000000   0.2500000  -0.0000000), wk =   0.0078125
        k(   15) = (   0.0000000   0.2500000   0.1250000), wk =   0.0078125
        k(   16) = (   0.0000000   0.2500000   0.2500000), wk =   0.0078125
        k(   17) = (   0.0000000   0.2500000   0.3750000), wk =   0.0078125
        k(   18) = (   0.0000000   0.2500000  -0.5000000), wk =   0.0078125
        k(   19) = (   0.0000000   0.2500000  -0.3750000), wk =   0.0078125
        k(   20) = (   0.0000000   0.2500000  -0.2500000), wk =   0.0078125
        k(   21) = (   0.0000000   0.2500000  -0.1250000), wk =   0.0078125
        k(   22) = (   0.0000000   0.3750000  -0.0000000), wk =   0.0078125
        k(   23) = (   0.0000000   0.3750000   0.1250000), wk =   0.0078125
        k(   24) = (   0.0000000   0.3750000   0.2500000), wk =   0.0078125
        k(   25) = (   0.0000000   0.3750000   0.3750000), wk =   0.0078125
        k(   26) = (   0.0000000   0.3750000  -0.5000000), wk =   0.0078125
        k(   27) = (   0.0000000   0.3750000  -0.3750000), wk =   0.0078125
        k(   28) = (   0.0000000   0.3750000  -0.2500000), wk =   0.0078125
        k(   29) = (   0.0000000   0.3750000  -0.1250000), wk =   0.0078125
        k(   30) = (  -0.0000000  -0.5000000   0.0000000), wk =   0.0039062
        k(   31) = (  -0.0000000  -0.5000000   0.1250000), wk =   0.0078125
        k(   32) = (  -0.0000000  -0.5000000   0.2500000), wk =   0.0078125
        k(   33) = (  -0.0000000  -0.5000000   0.3750000), wk =   0.0078125
        k(   34) = (  -0.0000000  -0.5000000  -0.5000000), wk =   0.0039062
        k(   35) = (   0.1250000   0.0000000  -0.0000000), wk =   0.0078125
        k(   36) = (   0.1250000   0.0000000   0.1250000), wk =   0.0078125
        k(   37) = (   0.1250000  -0.0000000   0.2500000), wk =   0.0078125
        k(   38) = (   0.1250000   0.0000000   0.3750000), wk =   0.0078125
        k(   39) = (   0.1250000   0.0000000  -0.5000000), wk =   0.0078125
        k(   40) = (   0.1250000   0.0000000  -0.3750000), wk =   0.0078125
        k(   41) = (   0.1250000   0.0000000  -0.2500000), wk =   0.0078125
        k(   42) = (   0.1250000   0.0000000  -0.1250000), wk =   0.0078125
        k(   43) = (   0.1250000   0.1250000  -0.0000000), wk =   0.0078125
        k(   44) = (   0.1250000   0.1250000   0.1250000), wk =   0.0078125
        k(   45) = (   0.1250000   0.1250000   0.2500000), wk =   0.0078125
        k(   46) = (   0.1250000   0.1250000   0.3750000), wk =   0.0078125
        k(   47) = (   0.1250000   0.1250000  -0.5000000), wk =   0.0078125
        k(   48) = (   0.1250000   0.1250000  -0.3750000), wk =   0.0078125
        k(   49) = (   0.1250000   0.1250000  -0.2500000), wk =   0.0078125
        k(   50) = (   0.1250000   0.1250000  -0.1250000), wk =   0.0078125
        k(   51) = (   0.1250000   0.2500000  -0.0000000), wk =   0.0078125
        k(   52) = (   0.1250000   0.2500000   0.1250000), wk =   0.0078125
        k(   53) = (   0.1250000   0.2500000   0.2500000), wk =   0.0078125
        k(   54) = (   0.1250000   0.2500000   0.3750000), wk =   0.0078125
        k(   55) = (   0.1250000   0.2500000  -0.5000000), wk =   0.0078125
        k(   56) = (   0.1250000   0.2500000  -0.3750000), wk =   0.0078125
        k(   57) = (   0.1250000   0.2500000  -0.2500000), wk =   0.0078125
        k(   58) = (   0.1250000   0.2500000  -0.1250000), wk =   0.0078125
        k(   59) = (   0.1250000   0.3750000  -0.0000000), wk =   0.0078125
        k(   60) = (   0.1250000   0.3750000   0.1250000), wk =   0.0078125
        k(   61) = (   0.1250000   0.3750000   0.2500000), wk =   0.0078125
        k(   62) = (   0.1250000   0.3750000   0.3750000), wk =   0.0078125
        k(   63) = (   0.1250000   0.3750000  -0.5000000), wk =   0.0078125
        k(   64) = (   0.1250000   0.3750000  -0.3750000), wk =   0.0078125
        k(   65) = (   0.1250000   0.3750000  -0.2500000), wk =   0.0078125
        k(   66) = (   0.1250000   0.3750000  -0.1250000), wk =   0.0078125
        k(   67) = (   0.1250000  -0.5000000   0.0000000), wk =   0.0078125
        k(   68) = (   0.1250000  -0.5000000   0.1250000), wk =   0.0078125
        k(   69) = (   0.1250000  -0.5000000   0.2500000), wk =   0.0078125
        k(   70) = (   0.1250000  -0.5000000   0.3750000), wk =   0.0078125
        k(   71) = (   0.1250000  -0.5000000  -0.5000000), wk =   0.0078125
        k(   72) = (   0.1250000  -0.5000000  -0.3750000), wk =   0.0078125
        k(   73) = (   0.1250000  -0.5000000  -0.2500000), wk =   0.0078125
        k(   74) = (   0.1250000  -0.5000000  -0.1250000), wk =   0.0078125
        k(   75) = (   0.1250000  -0.3750000   0.0000000), wk =   0.0078125
        k(   76) = (   0.1250000  -0.3750000   0.1250000), wk =   0.0078125
        k(   77) = (   0.1250000  -0.3750000   0.2500000), wk =   0.0078125
        k(   78) = (   0.1250000  -0.3750000   0.3750000), wk =   0.0078125
        k(   79) = (   0.1250000  -0.3750000  -0.5000000), wk =   0.0078125
        k(   80) = (   0.1250000  -0.3750000  -0.3750000), wk =   0.0078125
        k(   81) = (   0.1250000  -0.3750000  -0.2500000), wk =   0.0078125
        k(   82) = (   0.1250000  -0.3750000  -0.1250000), wk =   0.0078125
        k(   83) = (   0.1250000  -0.2500000   0.0000000), wk =   0.0078125
        k(   84) = (   0.1250000  -0.2500000   0.1250000), wk =   0.0078125
        k(   85) = (   0.1250000  -0.2500000   0.2500000), wk =   0.0078125
        k(   86) = (   0.1250000  -0.2500000   0.3750000), wk =   0.0078125
        k(   87) = (   0.1250000  -0.2500000  -0.5000000), wk =   0.0078125
        k(   88) = (   0.1250000  -0.2500000  -0.3750000), wk =   0.0078125
        k(   89) = (   0.1250000  -0.2500000  -0.2500000), wk =   0.0078125
        k(   90) = (   0.1250000  -0.2500000  -0.1250000), wk =   0.0078125
        k(   91) = (   0.1250000  -0.1250000   0.0000000), wk =   0.0078125
        k(   92) = (   0.1250000  -0.1250000   0.1250000), wk =   0.0078125
        k(   93) = (   0.1250000  -0.1250000   0.2500000), wk =   0.0078125
        k(   94) = (   0.1250000  -0.1250000   0.3750000), wk =   0.0078125
        k(   95) = (   0.1250000  -0.1250000  -0.5000000), wk =   0.0078125
        k(   96) = (   0.1250000  -0.1250000  -0.3750000), wk =   0.0078125
        k(   97) = (   0.1250000  -0.1250000  -0.2500000), wk =   0.0078125
        k(   98) = (   0.1250000  -0.1250000  -0.1250000), wk =   0.0078125
        k(   99) = (   0.2500000   0.0000000  -0.0000000), wk =   0.0078125
        k(  100) = (   0.2500000  -0.0000000   0.1250000), wk =   0.0078125
        k(  101) = (   0.2500000   0.0000000   0.2500000), wk =   0.0078125
        k(  102) = (   0.2500000   0.0000000   0.3750000), wk =   0.0078125
        k(  103) = (   0.2500000   0.0000000  -0.5000000), wk =   0.0078125
        k(  104) = (   0.2500000   0.0000000  -0.3750000), wk =   0.0078125
        k(  105) = (   0.2500000   0.0000000  -0.2500000), wk =   0.0078125
        k(  106) = (   0.2500000   0.0000000  -0.1250000), wk =   0.0078125
        k(  107) = (   0.2500000   0.1250000  -0.0000000), wk =   0.0078125
        k(  108) = (   0.2500000   0.1250000   0.1250000), wk =   0.0078125
        k(  109) = (   0.2500000   0.1250000   0.2500000), wk =   0.0078125
        k(  110) = (   0.2500000   0.1250000   0.3750000), wk =   0.0078125
        k(  111) = (   0.2500000   0.1250000  -0.5000000), wk =   0.0078125
        k(  112) = (   0.2500000   0.1250000  -0.3750000), wk =   0.0078125
        k(  113) = (   0.2500000   0.1250000  -0.2500000), wk =   0.0078125
        k(  114) = (   0.2500000   0.1250000  -0.1250000), wk =   0.0078125
        k(  115) = (   0.2500000   0.2500000  -0.0000000), wk =   0.0078125
        k(  116) = (   0.2500000   0.2500000   0.1250000), wk =   0.0078125
        k(  117) = (   0.2500000   0.2500000   0.2500000), wk =   0.0078125
        k(  118) = (   0.2500000   0.2500000   0.3750000), wk =   0.0078125
        k(  119) = (   0.2500000   0.2500000  -0.5000000), wk =   0.0078125
        k(  120) = (   0.2500000   0.2500000  -0.3750000), wk =   0.0078125
        k(  121) = (   0.2500000   0.2500000  -0.2500000), wk =   0.0078125
        k(  122) = (   0.2500000   0.2500000  -0.1250000), wk =   0.0078125
        k(  123) = (   0.2500000   0.3750000  -0.0000000), wk =   0.0078125
        k(  124) = (   0.2500000   0.3750000   0.1250000), wk =   0.0078125
        k(  125) = (   0.2500000   0.3750000   0.2500000), wk =   0.0078125
        k(  126) = (   0.2500000   0.3750000   0.3750000), wk =   0.0078125
        k(  127) = (   0.2500000   0.3750000  -0.5000000), wk =   0.0078125
        k(  128) = (   0.2500000   0.3750000  -0.3750000), wk =   0.0078125
        k(  129) = (   0.2500000   0.3750000  -0.2500000), wk =   0.0078125
        k(  130) = (   0.2500000   0.3750000  -0.1250000), wk =   0.0078125
        k(  131) = (   0.2500000  -0.5000000   0.0000000), wk =   0.0078125
        k(  132) = (   0.2500000  -0.5000000   0.1250000), wk =   0.0078125
        k(  133) = (   0.2500000  -0.5000000   0.2500000), wk =   0.0078125
        k(  134) = (   0.2500000  -0.5000000   0.3750000), wk =   0.0078125
        k(  135) = (   0.2500000  -0.5000000  -0.5000000), wk =   0.0078125
        k(  136) = (   0.2500000  -0.5000000  -0.3750000), wk =   0.0078125
        k(  137) = (   0.2500000  -0.5000000  -0.2500000), wk =   0.0078125
        k(  138) = (   0.2500000  -0.5000000  -0.1250000), wk =   0.0078125
        k(  139) = (   0.2500000  -0.3750000   0.0000000), wk =   0.0078125
        k(  140) = (   0.2500000  -0.3750000   0.1250000), wk =   0.0078125
        k(  141) = (   0.2500000  -0.3750000   0.2500000), wk =   0.0078125
        k(  142) = (   0.2500000  -0.3750000   0.3750000), wk =   0.0078125
        k(  143) = (   0.2500000  -0.3750000  -0.5000000), wk =   0.0078125
        k(  144) = (   0.2500000  -0.3750000  -0.3750000), wk =   0.0078125
        k(  145) = (   0.2500000  -0.3750000  -0.2500000), wk =   0.0078125
        k(  146) = (   0.2500000  -0.3750000  -0.1250000), wk =   0.0078125
        k(  147) = (   0.2500000  -0.2500000   0.0000000), wk =   0.0078125
        k(  148) = (   0.2500000  -0.2500000   0.1250000), wk =   0.0078125
        k(  149) = (   0.2500000  -0.2500000   0.2500000), wk =   0.0078125
        k(  150) = (   0.2500000  -0.2500000   0.3750000), wk =   0.0078125
        k(  151) = (   0.2500000  -0.2500000  -0.5000000), wk =   0.0078125
        k(  152) = (   0.2500000  -0.2500000  -0.3750000), wk =   0.0078125
        k(  153) = (   0.2500000  -0.2500000  -0.2500000), wk =   0.0078125
        k(  154) = (   0.2500000  -0.2500000  -0.1250000), wk =   0.0078125
        k(  155) = (   0.2500000  -0.1250000   0.0000000), wk =   0.0078125
        k(  156) = (   0.2500000  -0.1250000   0.1250000), wk =   0.0078125
        k(  157) = (   0.2500000  -0.1250000   0.2500000), wk =   0.0078125
        k(  158) = (   0.2500000  -0.1250000   0.3750000), wk =   0.0078125
        k(  159) = (   0.2500000  -0.1250000  -0.5000000), wk =   0.0078125
        k(  160) = (   0.2500000  -0.1250000  -0.3750000), wk =   0.0078125
        k(  161) = (   0.2500000  -0.1250000  -0.2500000), wk =   0.0078125
        k(  162) = (   0.2500000  -0.1250000  -0.1250000), wk =   0.0078125
        k(  163) = (   0.3750000   0.0000000  -0.0000000), wk =   0.0078125
        k(  164) = (   0.3750000   0.0000000   0.1250000), wk =   0.0078125
        k(  165) = (   0.3750000   0.0000000   0.2500000), wk =   0.0078125
        k(  166) = (   0.3750000   0.0000000   0.3750000), wk =   0.0078125
        k(  167) = (   0.3750000   0.0000000  -0.5000000), wk =   0.0078125
        k(  168) = (   0.3750000   0.0000000  -0.3750000), wk =   0.0078125
        k(  169) = (   0.3750000   0.0000000  -0.2500000), wk =   0.0078125
        k(  170) = (   0.3750000   0.0000000  -0.1250000), wk =   0.0078125
        k(  171) = (   0.3750000   0.1250000  -0.0000000), wk =   0.0078125
        k(  172) = (   0.3750000   0.1250000   0.1250000), wk =   0.0078125
        k(  173) = (   0.3750000   0.1250000   0.2500000), wk =   0.0078125
        k(  174) = (   0.3750000   0.1250000   0.3750000), wk =   0.0078125
        k(  175) = (   0.3750000   0.1250000  -0.5000000), wk =   0.0078125
        k(  176) = (   0.3750000   0.1250000  -0.3750000), wk =   0.0078125
        k(  177) = (   0.3750000   0.1250000  -0.2500000), wk =   0.0078125
        k(  178) = (   0.3750000   0.1250000  -0.1250000), wk =   0.0078125
        k(  179) = (   0.3750000   0.2500000  -0.0000000), wk =   0.0078125
        k(  180) = (   0.3750000   0.2500000   0.1250000), wk =   0.0078125
        k(  181) = (   0.3750000   0.2500000   0.2500000), wk =   0.0078125
        k(  182) = (   0.3750000   0.2500000   0.3750000), wk =   0.0078125
        k(  183) = (   0.3750000   0.2500000  -0.5000000), wk =   0.0078125
        k(  184) = (   0.3750000   0.2500000  -0.3750000), wk =   0.0078125
        k(  185) = (   0.3750000   0.2500000  -0.2500000), wk =   0.0078125
        k(  186) = (   0.3750000   0.2500000  -0.1250000), wk =   0.0078125
        k(  187) = (   0.3750000   0.3750000  -0.0000000), wk =   0.0078125
        k(  188) = (   0.3750000   0.3750000   0.1250000), wk =   0.0078125
        k(  189) = (   0.3750000   0.3750000   0.2500000), wk =   0.0078125
        k(  190) = (   0.3750000   0.3750000   0.3750000), wk =   0.0078125
        k(  191) = (   0.3750000   0.3750000  -0.5000000), wk =   0.0078125
        k(  192) = (   0.3750000   0.3750000  -0.3750000), wk =   0.0078125
        k(  193) = (   0.3750000   0.3750000  -0.2500000), wk =   0.0078125
        k(  194) = (   0.3750000   0.3750000  -0.1250000), wk =   0.0078125
        k(  195) = (   0.3750000  -0.5000000   0.0000000), wk =   0.0078125
        k(  196) = (   0.3750000  -0.5000000   0.1250000), wk =   0.0078125
        k(  197) = (   0.3750000  -0.5000000   0.2500000), wk =   0.0078125
        k(  198) = (   0.3750000  -0.5000000   0.3750000), wk =   0.0078125
        k(  199) = (   0.3750000  -0.5000000  -0.5000000), wk =   0.0078125
        k(  200) = (   0.3750000  -0.5000000  -0.3750000), wk =   0.0078125
        k(  201) = (   0.3750000  -0.5000000  -0.2500000), wk =   0.0078125
        k(  202) = (   0.3750000  -0.5000000  -0.1250000), wk =   0.0078125
        k(  203) = (   0.3750000  -0.3750000   0.0000000), wk =   0.0078125
        k(  204) = (   0.3750000  -0.3750000   0.1250000), wk =   0.0078125
        k(  205) = (   0.3750000  -0.3750000   0.2500000), wk =   0.0078125
        k(  206) = (   0.3750000  -0.3750000   0.3750000), wk =   0.0078125
        k(  207) = (   0.3750000  -0.3750000  -0.5000000), wk =   0.0078125
        k(  208) = (   0.3750000  -0.3750000  -0.3750000), wk =   0.0078125
        k(  209) = (   0.3750000  -0.3750000  -0.2500000), wk =   0.0078125
        k(  210) = (   0.3750000  -0.3750000  -0.1250000), wk =   0.0078125
        k(  211) = (   0.3750000  -0.2500000   0.0000000), wk =   0.0078125
        k(  212) = (   0.3750000  -0.2500000   0.1250000), wk =   0.0078125
        k(  213) = (   0.3750000  -0.2500000   0.2500000), wk =   0.0078125
        k(  214) = (   0.3750000  -0.2500000   0.3750000), wk =   0.0078125
        k(  215) = (   0.3750000  -0.2500000  -0.5000000), wk =   0.0078125
        k(  216) = (   0.3750000  -0.2500000  -0.3750000), wk =   0.0078125
        k(  217) = (   0.3750000  -0.2500000  -0.2500000), wk =   0.0078125
        k(  218) = (   0.3750000  -0.2500000  -0.1250000), wk =   0.0078125
        k(  219) = (   0.3750000  -0.1250000   0.0000000), wk =   0.0078125
        k(  220) = (   0.3750000  -0.1250000   0.1250000), wk =   0.0078125
        k(  221) = (   0.3750000  -0.1250000   0.2500000), wk =   0.0078125
        k(  222) = (   0.3750000  -0.1250000   0.3750000), wk =   0.0078125
        k(  223) = (   0.3750000  -0.1250000  -0.5000000), wk =   0.0078125
        k(  224) = (   0.3750000  -0.1250000  -0.3750000), wk =   0.0078125
        k(  225) = (   0.3750000  -0.1250000  -0.2500000), wk =   0.0078125
        k(  226) = (   0.3750000  -0.1250000  -0.1250000), wk =   0.0078125
        k(  227) = (  -0.5000000  -0.0000000   0.0000000), wk =   0.0039062
        k(  228) = (  -0.5000000  -0.0000000   0.1250000), wk =   0.0078125
        k(  229) = (  -0.5000000  -0.0000000   0.2500000), wk =   0.0078125
        k(  230) = (  -0.5000000  -0.0000000   0.3750000), wk =   0.0078125
        k(  231) = (  -0.5000000  -0.0000000  -0.5000000), wk =   0.0039062
        k(  232) = (  -0.5000000   0.1250000   0.0000000), wk =   0.0078125
        k(  233) = (  -0.5000000   0.1250000   0.1250000), wk =   0.0078125
        k(  234) = (  -0.5000000   0.1250000   0.2500000), wk =   0.0078125
        k(  235) = (  -0.5000000   0.1250000   0.3750000), wk =   0.0078125
        k(  236) = (  -0.5000000   0.1250000  -0.5000000), wk =   0.0078125
        k(  237) = (  -0.5000000   0.1250000  -0.3750000), wk =   0.0078125
        k(  238) = (  -0.5000000   0.1250000  -0.2500000), wk =   0.0078125
        k(  239) = (  -0.5000000   0.1250000  -0.1250000), wk =   0.0078125
        k(  240) = (  -0.5000000   0.2500000  -0.0000000), wk =   0.0078125
        k(  241) = (  -0.5000000   0.2500000   0.1250000), wk =   0.0078125
        k(  242) = (  -0.5000000   0.2500000   0.2500000), wk =   0.0078125
        k(  243) = (  -0.5000000   0.2500000   0.3750000), wk =   0.0078125
        k(  244) = (  -0.5000000   0.2500000  -0.5000000), wk =   0.0078125
        k(  245) = (  -0.5000000   0.2500000  -0.3750000), wk =   0.0078125
        k(  246) = (  -0.5000000   0.2500000  -0.2500000), wk =   0.0078125
        k(  247) = (  -0.5000000   0.2500000  -0.1250000), wk =   0.0078125
        k(  248) = (  -0.5000000   0.3750000  -0.0000000), wk =   0.0078125
        k(  249) = (  -0.5000000   0.3750000   0.1250000), wk =   0.0078125
        k(  250) = (  -0.5000000   0.3750000   0.2500000), wk =   0.0078125
        k(  251) = (  -0.5000000   0.3750000   0.3750000), wk =   0.0078125
        k(  252) = (  -0.5000000   0.3750000  -0.5000000), wk =   0.0078125
        k(  253) = (  -0.5000000   0.3750000  -0.3750000), wk =   0.0078125
        k(  254) = (  -0.5000000   0.3750000  -0.2500000), wk =   0.0078125
        k(  255) = (  -0.5000000   0.3750000  -0.1250000), wk =   0.0078125
        k(  256) = (  -0.5000000  -0.5000000   0.0000000), wk =   0.0039062
        k(  257) = (  -0.5000000  -0.5000000   0.1250000), wk =   0.0078125
        k(  258) = (  -0.5000000  -0.5000000   0.2500000), wk =   0.0078125
        k(  259) = (  -0.5000000  -0.5000000   0.3750000), wk =   0.0078125
        k(  260) = (  -0.5000000  -0.5000000  -0.5000000), wk =   0.0039062

     Dense  grid:    76937 G-vectors     FFT dimensions: (  50,  50,  72)

     Smooth grid:    30013 G-vectors     FFT dimensions: (  40,  40,  50)

     Dynamical RAM for                 wfc:       0.07 MB

     Dynamical RAM for     wfc (w. buffer):       4.95 MB

     Dynamical RAM for           str. fact:       0.22 MB

     Dynamical RAM for           local pot:       0.00 MB

     Dynamical RAM for          nlocal pot:       0.22 MB

     Dynamical RAM for                qrad:      16.00 MB

     Dynamical RAM for          rho,v,vnew:       0.51 MB

     Dynamical RAM for               rhoin:       0.17 MB

     Dynamical RAM for            rho*nmix:       1.17 MB

     Dynamical RAM for           G-vectors:       0.29 MB

     Dynamical RAM for          h,s,v(r/c):       0.08 MB

     Dynamical RAM for          <psi|beta>:       0.02 MB

     Dynamical RAM for                 psi:       0.30 MB

     Dynamical RAM for                hpsi:       0.30 MB

     Dynamical RAM for                spsi:       0.30 MB

     Dynamical RAM for      wfcinit/wfcrot:       0.20 MB

     Dynamical RAM for           addusdens:       3.85 MB

     Dynamical RAM for          addusforce:       4.00 MB

     Dynamical RAM for         addusstress:       4.06 MB

     Estimated static dynamical RAM per process >      24.31 MB

     Estimated max dynamical RAM per process >      28.37 MB

     Estimated total dynamical RAM >       1.77 GB

     Check: negative core charge=   -0.000003

     Initial potential from superposition of free atoms

     starting charge   41.69964, renormalised to   42.00000
     Starting wfcs are   26 randomized atomic wfcs

     total cpu time spent up to now is        3.0 secs

     Self-consistent Calculation

     iteration #  1     ecut=    80.00 Ry     beta= 0.50
     Davidson diagonalization with overlap
     ethr =  1.00E-02,  avg # of iterations =  2.0

     total cpu time spent up to now is        3.9 secs

     total energy              =    -650.62770122 Ry
     Harris-Foulkes estimate   =    -651.45106363 Ry
     estimated scf accuracy    <       1.23348306 Ry

     iteration #  2     ecut=    80.00 Ry     beta= 0.50
     Davidson diagonalization with overlap
     ethr =  2.94E-03,  avg # of iterations =  3.0

     total cpu time spent up to now is        5.4 secs

     total energy              =    -651.01536477 Ry
     Harris-Foulkes estimate   =    -651.29616008 Ry
     estimated scf accuracy    <       0.64516334 Ry

     iteration #  3     ecut=    80.00 Ry     beta= 0.50
     Davidson diagonalization with overlap
     ethr =  1.54E-03,  avg # of iterations =  2.0

     total cpu time spent up to now is        6.3 secs

     total energy              =    -651.12427046 Ry
     Harris-Foulkes estimate   =    -651.12789921 Ry
     estimated scf accuracy    <       0.01032897 Ry

     iteration #  4     ecut=    80.00 Ry     beta= 0.50
     Davidson diagonalization with overlap
     ethr =  2.46E-05,  avg # of iterations =  3.0

     total cpu time spent up to now is        7.3 secs

     total energy              =    -651.12505473 Ry
     Harris-Foulkes estimate   =    -651.12648636 Ry
     estimated scf accuracy    <       0.00370384 Ry

     iteration #  5     ecut=    80.00 Ry     beta= 0.50
     Davidson diagonalization with overlap
     ethr =  8.82E-06,  avg # of iterations =  2.8

     total cpu time spent up to now is        8.3 secs

     total energy              =    -651.12571506 Ry
     Harris-Foulkes estimate   =    -651.12574445 Ry
     estimated scf accuracy    <       0.00014942 Ry

     iteration #  6     ecut=    80.00 Ry     beta= 0.50
     Davidson diagonalization with overlap
     ethr =  3.56E-07,  avg # of iterations =  2.0

     total cpu time spent up to now is        9.2 secs

     total energy              =    -651.12573866 Ry
     Harris-Foulkes estimate   =    -651.12573479 Ry
     estimated scf accuracy    <       0.00001213 Ry

     iteration #  7     ecut=    80.00 Ry     beta= 0.50
     Davidson diagonalization with overlap
     ethr =  2.89E-08,  avg # of iterations =  2.0

     total cpu time spent up to now is       10.0 secs

     End of self-consistent calculation

          k = 0.0000 0.0000 0.0000 (  3727 PWs)   bands (ev):

  -115.6090 -69.9816 -69.9600 -69.9600 -64.9526 -31.9589 -31.9150 -31.9150
   -10.2008  -8.9151   1.7186   1.7186   2.7498   3.0019   3.0019   3.1336
     5.7444   5.7444   6.9415   7.1478   7.1478

     occupation numbers 
     1.0000   1.0000   1.0000   1.0000   1.0000   1.0000   1.0000   1.0000
     1.0000   1.0000   1.0000   1.0000   1.0000   1.0000   1.0000   1.0000
     1.0000   1.0000   1.0000   1.0000   1.0000

          k =-0.0000 0.0000 0.0912 (  3721 PWs)   bands (ev):

  -115.6090 -69.9816 -69.9600 -69.9600 -64.9526 -31.9589 -31.9150 -31.9150
   -10.1684  -8.9495   1.7187   1.7187   2.5430   2.9910   2.9910   3.3675
     5.7753   5.7753   6.6708   7.1336   7.1337

     occupation numbers 
     1.0000   1.0000   1.0000   1.0000   1.0000   1.0000   1.0000   1.0000
     1.0000   1.0000   1.0000   1.0000   1.0000   1.0000   1.0000   1.0000
     1.0000   1.0000   1.0000   1.0000   1.0000

          k =-0.0000 0.0000 0.1824 (  3727 PWs)   bands (ev):

  -115.6090 -69.9816 -69.9600 -69.9600 -64.9526 -31.9591 -31.9150 -31.9150
   -10.0810  -9.0415   1.7189   1.7189   2.2876   2.9654   2.9654   3.6954
     5.8522   5.8522   6.1916   7.0969   7.0969

     occupation numbers 
     1.0000   1.0000   1.0000   1.0000   1.0000   1.0000   1.0000   1.0000
     1.0000   1.0000   1.0000   1.0000   1.0000   1.0000   1.0000   1.0000
     1.0000   1.0000   1.0000   1.0000   1.0000

          k =-0.0000 0.0000 0.2736 (  3751 PWs)   bands (ev):

  -115.6090 -69.9816 -69.9601 -69.9601 -64.9526 -31.9594 -31.9150 -31.9150
    -9.9742  -9.1532   1.7191   1.7191   2.1219   2.9406   2.9406   3.9488
     5.8092   5.9331   5.9331   7.0553   7.0553

     occupation numbers 
     1.0000   1.0000   1.0000   1.0000   1.0000   1.0000   1.0000   1.0000
     1.0000   1.0000   1.0000   1.0000   1.0000   1.0000   1.0000   1.0000
     1.0000   1.0000   1.0000   1.0000   1.0000

          k = 0.0000-0.0000-0.3647 (  3756 PWs)   bands (ev):

  -115.6090 -69.9816 -69.9601 -69.9601 -64.9526 -31.9594 -31.9150 -31.9150
    -9.9201  -9.2094   1.7192   1.7192   2.0657   2.9306   2.9306   4.0487
     5.6615   5.9682   5.9682   7.0362   7.0362

     occupation numbers 
     1.0000   1.0000   1.0000   1.0000   1.0000   1.0000   1.0000   1.0000
     1.0000   1.0000   1.0000   1.0000   1.0000   1.0000   1.0000   1.0000
     1.0000   1.0000   1.0000   1.0000   1.0000

          k =-0.0000 0.1443 0.0000 (  3752 PWs)   bands (ev):

  -115.6090 -69.9816 -69.9602 -69.9601 -64.9524 -31.9585 -31.9185 -31.9158
   -10.1209  -8.8960   1.6880   1.8010   2.6152   2.9956   3.1129   3.2950
     5.4047   5.6644   6.4684   6.8604   6.9881

     occupation numbers 
     1.0000   1.0000   1.0000   1.0000   1.0000   1.0000   1.0000   1.0000
     1.0000   1.0000   1.0000   1.0000   1.0000   1.0000   1.0000   1.0000
     1.0000   1.0000   1.0000   1.0000   1.0000

          k =-0.0000 0.1443 0.0912 (  3741 PWs)   bands (ev):

  -115.6090 -69.9816 -69.9602 -69.9601 -64.9524 -31.9586 -31.9185 -31.9158
   -10.0905  -8.9267   1.6862   1.8006   2.5045   2.9568   2.9849   3.5642
     5.4292   5.7038   6.2377   6.9629   6.9875

     occupation numbers 
     1.0000   1.0000   1.0000   1.0000   1.0000   1.0000   1.0000   1.0000
     1.0000   1.0000   1.0000   1.0000   1.0000   1.0000   1.0000   1.0000
     1.0000   1.0000   1.0000   1.0000   1.0000

          k =-0.0000 0.1443 0.1824 (  3730 PWs)   bands (ev):

  -115.6090 -69.9815 -69.9602 -69.9601 -64.9524 -31.9588 -31.9185 -31.9158
   -10.0091  -9.0088   1.6801   1.8008   2.2948   2.8438   2.9588   3.8922
     5.4597   5.7953   5.9651   6.9069   7.0516

     occupation numbers 
     1.0000   1.0000   1.0000   1.0000   1.0000   1.0000   1.0000   1.0000
     1.0000   1.0000   1.0000   1.0000   1.0000   1.0000   1.0000   1.0000
     1.0000   1.0000   1.0000   1.0000   1.0000

          k =-0.0000 0.1443 0.2736 (  3738 PWs)   bands (ev):

  -115.6090 -69.9816 -69.9602 -69.9601 -64.9524 -31.9590 -31.9185 -31.9158
    -9.9109  -9.1079   1.6713   1.8015   2.1408   2.7725   2.9332   4.1326
     5.3656   5.8913   5.9175   6.8465   7.0263

     occupation numbers 
     1.0000   1.0000   1.0000   1.0000   1.0000   1.0000   1.0000   1.0000
     1.0000   1.0000   1.0000   1.0000   1.0000   1.0000   1.0000   1.0000
     1.0000   1.0000   1.0000   1.0000   1.0000

          k =-0.0000 0.1443-0.3647 (  3736 PWs)   bands (ev):

  -115.6090 -69.9815 -69.9602 -69.9601 -64.9524 -31.9591 -31.9184 -31.9158
    -9.8620  -9.1572   1.6673   1.8023   2.0871   2.7464   2.9224   4.2165
     5.3127   5.9292   5.9392   6.8238   6.9937

     occupation numbers 
     1.0000   1.0000   1.0000   1.0000   1.0000   1.0000   1.0000   1.0000
     1.0000   1.0000   1.0000   1.0000   1.0000   1.0000   1.0000   1.0000
     1.0000   1.0000   1.0000   1.0000   1.0000

          k =-0.0000 0.1443-0.2736 (  3738 PWs)   bands (ev):

  -115.6090 -69.9816 -69.9602 -69.9601 -64.9524 -31.9590 -31.9185 -31.9158
    -9.9109  -9.1079   1.6726   1.8027   2.1389   2.7739   2.9321   4.1139
     5.4317   5.8798   5.8847   6.8599   7.0055

     occupation numbers 
     1.0000   1.0000   1.0000   1.0000   1.0000   1.0000   1.0000   1.0000
     1.0000   1.0000   1.0000   1.0000   1.0000   1.0000   1.0000   1.0000
     1.0000   1.0000   1.0000   1.0000   1.0000

          k =-0.0000 0.1443-0.1824 (  3730 PWs)   bands (ev):

  -115.6090 -69.9815 -69.9602 -69.9601 -64.9524 -31.9588 -31.9185 -31.9158
   -10.0091  -9.0088   1.6807   1.8025   2.2944   2.8458   2.9574   3.8726
     5.5319   5.7815   5.9377   6.9235   7.0159

     occupation numbers 
     1.0000   1.0000   1.0000   1.0000   1.0000   1.0000   1.0000   1.0000
     1.0000   1.0000   1.0000   1.0000   1.0000   1.0000   1.0000   1.0000
     1.0000   1.0000   1.0000   1.0000   1.0000

          k =-0.0000 0.1443-0.0912 (  3741 PWs)   bands (ev):

  -115.6090 -69.9816 -69.9602 -69.9601 -64.9524 -31.9586 -31.9185 -31.9158
   -10.0905  -8.9267   1.6861   1.8018   2.5062   2.9596   2.9839   3.5509
     5.4541   5.6952   6.2549   6.9478   6.9734

     occupation numbers 
     1.0000   1.0000   1.0000   1.0000   1.0000   1.0000   1.0000   1.0000
     1.0000   1.0000   1.0000   1.0000   1.0000   1.0000   1.0000   1.0000
     1.0000   1.0000   1.0000   1.0000   1.0000

          k =-0.0000 0.2887 0.0000 (  3758 PWs)   bands (ev):

  -115.6089 -69.9815 -69.9607 -69.9602 -64.9520 -31.9578 -31.9267 -31.9177
    -9.9149  -8.8585   1.6561   2.0235   2.4857   2.9828   3.1401   3.7564
     4.6776   5.4290   5.4880   6.6192   6.6398

     occupation numbers 
     1.0000   1.0000   1.0000   1.0000   1.0000   1.0000   1.0000   1.0000
     1.0000   1.0000   1.0000   1.0000   1.0000   1.0000   1.0000   1.0000
     1.0000   1.0000   1.0000   1.0000   1.0000

          k =-0.0000 0.2887 0.0912 (  3756 PWs)   bands (ev):

  -115.6089 -69.9815 -69.9607 -69.9602 -64.9520 -31.9579 -31.9267 -31.9177
    -9.8906  -8.8788   1.6522   2.0225   2.4165   2.9536   2.9722   3.9626
     4.7133   5.3844   5.4805   6.5986   6.7725

     occupation numbers 
     1.0000   1.0000   1.0000   1.0000   1.0000   1.0000   1.0000   1.0000
     1.0000   1.0000   1.0000   1.0000   1.0000   1.0000   1.0000   1.0000
     1.0000   1.0000   1.0000   1.0000   1.0000

          k =-0.0000 0.2887 0.1824 (  3753 PWs)   bands (ev):

  -115.6089 -69.9815 -69.9607 -69.9602 -64.9520 -31.9581 -31.9267 -31.9177
    -9.8270  -8.9331   1.6360   2.0225   2.2741   2.6967   2.9452   4.1871
     4.7298   5.4266   5.6049   6.5009   6.9566

     occupation numbers 
     1.0000   1.0000   1.0000   1.0000   1.0000   1.0000   1.0000   1.0000
     1.0000   1.0000   1.0000   1.0000   1.0000   1.0000   1.0000   1.0000
     1.0000   1.0000   1.0000   1.0000   1.0000

          k =-0.0000 0.2887 0.2736 (  3734 PWs)   bands (ev):

  -115.6089 -69.9815 -69.9607 -69.9602 -64.9520 -31.9582 -31.9267 -31.9176
    -9.7535  -8.9974   1.6126   2.0235   2.1552   2.5156   2.9183   4.3353
     4.6234   5.6686   5.7533   6.3792   7.0241

     occupation numbers 
     1.0000   1.0000   1.0000   1.0000   1.0000   1.0000   1.0000   1.0000
     1.0000   1.0000   1.0000   1.0000   1.0000   1.0000   1.0000   1.0000
     1.0000   1.0000   1.0000   1.0000   1.0000

          k =-0.0000 0.2887-0.3647 (  3732 PWs)   bands (ev):

  -115.6089 -69.9815 -69.9607 -69.9602 -64.9520 -31.9583 -31.9267 -31.9176
    -9.7187  -9.0284   1.6039   2.0251   2.1081   2.4523   2.9065   4.3117
     4.6630   5.7952   5.8215   6.3228   7.0001

     occupation numbers 
     1.0000   1.0000   1.0000   1.0000   1.0000   1.0000   1.0000   1.0000
     1.0000   1.0000   1.0000   1.0000   1.0000   1.0000   1.0000   1.0000
     1.0000   1.0000   1.0000   1.0000   1.0000

          k =-0.0000 0.2887-0.2736 (  3734 PWs)   bands (ev):

  -115.6089 -69.9815 -69.9607 -69.9602 -64.9520 -31.9582 -31.9267 -31.9176
    -9.7534  -8.9976   1.6183   2.0261   2.1506   2.5175   2.9160   4.1799
     4.8350   5.6569   5.7291   6.4060   6.9605

     occupation numbers 
     1.0000   1.0000   1.0000   1.0000   1.0000   1.0000   1.0000   1.0000
     1.0000   1.0000   1.0000   1.0000   1.0000   1.0000   1.0000   1.0000
     1.0000   1.0000   1.0000   1.0000   1.0000

          k =-0.0000 0.2887-0.1824 (  3753 PWs)   bands (ev):

  -115.6089 -69.9815 -69.9607 -69.9602 -64.9520 -31.9581 -31.9267 -31.9177
    -9.8269  -8.9333   1.6379   2.0260   2.2822   2.6971   2.9420   4.0282
     4.9776   5.4024   5.5810   6.5284   6.8598

     occupation numbers 
     1.0000   1.0000   1.0000   1.0000   1.0000   1.0000   1.0000   1.0000
     1.0000   1.0000   1.0000   1.0000   1.0000   1.0000   1.0000   1.0000
     1.0000   1.0000   1.0000   1.0000   1.0000

          k =-0.0000 0.2887-0.0912 (  3756 PWs)   bands (ev):

  -115.6089 -69.9815 -69.9607 -69.9602 -64.9520 -31.9579 -31.9267 -31.9177
    -9.8906  -8.8789   1.6508   2.0249   2.4283   2.9647   2.9700   3.8510
     4.8263   5.4323   5.4669   6.6147   6.6873

     occupation numbers 
     1.0000   1.0000   1.0000   1.0000   1.0000   1.0000   1.0000   1.0000
     1.0000   1.0000   1.0000   1.0000   1.0000   1.0000   1.0000   1.0000
     1.0000   1.0000   1.0000   1.0000   1.0000

          k =-0.0000 0.4330 0.0000 (  3742 PWs)   bands (ev):

  -115.6089 -69.9815 -69.9612 -69.9603 -64.9516 -31.9570 -31.9349 -31.9195
    -9.6825  -8.8404   1.7074   2.2924   2.4205   2.9796   3.1099   3.9672
     4.3303   4.7567   5.1005   6.2633   6.3534

     occupation numbers 
     1.0000   1.0000   1.0000   1.0000   1.0000   1.0000   1.0000   1.0000
     1.0000   1.0000   1.0000   1.0000   1.0000   1.0000   1.0000   1.0000
     1.0000   1.0000   1.0000   1.0000   1.0000

          k =-0.0000 0.4330 0.0912 (  3757 PWs)   bands (ev):

  -115.6089 -69.9815 -69.9612 -69.9604 -64.9516 -31.9571 -31.9349 -31.9195
    -9.6674  -8.8471   1.7064   2.2902   2.3428   2.9694   2.9723   3.8392
     4.5281   4.7865   5.1551   6.3069   6.4567

     occupation numbers 
     1.0000   1.0000   1.0000   1.0000   1.0000   1.0000   1.0000   1.0000
     1.0000   1.0000   1.0000   1.0000   1.0000   1.0000   1.0000   1.0000
     1.0000   1.0000   1.0000   1.0000   1.0000

          k =-0.0000 0.4330 0.1824 (  3762 PWs)   bands (ev):

  -115.6089 -69.9815 -69.9612 -69.9604 -64.9516 -31.9573 -31.9349 -31.9195
    -9.6294  -8.8651   1.6861   2.2051   2.2879   2.6825   2.9433   3.7189
     4.4720   5.2598   5.2945   6.1873   6.7761

     occupation numbers 
     1.0000   1.0000   1.0000   1.0000   1.0000   1.0000   1.0000   1.0000
     1.0000   1.0000   1.0000   1.0000   1.0000   1.0000   1.0000   1.0000
     1.0000   1.0000   1.0000   1.0000   1.0000

          k =-0.0000 0.4330 0.2736 (  3758 PWs)   bands (ev):

  -115.6089 -69.9815 -69.9612 -69.9604 -64.9516 -31.9575 -31.9349 -31.9195
    -9.5886  -8.8859   1.6526   2.0994   2.2868   2.4281   2.9174   3.6741
     4.4428   5.4770   5.6451   6.0241   7.0096

     occupation numbers 
     1.0000   1.0000   1.0000   1.0000   1.0000   1.0000   1.0000   1.0000
     1.0000   1.0000   1.0000   1.0000   1.0000   1.0000   1.0000   1.0000
     1.0000   1.0000   1.0000   1.0000   1.0000

          k =-0.0000 0.4330-0.3647 (  3754 PWs)   bands (ev):

  -115.6089 -69.9815 -69.9612 -69.9604 -64.9516 -31.9575 -31.9349 -31.9195
    -9.5707  -8.8956   1.6370   2.0603   2.2876   2.3346   2.9058   3.6480
     4.4519   5.5846   5.8106   5.9249   7.0596

     occupation numbers 
     1.0000   1.0000   1.0000   1.0000   1.0000   1.0000   1.0000   1.0000
     1.0000   1.0000   1.0000   1.0000   1.0000   1.0000   1.0000   1.0000
     1.0000   1.0000   1.0000   1.0000   1.0000

          k =-0.0000 0.4330-0.2736 (  3758 PWs)   bands (ev):

  -115.6089 -69.9815 -69.9612 -69.9604 -64.9516 -31.9575 -31.9349 -31.9195
    -9.5885  -8.8861   1.6500   2.1152   2.2899   2.4223   2.9144   3.6265
     4.4853   5.4571   5.6978   6.0457   6.9377

     occupation numbers 
     1.0000   1.0000   1.0000   1.0000   1.0000   1.0000   1.0000   1.0000
     1.0000   1.0000   1.0000   1.0000   1.0000   1.0000   1.0000   1.0000
     1.0000   1.0000   1.0000   1.0000   1.0000

          k =-0.0000 0.4330-0.1824 (  3762 PWs)   bands (ev):

  -115.6089 -69.9815 -69.9612 -69.9604 -64.9516 -31.9573 -31.9349 -31.9195
    -9.6293  -8.8653   1.6738   2.2434   2.2922   2.6816   2.9392   3.6206
     4.5167   5.2773   5.3787   6.2070   6.6647

     occupation numbers 
     1.0000   1.0000   1.0000   1.0000   1.0000   1.0000   1.0000   1.0000
     1.0000   1.0000   1.0000   1.0000   1.0000   1.0000   1.0000   1.0000
     1.0000   1.0000   1.0000   1.0000   1.0000

          k =-0.0000 0.4330-0.0912 (  3757 PWs)   bands (ev):

  -115.6089 -69.9815 -69.9612 -69.9604 -64.9516 -31.9571 -31.9349 -31.9195
    -9.6673  -8.8473   1.6950   2.2932   2.3728   2.9666   3.0008   3.7074
     4.4735   5.0089   5.1456   6.3180   6.3607

     occupation numbers 
     1.0000   1.0000   1.0000   1.0000   1.0000   1.0000   1.0000   1.0000
     1.0000   1.0000   1.0000   1.0000   1.0000   1.0000   1.0000   1.0000
     1.0000   1.0000   1.0000   1.0000   1.0000

          k = 0.0000-0.5774-0.0000 (  3746 PWs)   bands (ev):

  -115.6089 -69.9814 -69.9614 -69.9604 -64.9514 -31.9567 -31.9384 -31.9203
    -9.5736  -8.8433   1.7706   2.4089   2.4225   2.9869   3.0351   3.7588
     4.4044   4.6700   4.9239   6.0358   6.2542

     occupation numbers 
     1.0000   1.0000   1.0000   1.0000   1.0000   1.0000   1.0000   1.0000
     1.0000   1.0000   1.0000   1.0000   1.0000   1.0000   1.0000   1.0000
     1.0000   1.0000   1.0000   1.0000   1.0000

          k = 0.0000-0.5774 0.0912 (  3758 PWs)   bands (ev):

  -115.6089 -69.9815 -69.9614 -69.9604 -64.9514 -31.9568 -31.9383 -31.9203
    -9.5643  -8.8425   1.7594   2.3490   2.4205   2.9762   2.9926   3.4917
     4.3452   4.9738   5.0251   6.2039   6.2123

     occupation numbers 
     1.0000   1.0000   1.0000   1.0000   1.0000   1.0000   1.0000   1.0000
     1.0000   1.0000   1.0000   1.0000   1.0000   1.0000   1.0000   1.0000
     1.0000   1.0000   1.0000   1.0000   1.0000

          k = 0.0000-0.5774 0.1824 (  3772 PWs)   bands (ev):

  -115.6089 -69.9815 -69.9614 -69.9604 -64.9514 -31.9569 -31.9383 -31.9203
    -9.5413  -8.8408   1.7261   2.2300   2.4157   2.7377   2.9517   3.2641
     4.3581   5.1081   5.4486   6.0961   6.6020

     occupation numbers 
     1.0000   1.0000   1.0000   1.0000   1.0000   1.0000   1.0000   1.0000
     1.0000   1.0000   1.0000   1.0000   1.0000   1.0000   1.0000   1.0000
     1.0000   1.0000   1.0000   1.0000   1.0000

          k = 0.0000-0.5774 0.2736 (  3762 PWs)   bands (ev):

  -115.6089 -69.9815 -69.9614 -69.9604 -64.9514 -31.9571 -31.9383 -31.9203
    -9.5178  -8.8396   1.6852   2.1313   2.4106   2.4364   2.9289   3.2255
     4.3756   5.2815   5.7475   5.9393   6.9584

     occupation numbers 
     1.0000   1.0000   1.0000   1.0000   1.0000   1.0000   1.0000   1.0000
     1.0000   1.0000   1.0000   1.0000   1.0000   1.0000   1.0000   1.0000
     1.0000   1.0000   1.0000   1.0000   1.0000

          k = 0.0000-0.5774-0.3647 (  3764 PWs)   bands (ev):

  -115.6089 -69.9815 -69.9614 -69.9604 -64.9514 -31.9572 -31.9383 -31.9203
    -9.5079  -8.8392   1.6672   2.0872   2.3295   2.4084   2.9200   3.2202
     4.3812   5.3838   5.8435   5.8615   7.0894

     occupation numbers 
     1.0000   1.0000   1.0000   1.0000   1.0000   1.0000   1.0000   1.0000
     1.0000   1.0000   1.0000   1.0000   1.0000   1.0000   1.0000   1.0000
     1.0000   1.0000   1.0000   1.0000   1.0000

          k = 0.1250 0.0722 0.0000 (  3752 PWs)   bands (ev):

  -115.6090 -69.9816 -69.9602 -69.9601 -64.9524 -31.9585 -31.9185 -31.9158
   -10.1209  -8.8960   1.6880   1.8010   2.6152   2.9956   3.1129   3.2950
     5.4047   5.6644   6.4684   6.8604   6.9881

     occupation numbers 
     1.0000   1.0000   1.0000   1.0000   1.0000   1.0000   1.0000   1.0000
     1.0000   1.0000   1.0000   1.0000   1.0000   1.0000   1.0000   1.0000
     1.0000   1.0000   1.0000   1.0000   1.0000

          k = 0.1250 0.0722 0.0912 (  3741 PWs)   bands (ev):

  -115.6090 -69.9816 -69.9602 -69.9601 -64.9524 -31.9586 -31.9185 -31.9158
   -10.0905  -8.9267   1.6861   1.8018   2.5062   2.9596   2.9839   3.5509
     5.4541   5.6952   6.2549   6.9478   6.9734

     occupation numbers 
     1.0000   1.0000   1.0000   1.0000   1.0000   1.0000   1.0000   1.0000
     1.0000   1.0000   1.0000   1.0000   1.0000   1.0000   1.0000   1.0000
     1.0000   1.0000   1.0000   1.0000   1.0000

          k = 0.1250 0.0722 0.1824 (  3730 PWs)   bands (ev):

  -115.6090 -69.9815 -69.9602 -69.9601 -64.9524 -31.9588 -31.9185 -31.9158
   -10.0091  -9.0088   1.6807   1.8025   2.2944   2.8458   2.9574   3.8726
     5.5319   5.7815   5.9377   6.9235   7.0159

     occupation numbers 
     1.0000   1.0000   1.0000   1.0000   1.0000   1.0000   1.0000   1.0000
     1.0000   1.0000   1.0000   1.0000   1.0000   1.0000   1.0000   1.0000
     1.0000   1.0000   1.0000   1.0000   1.0000

          k = 0.1250 0.0722 0.2736 (  3738 PWs)   bands (ev):

  -115.6090 -69.9816 -69.9602 -69.9601 -64.9524 -31.9590 -31.9185 -31.9158
    -9.9109  -9.1079   1.6726   1.8027   2.1389   2.7739   2.9321   4.1139
     5.4317   5.8798   5.8847   6.8599   7.0055

     occupation numbers 
     1.0000   1.0000   1.0000   1.0000   1.0000   1.0000   1.0000   1.0000
     1.0000   1.0000   1.0000   1.0000   1.0000   1.0000   1.0000   1.0000
     1.0000   1.0000   1.0000   1.0000   1.0000

          k = 0.1250 0.0722-0.3647 (  3736 PWs)   bands (ev):

  -115.6090 -69.9815 -69.9602 -69.9601 -64.9524 -31.9591 -31.9185 -31.9158
    -9.8620  -9.1572   1.6673   1.8023   2.0871   2.7464   2.9224   4.2165
     5.3127   5.9292   5.9392   6.8238   6.9937

     occupation numbers 
     1.0000   1.0000   1.0000   1.0000   1.0000   1.0000   1.0000   1.0000
     1.0000   1.0000   1.0000   1.0000   1.0000   1.0000   1.0000   1.0000
     1.0000   1.0000   1.0000   1.0000   1.0000

          k = 0.1250 0.0722-0.2736 (  3738 PWs)   bands (ev):

  -115.6090 -69.9816 -69.9602 -69.9601 -64.9524 -31.9590 -31.9185 -31.9158
    -9.9109  -9.1079   1.6713   1.8015   2.1408   2.7725   2.9332   4.1326
     5.3656   5.8913   5.9175   6.8465   7.0263

     occupation numbers 
     1.0000   1.0000   1.0000   1.0000   1.0000   1.0000   1.0000   1.0000
     1.0000   1.0000   1.0000   1.0000   1.0000   1.0000   1.0000   1.0000
     1.0000   1.0000   1.0000   1.0000   1.0000

          k = 0.1250 0.0722-0.1824 (  3730 PWs)   bands (ev):

  -115.6090 -69.9815 -69.9602 -69.9601 -64.9524 -31.9588 -31.9185 -31.9158
   -10.0091  -9.0088   1.6801   1.8008   2.2948   2.8438   2.9588   3.8922
     5.4597   5.7953   5.9651   6.9069   7.0516

     occupation numbers 
     1.0000   1.0000   1.0000   1.0000   1.0000   1.0000   1.0000   1.0000
     1.0000   1.0000   1.0000   1.0000   1.0000   1.0000   1.0000   1.0000
     1.0000   1.0000   1.0000   1.0000   1.0000

          k = 0.1250 0.0722-0.0912 (  3741 PWs)   bands (ev):

  -115.6090 -69.9816 -69.9602 -69.9601 -64.9524 -31.9586 -31.9185 -31.9158
   -10.0905  -8.9267   1.6862   1.8006   2.5045   2.9568   2.9849   3.5642
     5.4292   5.7038   6.2377   6.9629   6.9875

     occupation numbers 
     1.0000   1.0000   1.0000   1.0000   1.0000   1.0000   1.0000   1.0000
     1.0000   1.0000   1.0000   1.0000   1.0000   1.0000   1.0000   1.0000
     1.0000   1.0000   1.0000   1.0000   1.0000

          k = 0.1250 0.2165 0.0000 (  3759 PWs)   bands (ev):

  -115.6090 -69.9816 -69.9606 -69.9602 -64.9521 -31.9580 -31.9240 -31.9175
    -9.9776  -8.8679   1.6673   1.9475   2.5175   2.9795   3.1371   3.6268
     4.9443   5.3529   5.8663   6.6227   6.7386

     occupation numbers 
     1.0000   1.0000   1.0000   1.0000   1.0000   1.0000   1.0000   1.0000
     1.0000   1.0000   1.0000   1.0000   1.0000   1.0000   1.0000   1.0000
     1.0000   1.0000   1.0000   1.0000   1.0000

          k = 0.1250 0.2165 0.0912 (  3760 PWs)   bands (ev):

  -115.6090 -69.9816 -69.9606 -69.9602 -64.9521 -31.9581 -31.9240 -31.9175
    -9.9513  -8.8915   1.6635   1.9473   2.4495   2.9555   2.9682   3.8234
     4.9957   5.4010   5.7559   6.6166   6.8302

     occupation numbers 
     1.0000   1.0000   1.0000   1.0000   1.0000   1.0000   1.0000   1.0000
     1.0000   1.0000   1.0000   1.0000   1.0000   1.0000   1.0000   1.0000
     1.0000   1.0000   1.0000   1.0000   1.0000

          k = 0.1250 0.2165 0.1824 (  3745 PWs)   bands (ev):

  -115.6090 -69.9815 -69.9606 -69.9602 -64.9521 -31.9583 -31.9240 -31.9174
    -9.8818  -8.9547   1.6510   1.9466   2.2936   2.7305   2.9386   4.0865
     5.0292   5.5386   5.6754   6.5388   6.9825

     occupation numbers 
     1.0000   1.0000   1.0000   1.0000   1.0000   1.0000   1.0000   1.0000
     1.0000   1.0000   1.0000   1.0000   1.0000   1.0000   1.0000   1.0000
     1.0000   1.0000   1.0000   1.0000   1.0000

          k = 0.1250 0.2165 0.2736 (  3738 PWs)   bands (ev):

  -115.6089 -69.9815 -69.9605 -69.9602 -64.9521 -31.9585 -31.9239 -31.9174
    -9.8004  -9.0300   1.6319   1.9458   2.1609   2.5835   2.9109   4.2751
     4.9194   5.6843   5.8183   6.4313   7.0400

     occupation numbers 
     1.0000   1.0000   1.0000   1.0000   1.0000   1.0000   1.0000   1.0000
     1.0000   1.0000   1.0000   1.0000   1.0000   1.0000   1.0000   1.0000
     1.0000   1.0000   1.0000   1.0000   1.0000

          k = 0.1250 0.2165-0.3647 (  3734 PWs)   bands (ev):

  -115.6089 -69.9815 -69.9605 -69.9602 -64.9521 -31.9586 -31.9239 -31.9174
    -9.7613  -9.0666   1.6214   1.9455   2.1142   2.5312   2.8997   4.3549
     4.8429   5.7521   5.9195   6.3741   7.0385

     occupation numbers 
     1.0000   1.0000   1.0000   1.0000   1.0000   1.0000   1.0000   1.0000
     1.0000   1.0000   1.0000   1.0000   1.0000   1.0000   1.0000   1.0000
     1.0000   1.0000   1.0000   1.0000   1.0000

          k = 0.1250 0.2165-0.2736 (  3738 PWs)   bands (ev):

  -115.6089 -69.9815 -69.9605 -69.9602 -64.9521 -31.9585 -31.9239 -31.9174
    -9.8004  -9.0300   1.6319   1.9458   2.1609   2.5835   2.9109   4.2751
     4.9194   5.6843   5.8183   6.4313   7.0400

     occupation numbers 
     1.0000   1.0000   1.0000   1.0000   1.0000   1.0000   1.0000   1.0000
     1.0000   1.0000   1.0000   1.0000   1.0000   1.0000   1.0000   1.0000
     1.0000   1.0000   1.0000   1.0000   1.0000

          k = 0.1250 0.2165-0.1824 (  3745 PWs)   bands (ev):

  -115.6090 -69.9815 -69.9606 -69.9602 -64.9521 -31.9583 -31.9240 -31.9174
    -9.8818  -8.9547   1.6510   1.9466   2.2936   2.7305   2.9386   4.0865
     5.0292   5.5386   5.6754   6.5388   6.9825

     occupation numbers 
     1.0000   1.0000   1.0000   1.0000   1.0000   1.0000   1.0000   1.0000
     1.0000   1.0000   1.0000   1.0000   1.0000   1.0000   1.0000   1.0000
     1.0000   1.0000   1.0000   1.0000   1.0000

          k = 0.1250 0.2165-0.0912 (  3760 PWs)   bands (ev):

  -115.6090 -69.9816 -69.9606 -69.9602 -64.9521 -31.9581 -31.9240 -31.9175
    -9.9513  -8.8915   1.6635   1.9473   2.4495   2.9555   2.9682   3.8234
     4.9957   5.4010   5.7559   6.6166   6.8302

     occupation numbers 
     1.0000   1.0000   1.0000   1.0000   1.0000   1.0000   1.0000   1.0000
     1.0000   1.0000   1.0000   1.0000   1.0000   1.0000   1.0000   1.0000
     1.0000   1.0000   1.0000   1.0000   1.0000

          k = 0.1250 0.3608 0.0000 (  3749 PWs)   bands (ev):

  -115.6089 -69.9815 -69.9610 -69.9604 -64.9517 -31.9572 -31.9315 -31.9200
    -9.7556  -8.8420   1.7179   2.1838   2.4538   2.9591   3.1366   4.0825
     4.3518   4.8066   5.2864   6.2385   6.4200

     occupation numbers 
     1.0000   1.0000   1.0000   1.0000   1.0000   1.0000   1.0000   1.0000
     1.0000   1.0000   1.0000   1.0000   1.0000   1.0000   1.0000   1.0000
     1.0000   1.0000   1.0000   1.0000   1.0000

          k = 0.1250 0.3608 0.0912 (  3760 PWs)   bands (ev):

  -115.6089 -69.9815 -69.9610 -69.9604 -64.9517 -31.9573 -31.9315 -31.9200
    -9.7373  -8.8534   1.7166   2.1730   2.3958   2.9444   2.9774   4.0539
     4.4480   4.9547   5.2456   6.2183   6.5687

     occupation numbers 
     1.0000   1.0000   1.0000   1.0000   1.0000   1.0000   1.0000   1.0000
     1.0000   1.0000   1.0000   1.0000   1.0000   1.0000   1.0000   1.0000
     1.0000   1.0000   1.0000   1.0000   1.0000

          k = 0.1250 0.3608 0.1824 (  3751 PWs)   bands (ev):

  -115.6089 -69.9815 -69.9610 -69.9604 -64.9517 -31.9575 -31.9315 -31.9200
    -9.6903  -8.8837   1.7018   2.1348   2.2982   2.6802   2.9152   4.0205
     4.4947   5.2093   5.4211   6.0941   6.8596

     occupation numbers 
     1.0000   1.0000   1.0000   1.0000   1.0000   1.0000   1.0000   1.0000
     1.0000   1.0000   1.0000   1.0000   1.0000   1.0000   1.0000   1.0000
     1.0000   1.0000   1.0000   1.0000   1.0000

          k = 0.1250 0.3608 0.2736 (  3745 PWs)   bands (ev):

  -115.6089 -69.9815 -69.9610 -69.9604 -64.9517 -31.9577 -31.9314 -31.9200
    -9.6385  -8.9189   1.6739   2.0731   2.2477   2.4499   2.8848   4.0174
     4.4897   5.3568   5.7176   5.9694   7.0703

     occupation numbers 
     1.0000   1.0000   1.0000   1.0000   1.0000   1.0000   1.0000   1.0000
     1.0000   1.0000   1.0000   1.0000   1.0000   1.0000   1.0000   1.0000
     1.0000   1.0000   1.0000   1.0000   1.0000

          k = 0.1250 0.3608-0.3647 (  3750 PWs)   bands (ev):

  -115.6089 -69.9815 -69.9610 -69.9604 -64.9517 -31.9578 -31.9314 -31.9200
    -9.6151  -8.9354   1.6594   2.0451   2.2318   2.3705   2.8720   3.9970
     4.5107   5.4856   5.6758   6.0204   7.1250

     occupation numbers 
     1.0000   1.0000   1.0000   1.0000   1.0000   1.0000   1.0000   1.0000
     1.0000   1.0000   1.0000   1.0000   1.0000   1.0000   1.0000   1.0000
     1.0000   1.0000   1.0000   1.0000   1.0000

          k = 0.1250 0.3608-0.2736 (  3745 PWs)   bands (ev):

  -115.6089 -69.9815 -69.9610 -69.9604 -64.9517 -31.9577 -31.9314 -31.9200
    -9.6384  -8.9190   1.6744   2.0794   2.2475   2.4479   2.8832   3.9570
     4.5647   5.3456   5.7291   5.9775   7.0356

     occupation numbers 
     1.0000   1.0000   1.0000   1.0000   1.0000   1.0000   1.0000   1.0000
     1.0000   1.0000   1.0000   1.0000   1.0000   1.0000   1.0000   1.0000
     1.0000   1.0000   1.0000   1.0000   1.0000

          k = 0.1250 0.3608-0.1824 (  3751 PWs)   bands (ev):

  -115.6089 -69.9815 -69.9610 -69.9604 -64.9517 -31.9575 -31.9315 -31.9200
    -9.6902  -8.8839   1.6967   2.1479   2.3055   2.6775   2.9131   3.9185
     4.5970   5.2204   5.4446   6.0864   6.8111

     occupation numbers 
     1.0000   1.0000   1.0000   1.0000   1.0000   1.0000   1.0000   1.0000
     1.0000   1.0000   1.0000   1.0000   1.0000   1.0000   1.0000   1.0000
     1.0000   1.0000   1.0000   1.0000   1.0000

          k = 0.1250 0.3608-0.0912 (  3760 PWs)   bands (ev):

  -115.6089 -69.9815 -69.9610 -69.9604 -64.9517 -31.9573 -31.9315 -31.9200
    -9.7372  -8.8535   1.7112   2.1792   2.4066   2.9434   2.9874   3.9334
     4.5238   5.0123   5.2585   6.1938   6.5401

     occupation numbers 
     1.0000   1.0000   1.0000   1.0000   1.0000   1.0000   1.0000   1.0000
     1.0000   1.0000   1.0000   1.0000   1.0000   1.0000   1.0000   1.0000
     1.0000   1.0000   1.0000   1.0000   1.0000

          k = 0.1250 0.5052 0.0000 (  3752 PWs)   bands (ev):

  -115.6089 -69.9815 -69.9613 -69.9605 -64.9514 -31.9567 -31.9367 -31.9219
    -9.5771  -8.8411   1.8476   2.3680   2.4647   2.9630   3.0593   3.8016
     4.4042   4.6724   4.8465   6.0076   6.0910

     occupation numbers 
     1.0000   1.0000   1.0000   1.0000   1.0000   1.0000   1.0000   1.0000
     1.0000   1.0000   1.0000   1.0000   1.0000   1.0000   1.0000   1.0000
     1.0000   1.0000   1.0000   1.0000   1.0000

          k = 0.1250 0.5052 0.0912 (  3751 PWs)   bands (ev):

  -115.6089 -69.9815 -69.9613 -69.9605 -64.9514 -31.9568 -31.9367 -31.9219
    -9.5675  -8.8406   1.8470   2.3063   2.4517   2.9508   2.9907   3.6049
     4.3351   4.7475   5.1256   6.0023   6.2425

     occupation numbers 
     1.0000   1.0000   1.0000   1.0000   1.0000   1.0000   1.0000   1.0000
     1.0000   1.0000   1.0000   1.0000   1.0000   1.0000   1.0000   1.0000
     1.0000   1.0000   1.0000   1.0000   1.0000

          k = 0.1250 0.5052 0.1824 (  3757 PWs)   bands (ev):

  -115.6089 -69.9815 -69.9613 -69.9605 -64.9514 -31.9569 -31.9367 -31.9219
    -9.5438  -8.8400   1.8251   2.1898   2.4352   2.7305   2.9250   3.3984
     4.3600   4.8218   5.5533   5.8950   6.6587

     occupation numbers 
     1.0000   1.0000   1.0000   1.0000   1.0000   1.0000   1.0000   1.0000
     1.0000   1.0000   1.0000   1.0000   1.0000   1.0000   1.0000   1.0000
[...]
     4.3640   4.8438   5.5943   5.8916   6.6184

     occupation numbers 
     1.0000   1.0000   1.0000   1.0000   1.0000   1.0000   1.0000   1.0000
     1.0000   1.0000   1.0000   1.0000   1.0000   1.0000   1.0000   1.0000
     1.0000   1.0000   1.0000   1.0000   1.0000

          k =-0.5000-0.1443-0.0912 (  3751 PWs)   bands (ev):

  -115.6070 -69.9792 -69.9592 -69.9584 -64.9504 -31.9557 -31.9357 -31.9209
    -9.5647  -8.8412   1.8368   2.3374   2.4522   2.9482   3.0160   3.5475
     4.3037   4.8090   5.1719   5.9736   6.2244

     occupation numbers 
     1.0000   1.0000   1.0000   1.0000   1.0000   1.0000   1.0000   1.0000
     1.0000   1.0000   1.0000   1.0000   1.0000   1.0000   1.0000   1.0000
     1.0000   1.0000   1.0000   1.0000   1.0000

          k =-0.5000-0.0000 0.0000 (  3769 PWs)   bands (ev):

  -115.6070 -69.9792 -69.9591 -69.9586 -64.9504 -31.9556 -31.9337 -31.9230
    -9.5779  -8.8393   1.9405   2.3313   2.4929   2.9464   3.0945   3.9431
     4.1605   4.7172   4.9140   5.7972   6.0702

     occupation numbers 
     1.0000   1.0000   1.0000   1.0000   1.0000   1.0000   1.0000   1.0000
     1.0000   1.0000   1.0000   1.0000   1.0000   1.0000   1.0000   1.0000
     1.0000   1.0000   1.0000   1.0000   1.0000

          k =-0.5000-0.0000 0.0912 (  3754 PWs)   bands (ev):

  -115.6070 -69.9792 -69.9591 -69.9586 -64.9504 -31.9557 -31.9337 -31.9230
    -9.5680  -8.8394   1.9405   2.2845   2.4751   2.9262   3.0168   3.8040
     4.0132   4.8529   5.1763   5.7534   6.2394

     occupation numbers 
     1.0000   1.0000   1.0000   1.0000   1.0000   1.0000   1.0000   1.0000
     1.0000   1.0000   1.0000   1.0000   1.0000   1.0000   1.0000   1.0000
     1.0000   1.0000   1.0000   1.0000   1.0000

          k =-0.5000-0.0000 0.1824 (  3759 PWs)   bands (ev):

  -115.6070 -69.9792 -69.9591 -69.9586 -64.9504 -31.9558 -31.9337 -31.9230
    -9.5434  -8.8399   1.9372   2.1679   2.4467   2.7202   2.9098   3.5869
     4.1476   4.7896   5.5383   5.7622   6.6613

     occupation numbers 
     1.0000   1.0000   1.0000   1.0000   1.0000   1.0000   1.0000   1.0000
     1.0000   1.0000   1.0000   1.0000   1.0000   1.0000   1.0000   1.0000
     1.0000   1.0000   1.0000   1.0000   1.0000

          k =-0.5000-0.0000 0.2736 (  3757 PWs)   bands (ev):

  -115.6070 -69.9792 -69.9591 -69.9586 -64.9504 -31.9560 -31.9336 -31.9229
    -9.5180  -8.8411   1.9231   2.0583   2.4158   2.4534   2.8820   3.5367
     4.3119   4.7593   5.3750   6.0672   7.0793

     occupation numbers 
     1.0000   1.0000   1.0000   1.0000   1.0000   1.0000   1.0000   1.0000
     1.0000   1.0000   1.0000   1.0000   1.0000   1.0000   1.0000   1.0000
     1.0000   1.0000   1.0000   1.0000   1.0000

          k =-0.5000 0.0000-0.3648 (  3750 PWs)   bands (ev):

  -115.6070 -69.9792 -69.9590 -69.9586 -64.9504 -31.9561 -31.9336 -31.9229
    -9.5073  -8.8418   1.9100   2.0166   2.3382   2.4224   2.8725   3.5284
     4.3896   4.7668   5.2697   6.1824   7.2484

     occupation numbers 
     1.0000   1.0000   1.0000   1.0000   1.0000   1.0000   1.0000   1.0000
     1.0000   1.0000   1.0000   1.0000   1.0000   1.0000   1.0000   1.0000
     1.0000   1.0000   1.0000   1.0000   1.0000

          k =-0.5000 0.0000-0.2736 (  3757 PWs)   bands (ev):

  -115.6070 -69.9792 -69.9591 -69.9586 -64.9504 -31.9560 -31.9336 -31.9229
    -9.5180  -8.8411   1.9231   2.0583   2.4158   2.4534   2.8820   3.5367
     4.3119   4.7593   5.3750   6.0672   7.0793

     occupation numbers 
     1.0000   1.0000   1.0000   1.0000   1.0000   1.0000   1.0000   1.0000
     1.0000   1.0000   1.0000   1.0000   1.0000   1.0000   1.0000   1.0000
     1.0000   1.0000   1.0000   1.0000   1.0000

          k =-0.5000 0.0000-0.1824 (  3759 PWs)   bands (ev):

  -115.6070 -69.9792 -69.9591 -69.9586 -64.9504 -31.9558 -31.9337 -31.9230
    -9.5434  -8.8399   1.9372   2.1679   2.4466   2.7202   2.9098   3.5869
     4.1476   4.7896   5.5383   5.7622   6.6613

     occupation numbers 
     1.0000   1.0000   1.0000   1.0000   1.0000   1.0000   1.0000   1.0000
     1.0000   1.0000   1.0000   1.0000   1.0000   1.0000   1.0000   1.0000
     1.0000   1.0000   1.0000   1.0000   1.0000

          k =-0.5000 0.0000-0.0912 (  3754 PWs)   bands (ev):

  -115.6070 -69.9792 -69.9591 -69.9586 -64.9504 -31.9557 -31.9337 -31.9230
    -9.5680  -8.8394   1.9405   2.2845   2.4751   2.9262   3.0168   3.8040
     4.0132   4.8529   5.1763   5.7534   6.2394

     occupation numbers 
     1.0000   1.0000   1.0000   1.0000   1.0000   1.0000   1.0000   1.0000
     1.0000   1.0000   1.0000   1.0000   1.0000   1.0000   1.0000   1.0000
     1.0000   1.0000   1.0000   1.0000   1.0000

          k =-0.5000 0.1443-0.0000 (  3752 PWs)   bands (ev):

  -115.6070 -69.9792 -69.9592 -69.9584 -64.9504 -31.9556 -31.9358 -31.9209
    -9.5744  -8.8415   1.8506   2.3706   2.4672   2.9653   3.0615   3.8036
     4.4054   4.6735   4.8472   6.0091   6.0926

     occupation numbers 
     1.0000   1.0000   1.0000   1.0000   1.0000   1.0000   1.0000   1.0000
     1.0000   1.0000   1.0000   1.0000   1.0000   1.0000   1.0000   1.0000
     1.0000   1.0000   1.0000   1.0000   1.0000

          k =-0.5000 0.1443 0.0912 (  3751 PWs)   bands (ev):

  -115.6070 -69.9792 -69.9592 -69.9584 -64.9504 -31.9557 -31.9357 -31.9209
    -9.5647  -8.8412   1.8368   2.3374   2.4522   2.9482   3.0160   3.5475
     4.3037   4.8090   5.1719   5.9736   6.2244

     occupation numbers 
     1.0000   1.0000   1.0000   1.0000   1.0000   1.0000   1.0000   1.0000
     1.0000   1.0000   1.0000   1.0000   1.0000   1.0000   1.0000   1.0000
     1.0000   1.0000   1.0000   1.0000   1.0000

          k =-0.5000 0.1443 0.1824 (  3757 PWs)   bands (ev):

  -115.6070 -69.9792 -69.9592 -69.9584 -64.9504 -31.9558 -31.9357 -31.9209
    -9.5409  -8.8407   1.8097   2.2330   2.4355   2.7287   2.9306   3.3565
     4.3640   4.8438   5.5943   5.8916   6.6184

     occupation numbers 
     1.0000   1.0000   1.0000   1.0000   1.0000   1.0000   1.0000   1.0000
     1.0000   1.0000   1.0000   1.0000   1.0000   1.0000   1.0000   1.0000
     1.0000   1.0000   1.0000   1.0000   1.0000

          k =-0.5000 0.1443 0.2736 (  3759 PWs)   bands (ev):

  -115.6070 -69.9792 -69.9592 -69.9584 -64.9504 -31.9560 -31.9357 -31.9209
    -9.5164  -8.8407   1.7771   2.1308   2.4085   2.4522   2.9042   3.3305
     4.4163   4.9573   5.5887   6.0128   7.0169

     occupation numbers 
     1.0000   1.0000   1.0000   1.0000   1.0000   1.0000   1.0000   1.0000
     1.0000   1.0000   1.0000   1.0000   1.0000   1.0000   1.0000   1.0000
     1.0000   1.0000   1.0000   1.0000   1.0000

          k =-0.5000 0.1443-0.3648 (  3750 PWs)   bands (ev):

  -115.6070 -69.9792 -69.9592 -69.9584 -64.9504 -31.9561 -31.9357 -31.9209
    -9.5061  -8.8409   1.7635   2.0783   2.3302   2.4274   2.8944   3.3337
     4.4256   5.0534   5.4847   6.1027   7.1824

     occupation numbers 
     1.0000   1.0000   1.0000   1.0000   1.0000   1.0000   1.0000   1.0000
     1.0000   1.0000   1.0000   1.0000   1.0000   1.0000   1.0000   1.0000
     1.0000   1.0000   1.0000   1.0000   1.0000

          k =-0.5000 0.1443-0.2736 (  3759 PWs)   bands (ev):

  -115.6070 -69.9792 -69.9592 -69.9584 -64.9504 -31.9560 -31.9357 -31.9209
    -9.5165  -8.8406   1.7869   2.1050   2.4147   2.4567   2.9034   3.3481
     4.4062   4.9541   5.5876   5.9956   7.0432

     occupation numbers 
     1.0000   1.0000   1.0000   1.0000   1.0000   1.0000   1.0000   1.0000
     1.0000   1.0000   1.0000   1.0000   1.0000   1.0000   1.0000   1.0000
     1.0000   1.0000   1.0000   1.0000   1.0000

          k =-0.5000 0.1443-0.1824 (  3757 PWs)   bands (ev):

  -115.6070 -69.9792 -69.9592 -69.9584 -64.9504 -31.9558 -31.9357 -31.9209
    -9.5410  -8.8406   1.8280   2.1918   2.4378   2.7320   2.9272   3.4004
     4.3611   4.8232   5.5551   5.8962   6.6605

     occupation numbers 
     1.0000   1.0000   1.0000   1.0000   1.0000   1.0000   1.0000   1.0000
     1.0000   1.0000   1.0000   1.0000   1.0000   1.0000   1.0000   1.0000
     1.0000   1.0000   1.0000   1.0000   1.0000

          k =-0.5000 0.1443-0.0912 (  3751 PWs)   bands (ev):

  -115.6070 -69.9792 -69.9592 -69.9584 -64.9504 -31.9557 -31.9357 -31.9209
    -9.5648  -8.8411   1.8499   2.3087   2.4543   2.9530   2.9927   3.6068
     4.3361   4.7486   5.1270   6.0037   6.2440

     occupation numbers 
     1.0000   1.0000   1.0000   1.0000   1.0000   1.0000   1.0000   1.0000
     1.0000   1.0000   1.0000   1.0000   1.0000   1.0000   1.0000   1.0000
     1.0000   1.0000   1.0000   1.0000   1.0000

          k =-0.5000-0.8660 0.0000 (  3746 PWs)   bands (ev):

  -115.6070 -69.9792 -69.9593 -69.9583 -64.9504 -31.9556 -31.9374 -31.9193
    -9.5709  -8.8437   1.7736   2.4111   2.4253   2.9892   3.0373   3.7611
     4.4057   4.6706   4.9246   6.0374   6.2557

     occupation numbers 
     1.0000   1.0000   1.0000   1.0000   1.0000   1.0000   1.0000   1.0000
     1.0000   1.0000   1.0000   1.0000   1.0000   1.0000   1.0000   1.0000
     1.0000   1.0000   1.0000   1.0000   1.0000

          k =-0.5000-0.8660 0.0912 (  3758 PWs)   bands (ev):

  -115.6070 -69.9792 -69.9593 -69.9583 -64.9504 -31.9557 -31.9373 -31.9193
    -9.5615  -8.8430   1.7623   2.3511   2.4233   2.9785   2.9947   3.4937
     4.3460   4.9746   5.0267   6.2055   6.2137

     occupation numbers 
     1.0000   1.0000   1.0000   1.0000   1.0000   1.0000   1.0000   1.0000
     1.0000   1.0000   1.0000   1.0000   1.0000   1.0000   1.0000   1.0000
     1.0000   1.0000   1.0000   1.0000   1.0000

          k =-0.5000-0.8660 0.1824 (  3770 PWs)   bands (ev):

  -115.6070 -69.9792 -69.9593 -69.9583 -64.9504 -31.9558 -31.9373 -31.9193
    -9.5385  -8.8414   1.7289   2.2319   2.4184   2.7391   2.9539   3.2663
     4.3592   5.1092   5.4505   6.0973   6.6037

     occupation numbers 
     1.0000   1.0000   1.0000   1.0000   1.0000   1.0000   1.0000   1.0000
     1.0000   1.0000   1.0000   1.0000   1.0000   1.0000   1.0000   1.0000
     1.0000   1.0000   1.0000   1.0000   1.0000

          k =-0.5000-0.8660 0.2736 (  3762 PWs)   bands (ev):

  -115.6070 -69.9792 -69.9593 -69.9583 -64.9504 -31.9560 -31.9373 -31.9193
    -9.5148  -8.8402   1.6878   2.1331   2.4133   2.4375   2.9310   3.2278
     4.3770   5.2831   5.7494   5.9401   6.9603

     occupation numbers 
     1.0000   1.0000   1.0000   1.0000   1.0000   1.0000   1.0000   1.0000
     1.0000   1.0000   1.0000   1.0000   1.0000   1.0000   1.0000   1.0000
     1.0000   1.0000   1.0000   1.0000   1.0000

          k =-0.5000-0.8660-0.3648 (  3764 PWs)   bands (ev):

  -115.6070 -69.9792 -69.9593 -69.9583 -64.9504 -31.9561 -31.9373 -31.9193
    -9.5048  -8.8399   1.6697   2.0888   2.3307   2.4112   2.9221   3.2226
     4.3827   5.3858   5.8440   5.8633   7.0914

     occupation numbers 
     1.0000   1.0000   1.0000   1.0000   1.0000   1.0000   1.0000   1.0000
     1.0000   1.0000   1.0000   1.0000   1.0000   1.0000   1.0000   1.0000
     1.0000   1.0000   1.0000   1.0000   1.0000

     highest occupied level (ev):     7.2862

!    total energy              =    -651.12574246 Ry
     Harris-Foulkes estimate   =    -651.12574246 Ry
     estimated scf accuracy    <          1.5E-10 Ry

     The total energy is the sum of the following terms:

     one-electron contribution =    -528.44749981 Ry
     hartree contribution      =     277.97616485 Ry
     xc contribution           =     -73.08308038 Ry
     ewald contribution        =    -327.57132711 Ry

     convergence has been achieved in  10 iterations

     Forces acting on atoms (cartesian axes, Ry/au):

     atom    1 type  3   force =    -0.00000024    0.00000048    0.00093788
     atom    2 type  3   force =    -0.00000027    0.00000097   -0.00362808
     atom    3 type  2   force =     0.00000025   -0.00000057    0.00933878
     atom    4 type  1   force =     0.00000026   -0.00000088   -0.00664859
     The non-local contrib.  to forces
     atom    1 type  3   force =    -0.00000010   -0.00000154   -0.16001024
     atom    2 type  3   force =     0.00000008    0.00000059   -0.02826105
     atom    3 type  2   force =     0.00000046   -0.00000602   -0.29202006
     atom    4 type  1   force =     0.00000142   -0.00000162   -0.11196580
     The ionic contribution  to forces
     atom    1 type  3   force =    -0.00000960    0.00002819    4.15532734
     atom    2 type  3   force =    -0.00000183    0.00002419   -1.78302419
     atom    3 type  2   force =    -0.00000071   -0.00003538   -1.16105605
     atom    4 type  1   force =     0.00001213   -0.00001700   -1.21124709
     The local contribution  to forces
     atom    1 type  3   force =     0.00000946   -0.00002618   -3.99555999
     atom    2 type  3   force =     0.00000147   -0.00002379    1.80800676
     atom    3 type  2   force =     0.00000050    0.00004081    1.46243047
     atom    4 type  1   force =    -0.00001330    0.00001775    1.31656594
     The core correction contribution to forces
     atom    1 type  3   force =     0.00000001    0.00000000    0.00117749
     atom    2 type  3   force =    -0.00000000   -0.00000001   -0.00034988
     atom    3 type  2   force =     0.00000000    0.00000000    0.00000000
     atom    4 type  1   force =     0.00000000    0.00000000    0.00000000
     The Hubbard contrib.    to forces
     atom    1 type  3   force =     0.00000000    0.00000000    0.00000000
     atom    2 type  3   force =     0.00000000    0.00000000    0.00000000
     atom    3 type  2   force =     0.00000000    0.00000000    0.00000000
     atom    4 type  1   force =     0.00000000    0.00000000    0.00000000
     The SCF correction term to forces
     atom    1 type  3   force =     0.00000000    0.00000000    0.00000000
     atom    2 type  3   force =     0.00000000    0.00000000    0.00000000
     atom    3 type  2   force =     0.00000000    0.00000000    0.00000000
     atom    4 type  1   force =     0.00000000    0.00000000    0.00000000

     Total force =     0.000000     Total SCF correction =     0.000000


     Computing stress (Cartesian axis) and pressure

          total   stress  (Ry/bohr**3)                   (kbar)     P=   -0.09
   0.00000044   0.00000000   0.00000000          0.06      0.00      0.00
   0.00000000   0.00000043  -0.00000002          0.00      0.06     -0.00
   0.00000000  -0.00000002  -0.00000261          0.00     -0.00     -0.38

     kinetic stress (kbar)  27137.36      0.00      0.00
                                0.00  27137.36     -0.00
                                0.00     -0.00  27312.50

     local   stress (kbar) -13466.97     -0.02     -0.01
                               -0.02 -13466.97      0.00
                               -0.01      0.00  -3583.10

     nonloc. stress (kbar)   1834.15      0.00     -0.00
                                0.00   1834.15      0.00
                               -0.00      0.00   1760.81

     hartree stress (kbar)  45387.48      0.01      0.00
                                0.01  45387.48      0.00
                                0.00      0.00  40912.93

     exc-cor stress (kbar) -10744.40      0.00     -0.00
                                0.00 -10744.40      0.00
                               -0.00      0.00 -10747.41

     corecor stress (kbar)   -255.96     -0.00     -0.00
                               -0.00   -255.96      0.00
                               -0.00      0.00   -256.27

     ewald   stress (kbar) -49891.58      0.01      0.01
                                0.01 -49891.58     -0.01
                                0.01     -0.01 -55399.84

     hubbard stress (kbar)      0.00      0.00      0.00
                                0.00      0.00      0.00
                                0.00      0.00      0.00

     london  stress (kbar)      0.00      0.00      0.00
                                0.00      0.00      0.00
                                0.00      0.00      0.00

     DFT-D3  stress (kbar)      0.00      0.00      0.00
                                0.00      0.00      0.00
                                0.00      0.00      0.00

     XDM     stress (kbar)      0.00      0.00      0.00
                                0.00      0.00      0.00
                                0.00      0.00      0.00

     dft-nl  stress (kbar)      0.00      0.00      0.00
                                0.00      0.00      0.00
                                0.00      0.00      0.00

     TS-vdW  stress (kbar)      0.00      0.00      0.00
                                0.00      0.00      0.00
                                0.00      0.00      0.00



     Writing output data file ZnO.save/
 
     init_run     :      1.16s CPU      2.55s WALL (       2 calls)
     electrons    :     54.67s CPU     59.24s WALL (       8 calls)
     update_pot   :      0.98s CPU      0.99s WALL (       6 calls)
     forces       :      1.25s CPU      1.33s WALL (       8 calls)
     stress       :      2.29s CPU      2.38s WALL (       8 calls)

     Called by init_run:
     wfcinit      :      0.65s CPU      1.47s WALL (       2 calls)
     wfcinit:atom :      0.01s CPU      0.01s WALL (     130 calls)
     wfcinit:wfcr :      0.62s CPU      1.43s WALL (     130 calls)
     potinit      :      0.15s CPU      0.20s WALL (       2 calls)
     hinit0       :      0.31s CPU      0.68s WALL (       2 calls)

     Called by electrons:
     c_bands      :     45.81s CPU     49.45s WALL (      63 calls)
     sum_band     :      6.66s CPU      6.91s WALL (      63 calls)
     v_of_rho     :      1.82s CPU      1.86s WALL (      68 calls)
     v_h          :      0.03s CPU      0.03s WALL (      68 calls)
     v_xc         :      2.21s CPU      2.25s WALL (      84 calls)
     newd         :      0.45s CPU      0.51s WALL (      68 calls)
     mix_rho      :      0.06s CPU      0.49s WALL (      63 calls)

     Called by c_bands:
     init_us_2    :      0.74s CPU      0.79s WALL (    9360 calls)
     cegterg      :     42.61s CPU     44.64s WALL (    4095 calls)

     Called by sum_band:
     sum_band:bec :      0.04s CPU      0.05s WALL (    4095 calls)
     addusdens    :      0.45s CPU      0.46s WALL (      63 calls)

     Called by *egterg:
     h_psi        :     25.66s CPU     26.50s WALL (   13074 calls)
     s_psi        :      0.85s CPU      0.88s WALL (   13074 calls)
     g_psi        :      0.06s CPU      0.06s WALL (    8849 calls)
     cdiaghg      :     10.31s CPU     11.79s WALL (   12359 calls)
     cegterg:over :      2.91s CPU      3.33s WALL (    8849 calls)
     cegterg:upda :      1.45s CPU      1.48s WALL (    8849 calls)
     cegterg:last :      0.87s CPU      0.88s WALL (    4160 calls)
     cdiaghg:chol :      0.50s CPU      0.85s WALL (   12359 calls)
     cdiaghg:inve :      0.18s CPU      0.24s WALL (   12359 calls)
     cdiaghg:para :      1.04s CPU      1.11s WALL (   24718 calls)

     Called by h_psi:
     h_psi:pot    :     25.59s CPU     26.43s WALL (   13074 calls)
     h_psi:calbec :      1.47s CPU      1.52s WALL (   13074 calls)
     vloc_psi     :     23.23s CPU     23.99s WALL (   13074 calls)
     add_vuspsi   :      0.86s CPU      0.89s WALL (   13074 calls)

     General routines
     calbec       :      2.32s CPU      2.39s WALL (   19769 calls)
     fft          :      0.32s CPU      0.43s WALL (    1077 calls)
     ffts         :      0.02s CPU      0.02s WALL (     131 calls)
     fftw         :     26.56s CPU     27.39s WALL (  532015 calls)
     interpolate  :      0.03s CPU      0.03s WALL (      68 calls)
 
     Parallel routines
     fft_scatt_xy :      4.26s CPU      4.39s WALL (  533223 calls)
     fft_scatt_yz :     13.27s CPU     13.70s WALL (  533223 calls)
 
     PWSCF        :   1m 0.91s CPU   1m 9.52s WALL

 
   This run was terminated on:  19:57:56  16Jun2022            

=------------------------------------------------------------------------------=
   JOB DONE.
=------------------------------------------------------------------------------=
