
     Program PWSCF v.6.4.1 starts on 17Sep2021 at 17:55:32 

     This program is part of the open-source Quantum ESPRESSO suite
     for quantum simulation of materials; please cite
         "P. Giannozzi et al., J. Phys.:Condens. Matter 21 395502 (2009);
         "P. Giannozzi et al., J. Phys.:Condens. Matter 29 465901 (2017);
          URL http://www.quantum-espresso.org", 
     in publications or presentations arising from this work. More details at
     http://www.quantum-espresso.org/quote

     Parallel version (MPI), running on    64 processors

     MPI processes distributed on     1 nodes
     R & G space division:  proc/nbgrp/npool/nimage =      64
     Waiting for input...
     Reading input from standard input

     Current dimensions of program PWSCF are:
     Max number of different atomic species (ntypx) = 10
     Max number of k-points (npk) =  40000
     Max angular momentum in pseudopotentials (lmaxx) =  3

     Atomic positions and unit cell read from directory:
     ./temp/ZnO.save/
 

     Subspace diagonalization in iterative solution of the eigenvalue problem:
     one sub-group per band group will be used
     scalapack distributed-memory algorithm (size of sub-group:  5*  5 procs)

 
     Parallelization info
     --------------------
     sticks:   dense  smooth     PW     G-vecs:    dense   smooth      PW
     Min         182      87     24                16980     5646     840
     Max         183      88     25                16986     5653     845
     Sum       11681    5607   1573              1086905   361551   53885
 


     bravais-lattice index     =            0
     lattice parameter (alat)  =      18.3962  a.u.
     unit-cell volume          =    5756.1211 (a.u.)^3
     number of atoms/cell      =           72
     number of atomic types    =            3
     number of electrons       =       836.00
     number of Kohn-Sham states=          418
     kinetic-energy cutoff     =      60.0000  Ry
     charge density cutoff     =     500.0000  Ry
     Exchange-correlation      = SLA  PW   PSX  PSC ( 1  4 10  8 0 0)
     Using LIBXC version       =    4   3   4

     celldm(1)=  18.396228  celldm(2)=   0.000000  celldm(3)=   0.000000
     celldm(4)=   0.000000  celldm(5)=   0.000000  celldm(6)=   0.000000

     crystal axes: (cart. coord. in units of alat)
               a(1) = (   0.999999  -0.001169  -0.000248 )  
               a(2) = (  -0.501010   0.867329   0.000213 )  
               a(3) = (  -0.000266   0.000110   1.066727 )  

     reciprocal axes: (cart. coord. in units 2 pi/alat)
               b(1) = (  1.000676  0.578038  0.000190 )  
               b(2) = (  0.001348  1.153744 -0.000118 )  
               b(3) = (  0.000232 -0.000096  0.937447 )  


     PseudoPot. # 1 for Zn read from file:
     ./GBRV_PBEsol/zn_pbesol_v1.uspp.F.UPF
     MD5 check sum: 7d8615e52efe7c1e2b1899de8658bae2
     Pseudo is Ultrasoft, Zval = 20.0
     Generated by new atomic code, or converted to UPF format
     Using radial grid of  943 points,  6 beta functions with: 
                l(1) =   0
                l(2) =   0
                l(3) =   1
                l(4) =   1
                l(5) =   2
                l(6) =   2
     Q(r) pseudized with  8 coefficients,  rinner =    1.100   1.100   1.100
                                                       1.100   1.100

     PseudoPot. # 2 for O  read from file:
     ./GBRV_PBEsol/o_pbesol_v1.2.uspp.F.UPF
     MD5 check sum: 501638753501ef6325af9037351f7734
     Pseudo is Ultrasoft + core correction, Zval =  6.0
     Generated by new atomic code, or converted to UPF format
     Using radial grid of  737 points,  5 beta functions with: 
                l(1) =   0
                l(2) =   0
                l(3) =   1
                l(4) =   1
                l(5) =   2
     Q(r) pseudized with  8 coefficients,  rinner =    0.900   0.900   0.900
                                                       0.900   0.900

     PseudoPot. # 3 for Mg read from file:
     ./GBRV_PBEsol/mg_pbesol_v1.4.uspp.F.UPF
     MD5 check sum: 4059f37963cf5867752dbf5ab2400678
     Pseudo is Ultrasoft, Zval = 10.0
     Generated by new atomic code, or converted to UPF format
     Using radial grid of  821 points,  7 beta functions with: 
                l(1) =   0
                l(2) =   0
                l(3) =   0
                l(4) =   1
                l(5) =   1
                l(6) =   2
                l(7) =   2
     Q(r) pseudized with  8 coefficients,  rinner =    1.200   1.200   1.200
                                                       1.200   1.200

     atomic species   valence    mass     pseudopotential
        Zn            20.00    65.38000     Zn( 1.00)
        O              6.00    15.99900     O ( 1.00)
        Mg            10.00    24.30500     Mg( 1.00)

     No symmetry found


                                    s                        frac. trans.

      isym =  1     identity                                     

 cryst.   s( 1) = (     1          0          0      )
                  (     0          1          0      )
                  (     0          0          1      )

 cart.    s( 1) = (  1.0000000  0.0000000 -0.0000000 )
                  (  0.0000000  1.0000000  0.0000000 )
                  (  0.0000000 -0.0000000  1.0000000 )


   Cartesian axes

     site n.     atom                  positions (alat units)
         1           Zn  tau(   1) = (   0.1677327   0.0963916   0.2066489  )
         2           Zn  tau(   2) = (   0.1665720   0.0967591   0.7399667  )
         3           Zn  tau(   3) = (  -0.0009251   0.3858823   0.2064840  )
         4           Zn  tau(   4) = (  -0.0004841   0.3846542   0.7395371  )
         5           Zn  tau(   5) = (  -0.1675003   0.6737630   0.2063467  )
         6           Zn  tau(   6) = (  -0.1680273   0.6746880   0.7395240  )
         7           Zn  tau(   7) = (   0.4990107   0.0946466   0.2061216  )
         8           Mg  tau(   8) = (   0.4996446   0.0950181   0.7421979  )
         9           Zn  tau(   9) = (   0.3324428   0.3851508   0.2063194  )
        10           Mg  tau(  10) = (   0.3320810   0.3856615   0.7421714  )
        11           Mg  tau(  11) = (   0.1649175   0.6745795   0.2080805  )
        12           Zn  tau(  12) = (   0.1636038   0.6728701   0.7392944  )
        13           Zn  tau(  13) = (   0.8314752   0.0915482   0.2068340  )
        14           Zn  tau(  14) = (   0.8340844   0.0977324   0.7403954  )
        15           Mg  tau(  15) = (   0.6648433   0.3822588   0.2071366  )
        16           Zn  tau(  16) = (   0.6660051   0.3845273   0.7385108  )
        17           Mg  tau(  17) = (   0.4969930   0.6739748   0.2077270  )
        18           Zn  tau(  18) = (   0.5014943   0.6734193   0.7383476  )
        19           Zn  tau(  19) = (  -0.0001549   0.1932624   0.4725313  )
        20           Mg  tau(  20) = (   0.0006737   0.1932146   1.0095175  )
        21           Mg  tau(  21) = (  -0.1662650   0.4823696   0.4736646  )
        22           Mg  tau(  22) = (  -0.1666371   0.4821714   1.0062706  )
        23           Zn  tau(  23) = (  -0.3330387   0.7716375   0.4725018  )
        24           Mg  tau(  24) = (  -0.3334031   0.7717127   1.0078680  )
        25           Zn  tau(  25) = (   0.3340092   0.1931601   0.4734245  )
        26           Zn  tau(  26) = (   0.3320282   0.1921626   1.0064814  )
        27           Zn  tau(  27) = (   0.1666122   0.4799713   0.4731825  )
        28           Zn  tau(  28) = (   0.1646666   0.4824444   1.0073956  )
        29           Zn  tau(  29) = (  -0.0023822   0.7719548   0.4735505  )
        30           Zn  tau(  30) = (  -0.0007683   0.7688924   1.0073243  )
        31           Zn  tau(  31) = (   0.6657003   0.1911145   0.4734076  )
        32           Zn  tau(  32) = (   0.6670459   0.1929091   1.0069963  )
        33           Zn  tau(  33) = (   0.4985073   0.4801500   0.4721575  )
        34           Zn  tau(  34) = (   0.5010147   0.4822569   1.0067489  )
        35           Mg  tau(  35) = (   0.3321273   0.7714446   0.4758568  )
        36           Zn  tau(  36) = (   0.3322846   0.7688923   1.0045749  )
        37           O   tau(  37) = (   0.1665521   0.0959119   0.0033158  )
        38           O   tau(  38) = (   0.1664579   0.0966405   0.5361116  )
        39           O   tau(  39) = (  -0.0012475   0.3853582   0.0029503  )
        40           O   tau(  40) = (  -0.0006052   0.3851587   0.5362686  )
        41           O   tau(  41) = (  -0.1679078   0.6735757   0.0025966  )
        42           O   tau(  42) = (  -0.1679106   0.6743425   0.5363961  )
        43           O   tau(  43) = (   0.4999472   0.0954626   0.0018783  )
        44           O   tau(  44) = (   0.4994519   0.0959720   0.5390637  )
        45           O   tau(  45) = (   0.3331587   0.3855072   0.0017620  )
        46           O   tau(  46) = (   0.3327852   0.3850332   0.5389893  )
        47           O   tau(  47) = (   0.1664251   0.6742236   0.0051351  )
        48           O   tau(  48) = (   0.1649735   0.6739043   0.5350658  )
        49           O   tau(  49) = (   0.8336578   0.0944558   0.0026475  )
        50           O   tau(  50) = (   0.8332980   0.0963810   0.5368881  )
        51           O   tau(  51) = (   0.6674709   0.3850371   0.0043228  )
        52           O   tau(  52) = (   0.6664074   0.3846768   0.5343095  )
        53           O   tau(  53) = (   0.4999011   0.6746415   0.0044214  )
        54           O   tau(  54) = (   0.4993750   0.6737789   0.5344712  )
        55           O   tau(  55) = (  -0.0009756   0.1919836   0.2682408  )
        56           O   tau(  56) = (   0.0005938   0.1929985   0.8061124  )
        57           O   tau(  57) = (  -0.1686919   0.4808230   0.2704462  )
        58           O   tau(  58) = (  -0.1673321   0.4817349   0.8027374  )
        59           O   tau(  59) = (  -0.3348422   0.7705173   0.2683919  )
        60           O   tau(  60) = (  -0.3338672   0.7716465   0.8047649  )
        61           O   tau(  61) = (   0.3336870   0.1928854   0.2701001  )
        62           O   tau(  62) = (   0.3336942   0.1929482   0.8027463  )
        63           O   tau(  63) = (   0.1659507   0.4815743   0.2695191  )
        64           O   tau(  64) = (   0.1656004   0.4815208   0.8037559  )
        65           O   tau(  65) = (  -0.0016957   0.7702149   0.2700010  )
        66           O   tau(  66) = (  -0.0011867   0.7702011   0.8037696  )
        67           O   tau(  67) = (   0.6659474   0.1903000   0.2696997  )
        68           O   tau(  68) = (   0.6662777   0.1922941   0.8031850  )
        69           O   tau(  69) = (   0.4995298   0.4810701   0.2685776  )
        70           O   tau(  70) = (   0.4997975   0.4813309   0.8028991  )
        71           O   tau(  71) = (   0.3313558   0.7682749   0.2730660  )
        72           O   tau(  72) = (   0.3325382   0.7698666   0.8002393  )

   Crystallographic axes

     site n.     atom                  positions (cryst. coord.)
         1           Zn  tau(   1) = (  0.2236034  0.1114130  0.1937520  )
         2           Zn  tau(   2) = (  0.2227555  0.1117724  0.6937087  )
         3           Zn  tau(   3) = (  0.2221681  0.4451838  0.1935305  )
         4           Zn  tau(   4) = (  0.2220007  0.4437046  0.6932396  )
         5           Zn  tau(   5) = (  0.2218862  0.7770999  0.1933355  )
         6           Zn  tau(   6) = (  0.2219947  0.7781035  0.6931606  )
         7           Zn  tau(   7) = (  0.5540967  0.1098466  0.1933349  )
         8           Mg  tau(   8) = (  0.5550474  0.1102127  0.6958779  )
         9           Zn  tau(   9) = (  0.5553386  0.4447895  0.1934537  )
        10           Mg  tau(  10) = (  0.5553734  0.4453149  0.6957862  )
        11           Mg  tau(  11) = (  0.5550012  0.7784901  0.1950381  )
        12           Zn  tau(  12) = (  0.5527992  0.7764533  0.6930225  )
        13           Zn  tau(  13) = (  0.8849951  0.1067200  0.1940803  )
        14           Zn  tau(  14) = (  0.8912821  0.1137955  0.6942656  )
        15           Mg  tau(  15) = (  0.8862924  0.4419010  0.1942974  )
        16           Zn  tau(  16) = (  0.8888671  0.4444570  0.6924323  )
        17           Mg  tau(  17) = (  0.8869516  0.7782402  0.1947838  )
        18           Zn  tau(  18) = (  0.8912355  0.7775426  0.6922135  )
        19           Zn  tau(  19) = (  0.1116476  0.2229193  0.4429543  )
        20           Mg  tau(  20) = (  0.1125511  0.2228019  0.9463504  )
        21           Mg  tau(  21) = (  0.1125404  0.5562510  0.4439504  )
        22           Mg  tau(  22) = (  0.1121545  0.5559589  0.9432401  )
        23           Zn  tau(  23) = (  0.1128616  0.8897675  0.4427939  )
        24           Mg  tau(  24) = (  0.1126420  0.8897905  0.9446710  )
        25           Zn  tau(  25) = (  0.4459788  0.2232518  0.4438693  )
        26           Zn  tau(  26) = (  0.4435211  0.2220354  0.9435814  )
        27           Zn  tau(  27) = (  0.4442564  0.5539329  0.4435761  )
        28           Zn  tau(  28) = (  0.4438404  0.5567205  0.9443716  )
        29           Zn  tau(  29) = (  0.4439253  0.8905793  0.4438538  )
        30           Zn  tau(  30) = (  0.4438714  0.8869852  0.9442389  )
        31           Zn  tau(  31) = (  0.7767119  0.2213390  0.4439307  )
        32           Zn  tau(  32) = (  0.7791969  0.2233482  0.9441418  )
        33           Zn  tau(  33) = (  0.7764790  0.5545867  0.4426923  )
        34           Zn  tau(  34) = (  0.7803075  0.5569579  0.9438436  )
        35           Mg  tau(  35) = (  0.7783665  0.8904415  0.4460936  )
        36           Zn  tau(  36) = (  0.7771489  0.8874345  0.9417389  )
        37           O   tau(  37) = (  0.2221060  0.1108819  0.0031379  )
        38           O   tau(  38) = (  0.2225341  0.1116596  0.5026054  )
        39           O   tau(  39) = (  0.2215039  0.4446028  0.0027285  )
        40           O   tau(  40) = (  0.2221325  0.4443104  0.5026862  )
        41           O   tau(  41) = (  0.2213315  0.7769074  0.0023306  )
        42           O   tau(  42) = (  0.2218732  0.7777290  0.5027390  )
        43           O   tau(  43) = (  0.5554667  0.1108133  0.0018678  )
        44           O   tau(  44) = (  0.5553674  0.1113369  0.5054503  )
        45           O   tau(  45) = (  0.5562222  0.4452257  0.0016923  )
        46           O   tau(  46) = (  0.5556764  0.4446149  0.5053141  )
        47           O   tau(  47) = (  0.5562654  0.7781054  0.0047879  )
        48           O   tau(  48) = (  0.5547289  0.7776724  0.5015693  )
        49           O   tau(  49) = (  0.8888212  0.1101017  0.0026665  )
        50           O   tau(  50) = (  0.8896753  0.1122592  0.5034883  )
        51           O   tau(  51) = (  0.8904893  0.4451339  0.0041706  )
        52           O   tau(  52) = (  0.8893173  0.4446541  0.5010046  )
        53           O   tau(  53) = (  0.8902084  0.7790373  0.0041963  )
        54           O   tau(  54) = (  0.8892839  0.7779787  0.5010897  )
        55           O   tau(  55) = (  0.1100485  0.2214670  0.2514428  )
        56           O   tau(  56) = (  0.1123077  0.2225765  0.7556690  )
        57           O   tau(  57) = (  0.1091793  0.5544873  0.2534436  )
        58           O   tau(  58) = (  0.1111681  0.5554785  0.7524384  )
        59           O   tau(  59) = (  0.1103706  0.8884967  0.2514514  )
        60           O   tau(  60) = (  0.1121007  0.8897375  0.7542726  )
        61           O   tau(  61) = (  0.4454591  0.2229585  0.2532635  )
        62           O   tau(  62) = (  0.4456036  0.2229680  0.7525909  )
        63           O   tau(  63) = (  0.4444823  0.5558055  0.2526521  )
        64           O   tau(  64) = (  0.4442023  0.5556803  0.7534706  )
        65           O   tau(  65) = (  0.4435679  0.8885969  0.2530373  )
        66           O   tau(  66) = (  0.4441705  0.8885185  0.7534170  )
        67           O   tau(  67) = (  0.7764496  0.2204237  0.2529655  )
        68           O   tau(  68) = (  0.7780340  0.2226617  0.7530795  )
        69           O   tau(  69) = (  0.7779954  0.5556737  0.2518472  )
        70           O   tau(  70) = (  0.7785154  0.5559119  0.7527450  )
        71           O   tau(  71) = (  0.7757239  0.8868073  0.2559882  )
        72           O   tau(  72) = (  0.7779271  0.8885830  0.7501851  )

     number of k points=    80
                       cart. coord. in units 2pi/alat
        k(    1) = (   0.0000000   0.0000000   0.0000000), wk =   0.0156250
        k(    2) = (   0.0000332  -0.0000137   0.1339209), wk =   0.0156250
        k(    3) = (   0.0000664  -0.0000274   0.2678419), wk =   0.0156250
        k(    4) = (   0.0000996  -0.0000411   0.4017628), wk =   0.0156250
        k(    5) = (   0.0001328  -0.0000548   0.5356838), wk =   0.0156250
        k(    6) = (   0.0001660  -0.0000685   0.6696047), wk =   0.0156250
        k(    7) = (   0.0001992  -0.0000822   0.8035257), wk =   0.0156250
        k(    8) = (   0.0002324  -0.0000958   0.9374466), wk =   0.0156250
        k(    9) = (   0.0003371   0.2884361  -0.0000295), wk =   0.0312500
        k(   10) = (   0.0003703   0.2884224   0.1338914), wk =   0.0312500
        k(   11) = (   0.0004035   0.2884087   0.2678124), wk =   0.0312500
        k(   12) = (   0.0004367   0.2883950   0.4017333), wk =   0.0312500
        k(   13) = (   0.0004699   0.2883813   0.5356543), wk =   0.0312500
        k(   14) = (   0.0005031   0.2883676   0.6695752), wk =   0.0312500
        k(   15) = (   0.0005363   0.2883539   0.8034962), wk =   0.0312500
        k(   16) = (   0.0005695   0.2883402   0.9374171), wk =   0.0312500
        k(   17) = (  -0.0006742  -0.5768721   0.0000591), wk =   0.0156250
        k(   18) = (  -0.0006410  -0.5768858   0.1339800), wk =   0.0156250
        k(   19) = (  -0.0006078  -0.5768995   0.2679009), wk =   0.0156250
        k(   20) = (  -0.0005746  -0.5769132   0.4018219), wk =   0.0156250
        k(   21) = (  -0.0005414  -0.5769269   0.5357428), wk =   0.0156250
        k(   22) = (  -0.0005082  -0.5769406   0.6696638), wk =   0.0156250
        k(   23) = (  -0.0004750  -0.5769543   0.8035847), wk =   0.0156250
        k(   24) = (  -0.0004419  -0.5769680   0.9375057), wk =   0.0156250
        k(   25) = (   0.2501691   0.1445095   0.0000474), wk =   0.0312500
        k(   26) = (   0.2502023   0.1444958   0.1339684), wk =   0.0312500
        k(   27) = (   0.2502355   0.1444821   0.2678893), wk =   0.0312500
        k(   28) = (   0.2502687   0.1444684   0.4018103), wk =   0.0312500
        k(   29) = (   0.2503019   0.1444547   0.5357312), wk =   0.0312500
        k(   30) = (   0.2503351   0.1444410   0.6696522), wk =   0.0312500
        k(   31) = (   0.2503683   0.1444273   0.8035731), wk =   0.0312500
        k(   32) = (   0.2504014   0.1444137   0.9374941), wk =   0.0312500
        k(   33) = (   0.2505062   0.4329456   0.0000179), wk =   0.0312500
        k(   34) = (   0.2505394   0.4329319   0.1339389), wk =   0.0312500
        k(   35) = (   0.2505726   0.4329182   0.2678598), wk =   0.0312500
        k(   36) = (   0.2506058   0.4329045   0.4017807), wk =   0.0312500
        k(   37) = (   0.2506390   0.4328908   0.5357017), wk =   0.0312500
        k(   38) = (   0.2506722   0.4328771   0.6696226), wk =   0.0312500
        k(   39) = (   0.2507054   0.4328634   0.8035436), wk =   0.0312500
        k(   40) = (   0.2507386   0.4328497   0.9374645), wk =   0.0312500
        k(   41) = (   0.2494949  -0.4323626   0.0001065), wk =   0.0312500
        k(   42) = (   0.2495281  -0.4323763   0.1340274), wk =   0.0312500
        k(   43) = (   0.2495613  -0.4323900   0.2679484), wk =   0.0312500
        k(   44) = (   0.2495945  -0.4324037   0.4018693), wk =   0.0312500
        k(   45) = (   0.2496277  -0.4324174   0.5357903), wk =   0.0312500
        k(   46) = (   0.2496608  -0.4324311   0.6697112), wk =   0.0312500
        k(   47) = (   0.2496940  -0.4324448   0.8036322), wk =   0.0312500
        k(   48) = (   0.2497272  -0.4324585   0.9375531), wk =   0.0312500
        k(   49) = (   0.2498320  -0.1439266   0.0000770), wk =   0.0312500
        k(   50) = (   0.2498652  -0.1439403   0.1339979), wk =   0.0312500
        k(   51) = (   0.2498984  -0.1439539   0.2679189), wk =   0.0312500
        k(   52) = (   0.2499316  -0.1439676   0.4018398), wk =   0.0312500
        k(   53) = (   0.2499648  -0.1439813   0.5357608), wk =   0.0312500
        k(   54) = (   0.2499980  -0.1439950   0.6696817), wk =   0.0312500
        k(   55) = (   0.2500311  -0.1440087   0.8036026), wk =   0.0312500
        k(   56) = (   0.2500643  -0.1440224   0.9375236), wk =   0.0312500
        k(   57) = (  -0.5003382  -0.2890190  -0.0000949), wk =   0.0156250
        k(   58) = (  -0.5003050  -0.2890327   0.1338261), wk =   0.0156250
        k(   59) = (  -0.5002718  -0.2890464   0.2677470), wk =   0.0156250
        k(   60) = (  -0.5002386  -0.2890601   0.4016680), wk =   0.0156250
        k(   61) = (  -0.5002054  -0.2890738   0.5355889), wk =   0.0156250
        k(   62) = (  -0.5001722  -0.2890875   0.6695099), wk =   0.0156250
        k(   63) = (  -0.5001390  -0.2891012   0.8034308), wk =   0.0156250
        k(   64) = (  -0.5001058  -0.2891148   0.9373517), wk =   0.0156250
        k(   65) = (  -0.5000011  -0.0005829  -0.0001244), wk =   0.0312500
        k(   66) = (  -0.4999679  -0.0005966   0.1337965), wk =   0.0312500
        k(   67) = (  -0.4999347  -0.0006103   0.2677175), wk =   0.0312500
        k(   68) = (  -0.4999015  -0.0006240   0.4016384), wk =   0.0312500
        k(   69) = (  -0.4998683  -0.0006377   0.5355594), wk =   0.0312500
        k(   70) = (  -0.4998351  -0.0006514   0.6694803), wk =   0.0312500
        k(   71) = (  -0.4998019  -0.0006651   0.8034013), wk =   0.0312500
        k(   72) = (  -0.4997687  -0.0006788   0.9373222), wk =   0.0312500
        k(   73) = (  -0.5010124  -0.8658911  -0.0000358), wk =   0.0156250
        k(   74) = (  -0.5009792  -0.8659048   0.1338851), wk =   0.0156250
        k(   75) = (  -0.5009460  -0.8659185   0.2678061), wk =   0.0156250
        k(   76) = (  -0.5009128  -0.8659322   0.4017270), wk =   0.0156250
        k(   77) = (  -0.5008796  -0.8659459   0.5356480), wk =   0.0156250
        k(   78) = (  -0.5008464  -0.8659596   0.6695689), wk =   0.0156250
        k(   79) = (  -0.5008132  -0.8659733   0.8034899), wk =   0.0156250
        k(   80) = (  -0.5007800  -0.8659870   0.9374108), wk =   0.0156250

                       cryst. coord.
        k(    1) = (   0.0000000   0.0000000   0.0000000), wk =   0.0156250
        k(    2) = (  -0.0000000   0.0000000   0.1428571), wk =   0.0156250
        k(    3) = (  -0.0000000   0.0000000   0.2857143), wk =   0.0156250
        k(    4) = (  -0.0000000   0.0000000   0.4285714), wk =   0.0156250
        k(    5) = (  -0.0000000   0.0000000   0.5714286), wk =   0.0156250
        k(    6) = (  -0.0000000   0.0000000   0.7142857), wk =   0.0156250
        k(    7) = (  -0.0000000   0.0000000   0.8571429), wk =   0.0156250
        k(    8) = (  -0.0000000   0.0000000   1.0000000), wk =   0.0156250
        k(    9) = (   0.0000000   0.2500000  -0.0000000), wk =   0.0312500
        k(   10) = (   0.0000000   0.2500000   0.1428571), wk =   0.0312500
        k(   11) = (   0.0000000   0.2500000   0.2857143), wk =   0.0312500
        k(   12) = (   0.0000000   0.2500000   0.4285714), wk =   0.0312500
        k(   13) = (   0.0000000   0.2500000   0.5714286), wk =   0.0312500
        k(   14) = (   0.0000000   0.2500000   0.7142857), wk =   0.0312500
        k(   15) = (  -0.0000000   0.2500000   0.8571429), wk =   0.0312500
        k(   16) = (   0.0000000   0.2500000   1.0000000), wk =   0.0312500
        k(   17) = (  -0.0000000  -0.5000000   0.0000000), wk =   0.0156250
        k(   18) = (  -0.0000000  -0.5000000   0.1428571), wk =   0.0156250
        k(   19) = (  -0.0000000  -0.5000000   0.2857143), wk =   0.0156250
        k(   20) = (  -0.0000000  -0.5000000   0.4285714), wk =   0.0156250
        k(   21) = (  -0.0000000  -0.5000000   0.5714286), wk =   0.0156250
        k(   22) = (  -0.0000000  -0.5000000   0.7142857), wk =   0.0156250
        k(   23) = (  -0.0000000  -0.5000000   0.8571429), wk =   0.0156250
        k(   24) = (  -0.0000000  -0.5000000   1.0000000), wk =   0.0156250
        k(   25) = (   0.2500000   0.0000000   0.0000000), wk =   0.0312500
        k(   26) = (   0.2500000   0.0000000   0.1428571), wk =   0.0312500
        k(   27) = (   0.2500000   0.0000000   0.2857143), wk =   0.0312500
        k(   28) = (   0.2500000   0.0000000   0.4285714), wk =   0.0312500
        k(   29) = (   0.2500000   0.0000000   0.5714286), wk =   0.0312500
        k(   30) = (   0.2500000   0.0000000   0.7142857), wk =   0.0312500
        k(   31) = (   0.2500000   0.0000000   0.8571429), wk =   0.0312500
        k(   32) = (   0.2500000   0.0000000   1.0000000), wk =   0.0312500
        k(   33) = (   0.2500000   0.2500000   0.0000000), wk =   0.0312500
        k(   34) = (   0.2500000   0.2500000   0.1428571), wk =   0.0312500
        k(   35) = (   0.2500000   0.2500000   0.2857143), wk =   0.0312500
        k(   36) = (   0.2500000   0.2500000   0.4285714), wk =   0.0312500
        k(   37) = (   0.2500000   0.2500000   0.5714286), wk =   0.0312500
        k(   38) = (   0.2500000   0.2500000   0.7142857), wk =   0.0312500
        k(   39) = (   0.2500000   0.2500000   0.8571429), wk =   0.0312500
        k(   40) = (   0.2500000   0.2500000   1.0000000), wk =   0.0312500
        k(   41) = (   0.2500000  -0.5000000   0.0000000), wk =   0.0312500
        k(   42) = (   0.2500000  -0.5000000   0.1428571), wk =   0.0312500
        k(   43) = (   0.2500000  -0.5000000   0.2857143), wk =   0.0312500
        k(   44) = (   0.2500000  -0.5000000   0.4285714), wk =   0.0312500
        k(   45) = (   0.2500000  -0.5000000   0.5714286), wk =   0.0312500
        k(   46) = (   0.2500000  -0.5000000   0.7142857), wk =   0.0312500
        k(   47) = (   0.2500000  -0.5000000   0.8571429), wk =   0.0312500
        k(   48) = (   0.2500000  -0.5000000   1.0000000), wk =   0.0312500
        k(   49) = (   0.2500000  -0.2500000   0.0000000), wk =   0.0312500
        k(   50) = (   0.2500000  -0.2500000   0.1428571), wk =   0.0312500
        k(   51) = (   0.2500000  -0.2500000   0.2857143), wk =   0.0312500
        k(   52) = (   0.2500000  -0.2500000   0.4285714), wk =   0.0312500
        k(   53) = (   0.2500000  -0.2500000   0.5714286), wk =   0.0312500
        k(   54) = (   0.2500000  -0.2500000   0.7142857), wk =   0.0312500
        k(   55) = (   0.2500000  -0.2500000   0.8571429), wk =   0.0312500
        k(   56) = (   0.2500000  -0.2500000   1.0000000), wk =   0.0312500
        k(   57) = (  -0.5000000  -0.0000000  -0.0000000), wk =   0.0156250
        k(   58) = (  -0.5000000  -0.0000000   0.1428571), wk =   0.0156250
        k(   59) = (  -0.5000000  -0.0000000   0.2857143), wk =   0.0156250
        k(   60) = (  -0.5000000  -0.0000000   0.4285714), wk =   0.0156250
        k(   61) = (  -0.5000000  -0.0000000   0.5714286), wk =   0.0156250
        k(   62) = (  -0.5000000  -0.0000000   0.7142857), wk =   0.0156250
        k(   63) = (  -0.5000000  -0.0000000   0.8571429), wk =   0.0156250
        k(   64) = (  -0.5000000  -0.0000000   1.0000000), wk =   0.0156250
        k(   65) = (  -0.5000000   0.2500000  -0.0000000), wk =   0.0312500
        k(   66) = (  -0.5000000   0.2500000   0.1428571), wk =   0.0312500
        k(   67) = (  -0.5000000   0.2500000   0.2857143), wk =   0.0312500
        k(   68) = (  -0.5000000   0.2500000   0.4285714), wk =   0.0312500
        k(   69) = (  -0.5000000   0.2500000   0.5714286), wk =   0.0312500
        k(   70) = (  -0.5000000   0.2500000   0.7142857), wk =   0.0312500
        k(   71) = (  -0.5000000   0.2500000   0.8571429), wk =   0.0312500
        k(   72) = (  -0.5000000   0.2500000   1.0000000), wk =   0.0312500
        k(   73) = (  -0.5000000  -0.5000000  -0.0000000), wk =   0.0156250
        k(   74) = (  -0.5000000  -0.5000000   0.1428571), wk =   0.0156250
        k(   75) = (  -0.5000000  -0.5000000   0.2857143), wk =   0.0156250
        k(   76) = (  -0.5000000  -0.5000000   0.4285714), wk =   0.0156250
        k(   77) = (  -0.5000000  -0.5000000   0.5714286), wk =   0.0156250
        k(   78) = (  -0.5000000  -0.5000000   0.7142857), wk =   0.0156250
        k(   79) = (  -0.5000000  -0.5000000   0.8571429), wk =   0.0156250
        k(   80) = (  -0.5000000  -0.5000000   1.0000000), wk =   0.0156250

     Dense  grid:  1086905 G-vectors     FFT dimensions: ( 135, 135, 144)

     Smooth grid:   361551 G-vectors     FFT dimensions: (  96,  96, 100)

     Dynamical RAM for                 wfc:       4.50 MB

     Dynamical RAM for     wfc (w. buffer):     364.23 MB

     Dynamical RAM for           str. fact:       0.78 MB

     Dynamical RAM for           local pot:       0.00 MB

     Dynamical RAM for          nlocal pot:      12.11 MB

     Dynamical RAM for                qrad:      20.99 MB

     Dynamical RAM for          rho,v,vnew:       2.03 MB

     Dynamical RAM for           G-vectors:       1.01 MB

     Dynamical RAM for          h,s,v(r/c):       5.11 MB

     Dynamical RAM for          <psi|beta>:       7.18 MB

     Dynamical RAM for                 psi:      17.99 MB

     Dynamical RAM for                hpsi:      17.99 MB

     Dynamical RAM for                spsi:      17.99 MB

     Dynamical RAM for      wfcinit/wfcrot:      17.93 MB

     Dynamical RAM for           addusdens:      62.45 MB

     Estimated static dynamical RAM per process >     404.27 MB

     Estimated max dynamical RAM per process >     470.52 MB

     Estimated total dynamical RAM >      29.41 GB

     Check: negative core charge=   -0.000002

     The potential is recalculated from file :
     ./temp/ZnO.save/charge-density

     Starting wfcs are  532 randomized atomic wfcs

     Band Structure Calculation
     Davidson diagonalization with overlap

     Computing kpt #:     1
     total cpu time spent up to now is       21.8 secs

     Computing kpt #:     2
     total cpu time spent up to now is       39.5 secs

     Computing kpt #:     3
     total cpu time spent up to now is       56.9 secs

     Computing kpt #:     4
     total cpu time spent up to now is       74.3 secs

     Computing kpt #:     5
     total cpu time spent up to now is       91.6 secs

     Computing kpt #:     6
     total cpu time spent up to now is      109.1 secs

     Computing kpt #:     7
     total cpu time spent up to now is      126.7 secs

     Computing kpt #:     8
     total cpu time spent up to now is      144.1 secs

     Computing kpt #:     9
     total cpu time spent up to now is      161.5 secs

     Computing kpt #:    10
     total cpu time spent up to now is      178.8 secs

     Computing kpt #:    11
     total cpu time spent up to now is      196.0 secs

     Computing kpt #:    12
     total cpu time spent up to now is      213.4 secs

     Computing kpt #:    13
     total cpu time spent up to now is      230.7 secs

     Computing kpt #:    14
     total cpu time spent up to now is      248.0 secs

     Computing kpt #:    15
     total cpu time spent up to now is      265.4 secs

     Computing kpt #:    16
     total cpu time spent up to now is      282.7 secs

     Computing kpt #:    17
     total cpu time spent up to now is      308.9 secs

     Computing kpt #:    18
     total cpu time spent up to now is      326.1 secs

     Computing kpt #:    19
     total cpu time spent up to now is      343.5 secs

     Computing kpt #:    20
     total cpu time spent up to now is      360.7 secs

     Computing kpt #:    21
     total cpu time spent up to now is      377.8 secs

     Computing kpt #:    22
     total cpu time spent up to now is      395.1 secs

     Computing kpt #:    23
     total cpu time spent up to now is      412.4 secs

     Computing kpt #:    24
     total cpu time spent up to now is      429.8 secs

     Computing kpt #:    25
     total cpu time spent up to now is      447.1 secs

     Computing kpt #:    26
     total cpu time spent up to now is      464.5 secs

     Computing kpt #:    27
     total cpu time spent up to now is      481.8 secs

     Computing kpt #:    28
     total cpu time spent up to now is      499.1 secs

     Computing kpt #:    29
     total cpu time spent up to now is      516.4 secs

     Computing kpt #:    30
     total cpu time spent up to now is      533.7 secs

     Computing kpt #:    31
     total cpu time spent up to now is      551.0 secs

     Computing kpt #:    32
     total cpu time spent up to now is      568.3 secs

     Computing kpt #:    33
     total cpu time spent up to now is      585.5 secs

     Computing kpt #:    34
     total cpu time spent up to now is      602.7 secs

     Computing kpt #:    35
     total cpu time spent up to now is      619.9 secs

     Computing kpt #:    36
     total cpu time spent up to now is      637.1 secs

     Computing kpt #:    37
     total cpu time spent up to now is      654.4 secs

     Computing kpt #:    38
     total cpu time spent up to now is      671.7 secs

     Computing kpt #:    39
     total cpu time spent up to now is      688.9 secs

     Computing kpt #:    40
     total cpu time spent up to now is      706.1 secs

     Computing kpt #:    41
     total cpu time spent up to now is      723.5 secs

     Computing kpt #:    42
     total cpu time spent up to now is      740.8 secs

     Computing kpt #:    43
     total cpu time spent up to now is      758.1 secs

     Computing kpt #:    44
     total cpu time spent up to now is      775.4 secs

     Computing kpt #:    45
     total cpu time spent up to now is      792.6 secs

     Computing kpt #:    46
     total cpu time spent up to now is      809.9 secs

     Computing kpt #:    47
     total cpu time spent up to now is      827.3 secs

     Computing kpt #:    48
     total cpu time spent up to now is      844.5 secs

     Computing kpt #:    49
     total cpu time spent up to now is      862.0 secs

     Computing kpt #:    50
     total cpu time spent up to now is      879.4 secs

     Computing kpt #:    51
     total cpu time spent up to now is      896.8 secs

     Computing kpt #:    52
     total cpu time spent up to now is      914.0 secs

     Computing kpt #:    53
     total cpu time spent up to now is      931.5 secs

     Computing kpt #:    54
     total cpu time spent up to now is      948.8 secs

     Computing kpt #:    55
     total cpu time spent up to now is      966.2 secs

     Computing kpt #:    56
     total cpu time spent up to now is      983.7 secs

     Computing kpt #:    57
     total cpu time spent up to now is     1001.0 secs

     Computing kpt #:    58
     total cpu time spent up to now is     1018.3 secs

     Computing kpt #:    59
     total cpu time spent up to now is     1035.5 secs

     Computing kpt #:    60
     total cpu time spent up to now is     1052.8 secs

     Computing kpt #:    61
     total cpu time spent up to now is     1070.0 secs

     Computing kpt #:    62
     total cpu time spent up to now is     1087.2 secs

     Computing kpt #:    63
     total cpu time spent up to now is     1104.5 secs

     Computing kpt #:    64
     total cpu time spent up to now is     1121.9 secs

     Computing kpt #:    65
     total cpu time spent up to now is     1188.6 secs

     Computing kpt #:    66
     total cpu time spent up to now is     1205.9 secs

     Computing kpt #:    67
     total cpu time spent up to now is     1223.2 secs

     Computing kpt #:    68
     total cpu time spent up to now is     1240.4 secs

     Computing kpt #:    69
     total cpu time spent up to now is     1257.7 secs

     Computing kpt #:    70
     total cpu time spent up to now is     1275.0 secs

     Computing kpt #:    71
     total cpu time spent up to now is     1292.2 secs

     Computing kpt #:    72
     total cpu time spent up to now is     1309.5 secs

     Computing kpt #:    73
     total cpu time spent up to now is     1326.8 secs

     Computing kpt #:    74
     total cpu time spent up to now is     1344.1 secs

     Computing kpt #:    75
     total cpu time spent up to now is     1361.3 secs

     Computing kpt #:    76
     total cpu time spent up to now is     1378.6 secs

     Computing kpt #:    77
     total cpu time spent up to now is     1395.9 secs

     Computing kpt #:    78
     total cpu time spent up to now is     1413.1 secs

     Computing kpt #:    79
     total cpu time spent up to now is     1430.4 secs

     Computing kpt #:    80
     total cpu time spent up to now is     1447.7 secs

     ethr =  1.20E-12,  avg # of iterations = 12.4

     total cpu time spent up to now is     1447.7 secs

     End of band structure calculation

          k = 0.0000 0.0000 0.0000 ( 45193 PWs)   bands (ev):

  -115.2162-115.2136-115.2130-115.2124-115.2120-115.2119-115.2110-115.2107
  -115.2106-115.2098-115.2097-115.2094-115.2093-115.2078-115.2075-115.2069
  -115.2066-115.2052-115.2051-115.2043-115.2031-115.2026-115.2013-115.1996
  -115.1977-115.1945 -69.5750 -69.5747 -69.5741 -69.5728 -69.5721 -69.5719
   -69.5712 -69.5711 -69.5710 -69.5708 -69.5705 -69.5704 -69.5704 -69.5703
   -69.5702 -69.5701 -69.5700 -69.5699 -69.5696 -69.5693 -69.5687 -69.5678
   -69.5676 -69.5673 -69.5672 -69.5670 -69.5670 -69.5664 -69.5662 -69.5661
   -69.5659 -69.5658 -69.5656 -69.5648 -69.5646 -69.5643 -69.5642 -69.5642
   -69.5640 -69.5640 -69.5638 -69.5638 -69.5636 -69.5635 -69.5633 -69.5632
   -69.5630 -69.5629 -69.5629 -69.5624 -69.5620 -69.5618 -69.5617 -69.5614
   -69.5613 -69.5607 -69.5604 -69.5602 -69.5598 -69.5596 -69.5591 -69.5590
   -69.5587 -69.5587 -69.5585 -69.5582 -69.5576 -69.5574 -69.5574 -69.5557
   -69.5554 -69.5539 -69.5538 -69.5535 -69.5526 -69.5511 -69.5504 -69.5476
   -64.6951 -64.6741 -64.6724 -64.6709 -64.6621 -64.6609 -64.6608 -64.6546
   -64.6517 -64.6457 -31.6851 -31.6817 -31.6792 -31.6653 -31.6637 -31.6633
   -31.6629 -31.6597 -31.6586 -31.6571 -31.6571 -31.6564 -31.6534 -31.6519
   -31.6496 -31.6491 -31.6474 -31.6467 -31.6467 -31.6462 -31.6451 -31.6448
   -31.6442 -31.6427 -31.6381 -31.6367 -31.6334 -31.6307 -31.6294 -31.6259
    -9.9252  -9.5922  -9.5790  -9.4664  -9.4578  -9.4426  -9.4207  -9.3981
    -9.3912  -9.3031  -9.2709  -9.2558  -9.2376  -9.2133  -9.2082  -9.2026
    -9.1806  -9.1723  -9.1463  -9.1419  -9.1186  -9.0849  -9.0555  -9.0504
    -9.0467  -9.0399  -9.0308  -8.9999  -8.9863  -8.9480  -8.9241  -8.9026
    -8.8782  -8.8689  -8.8593  -8.7561   1.9081   1.9116   1.9266   1.9314
     1.9562   1.9678   1.9758   1.9878   1.9998   2.0178   2.0262   2.0508
     2.0713   2.0830   2.1124   2.1181   2.1466   2.1732   2.1836   2.2081
     2.2575   2.2789   2.2934   2.3037   2.3214   2.3338   2.3457   2.3600
     2.3722   2.3897   2.3997   2.4113   2.4181   2.4240   2.4275   2.4478
     2.4611   2.4677   2.4721   2.4824   2.4920   2.4981   2.5098   2.5186
     2.5339   2.5360   2.5509   2.5528   2.5729   2.5900   2.5994   2.6043
     2.6174   2.6206   2.6218   2.6416   2.6449   2.6547   2.6570   2.6720
     2.6858   2.7141   2.7709   2.7726   2.7859   2.7906   2.8087   2.8176
     2.8271   2.8423   2.8625   2.8839   2.9039   2.9398   2.9513   2.9614
     2.9758   2.9932   3.0109   3.0262   3.0408   3.0767   3.0844   3.1220
     3.1314   3.1436   3.1539   3.1694   3.1810   3.1999   3.2127   3.2249
     3.2408   3.2534   3.2692   3.2975   3.3083   3.3268   3.3444   3.3615
     3.3655   3.3713   3.3925   3.3996   3.4163   3.4207   3.4277   3.4364
     3.4469   3.4503   3.4549   3.4629   3.4656   3.4761   3.4783   3.4970
     3.5022   3.5081   3.5186   3.5274   3.5310   3.5455   3.5517   3.5633
     3.5651   3.5795   3.6163   3.6385   3.6582   3.6761   3.6836   3.8276
     3.8476   3.8819   3.9177   3.9495   3.9603   4.0053   4.0413   4.0689
     4.0824   4.0925   4.1221   4.1577   4.2107   4.2310   4.2395   4.3029
     4.3445   4.3552   4.4167   4.4533   4.4904   4.5081   4.5408   4.6039
     4.6412   4.6480   4.7116   4.7684   4.8078   4.8253   4.8503   4.8922
     4.9783   5.0378   5.0660   5.0776   5.1306   5.2284   5.3618   5.3879
     5.4092   5.4206   5.5312   5.6127   5.6715   5.7214   5.7882   5.8032
     5.8261   5.8602   5.9107   5.9208   5.9431   5.9912   6.0063   6.0251
     6.0395   6.0798   6.1322   6.1779   6.2073   6.2536   6.2775   6.3042
     6.3415   6.3575   6.4112   6.4351   6.4595   6.4791   6.4857   6.5065
     6.5163   6.5322   6.5403   6.5436   6.5819   6.5847   6.6183   6.6236
     6.6361   6.6554   6.6744   6.6895   6.6951   6.8004   6.8626   6.9089
     6.9297   6.9533   6.9552   6.9622   6.9843   6.9911   7.0305   7.0941
     7.1120   7.1413   7.2019   7.2740   7.3293   7.3441   7.3682   7.5892
     7.6134   7.6293

     occupation numbers 
     1.0000   1.0000   1.0000   1.0000   1.0000   1.0000   1.0000   1.0000
     1.0000   1.0000   1.0000   1.0000   1.0000   1.0000   1.0000   1.0000
     1.0000   1.0000   1.0000   1.0000   1.0000   1.0000   1.0000   1.0000
     1.0000   1.0000   1.0000   1.0000   1.0000   1.0000   1.0000   1.0000
     1.0000   1.0000   1.0000   1.0000   1.0000   1.0000   1.0000   1.0000
     1.0000   1.0000   1.0000   1.0000   1.0000   1.0000   1.0000   1.0000
     1.0000   1.0000   1.0000   1.0000   1.0000   1.0000   1.0000   1.0000
     1.0000   1.0000   1.0000   1.0000   1.0000   1.0000   1.0000   1.0000
     1.0000   1.0000   1.0000   1.0000   1.0000   1.0000   1.0000   1.0000
     1.0000   1.0000   1.0000   1.0000   1.0000   1.0000   1.0000   1.0000
     1.0000   1.0000   1.0000   1.0000   1.0000   1.0000   1.0000   1.0000
     1.0000   1.0000   1.0000   1.0000   1.0000   1.0000   1.0000   1.0000
     1.0000   1.0000   1.0000   1.0000   1.0000   1.0000   1.0000   1.0000
     1.0000   1.0000   1.0000   1.0000   1.0000   1.0000   1.0000   1.0000
     1.0000   1.0000   1.0000   1.0000   1.0000   1.0000   1.0000   1.0000
     1.0000   1.0000   1.0000   1.0000   1.0000   1.0000   1.0000   1.0000
     1.0000   1.0000   1.0000   1.0000   1.0000   1.0000   1.0000   1.0000
     1.0000   1.0000   1.0000   1.0000   1.0000   1.0000   1.0000   1.0000
     1.0000   1.0000   1.0000   1.0000   1.0000   1.0000   1.0000   1.0000
     1.0000   1.0000   1.0000   1.0000   1.0000   1.0000   1.0000   1.0000
     1.0000   1.0000   1.0000   1.0000   1.0000   1.0000   1.0000   1.0000
     1.0000   1.0000   1.0000   1.0000   1.0000   1.0000   1.0000   1.0000
     1.0000   1.0000   1.0000   1.0000   1.0000   1.0000   1.0000   1.0000
     1.0000   1.0000   1.0000   1.0000   1.0000   1.0000   1.0000   1.0000
     1.0000   1.0000   1.0000   1.0000   1.0000   1.0000   1.0000   1.0000
     1.0000   1.0000   1.0000   1.0000   1.0000   1.0000   1.0000   1.0000
     1.0000   1.0000   1.0000   1.0000   1.0000   1.0000   1.0000   1.0000
     1.0000   1.0000   1.0000   1.0000   1.0000   1.0000   1.0000   1.0000
     1.0000   1.0000   1.0000   1.0000   1.0000   1.0000   1.0000   1.0000
     1.0000   1.0000   1.0000   1.0000   1.0000   1.0000   1.0000   1.0000
     1.0000   1.0000   1.0000   1.0000   1.0000   1.0000   1.0000   1.0000
     1.0000   1.0000   1.0000   1.0000   1.0000   1.0000   1.0000   1.0000
     1.0000   1.0000   1.0000   1.0000   1.0000   1.0000   1.0000   1.0000
     1.0000   1.0000   1.0000   1.0000   1.0000   1.0000   1.0000   1.0000
     1.0000   1.0000   1.0000   1.0000   1.0000   1.0000   1.0000   1.0000
     1.0000   1.0000   1.0000   1.0000   1.0000   1.0000   1.0000   1.0000
     1.0000   1.0000   1.0000   1.0000   1.0000   1.0000   1.0000   1.0000
     1.0000   1.0000   1.0000   1.0000   1.0000   1.0000   1.0000   1.0000
     1.0000   1.0000   1.0000   1.0000   1.0000   1.0000   1.0000   1.0000
     1.0000   1.0000   1.0000   1.0000   1.0000   1.0000   1.0000   1.0000
     1.0000   1.0000   1.0000   1.0000   1.0000   1.0000   1.0000   1.0000
     1.0000   1.0000   1.0000   1.0000   1.0000   1.0000   1.0000   1.0000
     1.0000   1.0000   1.0000   1.0000   1.0000   1.0000   1.0000   1.0000
     1.0000   1.0000   1.0000   1.0000   1.0000   1.0000   1.0000   1.0000
     1.0000   1.0000   1.0000   1.0000   1.0000   1.0000   1.0000   1.0000
     1.0000   1.0000   1.0000   1.0000   1.0000   1.0000   1.0000   1.0000
     1.0000   1.0000   1.0000   1.0000   1.0000   1.0000   1.0000   1.0000
     1.0000   1.0000   1.0000   1.0000   1.0000   1.0000   1.0000   1.0000
     1.0000   1.0000   1.0000   1.0000   1.0000   1.0000   1.0000   1.0000
     1.0000   1.0000   1.0000   1.0000   1.0000   1.0000   1.0000   1.0000
     1.0000   1.0000   1.0000   1.0000   1.0000   1.0000   1.0000   1.0000
     1.0000   1.0000   1.0000   1.0000   1.0000   1.0000   1.0000   1.0000
     1.0000   1.0000

          k = 0.0000-0.0000 0.1339 ( 45152 PWs)   bands (ev):

  -115.2162-115.2136-115.2130-115.2124-115.2120-115.2119-115.2110-115.2107
  -115.2106-115.2098-115.2097-115.2094-115.2093-115.2078-115.2075-115.2069
  -115.2066-115.2052-115.2051-115.2043-115.2031-115.2026-115.2013-115.1996
  -115.1977-115.1945 -69.5750 -69.5747 -69.5741 -69.5728 -69.5721 -69.5719
   -69.5712 -69.5711 -69.5710 -69.5708 -69.5705 -69.5704 -69.5704 -69.5703
   -69.5702 -69.5701 -69.5700 -69.5699 -69.5696 -69.5693 -69.5687 -69.5678
   -69.5676 -69.5673 -69.5672 -69.5670 -69.5670 -69.5664 -69.5662 -69.5661
   -69.5659 -69.5658 -69.5656 -69.5648 -69.5646 -69.5643 -69.5642 -69.5642
   -69.5640 -69.5640 -69.5638 -69.5638 -69.5636 -69.5635 -69.5633 -69.5632
   -69.5630 -69.5629 -69.5629 -69.5624 -69.5620 -69.5618 -69.5617 -69.5614
   -69.5613 -69.5607 -69.5604 -69.5602 -69.5598 -69.5596 -69.5591 -69.5590
   -69.5587 -69.5587 -69.5585 -69.5582 -69.5576 -69.5574 -69.5574 -69.5557
   -69.5554 -69.5539 -69.5538 -69.5535 -69.5526 -69.5511 -69.5504 -69.5476
   -64.6951 -64.6741 -64.6724 -64.6709 -64.6621 -64.6609 -64.6608 -64.6546
   -64.6517 -64.6457 -31.6851 -31.6817 -31.6792 -31.6653 -31.6637 -31.6633
   -31.6629 -31.6597 -31.6586 -31.6571 -31.6571 -31.6564 -31.6534 -31.6519
   -31.6496 -31.6491 -31.6474 -31.6467 -31.6467 -31.6462 -31.6451 -31.6448
   -31.6442 -31.6427 -31.6381 -31.6367 -31.6334 -31.6307 -31.6294 -31.6259
    -9.9166  -9.6558  -9.5265  -9.4618  -9.4544  -9.4346  -9.4131  -9.3964
    -9.3841  -9.3189  -9.2939  -9.2728  -9.2478  -9.2269  -9.2108  -9.1867
    -9.1742  -9.1671  -9.1424  -9.1247  -9.1062  -9.0837  -9.0560  -9.0495
    -9.0443  -9.0390  -9.0313  -9.0020  -8.9873  -8.9500  -8.9248  -8.9038
    -8.8802  -8.8701  -8.8614  -8.7570   1.9094   1.9180   1.9276   1.9378
     1.9565   1.9735   1.9847   2.0013   2.0050   2.0302   2.0365   2.0521
     2.0691   2.0831   2.1146   2.1198   2.1491   2.1757   2.1946   2.2134
     2.2582   2.2802   2.2925   2.3049   2.3230   2.3366   2.3417   2.3538
     2.3682   2.3844   2.4003   2.4039   2.4131   2.4214   2.4254   2.4429
     2.4522   2.4633   2.4728   2.4779   2.4924   2.4999   2.5098   2.5148
     2.5344   2.5447   2.5513   2.5588   2.5714   2.5901   2.5972   2.6046
     2.6125   2.6206   2.6280   2.6388   2.6439   2.6545   2.6597   2.6683
     2.6803   2.7151   2.7636   2.7687   2.7789   2.7851   2.8022   2.8152
     2.8223   2.8335   2.8538   2.8795   2.8905   2.9171   2.9420   2.9540
     2.9645   2.9849   3.0053   3.0143   3.0302   3.0533   3.0852   3.1001
     3.1234   3.1294   3.1487   3.1684   3.1782   3.1974   3.2093   3.2210
     3.2344   3.2545   3.2726   3.2879   3.3060   3.3191   3.3426   3.3539
     3.3639   3.3758   3.3921   3.3979   3.4110   3.4210   3.4312   3.4456
     3.4485   3.4523   3.4602   3.4678   3.4698   3.4790   3.4875   3.4951
     3.5077   3.5163   3.5209   3.5289   3.5379   3.5428   3.5487   3.5608
     3.5749   3.5887   3.6153   3.6399   3.6613   3.6694   3.6864   3.8505
     3.8857   3.9097   3.9378   3.9671   3.9767   4.0198   4.0534   4.0749
     4.0911   4.1060   4.1262   4.1798   4.2087   4.2345   4.2508   4.3078
     4.3470   4.3633   4.4243   4.4567   4.4873   4.5071   4.5617   4.5882
     4.6555   4.6654   4.7166   4.7628   4.7994   4.8304   4.8426   4.8953
     4.9228   4.9735   5.0088   5.1177   5.2052   5.2614   5.3716   5.3938
     5.4299   5.4430   5.5325   5.6343   5.6738   5.7251   5.7944   5.8228
     5.8413   5.8751   5.9117   5.9275   5.9550   5.9777   5.9991   6.0149
     6.0228   6.0406   6.0682   6.1099   6.1345   6.1605   6.2002   6.2403
     6.3176   6.3386   6.3782   6.3978   6.4172   6.4289   6.4713   6.5067
     6.5220   6.5385   6.5649   6.5727   6.5897   6.6338   6.6528   6.6736
     6.7012   6.7091   6.7232   6.7369   6.7460   6.8201   6.8720   6.9174
     6.9444   6.9609   6.9692   6.9758   6.9819   7.0072   7.0308   7.0897
     7.1039   7.1338   7.1926   7.2422   7.2841   7.3792   7.4113   7.4917
     7.6071   7.6229

     occupation numbers 
     1.0000   1.0000   1.0000   1.0000   1.0000   1.0000   1.0000   1.0000
     1.0000   1.0000   1.0000   1.0000   1.0000   1.0000   1.0000   1.0000
     1.0000   1.0000   1.0000   1.0000   1.0000   1.0000   1.0000   1.0000
     1.0000   1.0000   1.0000   1.0000   1.0000   1.0000   1.0000   1.0000
     1.0000   1.0000   1.0000   1.0000   1.0000   1.0000   1.0000   1.0000
     1.0000   1.0000   1.0000   1.0000   1.0000   1.0000   1.0000   1.0000
     1.0000   1.0000   1.0000   1.0000   1.0000   1.0000   1.0000   1.0000
     1.0000   1.0000   1.0000   1.0000   1.0000   1.0000   1.0000   1.0000
     1.0000   1.0000   1.0000   1.0000   1.0000   1.0000   1.0000   1.0000
     1.0000   1.0000   1.0000   1.0000   1.0000   1.0000   1.0000   1.0000
     1.0000   1.0000   1.0000   1.0000   1.0000   1.0000   1.0000   1.0000
     1.0000   1.0000   1.0000   1.0000   1.0000   1.0000   1.0000   1.0000
     1.0000   1.0000   1.0000   1.0000   1.0000   1.0000   1.0000   1.0000
     1.0000   1.0000   1.0000   1.0000   1.0000   1.0000   1.0000   1.0000
     1.0000   1.0000   1.0000   1.0000   1.0000   1.0000   1.0000   1.0000
     1.0000   1.0000   1.0000   1.0000   1.0000   1.0000   1.0000   1.0000
     1.0000   1.0000   1.0000   1.0000   1.0000   1.0000   1.0000   1.0000
     1.0000   1.0000   1.0000   1.0000   1.0000   1.0000   1.0000   1.0000
     1.0000   1.0000   1.0000   1.0000   1.0000   1.0000   1.0000   1.0000
     1.0000   1.0000   1.0000   1.0000   1.0000   1.0000   1.0000   1.0000
     1.0000   1.0000   1.0000   1.0000   1.0000   1.0000   1.0000   1.0000
     1.0000   1.0000   1.0000   1.0000   1.0000   1.0000   1.0000   1.0000
     1.0000   1.0000   1.0000   1.0000   1.0000   1.0000   1.0000   1.0000
     1.0000   1.0000   1.0000   1.0000   1.0000   1.0000   1.0000   1.0000
     1.0000   1.0000   1.0000   1.0000   1.0000   1.0000   1.0000   1.0000
     1.0000   1.0000   1.0000   1.0000   1.0000   1.0000   1.0000   1.0000
     1.0000   1.0000   1.0000   1.0000   1.0000   1.0000   1.0000   1.0000
     1.0000   1.0000   1.0000   1.0000   1.0000   1.0000   1.0000   1.0000
     1.0000   1.0000   1.0000   1.0000   1.0000   1.0000   1.0000   1.0000
     1.0000   1.0000   1.0000   1.0000   1.0000   1.0000   1.0000   1.0000
     1.0000   1.0000   1.0000   1.0000   1.0000   1.0000   1.0000   1.0000
     1.0000   1.0000   1.0000   1.0000   1.0000   1.0000   1.0000   1.0000
     1.0000   1.0000   1.0000   1.0000   1.0000   1.0000   1.0000   1.0000
     1.0000   1.0000   1.0000   1.0000   1.0000   1.0000   1.0000   1.0000
     1.0000   1.0000   1.0000   1.0000   1.0000   1.0000   1.0000   1.0000
     1.0000   1.0000   1.0000   1.0000   1.0000   1.0000   1.0000   1.0000
     1.0000   1.0000   1.0000   1.0000   1.0000   1.0000   1.0000   1.0000
     1.0000   1.0000   1.0000   1.0000   1.0000   1.0000   1.0000   1.0000
     1.0000   1.0000   1.0000   1.0000   1.0000   1.0000   1.0000   1.0000
     1.0000   1.0000   1.0000   1.0000   1.0000   1.0000   1.0000   1.0000
     1.0000   1.0000   1.0000   1.0000   1.0000   1.0000   1.0000   1.0000
     1.0000   1.0000   1.0000   1.0000   1.0000   1.0000   1.0000   1.0000
     1.0000   1.0000   1.0000   1.0000   1.0000   1.0000   1.0000   1.0000
     1.0000   1.0000   1.0000   1.0000   1.0000   1.0000   1.0000   1.0000
     1.0000   1.0000   1.0000   1.0000   1.0000   1.0000   1.0000   1.0000
     1.0000   1.0000   1.0000   1.0000   1.0000   1.0000   1.0000   1.0000
     1.0000   1.0000   1.0000   1.0000   1.0000   1.0000   1.0000   1.0000
     1.0000   1.0000   1.0000   1.0000   1.0000   1.0000   1.0000   1.0000
     1.0000   1.0000   1.0000   1.0000   1.0000   1.0000   1.0000   1.0000
     1.0000   1.0000   1.0000   1.0000   1.0000   1.0000   1.0000   1.0000
     1.0000   1.0000   1.0000   1.0000   1.0000   1.0000   1.0000   1.0000
     1.0000   1.0000   1.0000   1.0000   1.0000   1.0000   1.0000   1.0000
     1.0000   1.0000

          k = 0.0001-0.0000 0.2678 ( 45183 PWs)   bands (ev):

  -115.2162-115.2136-115.2130-115.2124-115.2120-115.2119-115.2110-115.2107
  -115.2106-115.2098-115.2097-115.2094-115.2093-115.2078-115.2075-115.2069
  -115.2066-115.2052-115.2051-115.2043-115.2031-115.2026-115.2013-115.1996
  -115.1977-115.1945 -69.5750 -69.5747 -69.5741 -69.5728 -69.5721 -69.5719
   -69.5712 -69.5711 -69.5710 -69.5708 -69.5705 -69.5704 -69.5704 -69.5703
   -69.5702 -69.5701 -69.5700 -69.5699 -69.5696 -69.5693 -69.5687 -69.5678
   -69.5676 -69.5673 -69.5672 -69.5670 -69.5670 -69.5664 -69.5662 -69.5661
   -69.5659 -69.5658 -69.5656 -69.5648 -69.5646 -69.5643 -69.5642 -69.5642
   -69.5640 -69.5640 -69.5638 -69.5638 -69.5636 -69.5635 -69.5633 -69.5632
   -69.5630 -69.5629 -69.5629 -69.5624 -69.5620 -69.5618 -69.5617 -69.5614
   -69.5613 -69.5607 -69.5604 -69.5602 -69.5598 -69.5596 -69.5591 -69.5590
   -69.5587 -69.5587 -69.5585 -69.5582 -69.5576 -69.5574 -69.5574 -69.5557
   -69.5554 -69.5539 -69.5538 -69.5535 -69.5526 -69.5511 -69.5504 -69.5476
   -64.6951 -64.6741 -64.6724 -64.6709 -64.6621 -64.6609 -64.6608 -64.6546
   -64.6517 -64.6457 -31.6851 -31.6817 -31.6792 -31.6653 -31.6637 -31.6633
   -31.6629 -31.6597 -31.6586 -31.6571 -31.6571 -31.6564 -31.6534 -31.6519
   -31.6496 -31.6491 -31.6474 -31.6467 -31.6467 -31.6462 -31.6451 -31.6448
   -31.6442 -31.6427 -31.6381 -31.6367 -31.6334 -31.6307 -31.6294 -31.6259
    -9.8915  -9.7261  -9.4854  -9.4500  -9.4424  -9.4192  -9.3962  -9.3918
    -9.3701  -9.3431  -9.3299  -9.3014  -9.2793  -9.2518  -9.2107  -9.1944
    -9.1533  -9.1455  -9.1265  -9.1020  -9.0849  -9.0802  -9.0592  -9.0474
    -9.0406  -9.0337  -9.0297  -9.0108  -8.9872  -8.9554  -8.9259  -8.9062
    -8.8865  -8.8727  -8.8660  -8.7590   1.9136   1.9307   1.9344   1.9542
     1.9611   1.9799   2.0028   2.0198   2.0255   2.0439   2.0520   2.0653
     2.0822   2.0951   2.1194   2.1293   2.1580   2.1890   2.2124   2.2321
     2.2569   2.2777   2.2846   2.2961   2.3214   2.3296   2.3378   2.3456
     2.3597   2.3710   2.3832   2.3915   2.4016   2.4099   2.4265   2.4335
     2.4464   2.4574   2.4634   2.4784   2.4899   2.5098   2.5146   2.5195
     2.5317   2.5493   2.5594   2.5689   2.5703   2.5864   2.5929   2.6011
     2.6128   2.6217   2.6308   2.6340   2.6448   2.6540   2.6582   2.6681
     2.6777   2.7143   2.7421   2.7470   2.7571   2.7690   2.7762   2.7985
     2.8116   2.8155   2.8296   2.8567   2.8647   2.8905   2.9153   2.9272
     2.9560   2.9656   2.9819   2.9959   3.0165   3.0266   3.0651   3.0815
     3.1024   3.1108   3.1450   3.1599   3.1737   3.1922   3.1966   3.2106
     3.2194   3.2402   3.2676   3.2890   3.3006   3.3183   3.3465   3.3619
     3.3688   3.3725   3.3929   3.4025   3.4091   3.4182   3.4362   3.4415
     3.4508   3.4575   3.4628   3.4724   3.4785   3.4852   3.4910   3.5047
     3.5093   3.5186   3.5316   3.5339   3.5452   3.5491   3.5537   3.5734
     3.5865   3.6037   3.6094   3.6305   3.6519   3.6600   3.7606   3.8841
     3.9240   3.9483   3.9765   4.0018   4.0232   4.0464   4.0812   4.0931
     4.1129   4.1398   4.1576   4.1989   4.2196   4.2521   4.2805   4.3131
     4.3485   4.3855   4.4265   4.4511   4.4830   4.5065   4.5486   4.5866
     4.6275   4.6799   4.7131   4.7503   4.8052   4.8592   4.8748   4.9028
     4.9293   4.9615   5.0180   5.0569   5.3023   5.3228   5.3831   5.4232
     5.4773   5.5038   5.5212   5.6149   5.6696   5.7215   5.7500   5.7772
     5.8209   5.8328   5.8508   5.8988   5.9120   5.9555   5.9677   5.9968
     6.0125   6.0356   6.0506   6.0551   6.0878   6.1042   6.1364   6.2175
     6.2487   6.2681   6.2922   6.3236   6.3434   6.3701   6.4270   6.4551
     6.4652   6.5399   6.5938   6.6390   6.6644   6.6928   6.7217   6.7449
     6.7802   6.7872   6.8072   6.8143   6.8252   6.8609   6.8975   6.9378
     6.9476   6.9812   6.9935   7.0034   7.0099   7.0366   7.0461   7.0758
     7.0954   7.1175   7.1681   7.1925   7.2258   7.2802   7.4321   7.4655
     7.5895   7.6045

     occupation numbers 
     1.0000   1.0000   1.0000   1.0000   1.0000   1.0000   1.0000   1.0000
     1.0000   1.0000   1.0000   1.0000   1.0000   1.0000   1.0000   1.0000
     1.0000   1.0000   1.0000   1.0000   1.0000   1.0000   1.0000   1.0000
     1.0000   1.0000   1.0000   1.0000   1.0000   1.0000   1.0000   1.0000
     1.0000   1.0000   1.0000   1.0000   1.0000   1.0000   1.0000   1.0000
     1.0000   1.0000   1.0000   1.0000   1.0000   1.0000   1.0000   1.0000
     1.0000   1.0000   1.0000   1.0000   1.0000   1.0000   1.0000   1.0000
     1.0000   1.0000   1.0000   1.0000   1.0000   1.0000   1.0000   1.0000
     1.0000   1.0000   1.0000   1.0000   1.0000   1.0000   1.0000   1.0000
     1.0000   1.0000   1.0000   1.0000   1.0000   1.0000   1.0000   1.0000
     1.0000   1.0000   1.0000   1.0000   1.0000   1.0000   1.0000   1.0000
     1.0000   1.0000   1.0000   1.0000   1.0000   1.0000   1.0000   1.0000
     1.0000   1.0000   1.0000   1.0000   1.0000   1.0000   1.0000   1.0000
     1.0000   1.0000   1.0000   1.0000   1.0000   1.0000   1.0000   1.0000
     1.0000   1.0000   1.0000   1.0000   1.0000   1.0000   1.0000   1.0000
     1.0000   1.0000   1.0000   1.0000   1.0000   1.0000   1.0000   1.0000
     1.0000   1.0000   1.0000   1.0000   1.0000   1.0000   1.0000   1.0000
     1.0000   1.0000   1.0000   1.0000   1.0000   1.0000   1.0000   1.0000
     1.0000   1.0000   1.0000   1.0000   1.0000   1.0000   1.0000   1.0000
     1.0000   1.0000   1.0000   1.0000   1.0000   1.0000   1.0000   1.0000
     1.0000   1.0000   1.0000   1.0000   1.0000   1.0000   1.0000   1.0000
     1.0000   1.0000   1.0000   1.0000   1.0000   1.0000   1.0000   1.0000
     1.0000   1.0000   1.0000   1.0000   1.0000   1.0000   1.0000   1.0000
     1.0000   1.0000   1.0000   1.0000   1.0000   1.0000   1.0000   1.0000
     1.0000   1.0000   1.0000   1.0000   1.0000   1.0000   1.0000   1.0000
     1.0000   1.0000   1.0000   1.0000   1.0000   1.0000   1.0000   1.0000
     1.0000   1.0000   1.0000   1.0000   1.0000   1.0000   1.0000   1.0000
     1.0000   1.0000   1.0000   1.0000   1.0000   1.0000   1.0000   1.0000
     1.0000   1.0000   1.0000   1.0000   1.0000   1.0000   1.0000   1.0000
     1.0000   1.0000   1.0000   1.0000   1.0000   1.0000   1.0000   1.0000
     1.0000   1.0000   1.0000   1.0000   1.0000   1.0000   1.0000   1.0000
     1.0000   1.0000   1.0000   1.0000   1.0000   1.0000   1.0000   1.0000
     1.0000   1.0000   1.0000   1.0000   1.0000   1.0000   1.0000   1.0000
     1.0000   1.0000   1.0000   1.0000   1.0000   1.0000   1.0000   1.0000
     1.0000   1.0000   1.0000   1.0000   1.0000   1.0000   1.0000   1.0000
     1.0000   1.0000   1.0000   1.0000   1.0000   1.0000   1.0000   1.0000
     1.0000   1.0000   1.0000   1.0000   1.0000   1.0000   1.0000   1.0000
     1.0000   1.0000   1.0000   1.0000   1.0000   1.0000   1.0000   1.0000
     1.0000   1.0000   1.0000   1.0000   1.0000   1.0000   1.0000   1.0000
     1.0000   1.0000   1.0000   1.0000   1.0000   1.0000   1.0000   1.0000
     1.0000   1.0000   1.0000   1.0000   1.0000   1.0000   1.0000   1.0000
     1.0000   1.0000   1.0000   1.0000   1.0000   1.0000   1.0000   1.0000
     1.0000   1.0000   1.0000   1.0000   1.0000   1.0000   1.0000   1.0000
     1.0000   1.0000   1.0000   1.0000   1.0000   1.0000   1.0000   1.0000
     1.0000   1.0000   1.0000   1.0000   1.0000   1.0000   1.0000   1.0000
     1.0000   1.0000   1.0000   1.0000   1.0000   1.0000   1.0000   1.0000
     1.0000   1.0000   1.0000   1.0000   1.0000   1.0000   1.0000   1.0000
     1.0000   1.0000   1.0000   1.0000   1.0000   1.0000   1.0000   1.0000
     1.0000   1.0000   1.0000   1.0000   1.0000   1.0000   1.0000   1.0000
     1.0000   1.0000   1.0000   1.0000   1.0000   1.0000   1.0000   1.0000
     1.0000   1.0000   1.0000   1.0000   1.0000   1.0000   1.0000   1.0000
     1.0000   1.0000   1.0000   1.0000   1.0000   1.0000   1.0000   1.0000
     1.0000   1.0000

          k = 0.0001-0.0000 0.4018 ( 45186 PWs)   bands (ev):

  -115.2162-115.2136-115.2130-115.2124-115.2120-115.2119-115.2110-115.2107
  -115.2106-115.2098-115.2097-115.2094-115.2093-115.2078-115.2075-115.2069
  -115.2066-115.2052-115.2051-115.2043-115.2031-115.2026-115.2013-115.1996
  -115.1977-115.1945 -69.5750 -69.5747 -69.5741 -69.5728 -69.5721 -69.5719
   -69.5712 -69.5711 -69.5710 -69.5708 -69.5705 -69.5704 -69.5704 -69.5703
   -69.5702 -69.5701 -69.5700 -69.5699 -69.5696 -69.5693 -69.5687 -69.5678
   -69.5676 -69.5673 -69.5672 -69.5670 -69.5670 -69.5664 -69.5662 -69.5661
   -69.5659 -69.5658 -69.5656 -69.5648 -69.5646 -69.5643 -69.5642 -69.5642
   -69.5640 -69.5640 -69.5639 -69.5638 -69.5636 -69.5635 -69.5633 -69.5632
   -69.5630 -69.5629 -69.5629 -69.5624 -69.5620 -69.5618 -69.5617 -69.5614
   -69.5613 -69.5607 -69.5604 -69.5602 -69.5598 -69.5596 -69.5591 -69.5590
   -69.5587 -69.5587 -69.5585 -69.5582 -69.5576 -69.5574 -69.5574 -69.5557
   -69.5554 -69.5539 -69.5538 -69.5535 -69.5526 -69.5511 -69.5504 -69.5476
   -64.6951 -64.6741 -64.6724 -64.6709 -64.6621 -64.6609 -64.6608 -64.6546
   -64.6517 -64.6457 -31.6851 -31.6817 -31.6792 -31.6653 -31.6637 -31.6633
   -31.6629 -31.6597 -31.6586 -31.6571 -31.6571 -31.6564 -31.6534 -31.6519
   -31.6496 -31.6491 -31.6474 -31.6467 -31.6467 -31.6462 -31.6451 -31.6448
   -31.6442 -31.6427 -31.6381 -31.6367 -31.6334 -31.6307 -31.6294 -31.6259
    -9.8531  -9.7884  -9.4574  -9.4391  -9.4241  -9.4089  -9.3992  -9.3808
    -9.3732  -9.3567  -9.3476  -9.3191  -9.3033  -9.2533  -9.2307  -9.2003
    -9.1419  -9.1291  -9.1159  -9.0892  -9.0753  -9.0661  -9.0602  -9.0452
    -9.0383  -9.0337  -9.0292  -9.0178  -8.9860  -8.9603  -8.9264  -8.9076
    -8.8933  -8.8760  -8.8686  -8.7606   1.9170   1.9410   1.9426   1.9631
     1.9771   1.9882   2.0041   2.0191   2.0345   2.0434   2.0631   2.0936
     2.1098   2.1242   2.1380   2.1440   2.1744   2.2070   2.2243   2.2383
     2.2517   2.2579   2.2741   2.2857   2.2984   2.3117   2.3271   2.3412
     2.3522   2.3646   2.3791   2.3828   2.3898   2.4072   2.4207   2.4347
     2.4410   2.4537   2.4591   2.4824   2.4943   2.5169   2.5228   2.5294
     2.5325   2.5431   2.5584   2.5682   2.5783   2.5830   2.5947   2.6006
     2.6104   2.6169   2.6265   2.6381   2.6511   2.6560   2.6623   2.6716
     2.6883   2.7028   2.7079   2.7219   2.7280   2.7414   2.7520   2.7754
     2.7853   2.7949   2.8177   2.8492   2.8542   2.8707   2.8914   2.9240
     2.9495   2.9576   2.9650   2.9816   3.0082   3.0242   3.0402   3.0735
     3.0915   3.1043   3.1372   3.1535   3.1717   3.1815   3.1915   3.2046
     3.2106   3.2232   3.2559   3.2993   3.3045   3.3277   3.3499   3.3593
     3.3701   3.3802   3.3963   3.4038   3.4134   3.4163   3.4339   3.4394
     3.4519   3.4583   3.4640   3.4684   3.4823   3.4873   3.4947   3.5053
     3.5121   3.5204   3.5319   3.5426   3.5509   3.5560   3.5665   3.5820
     3.5947   3.6069   3.6161   3.6221   3.6362   3.6526   3.8477   3.9158
     3.9413   3.9758   3.9943   4.0281   4.0447   4.0702   4.0927   4.1053
     4.1396   4.1599   4.1766   4.2088   4.2616   4.2946   4.3030   4.3314
     4.3543   4.3779   4.3936   4.4214   4.4518   4.4715   4.4914   4.5778
     4.5918   4.6870   4.7148   4.7707   4.8722   4.9010   4.9397   4.9625
     4.9785   5.0024   5.0212   5.0965   5.3086   5.3516   5.3994   5.4333
     5.4733   5.5373   5.5773   5.5887   5.6092   5.6139   5.6552   5.6730
     5.7287   5.7586   5.7889   5.8078   5.8257   5.9941   6.0090   6.0220
     6.0664   6.0702   6.0899   6.1155   6.1229   6.1515   6.1590   6.1789
     6.1986   6.2126   6.2372   6.2583   6.2847   6.3027   6.3205   6.3533
     6.5118   6.5650   6.6267   6.6791   6.7065   6.7349   6.7532   6.7810
     6.8242   6.8322   6.8405   6.8628   6.8733   6.8949   6.9215   6.9347
     6.9587   6.9870   7.0016   7.0099   7.0305   7.0514   7.0708   7.0793
     7.0965   7.1060   7.1184   7.1436   7.1623   7.1762   7.4743   7.5091
     7.5677   7.5793

     occupation numbers 
     1.0000   1.0000   1.0000   1.0000   1.0000   1.0000   1.0000   1.0000
     1.0000   1.0000   1.0000   1.0000   1.0000   1.0000   1.0000   1.0000
     1.0000   1.0000   1.0000   1.0000   1.0000   1.0000   1.0000   1.0000
     1.0000   1.0000   1.0000   1.0000   1.0000   1.0000   1.0000   1.0000
     1.0000   1.0000   1.0000   1.0000   1.0000   1.0000   1.0000   1.0000
     1.0000   1.0000   1.0000   1.0000   1.0000   1.0000   1.0000   1.0000
     1.0000   1.0000   1.0000   1.0000   1.0000   1.0000   1.0000   1.0000
     1.0000   1.0000   1.0000   1.0000   1.0000   1.0000   1.0000   1.0000
     1.0000   1.0000   1.0000   1.0000   1.0000   1.0000   1.0000   1.0000
     1.0000   1.0000   1.0000   1.0000   1.0000   1.0000   1.0000   1.0000
     1.0000   1.0000   1.0000   1.0000   1.0000   1.0000   1.0000   1.0000
     1.0000   1.0000   1.0000   1.0000   1.0000   1.0000   1.0000   1.0000
     1.0000   1.0000   1.0000   1.0000   1.0000   1.0000   1.0000   1.0000
     1.0000   1.0000   1.0000   1.0000   1.0000   1.0000   1.0000   1.0000
     1.0000   1.0000   1.0000   1.0000   1.0000   1.0000   1.0000   1.0000
     1.0000   1.0000   1.0000   1.0000   1.0000   1.0000   1.0000   1.0000
     1.0000   1.0000   1.0000   1.0000   1.0000   1.0000   1.0000   1.0000
     1.0000   1.0000   1.0000   1.0000   1.0000   1.0000   1.0000   1.0000
     1.0000   1.0000   1.0000   1.0000   1.0000   1.0000   1.0000   1.0000
     1.0000   1.0000   1.0000   1.0000   1.0000   1.0000   1.0000   1.0000
     1.0000   1.0000   1.0000   1.0000   1.0000   1.0000   1.0000   1.0000
     1.0000   1.0000   1.0000   1.0000   1.0000   1.0000   1.0000   1.0000
     1.0000   1.0000   1.0000   1.0000   1.0000   1.0000   1.0000   1.0000
     1.0000   1.0000   1.0000   1.0000   1.0000   1.0000   1.0000   1.0000
     1.0000   1.0000   1.0000   1.0000   1.0000   1.0000   1.0000   1.0000
     1.0000   1.0000   1.0000   1.0000   1.0000   1.0000   1.0000   1.0000
     1.0000   1.0000   1.0000   1.0000   1.0000   1.0000   1.0000   1.0000
     1.0000   1.0000   1.0000   1.0000   1.0000   1.0000   1.0000   1.0000
     1.0000   1.0000   1.0000   1.0000   1.0000   1.0000   1.0000   1.0000
     1.0000   1.0000   1.0000   1.0000   1.0000   1.0000   1.0000   1.0000
     1.0000   1.0000   1.0000   1.0000   1.0000   1.0000   1.0000   1.0000
     1.0000   1.0000   1.0000   1.0000   1.0000   1.0000   1.0000   1.0000
     1.0000   1.0000   1.0000   1.0000   1.0000   1.0000   1.0000   1.0000
     1.0000   1.0000   1.0000   1.0000   1.0000   1.0000   1.0000   1.0000
     1.0000   1.0000   1.0000   1.0000   1.0000   1.0000   1.0000   1.0000
     1.0000   1.0000   1.0000   1.0000   1.0000   1.0000   1.0000   1.0000
     1.0000   1.0000   1.0000   1.0000   1.0000   1.0000   1.0000   1.0000
     1.0000   1.0000   1.0000   1.0000   1.0000   1.0000   1.0000   1.0000
     1.0000   1.0000   1.0000   1.0000   1.0000   1.0000   1.0000   1.0000
     1.0000   1.0000   1.0000   1.0000   1.0000   1.0000   1.0000   1.0000
     1.0000   1.0000   1.0000   1.0000   1.0000   1.0000   1.0000   1.0000
     1.0000   1.0000   1.0000   1.0000   1.0000   1.0000   1.0000   1.0000
     1.0000   1.0000   1.0000   1.0000   1.0000   1.0000   1.0000   1.0000
     1.0000   1.0000   1.0000   1.0000   1.0000   1.0000   1.0000   1.0000
     1.0000   1.0000   1.0000   1.0000   1.0000   1.0000   1.0000   1.0000
     1.0000   1.0000   1.0000   1.0000   1.0000   1.0000   1.0000   1.0000
     1.0000   1.0000   1.0000   1.0000   1.0000   1.0000   1.0000   1.0000
     1.0000   1.0000   1.0000   1.0000   1.0000   1.0000   1.0000   1.0000
     1.0000   1.0000   1.0000   1.0000   1.0000   1.0000   1.0000   1.0000
     1.0000   1.0000   1.0000   1.0000   1.0000   1.0000   1.0000   1.0000
     1.0000   1.0000   1.0000   1.0000   1.0000   1.0000   1.0000   1.0000
     1.0000   1.0000   1.0000   1.0000   1.0000   1.0000   1.0000   1.0000
     1.0000   1.0000

          k = 0.0001-0.0001 0.5357 ( 45186 PWs)   bands (ev):

  -115.2162-115.2136-115.2130-115.2124-115.2120-115.2119-115.2110-115.2107
  -115.2106-115.2098-115.2097-115.2094-115.2093-115.2078-115.2075-115.2069
  -115.2066-115.2052-115.2051-115.2043-115.2031-115.2026-115.2013-115.1996
  -115.1977-115.1945 -69.5750 -69.5747 -69.5741 -69.5728 -69.5721 -69.5719
   -69.5712 -69.5711 -69.5710 -69.5708 -69.5705 -69.5704 -69.5704 -69.5703
   -69.5702 -69.5701 -69.5700 -69.5699 -69.5696 -69.5693 -69.5687 -69.5678
   -69.5676 -69.5673 -69.5672 -69.5670 -69.5670 -69.5664 -69.5662 -69.5661
   -69.5659 -69.5658 -69.5656 -69.5648 -69.5646 -69.5643 -69.5642 -69.5642
   -69.5640 -69.5640 -69.5639 -69.5638 -69.5636 -69.5635 -69.5633 -69.5632
   -69.5630 -69.5629 -69.5629 -69.5624 -69.5620 -69.5618 -69.5617 -69.5614
   -69.5613 -69.5607 -69.5604 -69.5602 -69.5598 -69.5596 -69.5591 -69.5590
   -69.5587 -69.5587 -69.5585 -69.5582 -69.5576 -69.5574 -69.5574 -69.5557
   -69.5554 -69.5539 -69.5538 -69.5535 -69.5526 -69.5511 -69.5504 -69.5476
   -64.6951 -64.6741 -64.6724 -64.6709 -64.6621 -64.6609 -64.6608 -64.6546
   -64.6517 -64.6457 -31.6851 -31.6817 -31.6792 -31.6653 -31.6637 -31.6633
   -31.6629 -31.6597 -31.6586 -31.6571 -31.6571 -31.6564 -31.6534 -31.6519
   -31.6496 -31.6491 -31.6474 -31.6467 -31.6467 -31.6462 -31.6451 -31.6448
   -31.6442 -31.6427 -31.6381 -31.6367 -31.6334 -31.6307 -31.6294 -31.6259
    -9.8531  -9.7884  -9.4574  -9.4391  -9.4241  -9.4089  -9.3992  -9.3808
    -9.3732  -9.3567  -9.3476  -9.3191  -9.3033  -9.2533  -9.2307  -9.2003
    -9.1419  -9.1291  -9.1159  -9.0892  -9.0753  -9.0661  -9.0602  -9.0452
    -9.0383  -9.0337  -9.0292  -9.0178  -8.9860  -8.9603  -8.9264  -8.9076
    -8.8933  -8.8760  -8.8686  -8.7606   1.9170   1.9410   1.9426   1.9631
     1.9771   1.9882   2.0041   2.0191   2.0345   2.0434   2.0631   2.0936
     2.1098   2.1242   2.1380   2.1440   2.1744   2.2070   2.2243   2.2383
     2.2517   2.2579   2.2741   2.2857   2.2984   2.3117   2.3271   2.3412
     2.3522   2.3646   2.3791   2.3828   2.3898   2.4072   2.4207   2.4347
     2.4410   2.4537   2.4591   2.4824   2.4943   2.5169   2.5228   2.5294
     2.5325   2.5431   2.5584   2.5682   2.5783   2.5830   2.5947   2.6006
     2.6104   2.6169   2.6265   2.6381   2.6511   2.6560   2.6623   2.6716
     2.6883   2.7028   2.7079   2.7219   2.7280   2.7414   2.7520   2.7754
     2.7853   2.7949   2.8177   2.8492   2.8542   2.8707   2.8914   2.9240
     2.9495   2.9576   2.9650   2.9816   3.0082   3.0242   3.0402   3.0735
     3.0915   3.1043   3.1372   3.1535   3.1717   3.1815   3.1915   3.2046
     3.2106   3.2232   3.2559   3.2993   3.3045   3.3277   3.3499   3.3593
     3.3701   3.3802   3.3963   3.4038   3.4134   3.4163   3.4339   3.4394
     3.4519   3.4583   3.4640   3.4684   3.4823   3.4873   3.4947   3.5053
     3.5121   3.5204   3.5319   3.5426   3.5509   3.5560   3.5665   3.5820
     3.5947   3.6069   3.6161   3.6221   3.6362   3.6526   3.8477   3.9158
     3.9413   3.9758   3.9943   4.0281   4.0447   4.0702   4.0927   4.1053
     4.1396   4.1599   4.1766   4.2088   4.2616   4.2946   4.3030   4.3314
     4.3543   4.3779   4.3936   4.4214   4.4518   4.4715   4.4914   4.5778
     4.5918   4.6870   4.7148   4.7707   4.8722   4.9010   4.9397   4.9625
     4.9785   5.0024   5.0212   5.0965   5.3086   5.3516   5.3994   5.4333
     5.4733   5.5373   5.5773   5.5887   5.6092   5.6139   5.6552   5.6730
     5.7287   5.7586   5.7889   5.8078   5.8257   5.9941   6.0090   6.0220
     6.0664   6.0702   6.0899   6.1155   6.1229   6.1515   6.1590   6.1789
     6.1986   6.2126   6.2372   6.2583   6.2847   6.3027   6.3205   6.3533
     6.5118   6.5650   6.6267   6.6791   6.7065   6.7349   6.7532   6.7810
     6.8242   6.8322   6.8405   6.8628   6.8733   6.8949   6.9215   6.9347
     6.9587   6.9870   7.0016   7.0099   7.0305   7.0514   7.0708   7.0793
     7.0965   7.1060   7.1184   7.1436   7.1623   7.1762   7.4743   7.5091
     7.5677   7.5793

     occupation numbers 
     1.0000   1.0000   1.0000   1.0000   1.0000   1.0000   1.0000   1.0000
     1.0000   1.0000   1.0000   1.0000   1.0000   1.0000   1.0000   1.0000
     1.0000   1.0000   1.0000   1.0000   1.0000   1.0000   1.0000   1.0000
     1.0000   1.0000   1.0000   1.0000   1.0000   1.0000   1.0000   1.0000
     1.0000   1.0000   1.0000   1.0000   1.0000   1.0000   1.0000   1.0000
     1.0000   1.0000   1.0000   1.0000   1.0000   1.0000   1.0000   1.0000
     1.0000   1.0000   1.0000   1.0000   1.0000   1.0000   1.0000   1.0000
     1.0000   1.0000   1.0000   1.0000   1.0000   1.0000   1.0000   1.0000
     1.0000   1.0000   1.0000   1.0000   1.0000   1.0000   1.0000   1.0000
     1.0000   1.0000   1.0000   1.0000   1.0000   1.0000   1.0000   1.0000
     1.0000   1.0000   1.0000   1.0000   1.0000   1.0000   1.0000   1.0000
     1.0000   1.0000   1.0000   1.0000   1.0000   1.0000   1.0000   1.0000
     1.0000   1.0000   1.0000   1.0000   1.0000   1.0000   1.0000   1.0000
     1.0000   1.0000   1.0000   1.0000   1.0000   1.0000   1.0000   1.0000
     1.0000   1.0000   1.0000   1.0000   1.0000   1.0000   1.0000   1.0000
     1.0000   1.0000   1.0000   1.0000   1.0000   1.0000   1.0000   1.0000
     1.0000   1.0000   1.0000   1.0000   1.0000   1.0000   1.0000   1.0000
     1.0000   1.0000   1.0000   1.0000   1.0000   1.0000   1.0000   1.0000
     1.0000   1.0000   1.0000   1.0000   1.0000   1.0000   1.0000   1.0000
     1.0000   1.0000   1.0000   1.0000   1.0000   1.0000   1.0000   1.0000
     1.0000   1.0000   1.0000   1.0000   1.0000   1.0000   1.0000   1.0000
     1.0000   1.0000   1.0000   1.0000   1.0000   1.0000   1.0000   1.0000
     1.0000   1.0000   1.0000   1.0000   1.0000   1.0000   1.0000   1.0000
     1.0000   1.0000   1.0000   1.0000   1.0000   1.0000   1.0000   1.0000
     1.0000   1.0000   1.0000   1.0000   1.0000   1.0000   1.0000   1.0000
     1.0000   1.0000   1.0000   1.0000   1.0000   1.0000   1.0000   1.0000
     1.0000   1.0000   1.0000   1.0000   1.0000   1.0000   1.0000   1.0000
     1.0000   1.0000   1.0000   1.0000   1.0000   1.0000   1.0000   1.0000
     1.0000   1.0000   1.0000   1.0000   1.0000   1.0000   1.0000   1.0000
     1.0000   1.0000   1.0000   1.0000   1.0000   1.0000   1.0000   1.0000
     1.0000   1.0000   1.0000   1.0000   1.0000   1.0000   1.0000   1.0000
     1.0000   1.0000   1.0000   1.0000   1.0000   1.0000   1.0000   1.0000
     1.0000   1.0000   1.0000   1.0000   1.0000   1.0000   1.0000   1.0000
     1.0000   1.0000   1.0000   1.0000   1.0000   1.0000   1.0000   1.0000
     1.0000   1.0000   1.0000   1.0000   1.0000   1.0000   1.0000   1.0000
     1.0000   1.0000   1.0000   1.0000   1.0000   1.0000   1.0000   1.0000
     1.0000   1.0000   1.0000   1.0000   1.0000   1.0000   1.0000   1.0000
     1.0000   1.0000   1.0000   1.0000   1.0000   1.0000   1.0000   1.0000
     1.0000   1.0000   1.0000   1.0000   1.0000   1.0000   1.0000   1.0000
     1.0000   1.0000   1.0000   1.0000   1.0000   1.0000   1.0000   1.0000
     1.0000   1.0000   1.0000   1.0000   1.0000   1.0000   1.0000   1.0000
     1.0000   1.0000   1.0000   1.0000   1.0000   1.0000   1.0000   1.0000
     1.0000   1.0000   1.0000   1.0000   1.0000   1.0000   1.0000   1.0000
     1.0000   1.0000   1.0000   1.0000   1.0000   1.0000   1.0000   1.0000
     1.0000   1.0000   1.0000   1.0000   1.0000   1.0000   1.0000   1.0000
     1.0000   1.0000   1.0000   1.0000   1.0000   1.0000   1.0000   1.0000
     1.0000   1.0000   1.0000   1.0000   1.0000   1.0000   1.0000   1.0000
     1.0000   1.0000   1.0000   1.0000   1.0000   1.0000   1.0000   1.0000
     1.0000   1.0000   1.0000   1.0000   1.0000   1.0000   1.0000   1.0000
     1.0000   1.0000   1.0000   1.0000   1.0000   1.0000   1.0000   1.0000
     1.0000   1.0000   1.0000   1.0000   1.0000   1.0000   1.0000   1.0000
     1.0000   1.0000   1.0000   1.0000   1.0000   1.0000   1.0000   1.0000
     1.0000   1.0000

          k = 0.0002-0.0001 0.6696 ( 45183 PWs)   bands (ev):

  -115.2162-115.2136-115.2130-115.2124-115.2120-115.2119-115.2110-115.2107
  -115.2106-115.2098-115.2097-115.2094-115.2093-115.2078-115.2075-115.2069
  -115.2066-115.2052-115.2051-115.2043-115.2031-115.2026-115.2013-115.1996
  -115.1977-115.1945 -69.5750 -69.5747 -69.5741 -69.5728 -69.5721 -69.5719
   -69.5712 -69.5711 -69.5710 -69.5708 -69.5705 -69.5704 -69.5704 -69.5703
   -69.5702 -69.5701 -69.5700 -69.5699 -69.5696 -69.5693 -69.5687 -69.5678
   -69.5676 -69.5673 -69.5672 -69.5670 -69.5670 -69.5664 -69.5662 -69.5661
   -69.5659 -69.5658 -69.5656 -69.5648 -69.5646 -69.5643 -69.5642 -69.5642
   -69.5640 -69.5640 -69.5638 -69.5638 -69.5636 -69.5635 -69.5633 -69.5632
   -69.5630 -69.5629 -69.5629 -69.5624 -69.5620 -69.5618 -69.5617 -69.5614
   -69.5613 -69.5607 -69.5604 -69.5602 -69.5598 -69.5596 -69.5591 -69.5590
   -69.5587 -69.5587 -69.5585 -69.5582 -69.5576 -69.5574 -69.5574 -69.5557
   -69.5554 -69.5539 -69.5538 -69.5535 -69.5526 -69.5511 -69.5504 -69.5476
   -64.6951 -64.6741 -64.6724 -64.6709 -64.6621 -64.6609 -64.6608 -64.6546
   -64.6517 -64.6457 -31.6851 -31.6817 -31.6792 -31.6653 -31.6637 -31.6633
   -31.6629 -31.6597 -31.6586 -31.6571 -31.6571 -31.6564 -31.6534 -31.6519
   -31.6496 -31.6491 -31.6474 -31.6467 -31.6467 -31.6462 -31.6451 -31.6448
   -31.6442 -31.6427 -31.6381 -31.6367 -31.6334 -31.6307 -31.6294 -31.6259
    -9.8915  -9.7261  -9.4854  -9.4500  -9.4424  -9.4192  -9.3962  -9.3918
    -9.3701  -9.3431  -9.3299  -9.3014  -9.2793  -9.2518  -9.2107  -9.1944
    -9.1533  -9.1455  -9.1265  -9.1020  -9.0849  -9.0802  -9.0592  -9.0474
    -9.0406  -9.0337  -9.0297  -9.0108  -8.9872  -8.9554  -8.9259  -8.9062
    -8.8865  -8.8727  -8.8660  -8.7590   1.9136   1.9307   1.9344   1.9542
     1.9611   1.9799   2.0028   2.0198   2.0255   2.0439   2.0520   2.0653
     2.0822   2.0951   2.1194   2.1293   2.1580   2.1890   2.2124   2.2321
     2.2569   2.2777   2.2846   2.2961   2.3214   2.3296   2.3378   2.3456
     2.3597   2.3710   2.3832   2.3915   2.4016   2.4099   2.4265   2.4335
     2.4464   2.4574   2.4634   2.4784   2.4899   2.5098   2.5146   2.5195
     2.5317   2.5493   2.5594   2.5689   2.5703   2.5864   2.5929   2.6011
     2.6128   2.6217   2.6308   2.6340   2.6448   2.6540   2.6582   2.6681
     2.6777   2.7143   2.7421   2.7470   2.7571   2.7690   2.7762   2.7985
     2.8116   2.8155   2.8296   2.8567   2.8647   2.8905   2.9153   2.9272
     2.9560   2.9656   2.9819   2.9959   3.0165   3.0266   3.0651   3.0815
     3.1024   3.1108   3.1450   3.1599   3.1737   3.1922   3.1966   3.2106
     3.2194   3.2402   3.2676   3.2890   3.3006   3.3183   3.3465   3.3619
     3.3688   3.3725   3.3929   3.4025   3.4091   3.4182   3.4362   3.4415
     3.4508   3.4575   3.4628   3.4724   3.4785   3.4852   3.4910   3.5047
     3.5093   3.5186   3.5316   3.5339   3.5452   3.5491   3.5537   3.5734
     3.5865   3.6037   3.6094   3.6305   3.6519   3.6600   3.7606   3.8841
     3.9240   3.9483   3.9765   4.0018   4.0232   4.0464   4.0812   4.0931
     4.1129   4.1398   4.1576   4.1989   4.2196   4.2521   4.2805   4.3131
[...]
    -9.7915  -9.7670  -9.5550  -9.5482  -9.4623  -9.4519  -9.4400  -9.3990
    -9.3132  -9.3035  -9.2712  -9.2499  -9.2360  -9.2253  -9.2049  -9.1910
    -9.1725  -9.1532  -9.1310  -9.1086  -9.1014  -9.0907  -9.0758  -9.0622
    -9.0539  -9.0373  -9.0317  -9.0005  -8.9717  -8.9636  -8.9324  -8.9134
    -8.8770  -8.8649  -8.8444  -8.7573   1.9460   1.9500   1.9689   1.9888
     1.9952   2.0163   2.0333   2.0402   2.0568   2.0694   2.0783   2.0859
     2.1017   2.1134   2.1249   2.1385   2.1578   2.1798   2.1980   2.2076
     2.2224   2.2297   2.2403   2.2588   2.2669   2.3137   2.3244   2.3319
     2.3460   2.3628   2.3752   2.3865   2.3943   2.3984   2.4268   2.4302
     2.4370   2.4447   2.4550   2.4653   2.4815   2.4895   2.5006   2.5112
     2.5178   2.5273   2.5478   2.5532   2.5584   2.5611   2.5789   2.5843
     2.5948   2.6080   2.6183   2.6298   2.6449   2.6525   2.6745   2.6769
     2.6877   2.7064   2.7214   2.7288   2.7429   2.7508   2.7554   2.7875
     2.8004   2.8073   2.8354   2.8452   2.8611   2.8964   2.9055   2.9221
     2.9455   2.9683   2.9885   3.0038   3.0139   3.0495   3.0729   3.0847
     3.1077   3.1188   3.1409   3.1662   3.1738   3.1933   3.2217   3.2451
     3.2576   3.2666   3.2724   3.2931   3.2965   3.3168   3.3208   3.3398
     3.3535   3.3668   3.3849   3.3915   3.3980   3.4202   3.4296   3.4360
     3.4444   3.4578   3.4690   3.4761   3.5021   3.5098   3.5114   3.5203
     3.5351   3.5417   3.5509   3.5543   3.5565   3.5629   3.5758   3.5838
     3.6120   3.6124   3.6194   3.6280   3.6327   3.6435   3.6756   3.6844
     3.7701   3.8210   3.8635   3.8821   3.9065   3.9257   3.9466   4.0061
     4.0482   4.0900   4.1246   4.1686   4.2158   4.2690   4.2872   4.3320
     4.3463   4.3778   4.4454   4.5039   4.5529   4.6148   4.7044   4.7945
     4.8282   4.8789   4.9359   4.9684   5.0301   5.0773   5.0959   5.1138
     5.1447   5.1908   5.1980   5.2516   5.3012   5.3225   5.3571   5.3713
     5.4460   5.5184   5.5296   5.5628   5.5970   5.6108   5.6596   5.6919
     5.7187   5.7319   5.8287   5.8451   5.9127   5.9844   6.0544   6.0920
     6.1338   6.1795   6.2085   6.2285   6.2506   6.2781   6.2931   6.3059
     6.3307   6.3429   6.3813   6.4089   6.4367   6.4564   6.4848   6.4900
     6.5099   6.5264   6.5419   6.5494   6.5674   6.5775   6.5826   6.5936
     6.6003   6.6319   6.6358   6.6609   6.6689   6.6824   6.7050   6.7250
     6.7655   6.7853   6.7965   6.8554   6.8771   6.9162   7.0042   7.0099
     7.0508   7.0618   7.0719   7.0953   7.1299   7.1774   7.4130   7.4436
     7.4541   7.4646

     occupation numbers 
     1.0000   1.0000   1.0000   1.0000   1.0000   1.0000   1.0000   1.0000
     1.0000   1.0000   1.0000   1.0000   1.0000   1.0000   1.0000   1.0000
     1.0000   1.0000   1.0000   1.0000   1.0000   1.0000   1.0000   1.0000
     1.0000   1.0000   1.0000   1.0000   1.0000   1.0000   1.0000   1.0000
     1.0000   1.0000   1.0000   1.0000   1.0000   1.0000   1.0000   1.0000
     1.0000   1.0000   1.0000   1.0000   1.0000   1.0000   1.0000   1.0000
     1.0000   1.0000   1.0000   1.0000   1.0000   1.0000   1.0000   1.0000
     1.0000   1.0000   1.0000   1.0000   1.0000   1.0000   1.0000   1.0000
     1.0000   1.0000   1.0000   1.0000   1.0000   1.0000   1.0000   1.0000
     1.0000   1.0000   1.0000   1.0000   1.0000   1.0000   1.0000   1.0000
     1.0000   1.0000   1.0000   1.0000   1.0000   1.0000   1.0000   1.0000
     1.0000   1.0000   1.0000   1.0000   1.0000   1.0000   1.0000   1.0000
     1.0000   1.0000   1.0000   1.0000   1.0000   1.0000   1.0000   1.0000
     1.0000   1.0000   1.0000   1.0000   1.0000   1.0000   1.0000   1.0000
     1.0000   1.0000   1.0000   1.0000   1.0000   1.0000   1.0000   1.0000
     1.0000   1.0000   1.0000   1.0000   1.0000   1.0000   1.0000   1.0000
     1.0000   1.0000   1.0000   1.0000   1.0000   1.0000   1.0000   1.0000
     1.0000   1.0000   1.0000   1.0000   1.0000   1.0000   1.0000   1.0000
     1.0000   1.0000   1.0000   1.0000   1.0000   1.0000   1.0000   1.0000
     1.0000   1.0000   1.0000   1.0000   1.0000   1.0000   1.0000   1.0000
     1.0000   1.0000   1.0000   1.0000   1.0000   1.0000   1.0000   1.0000
     1.0000   1.0000   1.0000   1.0000   1.0000   1.0000   1.0000   1.0000
     1.0000   1.0000   1.0000   1.0000   1.0000   1.0000   1.0000   1.0000
     1.0000   1.0000   1.0000   1.0000   1.0000   1.0000   1.0000   1.0000
     1.0000   1.0000   1.0000   1.0000   1.0000   1.0000   1.0000   1.0000
     1.0000   1.0000   1.0000   1.0000   1.0000   1.0000   1.0000   1.0000
     1.0000   1.0000   1.0000   1.0000   1.0000   1.0000   1.0000   1.0000
     1.0000   1.0000   1.0000   1.0000   1.0000   1.0000   1.0000   1.0000
     1.0000   1.0000   1.0000   1.0000   1.0000   1.0000   1.0000   1.0000
     1.0000   1.0000   1.0000   1.0000   1.0000   1.0000   1.0000   1.0000
     1.0000   1.0000   1.0000   1.0000   1.0000   1.0000   1.0000   1.0000
     1.0000   1.0000   1.0000   1.0000   1.0000   1.0000   1.0000   1.0000
     1.0000   1.0000   1.0000   1.0000   1.0000   1.0000   1.0000   1.0000
     1.0000   1.0000   1.0000   1.0000   1.0000   1.0000   1.0000   1.0000
     1.0000   1.0000   1.0000   1.0000   1.0000   1.0000   1.0000   1.0000
     1.0000   1.0000   1.0000   1.0000   1.0000   1.0000   1.0000   1.0000
     1.0000   1.0000   1.0000   1.0000   1.0000   1.0000   1.0000   1.0000
     1.0000   1.0000   1.0000   1.0000   1.0000   1.0000   1.0000   1.0000
     1.0000   1.0000   1.0000   1.0000   1.0000   1.0000   1.0000   1.0000
     1.0000   1.0000   1.0000   1.0000   1.0000   1.0000   1.0000   1.0000
     1.0000   1.0000   1.0000   1.0000   1.0000   1.0000   1.0000   1.0000
     1.0000   1.0000   1.0000   1.0000   1.0000   1.0000   1.0000   1.0000
     1.0000   1.0000   1.0000   1.0000   1.0000   1.0000   1.0000   1.0000
     1.0000   1.0000   1.0000   1.0000   1.0000   1.0000   1.0000   1.0000
     1.0000   1.0000   1.0000   1.0000   1.0000   1.0000   1.0000   1.0000
     1.0000   1.0000   1.0000   1.0000   1.0000   1.0000   1.0000   1.0000
     1.0000   1.0000   1.0000   1.0000   1.0000   1.0000   1.0000   1.0000
     1.0000   1.0000   1.0000   1.0000   1.0000   1.0000   1.0000   1.0000
     1.0000   1.0000   1.0000   1.0000   1.0000   1.0000   1.0000   1.0000
     1.0000   1.0000   1.0000   1.0000   1.0000   1.0000   1.0000   1.0000
     1.0000   1.0000   1.0000   1.0000   1.0000   1.0000   1.0000   1.0000
     1.0000   1.0000   1.0000   1.0000   1.0000   1.0000   1.0000   1.0000
     1.0000   1.0000

     highest occupied level (ev):     7.6293



               ==================================================
                            POLARIZATION CALCULATION
                         !!! NOT THOROUGHLY TESTED !!!
               --------------------------------------------------


                     K-POINTS STRINGS USED IN CALCULATIONS
                     ~~~~~~~~~~~~~~~~~~~~~~~~~~~~~~~~~~~~~

       G-vector along string (2 pi/a):  0.00023 -0.00010  0.93745
       Modulus of the vector (1/bohr):  0.32018
       Number of k-points per string:   8
       Number of different strings  :  10


                               IONIC POLARIZATION
                               ~~~~~~~~~~~~~~~~~~

        Note: (mod 1) means that the phases (angles ranging from
        -pi to pi) have been mapped to the interval [-1/2,+1/2) by
        dividing by 2*pi; (mod 2) refers to the interval [-1,+1)

  ============================================================================
    Ion    Species    Charge              Position                Phase
  ----------------------------------------------------------------------------
     1        Zn      20.000       0.1677  0.0964  0.2066    -0.12496 (mod 2)
     2        Zn      20.000       0.1666  0.0968  0.7400    -0.12583 (mod 2)
     3        Zn      20.000      -0.0009  0.3859  0.2065    -0.12939 (mod 2)
     4        Zn      20.000      -0.0005  0.3847  0.7395    -0.13521 (mod 2)
     5        Zn      20.000      -0.1675  0.6738  0.2063    -0.13329 (mod 2)
     6        Zn      20.000      -0.1680  0.6747  0.7395    -0.13679 (mod 2)
     7        Zn      20.000       0.4990  0.0946  0.2061    -0.13330 (mod 2)
     8        Mg      10.000       0.4996  0.0950  0.7422     0.95878 (mod 2)
     9        Zn      20.000       0.3324  0.3852  0.2063    -0.13093 (mod 2)
    10        Mg      10.000       0.3321  0.3857  0.7422     0.95786 (mod 2)
    11        Mg      10.000       0.1649  0.6746  0.2081    -0.04962 (mod 2)
    12        Zn      20.000       0.1636  0.6729  0.7393    -0.13955 (mod 2)
    13        Zn      20.000       0.8315  0.0915  0.2068    -0.11839 (mod 2)
    14        Zn      20.000       0.8341  0.0977  0.7404    -0.11469 (mod 2)
    15        Mg      10.000       0.6648  0.3823  0.2071    -0.05703 (mod 2)
    16        Zn      20.000       0.6660  0.3845  0.7385    -0.15135 (mod 2)
    17        Mg      10.000       0.4970  0.6740  0.2077    -0.05216 (mod 2)
    18        Zn      20.000       0.5015  0.6734  0.7383    -0.15573 (mod 2)
    19        Zn      20.000      -0.0002  0.1933  0.4725     0.85909 (mod 2)
    20        Mg      10.000       0.0007  0.1932  1.0095    -0.53650 (mod 2)
    21        Mg      10.000      -0.1663  0.4824  0.4737     0.43950 (mod 2)
    22        Mg      10.000      -0.1666  0.4822  1.0063    -0.56760 (mod 2)
    23        Zn      20.000      -0.3330  0.7716  0.4725     0.85588 (mod 2)
    24        Mg      10.000      -0.3334  0.7717  1.0079    -0.55329 (mod 2)
    25        Zn      20.000       0.3340  0.1932  0.4734     0.87739 (mod 2)
    26        Zn      20.000       0.3320  0.1922  1.0065     0.87163 (mod 2)
    27        Zn      20.000       0.1666  0.4800  0.4732     0.87152 (mod 2)
    28        Zn      20.000       0.1647  0.4824  1.0074     0.88743 (mod 2)
    29        Zn      20.000      -0.0024  0.7720  0.4736     0.87708 (mod 2)
    30        Zn      20.000      -0.0008  0.7689  1.0073     0.88478 (mod 2)
    31        Zn      20.000       0.6657  0.1911  0.4734     0.87861 (mod 2)
    32        Zn      20.000       0.6670  0.1929  1.0070     0.88284 (mod 2)
    33        Zn      20.000       0.4985  0.4801  0.4722     0.85385 (mod 2)
    34        Zn      20.000       0.5010  0.4823  1.0067     0.87687 (mod 2)
    35        Mg      10.000       0.3321  0.7714  0.4759     0.46094 (mod 2)
    36        Zn      20.000       0.3323  0.7689  1.0046     0.83478 (mod 2)
    37        O        6.000       0.1666  0.0959  0.0033     0.01883 (mod 2)
    38        O        6.000       0.1665  0.0966  0.5361    -0.98437 (mod 2)
    39        O        6.000      -0.0012  0.3854  0.0030     0.01637 (mod 2)
    40        O        6.000      -0.0006  0.3852  0.5363    -0.98388 (mod 2)
    41        O        6.000      -0.1679  0.6736  0.0026     0.01398 (mod 2)
    42        O        6.000      -0.1679  0.6743  0.5364    -0.98357 (mod 2)
    43        O        6.000       0.4999  0.0955  0.0019     0.01121 (mod 2)
    44        O        6.000       0.4995  0.0960  0.5391    -0.96730 (mod 2)
    45        O        6.000       0.3332  0.3855  0.0018     0.01015 (mod 2)
    46        O        6.000       0.3328  0.3850  0.5390    -0.96812 (mod 2)
    47        O        6.000       0.1664  0.6742  0.0051     0.02873 (mod 2)
    48        O        6.000       0.1650  0.6739  0.5351    -0.99058 (mod 2)
    49        O        6.000       0.8337  0.0945  0.0026     0.01600 (mod 2)
    50        O        6.000       0.8333  0.0964  0.5369    -0.97907 (mod 2)
    51        O        6.000       0.6675  0.3850  0.0043     0.02502 (mod 2)
    52        O        6.000       0.6664  0.3847  0.5343    -0.99397 (mod 2)
    53        O        6.000       0.4999  0.6746  0.0044     0.02518 (mod 2)
    54        O        6.000       0.4994  0.6738  0.5345    -0.99346 (mod 2)
    55        O        6.000      -0.0010  0.1920  0.2682    -0.49134 (mod 2)
    56        O        6.000       0.0006  0.1930  0.8061     0.53401 (mod 2)
    57        O        6.000      -0.1687  0.4808  0.2704    -0.47934 (mod 2)
    58        O        6.000      -0.1673  0.4817  0.8027     0.51463 (mod 2)
    59        O        6.000      -0.3348  0.7705  0.2684    -0.49129 (mod 2)
    60        O        6.000      -0.3339  0.7716  0.8048     0.52564 (mod 2)
    61        O        6.000       0.3337  0.1929  0.2701    -0.48042 (mod 2)
    62        O        6.000       0.3337  0.1929  0.8027     0.51555 (mod 2)
    63        O        6.000       0.1660  0.4816  0.2695    -0.48409 (mod 2)
    64        O        6.000       0.1656  0.4815  0.8038     0.52082 (mod 2)
    65        O        6.000      -0.0017  0.7702  0.2700    -0.48178 (mod 2)
    66        O        6.000      -0.0012  0.7702  0.8038     0.52050 (mod 2)
    67        O        6.000       0.6659  0.1903  0.2697    -0.48221 (mod 2)
    68        O        6.000       0.6663  0.1923  0.8032     0.51848 (mod 2)
    69        O        6.000       0.4995  0.4811  0.2686    -0.48892 (mod 2)
    70        O        6.000       0.4998  0.4813  0.8029     0.51647 (mod 2)
    71        O        6.000       0.3314  0.7683  0.2731    -0.46407 (mod 2)
    72        O        6.000       0.3325  0.7699  0.8002     0.50111 (mod 2)
  ----------------------------------------------------------------------------
                                               IONIC PHASE:   0.22812 (mod 2)
  ============================================================================


                            ELECTRONIC POLARIZATION
                            ~~~~~~~~~~~~~~~~~~~~~~~

        Note: (mod 1) means that the phases (angles ranging from
        -pi to pi) have been mapped to the interval [-1/2,+1/2) by
        dividing by 2*pi; (mod 2) refers to the interval [-1,+1)

  ============================================================================
   Spin    String     Weight      First k-point in string         Phase
  ----------------------------------------------------------------------------
    up        1      0.062500      0.0000  0.0000  0.0000    -0.22990 (mod 1)
    up        2      0.125000      0.0003  0.2884 -0.0000    -0.23467 (mod 1)
    up        3      0.062500     -0.0007 -0.5769  0.0001    -0.23770 (mod 1)
    up        4      0.125000      0.2502  0.1445  0.0000    -0.23463 (mod 1)
    up        5      0.125000      0.2505  0.4329  0.0000    -0.23771 (mod 1)
    up        6      0.125000      0.2495 -0.4324  0.0001    -0.23773 (mod 1)
    up        7      0.125000      0.2498 -0.1439  0.0001    -0.23470 (mod 1)
    up        8      0.062500     -0.5003 -0.2890 -0.0001    -0.23768 (mod 1)
    up        9      0.125000     -0.5000 -0.0006 -0.0001    -0.23772 (mod 1)
    up       10      0.062500     -0.5010 -0.8659 -0.0000    -0.23772 (mod 1)
  ----------------------------------------------------------------------------
   down       1      0.062500      0.0000  0.0000  0.0000    -0.22990 (mod 1)
   down       2      0.125000      0.0003  0.2884 -0.0000    -0.23467 (mod 1)
   down       3      0.062500     -0.0007 -0.5769  0.0001    -0.23770 (mod 1)
   down       4      0.125000      0.2502  0.1445  0.0000    -0.23463 (mod 1)
   down       5      0.125000      0.2505  0.4329  0.0000    -0.23771 (mod 1)
   down       6      0.125000      0.2495 -0.4324  0.0001    -0.23773 (mod 1)
   down       7      0.125000      0.2498 -0.1439  0.0001    -0.23470 (mod 1)
   down       8      0.062500     -0.5003 -0.2890 -0.0001    -0.23768 (mod 1)
   down       9      0.125000     -0.5000 -0.0006 -0.0001    -0.23772 (mod 1)
   down      10      0.062500     -0.5010 -0.8659 -0.0000    -0.23772 (mod 1)
  ----------------------------------------------------------------------------
                                        Average phase (up):  -0.23608 (mod 1)
                                      Average phase (down):  -0.23608 (mod 1)
                                          ELECTRONIC PHASE:  -0.47216 (mod 2)
  ============================================================================


                               SUMMARY OF PHASES
                               ~~~~~~~~~~~~~~~~~

                          Ionic Phase:  0.22812 (mod 2)
                     Electronic Phase: -0.47216 (mod 2)
                          TOTAL PHASE: -0.24404 (mod 2)


                             VALUES OF POLARIZATION
                             ~~~~~~~~~~~~~~~~~~~~~~

        The calculation of phases done along the direction of vector 3
        of the reciprocal lattice gives the following contribution to
        the polarization vector (in different units, and being Omega
        the volume of the unit cell):

           P =  -4.7890067  (mod  39.2475246)  (e/Omega).bohr

           P =  -0.0008320  (mod   0.0068184)  e/bohr^2

           P =  -0.0475660  (mod   0.3898196)  C/m^2

        The polarization direction is:  (-0.00025 , 0.00010 , 1.00000 )


               ==================================================



     Writing output data file ZnO.save/
 
     init_run     :      1.34s CPU      2.75s WALL (       1 calls)
     electrons    :   1945.38s CPU   2069.41s WALL (       1 calls)

     Called by init_run:
     wfcinit      :      0.00s CPU      0.01s WALL (       1 calls)
     wfcinit:atom :      0.37s CPU      0.50s WALL (      80 calls)
     wfcinit:wfcr :     66.91s CPU     70.24s WALL (      80 calls)
     potinit      :      0.17s CPU      0.35s WALL (       1 calls)
     hinit0       :      0.32s CPU      1.12s WALL (       1 calls)

     Called by electrons:
     c_bands      :   1323.96s CPU   1443.48s WALL (       1 calls)
     v_of_rho     :      0.15s CPU      0.20s WALL (       1 calls)
     v_h          :      0.00s CPU      0.00s WALL (       1 calls)
     v_xc         :      0.15s CPU      0.19s WALL (       1 calls)
     newd         :      0.17s CPU      0.39s WALL (       1 calls)

     Called by c_bands:
     init_us_2    :      1.11s CPU      1.57s WALL (     220 calls)
     cegterg      :   1252.80s CPU   1368.14s WALL (      80 calls)

     Called by sum_band:

     Called by *egterg:
     h_psi        :    385.46s CPU    400.29s WALL (    1149 calls)
     s_psi        :     77.52s CPU     77.86s WALL (    1149 calls)
     g_psi        :      1.25s CPU      1.27s WALL (     989 calls)
     cdiaghg      :    455.87s CPU    536.64s WALL (    1069 calls)
     cegterg:over :    141.22s CPU    158.88s WALL (     989 calls)
     cegterg:upda :    113.89s CPU    114.87s WALL (     989 calls)
     cegterg:last :    125.44s CPU    126.50s WALL (     320 calls)
     cdiaghg:chol :     26.34s CPU     27.26s WALL (    1069 calls)
     cdiaghg:inve :     28.90s CPU     29.14s WALL (    1069 calls)
     cdiaghg:para :     79.07s CPU    101.40s WALL (    2138 calls)

     Called by h_psi:
     h_psi:pot    :    382.37s CPU    396.54s WALL (    1149 calls)
     h_psi:calbec :     92.83s CPU    103.45s WALL (    1149 calls)
     vloc_psi     :    210.32s CPU    212.97s WALL (    1149 calls)
     add_vuspsi   :     79.20s CPU     80.11s WALL (    1149 calls)

     General routines
     calbec       :    107.86s CPU    120.19s WALL (    1289 calls)
     fft          :      0.04s CPU      0.74s WALL (      13 calls)
     ffts         :      0.00s CPU      0.00s WALL (       1 calls)
     fftw         :    203.04s CPU    205.58s WALL (  760206 calls)
     interpolate  :      0.00s CPU      0.00s WALL (       1 calls)
 
     Parallel routines
     fft_scatt_xy :     21.41s CPU     21.65s WALL (  760220 calls)
     fft_scatt_yz :     95.79s CPU     97.16s WALL (  760220 calls)
 
     PWSCF        :  33m 2.93s CPU  35m33.52s WALL

 
   This run was terminated on:  18:31: 5  17Sep2021            

=------------------------------------------------------------------------------=
   JOB DONE.
=------------------------------------------------------------------------------=
