
     Program PWSCF v.6.4.1 starts on 15Jul2022 at  1:26:37 

     This program is part of the open-source Quantum ESPRESSO suite
     for quantum simulation of materials; please cite
         "P. Giannozzi et al., J. Phys.:Condens. Matter 21 395502 (2009);
         "P. Giannozzi et al., J. Phys.:Condens. Matter 29 465901 (2017);
          URL http://www.quantum-espresso.org", 
     in publications or presentations arising from this work. More details at
     http://www.quantum-espresso.org/quote

     Parallel version (MPI), running on   128 processors

     MPI processes distributed on     2 nodes
     K-points division:     npool     =       8
     R & G space division:  proc/nbgrp/npool/nimage =      16
     Waiting for input...
     Reading input from standard input
Warning: card &IONS ignored
Warning: card   UPSCALE           = 100.D0, ignored
Warning: card / ignored
Warning: card &CELL ignored
Warning: card   CELL_DYNAMICS     = 'BFGS' ignored
Warning: card   PRESS_CONV_THR    = 0.5D0 ignored
Warning: card   CELL_DOFREE = 'ALL' ignored
Warning: card / ignored

     Current dimensions of program PWSCF are:
     Max number of different atomic species (ntypx) = 10
     Max number of k-points (npk) =  40000
     Max angular momentum in pseudopotentials (lmaxx) =  3

     Subspace diagonalization in iterative solution of the eigenvalue problem:
     one sub-group per band group will be used
     scalapack distributed-memory algorithm (size of sub-group:  2*  2 procs)

 
     Parallelization info
     --------------------
     sticks:   dense  smooth     PW     G-vecs:    dense   smooth      PW
     Min         731     351     95                67614    22485    3241
     Max         732     352     96                67616    22487    3246
     Sum       11705    5617   1531              1081841   359777   51913
 


     bravais-lattice index     =            0
     lattice parameter (alat)  =      18.4226  a.u.
     unit-cell volume          =    5728.8410 (a.u.)^3
     number of atoms/cell      =           72
     number of atomic types    =            3
     number of electrons       =       816.00
     number of Kohn-Sham states=          490
     kinetic-energy cutoff     =      60.0000  Ry
     charge density cutoff     =     500.0000  Ry
     convergence threshold     =      1.0E-08
     mixing beta               =       0.5000
     number of iterations used =            8  plain     mixing
     Exchange-correlation      = SLA  PW   PSX  PSC ( 1  4 10  8 0 0)
     Using LIBXC version       =    4   3   4

     celldm(1)=  18.422634  celldm(2)=   0.000000  celldm(3)=   0.000000
     celldm(4)=   0.000000  celldm(5)=   0.000000  celldm(6)=   0.000000

     crystal axes: (cart. coord. in units of alat)
               a(1) = (   1.000000  -0.000928  -0.000030 )  
               a(2) = (  -0.500802   0.866030   0.000259 )  
               a(3) = (  -0.000032   0.000301   1.058552 )  

     reciprocal axes: (cart. coord. in units 2 pi/alat)
               b(1) = (  1.000537  0.578584 -0.000134 )  
               b(2) = (  0.001072  1.155315 -0.000329 )  
               b(3) = (  0.000028 -0.000266  0.944687 )  


     PseudoPot. # 1 for Zn read from file:
     ./GBRV_PBEsol/zn_pbesol_v1.uspp.F.UPF
     MD5 check sum: 7d8615e52efe7c1e2b1899de8658bae2
     Pseudo is Ultrasoft, Zval = 20.0
     Generated by new atomic code, or converted to UPF format
     Using radial grid of  943 points,  6 beta functions with: 
                l(1) =   0
                l(2) =   0
                l(3) =   1
                l(4) =   1
                l(5) =   2
                l(6) =   2
     Q(r) pseudized with  8 coefficients,  rinner =    1.100   1.100   1.100
                                                       1.100   1.100

     PseudoPot. # 2 for O  read from file:
     ./GBRV_PBEsol/o_pbesol_v1.2.uspp.F.UPF
     MD5 check sum: 501638753501ef6325af9037351f7734
     Pseudo is Ultrasoft + core correction, Zval =  6.0
     Generated by new atomic code, or converted to UPF format
     Using radial grid of  737 points,  5 beta functions with: 
                l(1) =   0
                l(2) =   0
                l(3) =   1
                l(4) =   1
                l(5) =   2
     Q(r) pseudized with  8 coefficients,  rinner =    0.900   0.900   0.900
                                                       0.900   0.900

     PseudoPot. # 3 for Mg read from file:
     ./GBRV_PBEsol/mg_pbesol_v1.4.uspp.F.UPF
     MD5 check sum: 4059f37963cf5867752dbf5ab2400678
     Pseudo is Ultrasoft, Zval = 10.0
     Generated by new atomic code, or converted to UPF format
     Using radial grid of  821 points,  7 beta functions with: 
                l(1) =   0
                l(2) =   0
                l(3) =   0
                l(4) =   1
                l(5) =   1
                l(6) =   2
                l(7) =   2
     Q(r) pseudized with  8 coefficients,  rinner =    1.200   1.200   1.200
                                                       1.200   1.200

     atomic species   valence    mass     pseudopotential
        Zn            20.00    65.38000     Zn( 1.00)
        O              6.00    15.99900     O ( 1.00)
        Mg            10.00    24.30500     Mg( 1.00)

     No symmetry found


                                    s                        frac. trans.

      isym =  1     identity                                     

 cryst.   s( 1) = (     1          0          0      )
                  (     0          1          0      )
                  (     0          0          1      )

 cart.    s( 1) = (  1.0000000 -0.0000000  0.0000000 )
                  (  0.0000000  1.0000000  0.0000000 )
                  ( -0.0000000  0.0000000  1.0000000 )


   Cartesian axes

     site n.     atom                  positions (alat units)
         1           Zn  tau(   1) = (   0.1665782   0.0963963   0.2063895  )
         2           Zn  tau(   2) = (   0.1668732   0.0959665   0.7349641  )
         3           Zn  tau(   3) = (   0.0009512   0.3842426   0.2055995  )
         4           Zn  tau(   4) = (  -0.0012324   0.3860801   0.7351203  )
         5           Zn  tau(   5) = (  -0.1666999   0.6766862   0.2051618  )
         6           Zn  tau(   6) = (  -0.1681826   0.6717785   0.7345261  )
         7           Zn  tau(   7) = (   0.4991504   0.0949259   0.2068892  )
         8           Zn  tau(   8) = (   0.5001759   0.0965776   0.7363596  )
         9           Zn  tau(   9) = (   0.3329240   0.3842664   0.2043651  )
        10           Mg  tau(  10) = (   0.3334331   0.3827568   0.7364896  )
        11           Mg  tau(  11) = (   0.1644999   0.6754591   0.2061182  )
        12           Zn  tau(  12) = (   0.1670393   0.6718018   0.7329226  )
        13           Zn  tau(  13) = (   0.8334668   0.0950380   0.2050798  )
        14           Mg  tau(  14) = (   0.8319995   0.0946389   0.7372724  )
        15           Zn  tau(  15) = (   0.6647916   0.3833201   0.2051261  )
        16           Mg  tau(  16) = (   0.6664312   0.3844256   0.7362316  )
        17           Mg  tau(  17) = (   0.4991625   0.6729465   0.2047595  )
        18           Mg  tau(  18) = (   0.4979733   0.6714723   0.7348728  )
        19           Zn  tau(  19) = (  -0.0014577   0.1926390   0.4718923  )
        20           Zn  tau(  20) = (   0.0011638   0.1944231   0.9999335  )
        21           Zn  tau(  21) = (  -0.1676651   0.4815598   0.4689971  )
        22           Mg  tau(  22) = (  -0.1658724   0.4813407   1.0027464  )
        23           Mg  tau(  23) = (  -0.3341635   0.7699521   0.4703235  )
        24           Mg  tau(  24) = (  -0.3326666   0.7719689   0.9987826  )
        25           Zn  tau(  25) = (   0.3338010   0.1937891   0.4715975  )
        26           Zn  tau(  26) = (   0.3337474   0.1919342   1.0010450  )
        27           Mg  tau(  27) = (   0.1672133   0.4788865   0.4696311  )
        28           Mg  tau(  28) = (   0.1662509   0.4814035   0.9992890  )
        29           Mg  tau(  29) = (  -0.0008876   0.7706306   0.4737941  )
        30           Zn  tau(  30) = (   0.0002063   0.7688912   0.9985049  )
        31           Zn  tau(  31) = (   0.6670821   0.1928319   0.4704278  )
        32           Zn  tau(  32) = (   0.6653207   0.1917119   0.9997163  )
        33           Zn  tau(  33) = (   0.4991099   0.4793790   0.4700145  )
        34           Zn  tau(  34) = (   0.4999369   0.4811885   0.9980057  )
        35           Zn  tau(  35) = (   0.3327413   0.7694323   0.4693531  )
        36           Zn  tau(  36) = (   0.3316869   0.7677159   0.9989545  )
        37           O   tau(  37) = (   0.1665706   0.0965786   0.0034246  )
        38           O   tau(  38) = (   0.1664922   0.0963300   0.5315291  )
        39           O   tau(  39) = (   0.0006478   0.3856641   0.0028161  )
        40           O   tau(  40) = (  -0.0008291   0.3855971   0.5315934  )
        41           O   tau(  41) = (  -0.1674082   0.6740724   0.0019744  )
        42           O   tau(  42) = (  -0.1678967   0.6739782   0.5315273  )
        43           O   tau(  43) = (   0.4998870   0.0944852   0.0036949  )
        44           O   tau(  44) = (   0.5000643   0.0969332   0.5328581  )
        45           O   tau(  45) = (   0.3330194   0.3850129   0.0007906  )
        46           O   tau(  46) = (   0.3326549   0.3848557   0.5344409  )
        47           O   tau(  47) = (   0.1656054   0.6723493   0.0041591  )
        48           O   tau(  48) = (   0.1656532   0.6718574   0.5291533  )
        49           O   tau(  49) = (   0.8335917   0.0952285   0.0011108  )
        50           O   tau(  50) = (   0.8325705   0.0950880   0.5344793  )
        51           O   tau(  51) = (   0.6663790   0.3842654   0.0016471  )
        52           O   tau(  52) = (   0.6665849   0.3847903   0.5335027  )
        53           O   tau(  53) = (   0.5008546   0.6736741   0.0020172  )
        54           O   tau(  54) = (   0.4995741   0.6729810   0.5318567  )
        55           O   tau(  55) = (  -0.0004740   0.1924041   0.2683446  )
        56           O   tau(  56) = (  -0.0005453   0.1923940   0.7962992  )
        57           O   tau(  57) = (  -0.1672662   0.4817207   0.2649379  )
        58           O   tau(  58) = (  -0.1676238   0.4806152   0.8000549  )
        59           O   tau(  59) = (  -0.3349645   0.7696482   0.2676558  )
        60           O   tau(  60) = (  -0.3353279   0.7688924   0.7961569  )
        61           O   tau(  61) = (   0.3331989   0.1927040   0.2679754  )
        62           O   tau(  62) = (   0.3331336   0.1911132   0.7979089  )
        63           O   tau(  63) = (   0.1669451   0.4823375   0.2669564  )
        64           O   tau(  64) = (   0.1671445   0.4799023   0.7967123  )
        65           O   tau(  65) = (  -0.0007218   0.7698680   0.2713032  )
        66           O   tau(  66) = (  -0.0002399   0.7685498   0.7946225  )
        67           O   tau(  67) = (   0.6667770   0.1913780   0.2673277  )
        68           O   tau(  68) = (   0.6668333   0.1924513   0.7967982  )
        69           O   tau(  69) = (   0.4992555   0.4808192   0.2668711  )
        70           O   tau(  70) = (   0.4995547   0.4798594   0.7949615  )
        71           O   tau(  71) = (   0.3327682   0.7687001   0.2660370  )
        72           O   tau(  72) = (   0.3326713   0.7683885   0.7960091  )

   Crystallographic axes

     site n.     atom                  positions (cryst. coord.)
         1           Zn  tau(   1) = (  0.2224133  0.1114787  0.1949525  )
         2           Zn  tau(   2) = (  0.2223888  0.1108086  0.6942902  )
         3           Zn  tau(   3) = (  0.2232407  0.4438545  0.1941250  )
         4           Zn  tau(   4) = (  0.2220480  0.4458008  0.6943559  )
         5           Zn  tau(   5) = (  0.2247027  0.7815391  0.1936291  )
         6           Zn  tau(   6) = (  0.2203086  0.7756935  0.6937139  )
         7           Zn  tau(   7) = (  0.5543135  0.1101365  0.1954341  )
         8           Zn  tau(   8) = (  0.5562241  0.1118716  0.6956176  )
         9           Zn  tau(   9) = (  0.5554058  0.4442384  0.1929681  )
        10           Mg  tau(  10) = (  0.5549703  0.4423197  0.6956597  )
        11           Mg  tau(  11) = (  0.5553703  0.7804763  0.1945421  )
        12           Zn  tau(  12) = (  0.5557244  0.7760804  0.6922084  )
        13           Zn  tau(  13) = (  0.8888746  0.1106250  0.1937341  )
        14           Mg  tau(  14) = (  0.8871042  0.1099873  0.6964897  )
        15           Zn  tau(  15) = (  0.8869042  0.4435007  0.1936964  )
        16           Mg  tau(  16) = (  0.8891130  0.4446048  0.6954247  )
        17           Mg  tau(  17) = (  0.8887592  0.7779327  0.1932685  )
        18           Mg  tau(  18) = (  0.8866454  0.7760539  0.6940600  )
        19           Zn  tau(  19) = (  0.1099360  0.2224018  0.4457393  )
        20           Zn  tau(  20) = (  0.1135202  0.2242921  0.9445726  )
        21           Zn  tau(  21) = (  0.1108046  0.5560189  0.4429228  )
        22           Mg  tau(  22) = (  0.1123999  0.5555922  0.9471489  )
        23           Mg  tau(  23) = (  0.1110757  0.8890239  0.4440944  )
        24           Mg  tau(  24) = (  0.1136693  0.8911816  0.9433224  )
        25           Zn  tau(  25) = (  0.4460403  0.2240901  0.4454698  )
        26           Zn  tau(  26) = (  0.4448423  0.2217728  0.9456325  )
        27           Mg  tau(  27) = (  0.4443161  0.5532893  0.4435317  )
        28           Mg  tau(  28) = (  0.4447384  0.5560220  0.9438920  )
        29           Mg  tau(  29) = (  0.4449228  0.8901640  0.4473821  )
        30           Zn  tau(  30) = (  0.4449404  0.8879829  0.9430701  )
        31           Zn  tau(  31) = (  0.7789469  0.2233420  0.4443743  )
        32           Zn  tau(  32) = (  0.7764654  0.2218720  0.9443866  )
        33           Zn  tau(  33) = (  0.7766760  0.5542140  0.4439030  )
        34           Zn  tau(  34) = (  0.7784795  0.5561318  0.9426889  )
        35           Zn  tau(  35) = (  0.7780382  0.8891387  0.4431963  )
        36           Zn  tau(  36) = (  0.7759191  0.8869803  0.9435043  )
        37           O   tau(  37) = (  0.2225385  0.1117561  0.0032141  )
        38           O   tau(  38) = (  0.2222453  0.1112951  0.5021077  )
        39           O   tau(  39) = (  0.2237868  0.4455632  0.0025578  )
        40           O   tau(  40) = (  0.2221993  0.4453101  0.5020868  )
        41           O   tau(  41) = (  0.2225090  0.7785855  0.0016812  )
        42           O   tau(  42) = (  0.2218946  0.7783019  0.5019430  )
        43           O   tau(  43) = (  0.5548228  0.1096950  0.0034793  )
        44           O   tau(  44) = (  0.5563455  0.1123493  0.5033723  )
        45           O   tau(  45) = (  0.5559606  0.4451678  0.0006537  )
        46           O   tau(  46) = (  0.5554332  0.4448103  0.5047863  )
        47           O   tau(  47) = (  0.5547043  0.7769511  0.0037547  )
        48           O   tau(  48) = (  0.5543971  0.7762101  0.4997102  )
        49           O   tau(  49) = (  0.8891372  0.1109123  0.0010472  )
        50           O   tau(  50) = (  0.8879625  0.1105735  0.5049135  )
        51           O   tau(  51) = (  0.8890667  0.4446614  0.0014722  )
        52           O   tau(  52) = (  0.8895050  0.4450930  0.5039093  )
        53           O   tau(  53) = (  0.8909006  0.7788419  0.0017402  )
        54           O   tau(  54) = (  0.8891471  0.7778654  0.5022730  )
        55           O   tau(  55) = (  0.1108117  0.2221984  0.2534505  )
        56           O   tau(  56) = (  0.1106636  0.2220130  0.7522024  )
        57           O   tau(  57) = (  0.1113241  0.5562724  0.2501507  )
        58           O   tau(  58) = (  0.1102549  0.5548188  0.7556690  )
        59           O   tau(  59) = (  0.1101257  0.8887386  0.2526369  )
        60           O   tau(  60) = (  0.1092538  0.8876911  0.7519053  )
        61           O   tau(  61) = (  0.4448374  0.2229028  0.2531109  )
        62           O   tau(  62) = (  0.4437806  0.2208905  0.7537327  )
        63           O   tau(  63) = (  0.4460717  0.5573427  0.2520666  )
        64           O   tau(  64) = (  0.4447911  0.5543552  0.7525208  )
        65           O   tau(  65) = (  0.4446746  0.8893497  0.2560917  )
        66           O   tau(  66) = (  0.4443239  0.8876551  0.7504651  )
        67           O   tau(  67) = (  0.7778277  0.2217287  0.2525086  )
        68           O   tau(  68) = (  0.7784339  0.2227946  0.7526923  )
        69           O   tau(  69) = (  0.7776822  0.5559449  0.2519956  )
        70           O   tau(  70) = (  0.7773554  0.5546627  0.7508760  )
        71           O   tau(  71) = (  0.7776688  0.8883597  0.2511265  )
        72           O   tau(  72) = (  0.7773204  0.8878253  0.7517844  )

     number of k points=    36  Marzari-Vanderbilt smearing, width (Ry)=  0.0010
                       cart. coord. in units 2pi/alat
        k(    1) = (   0.0000000   0.0000000   0.0000000), wk =   0.0312500
        k(    2) = (   0.0000069  -0.0000665   0.2361718), wk =   0.0625000
        k(    3) = (  -0.0000139   0.0001330  -0.4723436), wk =   0.0312500
        k(    4) = (   0.0002681   0.2888286  -0.0000823), wk =   0.0625000
        k(    5) = (   0.0002750   0.2887621   0.2360895), wk =   0.0625000
        k(    6) = (   0.0002542   0.2889617  -0.4724258), wk =   0.0625000
        k(    7) = (   0.0002611   0.2888952  -0.2362540), wk =   0.0625000
        k(    8) = (  -0.0005361  -0.5776573   0.0001645), wk =   0.0312500
        k(    9) = (  -0.0005292  -0.5777238   0.2363363), wk =   0.0625000
        k(   10) = (  -0.0005500  -0.5775242  -0.4721791), wk =   0.0312500
        k(   11) = (   0.2501344   0.1446460  -0.0000336), wk =   0.0625000
        k(   12) = (   0.2501413   0.1445795   0.2361382), wk =   0.0625000
        k(   13) = (   0.2501205   0.1447790  -0.4723771), wk =   0.0625000
        k(   14) = (   0.2501274   0.1447125  -0.2362054), wk =   0.0625000
        k(   15) = (   0.2504024   0.4334746  -0.0001158), wk =   0.0625000
        k(   16) = (   0.2504093   0.4334081   0.2360560), wk =   0.0625000
        k(   17) = (   0.2503885   0.4336077  -0.4724594), wk =   0.0625000
        k(   18) = (   0.2503955   0.4335411  -0.2362876), wk =   0.0625000
        k(   19) = (   0.2495982  -0.4330113   0.0001309), wk =   0.0625000
        k(   20) = (   0.2496052  -0.4330778   0.2363027), wk =   0.0625000
        k(   21) = (   0.2495844  -0.4328783  -0.4722126), wk =   0.0625000
        k(   22) = (   0.2495913  -0.4329448  -0.2360408), wk =   0.0625000
        k(   23) = (   0.2498663  -0.1441827   0.0000487), wk =   0.0625000
        k(   24) = (   0.2498732  -0.1442492   0.2362205), wk =   0.0625000
        k(   25) = (   0.2498524  -0.1440496  -0.4722949), wk =   0.0625000
        k(   26) = (   0.2498594  -0.1441161  -0.2361231), wk =   0.0625000
        k(   27) = (  -0.5002687  -0.2892920   0.0000671), wk =   0.0312500
        k(   28) = (  -0.5002618  -0.2893585   0.2362389), wk =   0.0625000
        k(   29) = (  -0.5002826  -0.2891589  -0.4722764), wk =   0.0312500
        k(   30) = (  -0.5000006  -0.0004633  -0.0000151), wk =   0.0625000
        k(   31) = (  -0.4999937  -0.0005298   0.2361567), wk =   0.0625000
        k(   32) = (  -0.5000145  -0.0003303  -0.4723587), wk =   0.0625000
        k(   33) = (  -0.5000076  -0.0003968  -0.2361869), wk =   0.0625000
        k(   34) = (  -0.5008048  -0.8669493   0.0002316), wk =   0.0312500
        k(   35) = (  -0.5007979  -0.8670158   0.2364034), wk =   0.0625000
        k(   36) = (  -0.5008187  -0.8668162  -0.4721119), wk =   0.0312500

                       cryst. coord.
        k(    1) = (   0.0000000   0.0000000   0.0000000), wk =   0.0312500
        k(    2) = (  -0.0000000   0.0000000   0.2500000), wk =   0.0625000
        k(    3) = (   0.0000000  -0.0000000  -0.5000000), wk =   0.0312500
        k(    4) = (   0.0000000   0.2500000   0.0000000), wk =   0.0625000
        k(    5) = (  -0.0000000   0.2500000   0.2500000), wk =   0.0625000
        k(    6) = (   0.0000000   0.2500000  -0.5000000), wk =   0.0625000
        k(    7) = (   0.0000000   0.2500000  -0.2500000), wk =   0.0625000
        k(    8) = (  -0.0000000  -0.5000000  -0.0000000), wk =   0.0312500
        k(    9) = (  -0.0000000  -0.5000000   0.2500000), wk =   0.0625000
        k(   10) = (   0.0000000  -0.5000000  -0.5000000), wk =   0.0312500
        k(   11) = (   0.2500000  -0.0000000   0.0000000), wk =   0.0625000
        k(   12) = (   0.2500000  -0.0000000   0.2500000), wk =   0.0625000
        k(   13) = (   0.2500000   0.0000000  -0.5000000), wk =   0.0625000
        k(   14) = (   0.2500000   0.0000000  -0.2500000), wk =   0.0625000
        k(   15) = (   0.2500000   0.2500000  -0.0000000), wk =   0.0625000
        k(   16) = (   0.2500000   0.2500000   0.2500000), wk =   0.0625000
        k(   17) = (   0.2500000   0.2500000  -0.5000000), wk =   0.0625000
        k(   18) = (   0.2500000   0.2500000  -0.2500000), wk =   0.0625000
        k(   19) = (   0.2500000  -0.5000000   0.0000000), wk =   0.0625000
        k(   20) = (   0.2500000  -0.5000000   0.2500000), wk =   0.0625000
        k(   21) = (   0.2500000  -0.5000000  -0.5000000), wk =   0.0625000
        k(   22) = (   0.2500000  -0.5000000  -0.2500000), wk =   0.0625000
        k(   23) = (   0.2500000  -0.2500000  -0.0000000), wk =   0.0625000
        k(   24) = (   0.2500000  -0.2500000   0.2500000), wk =   0.0625000
        k(   25) = (   0.2500000  -0.2500000  -0.5000000), wk =   0.0625000
        k(   26) = (   0.2500000  -0.2500000  -0.2500000), wk =   0.0625000
        k(   27) = (  -0.5000000   0.0000000  -0.0000000), wk =   0.0312500
        k(   28) = (  -0.5000000   0.0000000   0.2500000), wk =   0.0625000
        k(   29) = (  -0.5000000   0.0000000  -0.5000000), wk =   0.0312500
        k(   30) = (  -0.5000000   0.2500000   0.0000000), wk =   0.0625000
        k(   31) = (  -0.5000000   0.2500000   0.2500000), wk =   0.0625000
        k(   32) = (  -0.5000000   0.2500000  -0.5000000), wk =   0.0625000
        k(   33) = (  -0.5000000   0.2500000  -0.2500000), wk =   0.0625000
        k(   34) = (  -0.5000000  -0.5000000   0.0000000), wk =   0.0312500
        k(   35) = (  -0.5000000  -0.5000000   0.2500000), wk =   0.0625000
        k(   36) = (  -0.5000000  -0.5000000  -0.5000000), wk =   0.0312500

     Dense  grid:  1081841 G-vectors     FFT dimensions: ( 135, 135, 144)

     Smooth grid:   359777 G-vectors     FFT dimensions: (  96,  96, 100)

     Dynamical RAM for                 wfc:      21.01 MB

     Dynamical RAM for     wfc (w. buffer):     126.06 MB

     Dynamical RAM for           str. fact:       3.10 MB

     Dynamical RAM for           local pot:       0.00 MB

     Dynamical RAM for          nlocal pot:      48.37 MB

     Dynamical RAM for                qrad:      21.02 MB

     Dynamical RAM for          rho,v,vnew:       6.85 MB

     Dynamical RAM for               rhoin:       2.28 MB

     Dynamical RAM for            rho*nmix:      16.51 MB

     Dynamical RAM for           G-vectors:       4.04 MB

     Dynamical RAM for          h,s,v(r/c):      43.96 MB

     Dynamical RAM for          <psi|beta>:       8.43 MB

     Dynamical RAM for                 psi:      84.04 MB

     Dynamical RAM for                hpsi:      84.04 MB

     Dynamical RAM for                spsi:      84.04 MB

     Dynamical RAM for      wfcinit/wfcrot:      50.35 MB

     Dynamical RAM for           addusdens:      31.98 MB

     Estimated static dynamical RAM per process >     238.61 MB

     Estimated max dynamical RAM per process >     543.12 MB

     Estimated total dynamical RAM >      67.89 GB

     Check: negative core charge=   -0.000002

     Initial potential from superposition of free atoms

     starting charge  812.39409, renormalised to  816.00000
     Starting wfcs are  516 randomized atomic wfcs

     total cpu time spent up to now is       18.1 secs

     Self-consistent Calculation

     iteration #  1     ecut=    60.00 Ry     beta= 0.50
     Davidson diagonalization with overlap
     ethr =  1.00E-02,  avg # of iterations =  4.6

     total cpu time spent up to now is       88.7 secs

     total energy              =  -13727.74239670 Ry
     Harris-Foulkes estimate   =  -13741.51939353 Ry
     estimated scf accuracy    <      20.64805345 Ry

     iteration #  2     ecut=    60.00 Ry     beta= 0.50
     Davidson diagonalization with overlap
     ethr =  2.53E-03,  avg # of iterations =  3.2

     total cpu time spent up to now is      170.8 secs

     total energy              =  -13733.89441261 Ry
     Harris-Foulkes estimate   =  -13738.97069183 Ry
     estimated scf accuracy    <      11.65907206 Ry

     iteration #  3     ecut=    60.00 Ry     beta= 0.50
     Davidson diagonalization with overlap
     ethr =  1.43E-03,  avg # of iterations =  3.0

     total cpu time spent up to now is      236.7 secs

     total energy              =  -13735.98727091 Ry
     Harris-Foulkes estimate   =  -13736.07218972 Ry
     estimated scf accuracy    <       0.22650647 Ry

     iteration #  4     ecut=    60.00 Ry     beta= 0.50
     Davidson diagonalization with overlap
     ethr =  2.78E-05,  avg # of iterations =  5.1

     total cpu time spent up to now is      334.8 secs

     total energy              =  -13736.01162013 Ry
     Harris-Foulkes estimate   =  -13736.05318513 Ry
     estimated scf accuracy    <       0.12213635 Ry

     iteration #  5     ecut=    60.00 Ry     beta= 0.50
     Davidson diagonalization with overlap
     ethr =  1.50E-05,  avg # of iterations =  4.9

     total cpu time spent up to now is      414.7 secs

     total energy              =  -13736.02904881 Ry
     Harris-Foulkes estimate   =  -13736.02949950 Ry
     estimated scf accuracy    <       0.00277562 Ry

     iteration #  6     ecut=    60.00 Ry     beta= 0.50
     Davidson diagonalization with overlap
     ethr =  3.40E-07,  avg # of iterations =  5.6

     total cpu time spent up to now is      515.9 secs

     total energy              =  -13736.02946250 Ry
     Harris-Foulkes estimate   =  -13736.02965455 Ry
     estimated scf accuracy    <       0.00062979 Ry

     iteration #  7     ecut=    60.00 Ry     beta= 0.50
     Davidson diagonalization with overlap
     ethr =  7.72E-08,  avg # of iterations =  2.0

     total cpu time spent up to now is      565.7 secs

     total energy              =  -13736.02960621 Ry
     Harris-Foulkes estimate   =  -13736.02962455 Ry
     estimated scf accuracy    <       0.00012825 Ry

     iteration #  8     ecut=    60.00 Ry     beta= 0.50
     Davidson diagonalization with overlap
     ethr =  1.57E-08,  avg # of iterations =  2.0

     total cpu time spent up to now is      614.0 secs

     total energy              =  -13736.02963270 Ry
     Harris-Foulkes estimate   =  -13736.02962944 Ry
     estimated scf accuracy    <       0.00001299 Ry

     iteration #  9     ecut=    60.00 Ry     beta= 0.50
     Davidson diagonalization with overlap
     ethr =  1.59E-09,  avg # of iterations =  2.0

     total cpu time spent up to now is      664.8 secs

     total energy              =  -13736.02963471 Ry
     Harris-Foulkes estimate   =  -13736.02963483 Ry
     estimated scf accuracy    <       0.00000195 Ry

     iteration # 10     ecut=    60.00 Ry     beta= 0.50
     Davidson diagonalization with overlap
     ethr =  2.39E-10,  avg # of iterations =  2.0

     total cpu time spent up to now is      721.0 secs

     total energy              =  -13736.02963516 Ry
     Harris-Foulkes estimate   =  -13736.02963520 Ry
     estimated scf accuracy    <       0.00000047 Ry

     iteration # 11     ecut=    60.00 Ry     beta= 0.50
     Davidson diagonalization with overlap
     ethr =  5.80E-11,  avg # of iterations =  2.0

     total cpu time spent up to now is      770.2 secs

     total energy              =  -13736.02963525 Ry
     Harris-Foulkes estimate   =  -13736.02963525 Ry
     estimated scf accuracy    <       0.00000004 Ry

     iteration # 12     ecut=    60.00 Ry     beta= 0.50
     Davidson diagonalization with overlap
     ethr =  4.75E-12,  avg # of iterations =  2.0

     total cpu time spent up to now is      826.7 secs

     End of self-consistent calculation

          k = 0.0000 0.0000 0.0000 ( 44897 PWs)   bands (ev):

  -115.3318-115.3268-115.3253-115.3233-115.3213-115.3194-115.3163-115.3157
  -115.3134-115.3133-115.3070-115.3069-115.3042-115.3036-115.3029-115.3017
  -115.3005-115.3001-115.2991-115.2981-115.2981-115.2971-115.2968-115.2908
   -69.6921 -69.6889 -69.6873 -69.6857 -69.6853 -69.6835 -69.6833 -69.6828
   -69.6821 -69.6814 -69.6805 -69.6784 -69.6780 -69.6776 -69.6774 -69.6769
   -69.6756 -69.6748 -69.6747 -69.6737 -69.6733 -69.6721 -69.6713 -69.6695
   -69.6690 -69.6689 -69.6688 -69.6685 -69.6675 -69.6671 -69.6667 -69.6667
   -69.6658 -69.6653 -69.6652 -69.6642 -69.6635 -69.6629 -69.6629 -69.6613
   -69.6613 -69.6607 -69.6603 -69.6601 -69.6599 -69.6598 -69.6596 -69.6588
   -69.6582 -69.6576 -69.6576 -69.6570 -69.6568 -69.6561 -69.6557 -69.6553
   -69.6550 -69.6543 -69.6540 -69.6536 -69.6536 -69.6532 -69.6531 -69.6529
   -69.6527 -69.6515 -69.6513 -69.6505 -69.6499 -69.6493 -69.6460 -69.6432
   -64.7709 -64.7667 -64.7636 -64.7606 -64.7560 -64.7470 -64.7461 -64.7369
   -64.7327 -64.7321 -64.7288 -64.7281 -31.7663 -31.7595 -31.7578 -31.7574
   -31.7568 -31.7543 -31.7534 -31.7516 -31.7514 -31.7494 -31.7486 -31.7459
   -31.7455 -31.7426 -31.7403 -31.7391 -31.7372 -31.7349 -31.7333 -31.7320
   -31.7314 -31.7299 -31.7257 -31.7244 -31.7233 -31.7226 -31.7198 -31.7193
   -31.7187 -31.7179 -31.7166 -31.7165 -31.7154 -31.7115 -31.7079 -31.7060
   -10.0284  -9.6902  -9.6567  -9.6090  -9.5941  -9.5576  -9.5117  -9.4628
    -9.4108  -9.3949  -9.3818  -9.3534  -9.3384  -9.3223  -9.3059  -9.2719
    -9.2390  -9.2275  -9.2202  -9.1810  -9.1784  -9.1576  -9.1483  -9.1097
    -9.0797  -9.0740  -9.0682  -9.0421  -9.0308  -9.0197  -8.9932  -8.9865
    -8.9759  -8.9419  -8.9322  -8.8433   1.7631   1.7904   1.8032   1.8074
     1.8423   1.8472   1.8922   1.9164   1.9404   1.9518   1.9721   1.9829
     1.9879   2.0484   2.0548   2.0755   2.0951   2.1284   2.1467   2.1608
     2.1763   2.1975   2.2138   2.2273   2.2491   2.2559   2.2754   2.2824
     2.3073   2.3130   2.3271   2.3331   2.3513   2.3602   2.3731   2.3892
     2.3944   2.3954   2.4160   2.4276   2.4379   2.4398   2.4487   2.4624
     2.4661   2.4783   2.4877   2.4948   2.5044   2.5137   2.5192   2.5369
     2.5540   2.5643   2.5751   2.5899   2.6254   2.6428   2.6571   2.6779
     2.7020   2.7162   2.7260   2.7422   2.7662   2.7783   2.7874   2.8155
     2.8328   2.8498   2.8571   2.8883   2.9066   2.9210   2.9234   2.9567
     2.9714   2.9849   2.9954   3.0056   3.0162   3.0333   3.0690   3.0783
     3.0914   3.1003   3.1166   3.1433   3.1576   3.1580   3.1699   3.1958
     3.2090   3.2177   3.2334   3.2486   3.2629   3.2705   3.2864   3.3023
     3.3111   3.3250   3.3325   3.3378   3.3477   3.3592   3.3715   3.3721
     3.3756   3.3878   3.3995   3.4048   3.4341   3.4375   3.4504   3.4543
     3.4791   3.5049   3.5175   3.5591   3.5905   3.6698   3.7181   3.7390
     3.7601   3.8178   3.8327   3.8408   3.9105   3.9202   3.9469   3.9629
     4.0176   4.0220   4.0395   4.0757   4.1134   4.1561   4.2226   4.3085
     4.3139   4.3485   4.3738   4.3986   4.4276   4.5115   4.5209   4.5611
     4.5821   4.6198   4.6924   4.7264   4.7449   4.7962   4.8184   4.9135
     4.9566   4.9780   5.0162   5.0994   5.1292   5.2234   5.2506   5.2740
     5.3563   5.4053   5.5173   5.5853   5.6494   5.6555   5.6774   5.6873
     5.7450   5.8026   5.8259   5.8453   5.8748   5.8811   5.8912   5.9094
     5.9739   5.9930   6.0740   6.1045   6.1236   6.1340   6.1963   6.2054
     6.2568   6.2728   6.3048   6.3354   6.3659   6.3683   6.4063   6.4320
     6.4496   6.4608   6.4726   6.5003   6.5123   6.5163   6.5309   6.5401
     6.5822   6.5978   6.6079   6.6247   6.6873   6.7231   6.7706   6.7919
     6.8040   6.8384   6.8405   6.8777   6.8900   6.9459   6.9928   7.0186
     7.0844   7.1378   7.1466   7.1727   7.1922   7.4492   7.4660   7.5199
     9.0160  11.5286  11.5607  12.1572  12.2137  12.2728  12.3038  12.4235
    12.6409  13.0874  13.0948  13.1233  13.1674  13.1775  13.2441  13.2837
    13.3163  13.3521  13.4172  13.4805  13.6476  13.7352  15.1481  15.1570
    15.2323  15.2786  15.3253  15.3342  15.4031  15.4418  15.4705  15.4974
    15.5123  15.5369  15.5553  15.5759  15.6020  15.6211  15.6434  15.6793
    15.7398  15.7862  15.8302  15.9162  16.0058  16.0367  16.1333  16.1534
    16.1725  16.1876  16.3443  16.4790  16.5012  16.5143  16.5780  16.5972
    16.6047  16.6129  16.6197  16.6371  16.6519  16.8082  17.0535  17.2433
    17.2585  17.3944  17.5638  17.7259  17.9221  17.9291  17.9561  18.0504
    18.1787  18.3831  18.5391  18.5863  18.6507  18.7294  18.8049  18.8779
    18.9200  18.9847

     occupation numbers 
     1.0000   1.0000   1.0000   1.0000   1.0000   1.0000   1.0000   1.0000
     1.0000   1.0000   1.0000   1.0000   1.0000   1.0000   1.0000   1.0000
     1.0000   1.0000   1.0000   1.0000   1.0000   1.0000   1.0000   1.0000
     1.0000   1.0000   1.0000   1.0000   1.0000   1.0000   1.0000   1.0000
     1.0000   1.0000   1.0000   1.0000   1.0000   1.0000   1.0000   1.0000
     1.0000   1.0000   1.0000   1.0000   1.0000   1.0000   1.0000   1.0000
     1.0000   1.0000   1.0000   1.0000   1.0000   1.0000   1.0000   1.0000
     1.0000   1.0000   1.0000   1.0000   1.0000   1.0000   1.0000   1.0000
     1.0000   1.0000   1.0000   1.0000   1.0000   1.0000   1.0000   1.0000
     1.0000   1.0000   1.0000   1.0000   1.0000   1.0000   1.0000   1.0000
     1.0000   1.0000   1.0000   1.0000   1.0000   1.0000   1.0000   1.0000
     1.0000   1.0000   1.0000   1.0000   1.0000   1.0000   1.0000   1.0000
     1.0000   1.0000   1.0000   1.0000   1.0000   1.0000   1.0000   1.0000
     1.0000   1.0000   1.0000   1.0000   1.0000   1.0000   1.0000   1.0000
     1.0000   1.0000   1.0000   1.0000   1.0000   1.0000   1.0000   1.0000
     1.0000   1.0000   1.0000   1.0000   1.0000   1.0000   1.0000   1.0000
     1.0000   1.0000   1.0000   1.0000   1.0000   1.0000   1.0000   1.0000
     1.0000   1.0000   1.0000   1.0000   1.0000   1.0000   1.0000   1.0000
     1.0000   1.0000   1.0000   1.0000   1.0000   1.0000   1.0000   1.0000
     1.0000   1.0000   1.0000   1.0000   1.0000   1.0000   1.0000   1.0000
     1.0000   1.0000   1.0000   1.0000   1.0000   1.0000   1.0000   1.0000
     1.0000   1.0000   1.0000   1.0000   1.0000   1.0000   1.0000   1.0000
     1.0000   1.0000   1.0000   1.0000   1.0000   1.0000   1.0000   1.0000
     1.0000   1.0000   1.0000   1.0000   1.0000   1.0000   1.0000   1.0000
     1.0000   1.0000   1.0000   1.0000   1.0000   1.0000   1.0000   1.0000
     1.0000   1.0000   1.0000   1.0000   1.0000   1.0000   1.0000   1.0000
     1.0000   1.0000   1.0000   1.0000   1.0000   1.0000   1.0000   1.0000
     1.0000   1.0000   1.0000   1.0000   1.0000   1.0000   1.0000   1.0000
     1.0000   1.0000   1.0000   1.0000   1.0000   1.0000   1.0000   1.0000
     1.0000   1.0000   1.0000   1.0000   1.0000   1.0000   1.0000   1.0000
     1.0000   1.0000   1.0000   1.0000   1.0000   1.0000   1.0000   1.0000
     1.0000   1.0000   1.0000   1.0000   1.0000   1.0000   1.0000   1.0000
     1.0000   1.0000   1.0000   1.0000   1.0000   1.0000   1.0000   1.0000
     1.0000   1.0000   1.0000   1.0000   1.0000   1.0000   1.0000   1.0000
     1.0000   1.0000   1.0000   1.0000   1.0000   1.0000   1.0000   1.0000
     1.0000   1.0000   1.0000   1.0000   1.0000   1.0000   1.0000   1.0000
     1.0000   1.0000   1.0000   1.0000   1.0000   1.0000   1.0000   1.0000
     1.0000   1.0000   1.0000   1.0000   1.0000   1.0000   1.0000   1.0000
     1.0000   1.0000   1.0000   1.0000   1.0000   1.0000   1.0000   1.0000
     1.0000   1.0000   1.0000   1.0000   1.0000   1.0000   1.0000   1.0000
     1.0000   1.0000   1.0000   1.0000   1.0000   1.0000   1.0000   1.0000
     1.0000   1.0000   1.0000   1.0000   1.0000   1.0000   1.0000   1.0000
     1.0000   1.0000   1.0000   1.0000   1.0000   1.0000   1.0000   1.0000
     1.0000   1.0000   1.0000   1.0000   1.0000   1.0000   1.0000   1.0000
     1.0000   1.0000   1.0000   1.0000   1.0000   1.0000   1.0000   1.0000
     1.0000   1.0000   1.0000   1.0000   1.0000   1.0000   1.0000   1.0000
     1.0000   1.0000   1.0000   1.0000   1.0000   1.0000   1.0000   1.0000
     1.0000   1.0000   1.0000   1.0000   1.0000   1.0000   1.0000   1.0000
     1.0000   1.0000   1.0000   1.0000   1.0000   1.0000   1.0000   1.0000
     1.0000   1.0000   1.0000   1.0000   1.0000   1.0000   1.0000   1.0000
     1.0000   1.0000   1.0000   1.0000   1.0000   1.0000   1.0000   1.0000
     0.0000   0.0000   0.0000   0.0000   0.0000   0.0000   0.0000   0.0000
     0.0000   0.0000   0.0000   0.0000   0.0000   0.0000   0.0000   0.0000
     0.0000   0.0000   0.0000   0.0000   0.0000   0.0000   0.0000   0.0000
     0.0000   0.0000   0.0000   0.0000   0.0000   0.0000   0.0000   0.0000
     0.0000   0.0000   0.0000   0.0000   0.0000   0.0000   0.0000   0.0000
     0.0000   0.0000   0.0000   0.0000   0.0000   0.0000   0.0000   0.0000
     0.0000   0.0000   0.0000   0.0000   0.0000   0.0000   0.0000   0.0000
     0.0000   0.0000   0.0000   0.0000   0.0000   0.0000   0.0000   0.0000
     0.0000   0.0000   0.0000   0.0000   0.0000   0.0000   0.0000   0.0000
     0.0000   0.0000   0.0000   0.0000   0.0000   0.0000   0.0000   0.0000
     0.0000   0.0000

          k = 0.0000-0.0001 0.2362 ( 45015 PWs)   bands (ev):

  -115.3318-115.3268-115.3253-115.3233-115.3213-115.3194-115.3163-115.3157
  -115.3134-115.3133-115.3070-115.3069-115.3042-115.3036-115.3029-115.3017
  -115.3005-115.3001-115.2991-115.2981-115.2981-115.2971-115.2968-115.2908
   -69.6921 -69.6889 -69.6873 -69.6857 -69.6853 -69.6835 -69.6833 -69.6828
   -69.6821 -69.6814 -69.6805 -69.6784 -69.6780 -69.6776 -69.6774 -69.6769
   -69.6756 -69.6748 -69.6747 -69.6737 -69.6733 -69.6721 -69.6713 -69.6695
   -69.6690 -69.6689 -69.6688 -69.6685 -69.6675 -69.6671 -69.6667 -69.6667
   -69.6658 -69.6653 -69.6652 -69.6642 -69.6635 -69.6630 -69.6629 -69.6613
   -69.6613 -69.6607 -69.6603 -69.6601 -69.6599 -69.6598 -69.6596 -69.6588
   -69.6582 -69.6576 -69.6576 -69.6570 -69.6568 -69.6561 -69.6557 -69.6553
   -69.6550 -69.6543 -69.6540 -69.6536 -69.6536 -69.6532 -69.6531 -69.6529
   -69.6527 -69.6515 -69.6513 -69.6505 -69.6499 -69.6493 -69.6460 -69.6432
   -64.7709 -64.7667 -64.7636 -64.7606 -64.7560 -64.7470 -64.7461 -64.7369
   -64.7327 -64.7321 -64.7288 -64.7281 -31.7663 -31.7596 -31.7578 -31.7573
   -31.7568 -31.7544 -31.7534 -31.7516 -31.7514 -31.7494 -31.7486 -31.7459
   -31.7455 -31.7426 -31.7403 -31.7391 -31.7371 -31.7349 -31.7332 -31.7320
   -31.7315 -31.7299 -31.7257 -31.7244 -31.7232 -31.7227 -31.7198 -31.7193
   -31.7187 -31.7179 -31.7166 -31.7165 -31.7154 -31.7115 -31.7079 -31.7060
   -10.0039  -9.7965  -9.6122  -9.5858  -9.5662  -9.5410  -9.5005  -9.4595
    -9.4336  -9.4062  -9.3831  -9.3732  -9.3646  -9.3174  -9.2881  -9.2773
    -9.2612  -9.2407  -9.2146  -9.1892  -9.1598  -9.1405  -9.1185  -9.1023
    -9.0728  -9.0669  -9.0617  -9.0449  -9.0280  -9.0118  -8.9975  -8.9935
    -8.9798  -8.9536  -8.9457  -8.8466   1.7803   1.8069   1.8213   1.8343
     1.8532   1.8676   1.9041   1.9290   1.9520   1.9619   1.9750   1.9940
     2.0138   2.0482   2.0640   2.0852   2.0948   2.1466   2.1502   2.1660
     2.1812   2.1982   2.2155   2.2285   2.2347   2.2495   2.2640   2.2672
     2.2941   2.3096   2.3193   2.3358   2.3465   2.3530   2.3613   2.3812
     2.3897   2.4007   2.4079   2.4154   2.4312   2.4395   2.4517   2.4616
     2.4760   2.4834   2.4911   2.5015   2.5079   2.5135   2.5256   2.5393
     2.5493   2.5612   2.5816   2.5836   2.6065   2.6277   2.6523   2.6702
     2.6872   2.6962   2.7075   2.7155   2.7358   2.7466   2.7609   2.7988
     2.8020   2.8256   2.8432   2.8555   2.8827   2.8977   2.9148   2.9252
     2.9444   2.9575   2.9725   2.9788   3.0033   3.0079   3.0347   3.0546
     3.0739   3.0978   3.1109   3.1357   3.1457   3.1624   3.1649   3.1908
     3.2015   3.2127   3.2418   3.2553   3.2695   3.2846   3.2891   3.2989
     3.3101   3.3283   3.3406   3.3470   3.3543   3.3586   3.3736   3.3771
     3.3836   3.3949   3.4030   3.4172   3.4292   3.4402   3.4567   3.4655
     3.4799   3.4940   3.5077   3.5399   3.6480   3.6927   3.7356   3.7909
     3.8090   3.8526   3.8734   3.8993   3.9257   3.9600   3.9864   4.0168
     4.0256   4.0396   4.0711   4.0968   4.1273   4.1599   4.2394   4.3193
     4.3222   4.3498   4.3843   4.4412   4.4660   4.5071   4.5169   4.5899
     4.6027   4.6255   4.6536   4.7004   4.7362   4.7844   4.8316   4.8684
     4.9002   4.9616   5.1403   5.1839   5.2162   5.2500   5.2772   5.3193
     5.3767   5.4474   5.5135   5.5742   5.6194   5.6434   5.6741   5.7219
     5.7414   5.7570   5.7736   5.8028   5.8355   5.8576   5.8746   5.9002
     5.9130   5.9338   5.9528   5.9635   6.0072   6.0681   6.1273   6.1329
     6.1580   6.1984   6.2255   6.2679   6.2975   6.3490   6.3746   6.4340
     6.4554   6.5090   6.5167   6.5329   6.5597   6.5838   6.6100   6.6217
     6.6517   6.6676   6.7039   6.7242   6.7523   6.7788   6.7944   6.8008
     6.8345   6.8714   6.8788   6.9092   6.9218   6.9408   6.9725   6.9950
     7.0505   7.0622   7.0912   7.2191   7.2481   7.2773   7.4513   7.5024
     9.3408  10.7898  12.1351  12.1930  12.2349  12.2910  12.3450  12.4496
    12.6407  12.6675  12.7392  12.8428  12.8800  12.9146  13.0608  13.4412
    13.7551  13.7659  13.8589  13.8930  13.9332  14.0455  14.8951  14.9267
    14.9961  15.0159  15.0505  15.1420  15.2362  15.2464  15.4238  15.4276
    15.5256  15.5382  15.5847  15.6024  15.6352  15.6703  15.7448  15.8080
    15.8436  15.8992  15.9509  15.9787  16.0229  16.0791  16.1086  16.1800
    16.2543  16.2918  16.4396  16.4755  16.4926  16.5176  16.5544  16.5749
    16.6140  16.6834  16.7219  16.7572  16.8023  16.8720  16.9682  17.1777
    17.2984  17.4105  17.4372  17.6347  17.7240  17.8167  17.8978  17.9914
    18.1424  18.2847  18.3546  18.4629  18.5552  18.6615  18.7172  18.8515
    18.9368  18.9670

     occupation numbers 
     1.0000   1.0000   1.0000   1.0000   1.0000   1.0000   1.0000   1.0000
     1.0000   1.0000   1.0000   1.0000   1.0000   1.0000   1.0000   1.0000
     1.0000   1.0000   1.0000   1.0000   1.0000   1.0000   1.0000   1.0000
     1.0000   1.0000   1.0000   1.0000   1.0000   1.0000   1.0000   1.0000
     1.0000   1.0000   1.0000   1.0000   1.0000   1.0000   1.0000   1.0000
     1.0000   1.0000   1.0000   1.0000   1.0000   1.0000   1.0000   1.0000
     1.0000   1.0000   1.0000   1.0000   1.0000   1.0000   1.0000   1.0000
     1.0000   1.0000   1.0000   1.0000   1.0000   1.0000   1.0000   1.0000
     1.0000   1.0000   1.0000   1.0000   1.0000   1.0000   1.0000   1.0000
     1.0000   1.0000   1.0000   1.0000   1.0000   1.0000   1.0000   1.0000
     1.0000   1.0000   1.0000   1.0000   1.0000   1.0000   1.0000   1.0000
     1.0000   1.0000   1.0000   1.0000   1.0000   1.0000   1.0000   1.0000
     1.0000   1.0000   1.0000   1.0000   1.0000   1.0000   1.0000   1.0000
     1.0000   1.0000   1.0000   1.0000   1.0000   1.0000   1.0000   1.0000
     1.0000   1.0000   1.0000   1.0000   1.0000   1.0000   1.0000   1.0000
     1.0000   1.0000   1.0000   1.0000   1.0000   1.0000   1.0000   1.0000
     1.0000   1.0000   1.0000   1.0000   1.0000   1.0000   1.0000   1.0000
     1.0000   1.0000   1.0000   1.0000   1.0000   1.0000   1.0000   1.0000
     1.0000   1.0000   1.0000   1.0000   1.0000   1.0000   1.0000   1.0000
     1.0000   1.0000   1.0000   1.0000   1.0000   1.0000   1.0000   1.0000
     1.0000   1.0000   1.0000   1.0000   1.0000   1.0000   1.0000   1.0000
     1.0000   1.0000   1.0000   1.0000   1.0000   1.0000   1.0000   1.0000
     1.0000   1.0000   1.0000   1.0000   1.0000   1.0000   1.0000   1.0000
     1.0000   1.0000   1.0000   1.0000   1.0000   1.0000   1.0000   1.0000
     1.0000   1.0000   1.0000   1.0000   1.0000   1.0000   1.0000   1.0000
     1.0000   1.0000   1.0000   1.0000   1.0000   1.0000   1.0000   1.0000
     1.0000   1.0000   1.0000   1.0000   1.0000   1.0000   1.0000   1.0000
     1.0000   1.0000   1.0000   1.0000   1.0000   1.0000   1.0000   1.0000
     1.0000   1.0000   1.0000   1.0000   1.0000   1.0000   1.0000   1.0000
     1.0000   1.0000   1.0000   1.0000   1.0000   1.0000   1.0000   1.0000
     1.0000   1.0000   1.0000   1.0000   1.0000   1.0000   1.0000   1.0000
     1.0000   1.0000   1.0000   1.0000   1.0000   1.0000   1.0000   1.0000
     1.0000   1.0000   1.0000   1.0000   1.0000   1.0000   1.0000   1.0000
     1.0000   1.0000   1.0000   1.0000   1.0000   1.0000   1.0000   1.0000
     1.0000   1.0000   1.0000   1.0000   1.0000   1.0000   1.0000   1.0000
     1.0000   1.0000   1.0000   1.0000   1.0000   1.0000   1.0000   1.0000
     1.0000   1.0000   1.0000   1.0000   1.0000   1.0000   1.0000   1.0000
     1.0000   1.0000   1.0000   1.0000   1.0000   1.0000   1.0000   1.0000
     1.0000   1.0000   1.0000   1.0000   1.0000   1.0000   1.0000   1.0000
     1.0000   1.0000   1.0000   1.0000   1.0000   1.0000   1.0000   1.0000
     1.0000   1.0000   1.0000   1.0000   1.0000   1.0000   1.0000   1.0000
     1.0000   1.0000   1.0000   1.0000   1.0000   1.0000   1.0000   1.0000
     1.0000   1.0000   1.0000   1.0000   1.0000   1.0000   1.0000   1.0000
     1.0000   1.0000   1.0000   1.0000   1.0000   1.0000   1.0000   1.0000
     1.0000   1.0000   1.0000   1.0000   1.0000   1.0000   1.0000   1.0000
     1.0000   1.0000   1.0000   1.0000   1.0000   1.0000   1.0000   1.0000
     1.0000   1.0000   1.0000   1.0000   1.0000   1.0000   1.0000   1.0000
     1.0000   1.0000   1.0000   1.0000   1.0000   1.0000   1.0000   1.0000
     1.0000   1.0000   1.0000   1.0000   1.0000   1.0000   1.0000   1.0000
     1.0000   1.0000   1.0000   1.0000   1.0000   1.0000   1.0000   1.0000
     1.0000   1.0000   1.0000   1.0000   1.0000   1.0000   1.0000   1.0000
     0.0000   0.0000   0.0000   0.0000   0.0000   0.0000   0.0000   0.0000
     0.0000   0.0000   0.0000   0.0000   0.0000   0.0000   0.0000   0.0000
     0.0000   0.0000   0.0000   0.0000   0.0000   0.0000   0.0000   0.0000
     0.0000   0.0000   0.0000   0.0000   0.0000   0.0000   0.0000   0.0000
     0.0000   0.0000   0.0000   0.0000   0.0000   0.0000   0.0000   0.0000
     0.0000   0.0000   0.0000   0.0000   0.0000   0.0000   0.0000   0.0000
     0.0000   0.0000   0.0000   0.0000   0.0000   0.0000   0.0000   0.0000
     0.0000   0.0000   0.0000   0.0000   0.0000   0.0000   0.0000   0.0000
     0.0000   0.0000   0.0000   0.0000   0.0000   0.0000   0.0000   0.0000
     0.0000   0.0000   0.0000   0.0000   0.0000   0.0000   0.0000   0.0000
     0.0000   0.0000

          k =-0.0000 0.0001-0.4723 ( 44948 PWs)   bands (ev):

  -115.3318-115.3268-115.3253-115.3233-115.3213-115.3194-115.3163-115.3157
  -115.3134-115.3133-115.3070-115.3069-115.3042-115.3036-115.3029-115.3017
  -115.3005-115.3001-115.2991-115.2981-115.2981-115.2971-115.2968-115.2908
   -69.6921 -69.6889 -69.6873 -69.6857 -69.6853 -69.6835 -69.6833 -69.6828
   -69.6821 -69.6814 -69.6805 -69.6784 -69.6780 -69.6776 -69.6774 -69.6769
   -69.6756 -69.6748 -69.6747 -69.6737 -69.6733 -69.6721 -69.6713 -69.6695
   -69.6690 -69.6689 -69.6688 -69.6685 -69.6675 -69.6671 -69.6667 -69.6667
   -69.6658 -69.6653 -69.6652 -69.6642 -69.6635 -69.6630 -69.6628 -69.6613
   -69.6613 -69.6607 -69.6603 -69.6601 -69.6599 -69.6598 -69.6596 -69.6588
   -69.6582 -69.6576 -69.6576 -69.6570 -69.6568 -69.6561 -69.6557 -69.6553
   -69.6550 -69.6543 -69.6540 -69.6536 -69.6536 -69.6532 -69.6531 -69.6529
   -69.6527 -69.6515 -69.6513 -69.6505 -69.6499 -69.6493 -69.6460 -69.6432
   -64.7709 -64.7667 -64.7636 -64.7606 -64.7560 -64.7470 -64.7461 -64.7369
   -64.7327 -64.7321 -64.7288 -64.7281 -31.7663 -31.7596 -31.7578 -31.7572
   -31.7567 -31.7545 -31.7534 -31.7516 -31.7514 -31.7494 -31.7486 -31.7460
   -31.7455 -31.7426 -31.7403 -31.7391 -31.7370 -31.7349 -31.7332 -31.7320
   -31.7315 -31.7299 -31.7257 -31.7244 -31.7232 -31.7227 -31.7198 -31.7193
   -31.7187 -31.7179 -31.7166 -31.7165 -31.7154 -31.7115 -31.7079 -31.7060
    -9.9589  -9.8782  -9.5917  -9.5682  -9.5499  -9.5391  -9.4854  -9.4622
    -9.4448  -9.4266  -9.3967  -9.3602  -9.3453  -9.3292  -9.3185  -9.3017
    -9.2629  -9.2437  -9.1940  -9.1877  -9.1445  -9.1363  -9.1136  -9.0826
    -9.0736  -9.0626  -9.0421  -9.0402  -9.0306  -9.0043  -8.9956  -8.9888
    -8.9818  -8.9747  -8.9724  -8.8499   1.7977   1.8208   1.8436   1.8635
     1.8731   1.8923   1.9136   1.9231   1.9487   1.9652   2.0089   2.0318
     2.0414   2.0550   2.0869   2.0954   2.1116   2.1457   2.1586   2.1648
     2.1690   2.1824   2.1958   2.2222   2.2320   2.2383   2.2408   2.2596
     2.2835   2.2931   2.3122   2.3248   2.3470   2.3526   2.3544   2.3738
     2.3860   2.3998   2.4103   2.4155   2.4356   2.4404   2.4477   2.4616
     2.4764   2.4867   2.5011   2.5085   2.5135   2.5283   2.5416   2.5513
     2.5594   2.5662   2.5742   2.5833   2.5931   2.6127   2.6218   2.6293
     2.6396   2.6530   2.6694   2.6842   2.7061   2.7192   2.7354   2.7791
     2.7894   2.7981   2.8173   2.8484   2.8654   2.8809   2.9005   2.9093
     2.9252   2.9336   2.9515   2.9759   2.9888   3.0027   3.0226   3.0502
     3.0665   3.0720   3.1077   3.1102   3.1413   3.1578   3.1640   3.1824
     3.2058   3.2181   3.2395   3.2633   3.2718   3.2914   3.2983   3.3094
     3.3139   3.3323   3.3432   3.3506   3.3569   3.3613   3.3765   3.3804
     3.3883   3.4018   3.4139   3.4184   3.4293   3.4408   3.4538   3.4668
     3.4733   3.4883   3.5165   3.5352   3.6840   3.7493   3.7653   3.7916
     3.8549   3.8898   3.9286   3.9335   3.9574   3.9722   3.9804   4.0442
     4.0651   4.0780   4.1220   4.1453   4.1603   4.2059   4.2252   4.2333
     4.2782   4.3193   4.3407   4.3908   4.4049   4.5217   4.5619   4.5681
     4.6119   4.7012   4.7290   4.8114   4.8478   4.8671   4.8855   4.9017
     4.9372   4.9622   5.1903   5.2406   5.2535   5.2763   5.3344   5.3473
     5.3653   5.3989   5.4706   5.4795   5.5062   5.5251   5.5536   5.5665
     5.6051   5.6402   5.7202   5.8440   5.8465   5.8766   5.8909   5.9191
     5.9646   5.9947   5.9992   6.0268   6.0395   6.0471   6.0732   6.0974
     6.0983   6.1358   6.1472   6.1676   6.1711   6.1859   6.4379   6.4601
     6.4755   6.5049   6.5281   6.5749   6.5999   6.6047   6.6467   6.6732
     6.6984   6.7082   6.7473   6.7666   6.7952   6.8211   6.8351   6.8367
     6.8667   6.8866   6.9040   6.9331   6.9510   6.9635   6.9723   6.9858
     6.9904   7.0128   7.0232   7.0595   7.2969   7.3288   7.4304   7.4786
     9.9579  10.0793  12.2420  12.2640  12.3148  12.3568  12.3742  12.4269
    12.4613  12.5907  12.6257  12.6677  12.7981  12.8208  12.9751  13.2394
    14.3035  14.3223  14.3625  14.3704  14.4140  14.4334  14.4483  14.5136
    14.5436  14.5773  14.6028  14.6256  15.2932  15.2991  15.3501  15.3504
    15.5322  15.5444  15.5930  15.6100  15.6704  15.6990  15.7415  15.8090
    15.8649  15.9288  15.9780  16.0181  16.1582  16.1871  16.2105  16.3115
    16.3400  16.3848  16.3977  16.4722  16.4748  16.4979  16.5443  16.5583
    16.5800  16.5936  16.8284  16.8911  16.9671  17.0267  17.0908  17.1318
    17.1843  17.2779  17.3764  17.5444  17.6397  17.7959  17.8642  17.9273
    18.0336  18.1316  18.2490  18.3560  18.4467  18.5864  18.6682  18.7619
    18.9278  19.0118

     occupation numbers 
     1.0000   1.0000   1.0000   1.0000   1.0000   1.0000   1.0000   1.0000
     1.0000   1.0000   1.0000   1.0000   1.0000   1.0000   1.0000   1.0000
     1.0000   1.0000   1.0000   1.0000   1.0000   1.0000   1.0000   1.0000
     1.0000   1.0000   1.0000   1.0000   1.0000   1.0000   1.0000   1.0000
     1.0000   1.0000   1.0000   1.0000   1.0000   1.0000   1.0000   1.0000
     1.0000   1.0000   1.0000   1.0000   1.0000   1.0000   1.0000   1.0000
     1.0000   1.0000   1.0000   1.0000   1.0000   1.0000   1.0000   1.0000
     1.0000   1.0000   1.0000   1.0000   1.0000   1.0000   1.0000   1.0000
     1.0000   1.0000   1.0000   1.0000   1.0000   1.0000   1.0000   1.0000
     1.0000   1.0000   1.0000   1.0000   1.0000   1.0000   1.0000   1.0000
     1.0000   1.0000   1.0000   1.0000   1.0000   1.0000   1.0000   1.0000
     1.0000   1.0000   1.0000   1.0000   1.0000   1.0000   1.0000   1.0000
     1.0000   1.0000   1.0000   1.0000   1.0000   1.0000   1.0000   1.0000
     1.0000   1.0000   1.0000   1.0000   1.0000   1.0000   1.0000   1.0000
     1.0000   1.0000   1.0000   1.0000   1.0000   1.0000   1.0000   1.0000
     1.0000   1.0000   1.0000   1.0000   1.0000   1.0000   1.0000   1.0000
     1.0000   1.0000   1.0000   1.0000   1.0000   1.0000   1.0000   1.0000
     1.0000   1.0000   1.0000   1.0000   1.0000   1.0000   1.0000   1.0000
     1.0000   1.0000   1.0000   1.0000   1.0000   1.0000   1.0000   1.0000
     1.0000   1.0000   1.0000   1.0000   1.0000   1.0000   1.0000   1.0000
     1.0000   1.0000   1.0000   1.0000   1.0000   1.0000   1.0000   1.0000
     1.0000   1.0000   1.0000   1.0000   1.0000   1.0000   1.0000   1.0000
     1.0000   1.0000   1.0000   1.0000   1.0000   1.0000   1.0000   1.0000
     1.0000   1.0000   1.0000   1.0000   1.0000   1.0000   1.0000   1.0000
     1.0000   1.0000   1.0000   1.0000   1.0000   1.0000   1.0000   1.0000
     1.0000   1.0000   1.0000   1.0000   1.0000   1.0000   1.0000   1.0000
     1.0000   1.0000   1.0000   1.0000   1.0000   1.0000   1.0000   1.0000
     1.0000   1.0000   1.0000   1.0000   1.0000   1.0000   1.0000   1.0000
     1.0000   1.0000   1.0000   1.0000   1.0000   1.0000   1.0000   1.0000
     1.0000   1.0000   1.0000   1.0000   1.0000   1.0000   1.0000   1.0000
     1.0000   1.0000   1.0000   1.0000   1.0000   1.0000   1.0000   1.0000
     1.0000   1.0000   1.0000   1.0000   1.0000   1.0000   1.0000   1.0000
     1.0000   1.0000   1.0000   1.0000   1.0000   1.0000   1.0000   1.0000
     1.0000   1.0000   1.0000   1.0000   1.0000   1.0000   1.0000   1.0000
     1.0000   1.0000   1.0000   1.0000   1.0000   1.0000   1.0000   1.0000
     1.0000   1.0000   1.0000   1.0000   1.0000   1.0000   1.0000   1.0000
     1.0000   1.0000   1.0000   1.0000   1.0000   1.0000   1.0000   1.0000
     1.0000   1.0000   1.0000   1.0000   1.0000   1.0000   1.0000   1.0000
     1.0000   1.0000   1.0000   1.0000   1.0000   1.0000   1.0000   1.0000
     1.0000   1.0000   1.0000   1.0000   1.0000   1.0000   1.0000   1.0000
     1.0000   1.0000   1.0000   1.0000   1.0000   1.0000   1.0000   1.0000
     1.0000   1.0000   1.0000   1.0000   1.0000   1.0000   1.0000   1.0000
     1.0000   1.0000   1.0000   1.0000   1.0000   1.0000   1.0000   1.0000
     1.0000   1.0000   1.0000   1.0000   1.0000   1.0000   1.0000   1.0000
     1.0000   1.0000   1.0000   1.0000   1.0000   1.0000   1.0000   1.0000
     1.0000   1.0000   1.0000   1.0000   1.0000   1.0000   1.0000   1.0000
     1.0000   1.0000   1.0000   1.0000   1.0000   1.0000   1.0000   1.0000
     1.0000   1.0000   1.0000   1.0000   1.0000   1.0000   1.0000   1.0000
     1.0000   1.0000   1.0000   1.0000   1.0000   1.0000   1.0000   1.0000
     1.0000   1.0000   1.0000   1.0000   1.0000   1.0000   1.0000   1.0000
     1.0000   1.0000   1.0000   1.0000   1.0000   1.0000   1.0000   1.0000
     0.0000   0.0000   0.0000   0.0000   0.0000   0.0000   0.0000   0.0000
     0.0000   0.0000   0.0000   0.0000   0.0000   0.0000   0.0000   0.0000
     0.0000   0.0000   0.0000   0.0000   0.0000   0.0000   0.0000   0.0000
     0.0000   0.0000   0.0000   0.0000   0.0000   0.0000   0.0000   0.0000
     0.0000   0.0000   0.0000   0.0000   0.0000   0.0000   0.0000   0.0000
     0.0000   0.0000   0.0000   0.0000   0.0000   0.0000   0.0000   0.0000
     0.0000   0.0000   0.0000   0.0000   0.0000   0.0000   0.0000   0.0000
     0.0000   0.0000   0.0000   0.0000   0.0000   0.0000   0.0000   0.0000
     0.0000   0.0000   0.0000   0.0000   0.0000   0.0000   0.0000   0.0000
     0.0000   0.0000   0.0000   0.0000   0.0000   0.0000   0.0000   0.0000
     0.0000   0.0000

          k = 0.0003 0.2888-0.0001 ( 44936 PWs)   bands (ev):

  -115.3318-115.3268-115.3253-115.3233-115.3213-115.3194-115.3163-115.3157
  -115.3134-115.3133-115.3070-115.3069-115.3042-115.3036-115.3029-115.3017
  -115.3005-115.3001-115.2991-115.2981-115.2981-115.2971-115.2968-115.2908
   -69.6921 -69.6889 -69.6873 -69.6857 -69.6853 -69.6835 -69.6833 -69.6828
   -69.6821 -69.6814 -69.6805 -69.6784 -69.6780 -69.6776 -69.6774 -69.6769
   -69.6756 -69.6748 -69.6747 -69.6737 -69.6733 -69.6721 -69.6713 -69.6695
   -69.6690 -69.6689 -69.6688 -69.6685 -69.6675 -69.6671 -69.6667 -69.6667
   -69.6658 -69.6653 -69.6652 -69.6642 -69.6635 -69.6629 -69.6629 -69.6613
   -69.6613 -69.6607 -69.6603 -69.6601 -69.6599 -69.6598 -69.6596 -69.6588
   -69.6582 -69.6576 -69.6576 -69.6570 -69.6568 -69.6561 -69.6557 -69.6553
   -69.6550 -69.6543 -69.6540 -69.6536 -69.6536 -69.6532 -69.6531 -69.6529
   -69.6527 -69.6515 -69.6513 -69.6505 -69.6499 -69.6493 -69.6460 -69.6432
   -64.7709 -64.7667 -64.7636 -64.7606 -64.7560 -64.7470 -64.7461 -64.7369
   -64.7327 -64.7321 -64.7288 -64.7281 -31.7663 -31.7595 -31.7578 -31.7574
   -31.7568 -31.7543 -31.7534 -31.7516 -31.7514 -31.7494 -31.7486 -31.7459
   -31.7455 -31.7426 -31.7404 -31.7391 -31.7372 -31.7359 -31.7332 -31.7320
   -31.7314 -31.7298 -31.7248 -31.7244 -31.7233 -31.7226 -31.7198 -31.7193
   -31.7186 -31.7178 -31.7165 -31.7159 -31.7154 -31.7116 -31.7080 -31.7068
    -9.9957  -9.7236  -9.6461  -9.6261  -9.6215  -9.5926  -9.4917  -9.4472
    -9.4077  -9.3953  -9.3694  -9.3479  -9.3422  -9.3301  -9.3078  -9.2808
    -9.2416  -9.2163  -9.2036  -9.1798  -9.1631  -9.1459  -9.1328  -9.1238
    -9.0871  -9.0759  -9.0639  -9.0428  -9.0375  -9.0287  -8.9950  -8.9866
    -8.9765  -8.9381  -8.9301  -8.8428   1.7748   1.7986   1.8086   1.8222
     1.8523   1.8622   1.9094   1.9347   1.9517   1.9716   1.9856   2.0093
     2.0138   2.0471   2.0715   2.0770   2.1025   2.1327   2.1443   2.1659
     2.1788   2.1859   2.2206   2.2276   2.2457   2.2596   2.2612   2.2766
     2.2907   2.2968   2.3180   2.3251   2.3373   2.3542   2.3662   2.3819
     2.3898   2.4053   2.4134   2.4216   2.4307   2.4448   2.4514   2.4596
     2.4689   2.4766   2.4814   2.4898   2.4974   2.5117   2.5184   2.5285
     2.5529   2.5653   2.5732   2.5881   2.6047   2.6286   2.6361   2.6587
     2.6818   2.6844   2.6979   2.7217   2.7370   2.7483   2.7623   2.7806
     2.8063   2.8211   2.8466   2.8657   2.8858   2.8960   2.9217   2.9416
     2.9616   2.9660   2.9916   3.0042   3.0169   3.0376   3.0486   3.0602
     3.0826   3.1000   3.1116   3.1252   3.1371   3.1589   3.1753   3.1894
     3.2150   3.2275   3.2522   3.2562   3.2733   3.2832   3.2919   3.3003
     3.3164   3.3222   3.3311   3.3437   3.3594   3.3654   3.3755   3.3835
     3.3884   3.4057   3.4088   3.4180   3.4303   3.4398   3.4542   3.4664
     3.4822   3.5020   3.5271   3.5514   3.5810   3.6253   3.6861   3.6913
     3.7263   3.7532   3.7839   3.8266   3.8515   3.8850   3.9267   3.9863
     4.0107   4.0520   4.0991   4.1235   4.1360   4.1610   4.2209   4.2556
     4.3104   4.3458   4.3887   4.4485   4.5220   4.5747   4.6062   4.6300
     4.7009   4.7595   4.7942   4.8178   4.8789   4.9313   4.9773   5.0120
     5.0538   5.0758   5.1161   5.1567   5.1969   5.2211   5.2496   5.2647
     5.3232   5.3520   5.4263   5.4692   5.5073   5.5431   5.6055   5.6907
     5.7620   5.8019   5.8659   5.9026   5.9148   5.9483   5.9735   5.9923
     6.0114   6.0341   6.0769   6.0936   6.1312   6.1471   6.1732   6.1955
     6.2074   6.2331   6.2443   6.2664   6.3318   6.3621   6.3694   6.3870
     6.4190   6.4285   6.4620   6.4689   6.5121   6.5245   6.5462   6.5586
     6.5652   6.5978   6.6022   6.6184   6.6345   6.6459   6.6605   6.6910
     6.7324   6.7697   6.8549   6.8904   6.9296   6.9513   6.9738   6.9987
     7.0304   7.0424   7.0771   7.0993   7.1613   7.1703   7.4228   7.4975
     9.4669  11.3206  11.7507  11.7659  11.9338  12.0494  12.7339  12.7760
    12.8833  12.9782  13.1084  13.1545  13.1887  13.2607  13.3735  13.4836
    13.5221  13.5683  13.6134  13.6940  13.7901  13.9471  14.6894  14.7880
    14.8753  14.8987  14.9458  14.9691  15.0786  15.1698  15.2009  15.2397
    15.3030  15.3493  15.4023  15.4816  15.5492  15.6093  15.6750  15.7190
    15.8224  15.8704  15.9109  15.9884  16.0664  16.2192  16.2798  16.3036
    16.3731  16.4384  16.4564  16.5130  16.5419  16.6269  16.6767  16.7801
    16.8211  16.8588  16.9155  16.9806  17.0410  17.0691  17.1511  17.2833
    17.4494  17.5529  17.6253  17.8186  17.8929  17.9885  18.0439  18.1353
    18.2150  18.3617  18.4940  18.5751  18.6170  18.6673  18.7072  18.7707
    18.8509  18.8981

     occupation numbers 
     1.0000   1.0000   1.0000   1.0000   1.0000   1.0000   1.0000   1.0000
     1.0000   1.0000   1.0000   1.0000   1.0000   1.0000   1.0000   1.0000
     1.0000   1.0000   1.0000   1.0000   1.0000   1.0000   1.0000   1.0000
     1.0000   1.0000   1.0000   1.0000   1.0000   1.0000   1.0000   1.0000
     1.0000   1.0000   1.0000   1.0000   1.0000   1.0000   1.0000   1.0000
     1.0000   1.0000   1.0000   1.0000   1.0000   1.0000   1.0000   1.0000
     1.0000   1.0000   1.0000   1.0000   1.0000   1.0000   1.0000   1.0000
     1.0000   1.0000   1.0000   1.0000   1.0000   1.0000   1.0000   1.0000
     1.0000   1.0000   1.0000   1.0000   1.0000   1.0000   1.0000   1.0000
     1.0000   1.0000   1.0000   1.0000   1.0000   1.0000   1.0000   1.0000
     1.0000   1.0000   1.0000   1.0000   1.0000   1.0000   1.0000   1.0000
     1.0000   1.0000   1.0000   1.0000   1.0000   1.0000   1.0000   1.0000
     1.0000   1.0000   1.0000   1.0000   1.0000   1.0000   1.0000   1.0000
     1.0000   1.0000   1.0000   1.0000   1.0000   1.0000   1.0000   1.0000
     1.0000   1.0000   1.0000   1.0000   1.0000   1.0000   1.0000   1.0000
     1.0000   1.0000   1.0000   1.0000   1.0000   1.0000   1.0000   1.0000
     1.0000   1.0000   1.0000   1.0000   1.0000   1.0000   1.0000   1.0000
     1.0000   1.0000   1.0000   1.0000   1.0000   1.0000   1.0000   1.0000
     1.0000   1.0000   1.0000   1.0000   1.0000   1.0000   1.0000   1.0000
     1.0000   1.0000   1.0000   1.0000   1.0000   1.0000   1.0000   1.0000
     1.0000   1.0000   1.0000   1.0000   1.0000   1.0000   1.0000   1.0000
     1.0000   1.0000   1.0000   1.0000   1.0000   1.0000   1.0000   1.0000
     1.0000   1.0000   1.0000   1.0000   1.0000   1.0000   1.0000   1.0000
     1.0000   1.0000   1.0000   1.0000   1.0000   1.0000   1.0000   1.0000
     1.0000   1.0000   1.0000   1.0000   1.0000   1.0000   1.0000   1.0000
     1.0000   1.0000   1.0000   1.0000   1.0000   1.0000   1.0000   1.0000
     1.0000   1.0000   1.0000   1.0000   1.0000   1.0000   1.0000   1.0000
     1.0000   1.0000   1.0000   1.0000   1.0000   1.0000   1.0000   1.0000
     1.0000   1.0000   1.0000   1.0000   1.0000   1.0000   1.0000   1.0000
     1.0000   1.0000   1.0000   1.0000   1.0000   1.0000   1.0000   1.0000
     1.0000   1.0000   1.0000   1.0000   1.0000   1.0000   1.0000   1.0000
     1.0000   1.0000   1.0000   1.0000   1.0000   1.0000   1.0000   1.0000
     1.0000   1.0000   1.0000   1.0000   1.0000   1.0000   1.0000   1.0000
     1.0000   1.0000   1.0000   1.0000   1.0000   1.0000   1.0000   1.0000
     1.0000   1.0000   1.0000   1.0000   1.0000   1.0000   1.0000   1.0000
     1.0000   1.0000   1.0000   1.0000   1.0000   1.0000   1.0000   1.0000
     1.0000   1.0000   1.0000   1.0000   1.0000   1.0000   1.0000   1.0000
     1.0000   1.0000   1.0000   1.0000   1.0000   1.0000   1.0000   1.0000
     1.0000   1.0000   1.0000   1.0000   1.0000   1.0000   1.0000   1.0000
     1.0000   1.0000   1.0000   1.0000   1.0000   1.0000   1.0000   1.0000
     1.0000   1.0000   1.0000   1.0000   1.0000   1.0000   1.0000   1.0000
     1.0000   1.0000   1.0000   1.0000   1.0000   1.0000   1.0000   1.0000
     1.0000   1.0000   1.0000   1.0000   1.0000   1.0000   1.0000   1.0000
     1.0000   1.0000   1.0000   1.0000   1.0000   1.0000   1.0000   1.0000
     1.0000   1.0000   1.0000   1.0000   1.0000   1.0000   1.0000   1.0000
     1.0000   1.0000   1.0000   1.0000   1.0000   1.0000   1.0000   1.0000
     1.0000   1.0000   1.0000   1.0000   1.0000   1.0000   1.0000   1.0000
     1.0000   1.0000   1.0000   1.0000   1.0000   1.0000   1.0000   1.0000
     1.0000   1.0000   1.0000   1.0000   1.0000   1.0000   1.0000   1.0000
     1.0000   1.0000   1.0000   1.0000   1.0000   1.0000   1.0000   1.0000
     1.0000   1.0000   1.0000   1.0000   1.0000   1.0000   1.0000   1.0000
     0.0000   0.0000   0.0000   0.0000   0.0000   0.0000   0.0000   0.0000
     0.0000   0.0000   0.0000   0.0000   0.0000   0.0000   0.0000   0.0000
     0.0000   0.0000   0.0000   0.0000   0.0000   0.0000   0.0000   0.0000
     0.0000   0.0000   0.0000   0.0000   0.0000   0.0000   0.0000   0.0000
     0.0000   0.0000   0.0000   0.0000   0.0000   0.0000   0.0000   0.0000
     0.0000   0.0000   0.0000   0.0000   0.0000   0.0000   0.0000   0.0000
     0.0000   0.0000   0.0000   0.0000   0.0000   0.0000   0.0000   0.0000
     0.0000   0.0000   0.0000   0.0000   0.0000   0.0000   0.0000   0.0000
     0.0000   0.0000   0.0000   0.0000   0.0000   0.0000   0.0000   0.0000
     0.0000   0.0000   0.0000   0.0000   0.0000   0.0000   0.0000   0.0000
     0.0000   0.0000

          k = 0.0003 0.2888 0.2361 ( 44970 PWs)   bands (ev):

  -115.3318-115.3268-115.3253-115.3233-115.3213-115.3194-115.3163-115.3157
  -115.3134-115.3133-115.3070-115.3069-115.3042-115.3036-115.3029-115.3017
  -115.3005-115.3001-115.2991-115.2981-115.2981-115.2971-115.2968-115.2908
   -69.6921 -69.6889 -69.6873 -69.6857 -69.6853 -69.6835 -69.6833 -69.6828
   -69.6821 -69.6814 -69.6805 -69.6784 -69.6780 -69.6776 -69.6774 -69.6769
   -69.6756 -69.6748 -69.6747 -69.6737 -69.6733 -69.6721 -69.6713 -69.6695
   -69.6690 -69.6689 -69.6688 -69.6685 -69.6675 -69.6671 -69.6667 -69.6667
   -69.6658 -69.6653 -69.6652 -69.6642 -69.6635 -69.6630 -69.6629 -69.6613
   -69.6613 -69.6607 -69.6603 -69.6601 -69.6599 -69.6598 -69.6596 -69.6588
   -69.6582 -69.6576 -69.6576 -69.6570 -69.6568 -69.6561 -69.6557 -69.6553
   -69.6550 -69.6543 -69.6540 -69.6536 -69.6536 -69.6532 -69.6531 -69.6529
   -69.6527 -69.6515 -69.6513 -69.6505 -69.6499 -69.6493 -69.6460 -69.6432
   -64.7709 -64.7667 -64.7636 -64.7606 -64.7560 -64.7470 -64.7461 -64.7369
   -64.7327 -64.7321 -64.7288 -64.7281 -31.7663 -31.7596 -31.7578 -31.7573
   -31.7568 -31.7544 -31.7534 -31.7516 -31.7514 -31.7494 -31.7486 -31.7459
   -31.7455 -31.7426 -31.7403 -31.7391 -31.7371 -31.7359 -31.7332 -31.7320
   -31.7315 -31.7298 -31.7248 -31.7244 -31.7232 -31.7227 -31.7198 -31.7193
   -31.7186 -31.7178 -31.7165 -31.7159 -31.7154 -31.7116 -31.7080 -31.7068
    -9.9720  -9.7806  -9.6572  -9.6228  -9.5996  -9.5505  -9.5076  -9.4629
    -9.4371  -9.4268  -9.3668  -9.3309  -9.3189  -9.3097  -9.2844  -9.2631
    -9.2522  -9.2371  -9.2060  -9.1879  -9.1648  -9.1509  -9.1269  -9.1169
    -9.0793  -9.0678  -9.0628  -9.0444  -9.0252  -9.0184  -9.0015  -8.9901
    -8.9789  -8.9482  -8.9415  -8.8456   1.7959   1.8184   1.8284   1.8447
     1.8746   1.8838   1.9221   1.9527   1.9669   1.9772   1.9820   2.0089
     2.0322   2.0548   2.0741   2.0911   2.1159   2.1346   2.1553   2.1692
     2.1851   2.1938   2.2122   2.2239   2.2391   2.2483   2.2548   2.2657
     2.2821   2.2944   2.3098   2.3264   2.3391   2.3487   2.3613   2.3717
     2.3879   2.3910   2.4045   2.4146   2.4197   2.4415   2.4468   2.4514
     2.4590   2.4653   2.4829   2.4926   2.5054   2.5084   2.5323   2.5394
     2.5560   2.5655   2.5771   2.5838   2.5997   2.6085   2.6293   2.6472
     2.6528   2.6627   2.6764   2.6949   2.7220   2.7296   2.7427   2.7602
     2.7807   2.7992   2.8058   2.8458   2.8630   2.8819   2.8929   2.9168
     2.9269   2.9522   2.9599   2.9887   3.0030   3.0163   3.0394   3.0491
     3.0583   3.0790   3.0973   3.1219   3.1486   3.1723   3.1844   3.1911
     3.2153   3.2324   3.2499   3.2646   3.2686   3.2973   3.3010   3.3093
     3.3203   3.3309   3.3378   3.3486   3.3534   3.3645   3.3738   3.3751
     3.3917   3.3993   3.4088   3.4170   3.4268   3.4368   3.4575   3.4725
     3.4935   3.5002   3.5274   3.5407   3.6126   3.6416   3.6789   3.7334
     3.7817   3.8163   3.8423   3.8719   3.9189   3.9242   3.9717   3.9828
     4.0104   4.0791   4.1200   4.1344   4.1512   4.1847   4.2473   4.2642
     4.3127   4.3597   4.4064   4.4620   4.5239   4.5764   4.6208   4.6463
     4.6930   4.7175   4.7613   4.8085   4.8519   4.8999   4.9185   4.9904
     5.0475   5.0947   5.1467   5.1838   5.2037   5.2674   5.3415   5.3761
     5.4168   5.4633   5.4971   5.5180   5.5570   5.5904   5.6315   5.6546
     5.6670   5.7717   5.7863   5.8339   5.8429   5.8606   5.8934   5.9076
     5.9470   5.9510   5.9814   6.0044   6.0692   6.0845   6.1022   6.1555
     6.1621   6.2006   6.2297   6.2455   6.2857   6.3194   6.3614   6.3973
     6.4065   6.4338   6.4488   6.4894   6.5138   6.5482   6.5727   6.5914
     6.6025   6.6351   6.6479   6.6763   6.7016   6.7272   6.7445   6.7645
     6.8120   6.8320   6.8522   6.8786   6.9130   6.9410   6.9583   6.9785
     6.9945   7.0193   7.0441   7.0694   7.2102   7.2410   7.3812   7.4775
     9.7080  10.9920  11.4559  11.9785  12.0670  12.2055  12.4119  12.6007
    12.6691  12.8670  13.0483  13.1586  13.2488  13.2821  13.3866  13.5688
    13.6795  13.8065  13.8524  14.0052  14.0718  14.1335  14.6232  14.6823
    14.7503  14.8469  14.8676  14.9661  15.0067  15.0438  15.0632  15.0985
    15.1514  15.2139  15.2364  15.2928  15.5564  15.7169  15.7572  15.8977
    15.9226  15.9933  16.0581  16.0911  16.1131  16.1806  16.2377  16.3028
    16.3312  16.3923  16.4826  16.5124  16.5846  16.6527  16.6988  16.7813
    16.8530  16.8633  16.9094  16.9698  17.0653  17.1342  17.2007  17.3103
    17.4809  17.5280  17.5493  17.7183  17.7833  17.8760  17.9983  18.0906
    18.1732  18.2914  18.3685  18.4342  18.5159  18.6121  18.7290  18.8036
    18.8946  18.9686

     occupation numbers 
     1.0000   1.0000   1.0000   1.0000   1.0000   1.0000   1.0000   1.0000
     1.0000   1.0000   1.0000   1.0000   1.0000   1.0000   1.0000   1.0000
     1.0000   1.0000   1.0000   1.0000   1.0000   1.0000   1.0000   1.0000
     1.0000   1.0000   1.0000   1.0000   1.0000   1.0000   1.0000   1.0000
     1.0000   1.0000   1.0000   1.0000   1.0000   1.0000   1.0000   1.0000
     1.0000   1.0000   1.0000   1.0000   1.0000   1.0000   1.0000   1.0000
     1.0000   1.0000   1.0000   1.0000   1.0000   1.0000   1.0000   1.0000
     1.0000   1.0000   1.0000   1.0000   1.0000   1.0000   1.0000   1.0000
     1.0000   1.0000   1.0000   1.0000   1.0000   1.0000   1.0000   1.0000
     1.0000   1.0000   1.0000   1.0000   1.0000   1.0000   1.0000   1.0000
     1.0000   1.0000   1.0000   1.0000   1.0000   1.0000   1.0000   1.0000
     1.0000   1.0000   1.0000   1.0000   1.0000   1.0000   1.0000   1.0000
     1.0000   1.0000   1.0000   1.0000   1.0000   1.0000   1.0000   1.0000
     1.0000   1.0000   1.0000   1.0000   1.0000   1.0000   1.0000   1.0000
     1.0000   1.0000   1.0000   1.0000   1.0000   1.0000   1.0000   1.0000
     1.0000   1.0000   1.0000   1.0000   1.0000   1.0000   1.0000   1.0000
     1.0000   1.0000   1.0000   1.0000   1.0000   1.0000   1.0000   1.0000
     1.0000   1.0000   1.0000   1.0000   1.0000   1.0000   1.0000   1.0000
     1.0000   1.0000   1.0000   1.0000   1.0000   1.0000   1.0000   1.0000
     1.0000   1.0000   1.0000   1.0000   1.0000   1.0000   1.0000   1.0000
     1.0000   1.0000   1.0000   1.0000   1.0000   1.0000   1.0000   1.0000
     1.0000   1.0000   1.0000   1.0000   1.0000   1.0000   1.0000   1.0000
     1.0000   1.0000   1.0000   1.0000   1.0000   1.0000   1.0000   1.0000
     1.0000   1.0000   1.0000   1.0000   1.0000   1.0000   1.0000   1.0000
     1.0000   1.0000   1.0000   1.0000   1.0000   1.0000   1.0000   1.0000
     1.0000   1.0000   1.0000   1.0000   1.0000   1.0000   1.0000   1.0000
     1.0000   1.0000   1.0000   1.0000   1.0000   1.0000   1.0000   1.0000
     1.0000   1.0000   1.0000   1.0000   1.0000   1.0000   1.0000   1.0000
     1.0000   1.0000   1.0000   1.0000   1.0000   1.0000   1.0000   1.0000
     1.0000   1.0000   1.0000   1.0000   1.0000   1.0000   1.0000   1.0000
     1.0000   1.0000   1.0000   1.0000   1.0000   1.0000   1.0000   1.0000
     1.0000   1.0000   1.0000   1.0000   1.0000   1.0000   1.0000   1.0000
     1.0000   1.0000   1.0000   1.0000   1.0000   1.0000   1.0000   1.0000
     1.0000   1.0000   1.0000   1.0000   1.0000   1.0000   1.0000   1.0000
     1.0000   1.0000   1.0000   1.0000   1.0000   1.0000   1.0000   1.0000
     1.0000   1.0000   1.0000   1.0000   1.0000   1.0000   1.0000   1.0000
     1.0000   1.0000   1.0000   1.0000   1.0000   1.0000   1.0000   1.0000
     1.0000   1.0000   1.0000   1.0000   1.0000   1.0000   1.0000   1.0000
     1.0000   1.0000   1.0000   1.0000   1.0000   1.0000   1.0000   1.0000
     1.0000   1.0000   1.0000   1.0000   1.0000   1.0000   1.0000   1.0000
     1.0000   1.0000   1.0000   1.0000   1.0000   1.0000   1.0000   1.0000
     1.0000   1.0000   1.0000   1.0000   1.0000   1.0000   1.0000   1.0000
     1.0000   1.0000   1.0000   1.0000   1.0000   1.0000   1.0000   1.0000
     1.0000   1.0000   1.0000   1.0000   1.0000   1.0000   1.0000   1.0000
     1.0000   1.0000   1.0000   1.0000   1.0000   1.0000   1.0000   1.0000
     1.0000   1.0000   1.0000   1.0000   1.0000   1.0000   1.0000   1.0000
     1.0000   1.0000   1.0000   1.0000   1.0000   1.0000   1.0000   1.0000
     1.0000   1.0000   1.0000   1.0000   1.0000   1.0000   1.0000   1.0000
     1.0000   1.0000   1.0000   1.0000   1.0000   1.0000   1.0000   1.0000
     1.0000   1.0000   1.0000   1.0000   1.0000   1.0000   1.0000   1.0000
     1.0000   1.0000   1.0000   1.0000   1.0000   1.0000   1.0000   1.0000
     0.0000   0.0000   0.0000   0.0000   0.0000   0.0000   0.0000   0.0000
     0.0000   0.0000   0.0000   0.0000   0.0000   0.0000   0.0000   0.0000
     0.0000   0.0000   0.0000   0.0000   0.0000   0.0000   0.0000   0.0000
     0.0000   0.0000   0.0000   0.0000   0.0000   0.0000   0.0000   0.0000
     0.0000   0.0000   0.0000   0.0000   0.0000   0.0000   0.0000   0.0000
     0.0000   0.0000   0.0000   0.0000   0.0000   0.0000   0.0000   0.0000
     0.0000   0.0000   0.0000   0.0000   0.0000   0.0000   0.0000   0.0000
     0.0000   0.0000   0.0000   0.0000   0.0000   0.0000   0.0000   0.0000
     0.0000   0.0000   0.0000   0.0000   0.0000   0.0000   0.0000   0.0000
     0.0000   0.0000   0.0000   0.0000   0.0000   0.0000   0.0000   0.0000
     0.0000   0.0000

          k = 0.0003 0.2890-0.4724 ( 45001 PWs)   bands (ev):

  -115.3318-115.3268-115.3253-115.3233-115.3213-115.3194-115.3163-115.3157
  -115.3134-115.3133-115.3070-115.3069-115.3042-115.3036-115.3029-115.3017
  -115.3005-115.3001-115.2991-115.2981-115.2981-115.2971-115.2968-115.2908
   -69.6921 -69.6889 -69.6873 -69.6857 -69.6853 -69.6835 -69.6833 -69.6828
   -69.6821 -69.6814 -69.6805 -69.6784 -69.6780 -69.6776 -69.6774 -69.6769
   -69.6756 -69.6748 -69.6747 -69.6737 -69.6733 -69.6721 -69.6713 -69.6695
   -69.6690 -69.6689 -69.6688 -69.6685 -69.6675 -69.6671 -69.6667 -69.6667
   -69.6658 -69.6653 -69.6652 -69.6642 -69.6635 -69.6630 -69.6628 -69.6613
   -69.6613 -69.6607 -69.6603 -69.6601 -69.6599 -69.6598 -69.6596 -69.6588
   -69.6582 -69.6576 -69.6576 -69.6570 -69.6568 -69.6561 -69.6557 -69.6553
   -69.6550 -69.6543 -69.6540 -69.6536 -69.6536 -69.6532 -69.6531 -69.6529
   -69.6527 -69.6515 -69.6513 -69.6505 -69.6499 -69.6493 -69.6460 -69.6432
   -64.7709 -64.7667 -64.7636 -64.7606 -64.7560 -64.7470 -64.7461 -64.7369
   -64.7327 -64.7321 -64.7288 -64.7281 -31.7663 -31.7596 -31.7578 -31.7572
   -31.7567 -31.7545 -31.7534 -31.7516 -31.7514 -31.7494 -31.7486 -31.7460
   -31.7455 -31.7426 -31.7403 -31.7391 -31.7370 -31.7359 -31.7332 -31.7320
   -31.7315 -31.7298 -31.7248 -31.7244 -31.7232 -31.7227 -31.7198 -31.7193
   -31.7186 -31.7178 -31.7165 -31.7159 -31.7154 -31.7116 -31.7080 -31.7068
    -9.9311  -9.8468  -9.6382  -9.6086  -9.6000  -9.5742  -9.5060  -9.4753
    -9.4361  -9.4142  -9.3709  -9.3313  -9.3195  -9.3003  -9.2830  -9.2658
    -9.2571  -9.2303  -9.2057  -9.1890  -9.1519  -9.1493  -9.1255  -9.0979
    -9.0890  -9.0738  -9.0635  -9.0426  -9.0271  -8.9985  -8.9898  -8.9867
    -8.9800  -8.9686  -8.9613  -8.8484   1.8164   1.8364   1.8573   1.8721
     1.8935   1.9108   1.9325   1.9499   1.9722   1.9846   2.0228   2.0387
     2.0418   2.0599   2.0879   2.1089   2.1132   2.1425   2.1540   2.1662
     2.1718   2.1839   2.2060   2.2152   2.2249   2.2396   2.2483   2.2641
     2.2703   2.2954   2.3035   2.3231   2.3369   2.3433   2.3481   2.3626
     2.3814   2.3960   2.4031   2.4105   2.4214   2.4320   2.4412   2.4515
     2.4550   2.4804   2.4880   2.5012   2.5062   2.5147   2.5309   2.5383
     2.5457   2.5540   2.5644   2.5724   2.5870   2.6077   2.6186   2.6300
     2.6352   2.6458   2.6502   2.6635   2.6797   2.6963   2.7199   2.7325
     2.7507   2.7695   2.7866   2.8192   2.8461   2.8499   2.8792   2.8989
     2.9084   2.9299   2.9590   2.9705   2.9985   3.0132   3.0341   3.0377
     3.0635   3.0781   3.1000   3.1191   3.1416   3.1556   3.1796   3.2090
     3.2296   3.2438   3.2545   3.2615   3.2846   3.2944   3.3008   3.3077
     3.3171   3.3279   3.3378   3.3494   3.3539   3.3677   3.3735   3.3883
     3.3924   3.3994   3.4086   3.4197   3.4331   3.4419   3.4603   3.4679
     3.4879   3.4931   3.5146   3.5604   3.5922   3.6671   3.7471   3.8080
     3.8201   3.8505   3.8820   3.8958   3.9517   3.9592   3.9893   4.0031
     4.0446   4.0952   4.1024   4.1378   4.1643   4.2168   4.2550   4.2759
     4.3335   4.3624   4.4177   4.4662   4.5069   4.5555   4.5867   4.6288
     4.6642   4.6960   4.7349   4.8193   4.8808   4.9403   4.9613   5.0282
     5.1326   5.1560   5.2350   5.2713   5.2978   5.3227   5.3633   5.3910
     5.4164   5.4757   5.5020   5.5230   5.5539   5.5864   5.6050   5.6398
     5.6696   5.6842   5.7210   5.7422   5.7635   5.7903   5.8087   5.8251
     5.8487   5.8907   5.9200   5.9384   5.9920   6.0104   6.0476   6.0884
     6.1871   6.2053   6.2364   6.2621   6.2987   6.3277   6.3679   6.4180
     6.4369   6.4554   6.4760   6.4933   6.5220   6.5506   6.5729   6.5946
     6.6377   6.6549   6.6716   6.6889   6.7195   6.7328   6.7672   6.7777
     6.8277   6.8299   6.8684   6.8877   6.9238   6.9458   6.9644   6.9751
     6.9819   7.0415   7.0558   7.0614   7.2571   7.2880   7.3323   7.4522
    10.2260  10.3461  11.6757  11.7589  12.1117  12.2435  12.2600  12.3601
    12.8268  12.8676  13.0178  13.0859  13.1513  13.2760  13.3211  13.4601
    14.1607  14.2044  14.3357  14.3603  14.4111  14.4324  14.4579  14.5035
    14.5501  14.5874  14.6237  14.6474  14.7394  14.8717  14.9006  14.9789
    15.1570  15.1743  15.1896  15.2213  15.7610  15.7918  15.8555  15.8858
    15.9708  16.0465  16.1128  16.1637  16.2048  16.2378  16.2957  16.3055
    16.3397  16.3691  16.4111  16.4638  16.5318  16.5688  16.6586  16.7027
    16.8019  16.9262  17.0187  17.1010  17.1642  17.2286  17.2976  17.3362
    17.3727  17.4707  17.5373  17.7087  17.7377  17.8059  17.8930  18.0312
    18.1432  18.2285  18.2941  18.3602  18.3984  18.5320  18.6663  18.7396
    18.8977  19.0087

     occupation numbers 
     1.0000   1.0000   1.0000   1.0000   1.0000   1.0000   1.0000   1.0000
     1.0000   1.0000   1.0000   1.0000   1.0000   1.0000   1.0000   1.0000
     1.0000   1.0000   1.0000   1.0000   1.0000   1.0000   1.0000   1.0000
     1.0000   1.0000   1.0000   1.0000   1.0000   1.0000   1.0000   1.0000
     1.0000   1.0000   1.0000   1.0000   1.0000   1.0000   1.0000   1.0000
[...]
     2.7588   2.7865   2.8029   2.8281   2.8529   2.8851   2.8980   2.9096
     2.9358   2.9476   2.9598   2.9746   2.9840   3.0086   3.0243   3.0532
     3.0775   3.0884   3.1058   3.1302   3.1398   3.1528   3.1833   3.2044
     3.2122   3.2300   3.2470   3.2635   3.2762   3.2961   3.3030   3.3233
     3.3304   3.3464   3.3521   3.3553   3.3629   3.3764   3.3814   3.3925
     3.4080   3.4208   3.4278   3.4389   3.4458   3.4574   3.4624   3.4717
     3.4814   3.4967   3.5110   3.5275   3.5965   3.6351   3.6866   3.7020
     3.7491   3.7897   3.8038   3.8448   3.8727   3.9023   3.9425   3.9521
     4.0045   4.0387   4.0800   4.1040   4.1444   4.2054   4.2540   4.3038
     4.3604   4.4018   4.4092   4.4672   4.5851   4.6088   4.7009   4.7373
     4.8361   4.8890   4.9224   4.9819   5.0073   5.0624   5.0811   5.0901
     5.1202   5.1573   5.1908   5.2058   5.2386   5.2592   5.2723   5.3187
     5.3356   5.3475   5.4216   5.4635   5.5308   5.5748   5.6172   5.6704
     5.7181   5.7584   5.7830   5.8088   5.8507   5.8736   5.9002   5.9334
     5.9554   5.9978   6.0263   6.0560   6.0637   6.1028   6.1208   6.1411
     6.1794   6.2047   6.2399   6.2569   6.2874   6.3158   6.3712   6.3808
     6.3865   6.3886   6.4193   6.4393   6.4716   6.4930   6.5058   6.5246
     6.5523   6.5794   6.6050   6.6193   6.6346   6.6552   6.6921   6.7059
     6.7256   6.7428   6.7754   6.8074   6.8585   6.8857   6.9177   6.9629
     7.0049   7.0173   7.0316   7.1007   7.2196   7.2575   7.3064   7.3376
    10.4567  10.5500  11.4774  11.5855  11.9463  12.0358  12.5681  12.6117
    13.0028  13.0111  13.3666  13.5776  13.6428  13.6904  13.7617  13.7931
    13.8316  13.8754  13.9232  13.9646  14.0492  14.1026  14.1548  14.3673
    14.4107  14.4455  14.4802  14.5272  14.5667  14.6142  15.0503  15.1070
    15.1346  15.1702  15.2041  15.2700  15.4515  15.7199  15.7567  15.8384
    15.8965  16.0660  16.1049  16.1227  16.1661  16.2140  16.2244  16.3073
    16.3461  16.3755  16.4334  16.5646  16.6625  16.7154  16.8502  16.9010
    17.0464  17.0939  17.2177  17.2918  17.3949  17.4688  17.5051  17.5428
    17.6191  17.6285  17.7237  17.7963  17.9092  18.0540  18.0937  18.1680
    18.3390  18.3794  18.4196  18.4425  18.5279  18.6252  18.6486  18.7034
    18.8130  18.8777

     occupation numbers 
     1.0000   1.0000   1.0000   1.0000   1.0000   1.0000   1.0000   1.0000
     1.0000   1.0000   1.0000   1.0000   1.0000   1.0000   1.0000   1.0000
     1.0000   1.0000   1.0000   1.0000   1.0000   1.0000   1.0000   1.0000
     1.0000   1.0000   1.0000   1.0000   1.0000   1.0000   1.0000   1.0000
     1.0000   1.0000   1.0000   1.0000   1.0000   1.0000   1.0000   1.0000
     1.0000   1.0000   1.0000   1.0000   1.0000   1.0000   1.0000   1.0000
     1.0000   1.0000   1.0000   1.0000   1.0000   1.0000   1.0000   1.0000
     1.0000   1.0000   1.0000   1.0000   1.0000   1.0000   1.0000   1.0000
     1.0000   1.0000   1.0000   1.0000   1.0000   1.0000   1.0000   1.0000
     1.0000   1.0000   1.0000   1.0000   1.0000   1.0000   1.0000   1.0000
     1.0000   1.0000   1.0000   1.0000   1.0000   1.0000   1.0000   1.0000
     1.0000   1.0000   1.0000   1.0000   1.0000   1.0000   1.0000   1.0000
     1.0000   1.0000   1.0000   1.0000   1.0000   1.0000   1.0000   1.0000
     1.0000   1.0000   1.0000   1.0000   1.0000   1.0000   1.0000   1.0000
     1.0000   1.0000   1.0000   1.0000   1.0000   1.0000   1.0000   1.0000
     1.0000   1.0000   1.0000   1.0000   1.0000   1.0000   1.0000   1.0000
     1.0000   1.0000   1.0000   1.0000   1.0000   1.0000   1.0000   1.0000
     1.0000   1.0000   1.0000   1.0000   1.0000   1.0000   1.0000   1.0000
     1.0000   1.0000   1.0000   1.0000   1.0000   1.0000   1.0000   1.0000
     1.0000   1.0000   1.0000   1.0000   1.0000   1.0000   1.0000   1.0000
     1.0000   1.0000   1.0000   1.0000   1.0000   1.0000   1.0000   1.0000
     1.0000   1.0000   1.0000   1.0000   1.0000   1.0000   1.0000   1.0000
     1.0000   1.0000   1.0000   1.0000   1.0000   1.0000   1.0000   1.0000
     1.0000   1.0000   1.0000   1.0000   1.0000   1.0000   1.0000   1.0000
     1.0000   1.0000   1.0000   1.0000   1.0000   1.0000   1.0000   1.0000
     1.0000   1.0000   1.0000   1.0000   1.0000   1.0000   1.0000   1.0000
     1.0000   1.0000   1.0000   1.0000   1.0000   1.0000   1.0000   1.0000
     1.0000   1.0000   1.0000   1.0000   1.0000   1.0000   1.0000   1.0000
     1.0000   1.0000   1.0000   1.0000   1.0000   1.0000   1.0000   1.0000
     1.0000   1.0000   1.0000   1.0000   1.0000   1.0000   1.0000   1.0000
     1.0000   1.0000   1.0000   1.0000   1.0000   1.0000   1.0000   1.0000
     1.0000   1.0000   1.0000   1.0000   1.0000   1.0000   1.0000   1.0000
     1.0000   1.0000   1.0000   1.0000   1.0000   1.0000   1.0000   1.0000
     1.0000   1.0000   1.0000   1.0000   1.0000   1.0000   1.0000   1.0000
     1.0000   1.0000   1.0000   1.0000   1.0000   1.0000   1.0000   1.0000
     1.0000   1.0000   1.0000   1.0000   1.0000   1.0000   1.0000   1.0000
     1.0000   1.0000   1.0000   1.0000   1.0000   1.0000   1.0000   1.0000
     1.0000   1.0000   1.0000   1.0000   1.0000   1.0000   1.0000   1.0000
     1.0000   1.0000   1.0000   1.0000   1.0000   1.0000   1.0000   1.0000
     1.0000   1.0000   1.0000   1.0000   1.0000   1.0000   1.0000   1.0000
     1.0000   1.0000   1.0000   1.0000   1.0000   1.0000   1.0000   1.0000
     1.0000   1.0000   1.0000   1.0000   1.0000   1.0000   1.0000   1.0000
     1.0000   1.0000   1.0000   1.0000   1.0000   1.0000   1.0000   1.0000
     1.0000   1.0000   1.0000   1.0000   1.0000   1.0000   1.0000   1.0000
     1.0000   1.0000   1.0000   1.0000   1.0000   1.0000   1.0000   1.0000
     1.0000   1.0000   1.0000   1.0000   1.0000   1.0000   1.0000   1.0000
     1.0000   1.0000   1.0000   1.0000   1.0000   1.0000   1.0000   1.0000
     1.0000   1.0000   1.0000   1.0000   1.0000   1.0000   1.0000   1.0000
     1.0000   1.0000   1.0000   1.0000   1.0000   1.0000   1.0000   1.0000
     1.0000   1.0000   1.0000   1.0000   1.0000   1.0000   1.0000   1.0000
     1.0000   1.0000   1.0000   1.0000   1.0000   1.0000   1.0000   1.0000
     0.0000   0.0000   0.0000   0.0000   0.0000   0.0000   0.0000   0.0000
     0.0000   0.0000   0.0000   0.0000   0.0000   0.0000   0.0000   0.0000
     0.0000   0.0000   0.0000   0.0000   0.0000   0.0000   0.0000   0.0000
     0.0000   0.0000   0.0000   0.0000   0.0000   0.0000   0.0000   0.0000
     0.0000   0.0000   0.0000   0.0000   0.0000   0.0000   0.0000   0.0000
     0.0000   0.0000   0.0000   0.0000   0.0000   0.0000   0.0000   0.0000
     0.0000   0.0000   0.0000   0.0000   0.0000   0.0000   0.0000   0.0000
     0.0000   0.0000   0.0000   0.0000   0.0000   0.0000   0.0000   0.0000
     0.0000   0.0000   0.0000   0.0000   0.0000   0.0000   0.0000   0.0000
     0.0000   0.0000   0.0000   0.0000   0.0000   0.0000   0.0000   0.0000
     0.0000   0.0000

          k =-0.5008-0.8668-0.4721 ( 44982 PWs)   bands (ev):

  -115.3318-115.3268-115.3253-115.3233-115.3213-115.3194-115.3163-115.3157
  -115.3134-115.3133-115.3070-115.3069-115.3042-115.3036-115.3029-115.3017
  -115.3005-115.3001-115.2991-115.2981-115.2981-115.2971-115.2968-115.2908
   -69.6921 -69.6889 -69.6873 -69.6857 -69.6853 -69.6835 -69.6833 -69.6828
   -69.6821 -69.6814 -69.6805 -69.6784 -69.6780 -69.6776 -69.6774 -69.6769
   -69.6756 -69.6748 -69.6747 -69.6737 -69.6733 -69.6721 -69.6713 -69.6695
   -69.6690 -69.6689 -69.6688 -69.6685 -69.6675 -69.6671 -69.6667 -69.6667
   -69.6658 -69.6653 -69.6652 -69.6642 -69.6635 -69.6630 -69.6628 -69.6613
   -69.6613 -69.6607 -69.6603 -69.6601 -69.6599 -69.6598 -69.6596 -69.6588
   -69.6582 -69.6576 -69.6576 -69.6570 -69.6568 -69.6561 -69.6557 -69.6553
   -69.6550 -69.6543 -69.6540 -69.6536 -69.6535 -69.6533 -69.6531 -69.6529
   -69.6527 -69.6515 -69.6513 -69.6505 -69.6499 -69.6493 -69.6460 -69.6432
   -64.7709 -64.7667 -64.7636 -64.7606 -64.7560 -64.7470 -64.7461 -64.7369
   -64.7327 -64.7321 -64.7288 -64.7281 -31.7663 -31.7595 -31.7578 -31.7572
   -31.7567 -31.7545 -31.7534 -31.7516 -31.7514 -31.7495 -31.7486 -31.7459
   -31.7455 -31.7427 -31.7403 -31.7391 -31.7370 -31.7366 -31.7332 -31.7321
   -31.7315 -31.7298 -31.7247 -31.7240 -31.7231 -31.7226 -31.7196 -31.7195
   -31.7184 -31.7177 -31.7166 -31.7154 -31.7145 -31.7120 -31.7083 -31.7075
    -9.8549  -9.8050  -9.7730  -9.7158  -9.5774  -9.5407  -9.5124  -9.4741
    -9.4191  -9.3924  -9.3613  -9.3318  -9.3146  -9.2808  -9.2631  -9.2462
    -9.2419  -9.2357  -9.2230  -9.1952  -9.1717  -9.1537  -9.1186  -9.1052
    -9.0884  -9.0690  -9.0580  -9.0405  -9.0208  -9.0091  -9.0054  -8.9936
    -8.9852  -8.9659  -8.9510  -8.8416   1.8608   1.8951   1.9081   1.9201
     1.9334   1.9494   1.9613   1.9749   1.9904   1.9963   2.0129   2.0341
     2.0398   2.0683   2.0801   2.0845   2.0964   2.1098   2.1203   2.1319
     2.1518   2.1739   2.1786   2.1955   2.2216   2.2433   2.2640   2.2734
     2.2829   2.3012   2.3167   2.3192   2.3348   2.3415   2.3553   2.3627
     2.3689   2.3820   2.3835   2.4003   2.4109   2.4177   2.4283   2.4332
     2.4450   2.4511   2.4610   2.4710   2.4876   2.4980   2.5027   2.5121
     2.5330   2.5393   2.5565   2.5615   2.5701   2.5808   2.5895   2.6095
     2.6245   2.6259   2.6520   2.6628   2.6811   2.6902   2.7159   2.7253
     2.7391   2.7519   2.7633   2.7935   2.8432   2.8676   2.8781   2.9079
     2.9185   2.9301   2.9521   2.9629   2.9711   2.9972   3.0189   3.0423
     3.0721   3.0928   3.0974   3.1330   3.1381   3.1526   3.1837   3.2042
     3.2202   3.2326   3.2549   3.2660   3.2924   3.2979   3.3106   3.3210
     3.3244   3.3458   3.3519   3.3569   3.3660   3.3698   3.3845   3.4091
     3.4147   3.4165   3.4336   3.4415   3.4454   3.4531   3.4628   3.4745
     3.4875   3.5005   3.5049   3.5378   3.6004   3.6676   3.6791   3.7516
     3.7983   3.8253   3.8402   3.8741   3.9010   3.9355   3.9649   4.0246
     4.0391   4.0661   4.0771   4.1469   4.1551   4.1765   4.2289   4.3132
     4.3821   4.3958   4.4304   4.4736   4.4838   4.5511   4.6341   4.6769
     4.8999   4.9667   4.9873   5.0155   5.0295   5.0684   5.0890   5.1002
     5.1299   5.1539   5.1966   5.2335   5.2534   5.3367   5.3731   5.4170
     5.4420   5.4540   5.5135   5.5293   5.5375   5.5753   5.6027   5.6264
     5.6497   5.6620   5.6749   5.7024   5.7257   5.7842   5.8089   5.8300
     5.9151   5.9672   5.9836   6.0065   6.0667   6.0898   6.1002   6.1408
     6.1560   6.1679   6.1740   6.2129   6.2409   6.2950   6.3094   6.3442
     6.3747   6.4187   6.4504   6.4698   6.5016   6.5132   6.5434   6.5724
     6.5789   6.5966   6.6087   6.6179   6.6333   6.6405   6.6687   6.6968
     6.7189   6.7451   6.7959   6.8002   6.8374   6.9068   6.9548   6.9992
     7.0753   7.1257   7.1521   7.1743   7.1893   7.2028   7.2319   7.3083
    10.8240  10.9182  10.9409  11.0386  12.1279  12.1689  12.2414  12.3237
    13.3631  13.4114  13.4833  13.5207  13.5725  13.6315  13.7266  13.7487
    13.8175  13.8603  13.9795  14.0166  14.0701  14.1855  14.2481  14.2955
    14.5374  14.5596  14.6361  14.6416  14.7856  14.7947  14.8295  14.8587
    14.8711  14.8935  14.9261  14.9559  15.7073  15.7958  15.9336  15.9456
    15.9684  16.0332  16.0465  16.0749  16.1378  16.2375  16.3511  16.3715
    16.3890  16.4118  16.4537  16.4598  16.5707  16.6985  16.7494  16.7867
    17.0305  17.0932  17.1664  17.3265  17.3934  17.4625  17.5301  17.5806
    17.6375  17.6476  17.7183  17.7573  17.9360  18.0229  18.0774  18.1127
    18.1668  18.2217  18.4932  18.5747  18.6187  18.6449  18.7074  18.7963
    18.8651  18.9649

     occupation numbers 
     1.0000   1.0000   1.0000   1.0000   1.0000   1.0000   1.0000   1.0000
     1.0000   1.0000   1.0000   1.0000   1.0000   1.0000   1.0000   1.0000
     1.0000   1.0000   1.0000   1.0000   1.0000   1.0000   1.0000   1.0000
     1.0000   1.0000   1.0000   1.0000   1.0000   1.0000   1.0000   1.0000
     1.0000   1.0000   1.0000   1.0000   1.0000   1.0000   1.0000   1.0000
     1.0000   1.0000   1.0000   1.0000   1.0000   1.0000   1.0000   1.0000
     1.0000   1.0000   1.0000   1.0000   1.0000   1.0000   1.0000   1.0000
     1.0000   1.0000   1.0000   1.0000   1.0000   1.0000   1.0000   1.0000
     1.0000   1.0000   1.0000   1.0000   1.0000   1.0000   1.0000   1.0000
     1.0000   1.0000   1.0000   1.0000   1.0000   1.0000   1.0000   1.0000
     1.0000   1.0000   1.0000   1.0000   1.0000   1.0000   1.0000   1.0000
     1.0000   1.0000   1.0000   1.0000   1.0000   1.0000   1.0000   1.0000
     1.0000   1.0000   1.0000   1.0000   1.0000   1.0000   1.0000   1.0000
     1.0000   1.0000   1.0000   1.0000   1.0000   1.0000   1.0000   1.0000
     1.0000   1.0000   1.0000   1.0000   1.0000   1.0000   1.0000   1.0000
     1.0000   1.0000   1.0000   1.0000   1.0000   1.0000   1.0000   1.0000
     1.0000   1.0000   1.0000   1.0000   1.0000   1.0000   1.0000   1.0000
     1.0000   1.0000   1.0000   1.0000   1.0000   1.0000   1.0000   1.0000
     1.0000   1.0000   1.0000   1.0000   1.0000   1.0000   1.0000   1.0000
     1.0000   1.0000   1.0000   1.0000   1.0000   1.0000   1.0000   1.0000
     1.0000   1.0000   1.0000   1.0000   1.0000   1.0000   1.0000   1.0000
     1.0000   1.0000   1.0000   1.0000   1.0000   1.0000   1.0000   1.0000
     1.0000   1.0000   1.0000   1.0000   1.0000   1.0000   1.0000   1.0000
     1.0000   1.0000   1.0000   1.0000   1.0000   1.0000   1.0000   1.0000
     1.0000   1.0000   1.0000   1.0000   1.0000   1.0000   1.0000   1.0000
     1.0000   1.0000   1.0000   1.0000   1.0000   1.0000   1.0000   1.0000
     1.0000   1.0000   1.0000   1.0000   1.0000   1.0000   1.0000   1.0000
     1.0000   1.0000   1.0000   1.0000   1.0000   1.0000   1.0000   1.0000
     1.0000   1.0000   1.0000   1.0000   1.0000   1.0000   1.0000   1.0000
     1.0000   1.0000   1.0000   1.0000   1.0000   1.0000   1.0000   1.0000
     1.0000   1.0000   1.0000   1.0000   1.0000   1.0000   1.0000   1.0000
     1.0000   1.0000   1.0000   1.0000   1.0000   1.0000   1.0000   1.0000
     1.0000   1.0000   1.0000   1.0000   1.0000   1.0000   1.0000   1.0000
     1.0000   1.0000   1.0000   1.0000   1.0000   1.0000   1.0000   1.0000
     1.0000   1.0000   1.0000   1.0000   1.0000   1.0000   1.0000   1.0000
     1.0000   1.0000   1.0000   1.0000   1.0000   1.0000   1.0000   1.0000
     1.0000   1.0000   1.0000   1.0000   1.0000   1.0000   1.0000   1.0000
     1.0000   1.0000   1.0000   1.0000   1.0000   1.0000   1.0000   1.0000
     1.0000   1.0000   1.0000   1.0000   1.0000   1.0000   1.0000   1.0000
     1.0000   1.0000   1.0000   1.0000   1.0000   1.0000   1.0000   1.0000
     1.0000   1.0000   1.0000   1.0000   1.0000   1.0000   1.0000   1.0000
     1.0000   1.0000   1.0000   1.0000   1.0000   1.0000   1.0000   1.0000
     1.0000   1.0000   1.0000   1.0000   1.0000   1.0000   1.0000   1.0000
     1.0000   1.0000   1.0000   1.0000   1.0000   1.0000   1.0000   1.0000
     1.0000   1.0000   1.0000   1.0000   1.0000   1.0000   1.0000   1.0000
     1.0000   1.0000   1.0000   1.0000   1.0000   1.0000   1.0000   1.0000
     1.0000   1.0000   1.0000   1.0000   1.0000   1.0000   1.0000   1.0000
     1.0000   1.0000   1.0000   1.0000   1.0000   1.0000   1.0000   1.0000
     1.0000   1.0000   1.0000   1.0000   1.0000   1.0000   1.0000   1.0000
     1.0000   1.0000   1.0000   1.0000   1.0000   1.0000   1.0000   1.0000
     1.0000   1.0000   1.0000   1.0000   1.0000   1.0000   1.0000   1.0000
     0.0000   0.0000   0.0000   0.0000   0.0000   0.0000   0.0000   0.0000
     0.0000   0.0000   0.0000   0.0000   0.0000   0.0000   0.0000   0.0000
     0.0000   0.0000   0.0000   0.0000   0.0000   0.0000   0.0000   0.0000
     0.0000   0.0000   0.0000   0.0000   0.0000   0.0000   0.0000   0.0000
     0.0000   0.0000   0.0000   0.0000   0.0000   0.0000   0.0000   0.0000
     0.0000   0.0000   0.0000   0.0000   0.0000   0.0000   0.0000   0.0000
     0.0000   0.0000   0.0000   0.0000   0.0000   0.0000   0.0000   0.0000
     0.0000   0.0000   0.0000   0.0000   0.0000   0.0000   0.0000   0.0000
     0.0000   0.0000   0.0000   0.0000   0.0000   0.0000   0.0000   0.0000
     0.0000   0.0000   0.0000   0.0000   0.0000   0.0000   0.0000   0.0000
     0.0000   0.0000

     the Fermi energy is     8.5391 ev

!    total energy              =  -13736.02963526 Ry
     Harris-Foulkes estimate   =  -13736.02963526 Ry
     estimated scf accuracy    <          6.7E-09 Ry

     The total energy is the sum of the following terms:

     one-electron contribution =  -11462.86874983 Ry
     hartree contribution      =    6017.99699267 Ry
     xc contribution           =   -1465.44035994 Ry
     ewald contribution        =   -6825.71751816 Ry
     smearing contrib. (-TS)   =       0.00000000 Ry

     convergence has been achieved in  12 iterations

     Writing output data file ZnO.save/
 
     init_run     :     16.53s CPU     17.20s WALL (       1 calls)
     electrons    :    792.10s CPU    808.76s WALL (       1 calls)

     Called by init_run:
     wfcinit      :     14.08s CPU     14.46s WALL (       1 calls)
     wfcinit:atom :      0.10s CPU      0.12s WALL (       5 calls)
     wfcinit:wfcr :     13.54s CPU     13.84s WALL (       5 calls)
     potinit      :      1.13s CPU      1.20s WALL (       1 calls)
     hinit0       :      0.86s CPU      0.97s WALL (       1 calls)

     Called by electrons:
     c_bands      :    732.85s CPU    747.77s WALL (      12 calls)
     sum_band     :     51.95s CPU     53.00s WALL (      12 calls)
     v_of_rho     :      5.98s CPU      6.34s WALL (      13 calls)
     v_h          :      0.14s CPU      0.20s WALL (      13 calls)
     v_xc         :      5.84s CPU      6.14s WALL (      13 calls)
     newd         :      1.22s CPU      1.31s WALL (      13 calls)
     mix_rho      :      0.33s CPU      0.45s WALL (      12 calls)

     Called by c_bands:
     init_us_2    :      4.37s CPU      4.44s WALL (     125 calls)
     cegterg      :    660.64s CPU    675.11s WALL (      60 calls)

     Called by sum_band:
     sum_band:bec :      0.25s CPU      0.25s WALL (      60 calls)
     addusdens    :      1.15s CPU      1.21s WALL (      12 calls)

     Called by *egterg:
     h_psi        :    232.45s CPU    236.43s WALL (     255 calls)
     s_psi        :     60.31s CPU     60.47s WALL (     255 calls)
     g_psi        :      0.82s CPU      0.83s WALL (     190 calls)
     cdiaghg      :    227.94s CPU    233.97s WALL (     250 calls)
     cegterg:over :     65.01s CPU     66.71s WALL (     190 calls)
     cegterg:upda :     42.09s CPU     42.59s WALL (     190 calls)
     cegterg:last :     23.88s CPU     23.99s WALL (      60 calls)
     cdiaghg:chol :     10.56s CPU     10.64s WALL (     250 calls)
     cdiaghg:inve :      3.40s CPU      3.41s WALL (     250 calls)
     cdiaghg:para :     55.86s CPU     60.59s WALL (     500 calls)

     Called by h_psi:
     h_psi:pot    :    230.84s CPU    233.69s WALL (     255 calls)
     h_psi:calbec :     61.74s CPU     63.50s WALL (     255 calls)
     vloc_psi     :    108.23s CPU    109.02s WALL (     255 calls)
     add_vuspsi   :     60.86s CPU     61.16s WALL (     255 calls)

     General routines
     calbec       :     86.22s CPU     88.70s WALL (     315 calls)
     fft          :      1.24s CPU      1.75s WALL (     167 calls)
     ffts         :      0.07s CPU      0.08s WALL (      25 calls)
     fftw         :    124.10s CPU    125.00s WALL (  174954 calls)
     interpolate  :      0.16s CPU      0.20s WALL (      13 calls)
 
     Parallel routines
     fft_scatt_xy :     20.55s CPU     20.70s WALL (  175146 calls)
     fft_scatt_yz :     32.73s CPU     33.47s WALL (  175146 calls)
 
     PWSCF        :  13m30.69s CPU  13m51.00s WALL

 
   This run was terminated on:   1:40:28  15Jul2022            

=------------------------------------------------------------------------------=
   JOB DONE.
=------------------------------------------------------------------------------=
