
     Program PWSCF v.6.4.1 starts on 15Jul2022 at  1:25:22 

     This program is part of the open-source Quantum ESPRESSO suite
     for quantum simulation of materials; please cite
         "P. Giannozzi et al., J. Phys.:Condens. Matter 21 395502 (2009);
         "P. Giannozzi et al., J. Phys.:Condens. Matter 29 465901 (2017);
          URL http://www.quantum-espresso.org", 
     in publications or presentations arising from this work. More details at
     http://www.quantum-espresso.org/quote

     Parallel version (MPI), running on   128 processors

     MPI processes distributed on     2 nodes
     K-points division:     npool     =       8
     R & G space division:  proc/nbgrp/npool/nimage =      16
     Waiting for input...
     Reading input from standard input
Warning: card &IONS ignored
Warning: card   UPSCALE           = 100.D0, ignored
Warning: card / ignored
Warning: card &CELL ignored
Warning: card   CELL_DYNAMICS     = 'BFGS' ignored
Warning: card   PRESS_CONV_THR    = 0.5D0 ignored
Warning: card   CELL_DOFREE = 'ALL' ignored
Warning: card / ignored

     Current dimensions of program PWSCF are:
     Max number of different atomic species (ntypx) = 10
     Max number of k-points (npk) =  40000
     Max angular momentum in pseudopotentials (lmaxx) =  3

     Subspace diagonalization in iterative solution of the eigenvalue problem:
     one sub-group per band group will be used
     scalapack distributed-memory algorithm (size of sub-group:  2*  2 procs)

 
     Parallelization info
     --------------------
     sticks:   dense  smooth     PW     G-vecs:    dense   smooth      PW
     Min         730     350     95                67598    22476    3241
     Max         731     351     96                67602    22480    3245
     Sum       11681    5607   1531              1081587   359645   51895
 


     bravais-lattice index     =            0
     lattice parameter (alat)  =      18.3962  a.u.
     unit-cell volume          =    5727.3405 (a.u.)^3
     number of atoms/cell      =           72
     number of atomic types    =            3
     number of electrons       =       836.00
     number of Kohn-Sham states=          502
     kinetic-energy cutoff     =      60.0000  Ry
     charge density cutoff     =     500.0000  Ry
     convergence threshold     =      1.0E-08
     mixing beta               =       0.5000
     number of iterations used =            8  plain     mixing
     Exchange-correlation      = SLA  PW   PSX  PSC ( 1  4 10  8 0 0)
     Using LIBXC version       =    4   3   4

     celldm(1)=  18.396228  celldm(2)=   0.000000  celldm(3)=   0.000000
     celldm(4)=   0.000000  celldm(5)=   0.000000  celldm(6)=   0.000000

     crystal axes: (cart. coord. in units of alat)
               a(1) = (   0.999999  -0.001169  -0.000248 )  
               a(2) = (  -0.501010   0.867329   0.000213 )  
               a(3) = (  -0.000266   0.000110   1.061394 )  

     reciprocal axes: (cart. coord. in units 2 pi/alat)
               b(1) = (  1.000676  0.578038  0.000191 )  
               b(2) = (  0.001348  1.153744 -0.000119 )  
               b(3) = (  0.000234 -0.000096  0.942157 )  


     PseudoPot. # 1 for Zn read from file:
     ./GBRV_PBEsol/zn_pbesol_v1.uspp.F.UPF
     MD5 check sum: 7d8615e52efe7c1e2b1899de8658bae2
     Pseudo is Ultrasoft, Zval = 20.0
     Generated by new atomic code, or converted to UPF format
     Using radial grid of  943 points,  6 beta functions with: 
                l(1) =   0
                l(2) =   0
                l(3) =   1
                l(4) =   1
                l(5) =   2
                l(6) =   2
     Q(r) pseudized with  8 coefficients,  rinner =    1.100   1.100   1.100
                                                       1.100   1.100

     PseudoPot. # 2 for O  read from file:
     ./GBRV_PBEsol/o_pbesol_v1.2.uspp.F.UPF
     MD5 check sum: 501638753501ef6325af9037351f7734
     Pseudo is Ultrasoft + core correction, Zval =  6.0
     Generated by new atomic code, or converted to UPF format
     Using radial grid of  737 points,  5 beta functions with: 
                l(1) =   0
                l(2) =   0
                l(3) =   1
                l(4) =   1
                l(5) =   2
     Q(r) pseudized with  8 coefficients,  rinner =    0.900   0.900   0.900
                                                       0.900   0.900

     PseudoPot. # 3 for Mg read from file:
     ./GBRV_PBEsol/mg_pbesol_v1.4.uspp.F.UPF
     MD5 check sum: 4059f37963cf5867752dbf5ab2400678
     Pseudo is Ultrasoft, Zval = 10.0
     Generated by new atomic code, or converted to UPF format
     Using radial grid of  821 points,  7 beta functions with: 
                l(1) =   0
                l(2) =   0
                l(3) =   0
                l(4) =   1
                l(5) =   1
                l(6) =   2
                l(7) =   2
     Q(r) pseudized with  8 coefficients,  rinner =    1.200   1.200   1.200
                                                       1.200   1.200

     atomic species   valence    mass     pseudopotential
        Zn            20.00    65.38000     Zn( 1.00)
        O              6.00    15.99900     O ( 1.00)
        Mg            10.00    24.30500     Mg( 1.00)

     No symmetry found


                                    s                        frac. trans.

      isym =  1     identity                                     

 cryst.   s( 1) = (     1          0          0      )
                  (     0          1          0      )
                  (     0          0          1      )

 cart.    s( 1) = (  1.0000000 -0.0000000 -0.0000000 )
                  (  0.0000000  1.0000000  0.0000000 )
                  (  0.0000000  0.0000000  1.0000000 )


   Cartesian axes

     site n.     atom                  positions (alat units)
         1           Zn  tau(   1) = (   0.1677697   0.0963991   0.2060138  )
         2           Zn  tau(   2) = (   0.1665669   0.0967621   0.7366091  )
         3           Zn  tau(   3) = (  -0.0009580   0.3859395   0.2058107  )
         4           Zn  tau(   4) = (  -0.0004432   0.3846039   0.7362331  )
         5           Zn  tau(   5) = (  -0.1674869   0.6737000   0.2056354  )
         6           Zn  tau(   6) = (  -0.1680483   0.6747426   0.7362462  )
         7           Zn  tau(   7) = (   0.4990070   0.0946515   0.2052967  )
         8           Mg  tau(   8) = (   0.4996473   0.0950347   0.7389371  )
         9           Zn  tau(   9) = (   0.3324497   0.3851594   0.2054701  )
        10           Mg  tau(  10) = (   0.3321037   0.3856639   0.7389418  )
        11           Mg  tau(  11) = (   0.1649606   0.6745918   0.2075107  )
        12           Zn  tau(  12) = (   0.1635660   0.6728443   0.7358209  )
        13           Zn  tau(  13) = (   0.8314206   0.0914429   0.2061173  )
        14           Zn  tau(  14) = (   0.8340947   0.0978039   0.7371202  )
        15           Mg  tau(  15) = (   0.6648127   0.3822582   0.2065667  )
        16           Zn  tau(  16) = (   0.6659593   0.3845079   0.7350447  )
        17           Mg  tau(  17) = (   0.4969102   0.6739442   0.2071152  )
        18           Zn  tau(  18) = (   0.5015577   0.6733913   0.7349450  )
        19           Zn  tau(  19) = (  -0.0001713   0.1932684   0.4703740  )
        20           Mg  tau(  20) = (   0.0006720   0.1932075   1.0049271  )
        21           Mg  tau(  21) = (  -0.1662217   0.4823950   0.4716949  )
        22           Mg  tau(  22) = (  -0.1666640   0.4821497   1.0014952  )
        23           Zn  tau(  23) = (  -0.3330120   0.7716474   0.4703726  )
        24           Mg  tau(  24) = (  -0.3334268   0.7717114   1.0032664  )
        25           Zn  tau(  25) = (   0.3340361   0.1931852   0.4714888  )
        26           Zn  tau(  26) = (   0.3319721   0.1921335   1.0017588  )
        27           Zn  tau(  27) = (   0.1666374   0.4799243   0.4711606  )
        28           Zn  tau(  28) = (   0.1646014   0.4824946   1.0027508  )
        29           Zn  tau(  29) = (  -0.0024192   0.7720005   0.4715233  )
        30           Zn  tau(  30) = (  -0.0007530   0.7688146   1.0026751  )
        31           Zn  tau(  31) = (   0.6656985   0.1910585   0.4713841  )
        32           Zn  tau(  32) = (   0.6671193   0.1929779   1.0023516  )
        33           Zn  tau(  33) = (   0.4984524   0.4801350   0.4701467  )
        34           Zn  tau(  34) = (   0.5011245   0.4823230   1.0021289  )
        35           Mg  tau(  35) = (   0.3321371   0.7714974   0.4740161  )
        36           Zn  tau(  36) = (   0.3323122   0.7688625   0.9997514  )
        37           O   tau(  37) = (   0.1665527   0.0959095   0.0029627  )
        38           O   tau(  38) = (   0.1664286   0.0966392   0.5330277  )
        39           O   tau(  39) = (  -0.0012926   0.3853762   0.0025570  )
        40           O   tau(  40) = (  -0.0006020   0.3851338   0.5332299  )
        41           O   tau(  41) = (  -0.1679195   0.6735283   0.0021726  )
        42           O   tau(  42) = (  -0.1679314   0.6743523   0.5333783  )
        43           O   tau(  43) = (   0.4999595   0.0954620   0.0013317  )
        44           O   tau(  44) = (   0.4994565   0.0959763   0.5361920  )
        45           O   tau(  45) = (   0.3331754   0.3855286   0.0011997  )
        46           O   tau(  46) = (   0.3327814   0.3850398   0.5361509  )
        47           O   tau(  47) = (   0.1664825   0.6742579   0.0049348  )
        48           O   tau(  48) = (   0.1649471   0.6738955   0.5318664  )
        49           O   tau(  49) = (   0.8336643   0.0943949   0.0022234  )
        50           O   tau(  50) = (   0.8333271   0.0964418   0.5338875  )
        51           O   tau(  51) = (   0.6675173   0.3850631   0.0041296  )
        52           O   tau(  52) = (   0.6664273   0.3846827   0.5311131  )
        53           O   tau(  53) = (   0.4998702   0.6746819   0.0041921  )
        54           O   tau(  54) = (   0.4994099   0.6737860   0.5313271  )
        55           O   tau(  55) = (  -0.0010159   0.1919760   0.2663621  )
        56           O   tau(  56) = (   0.0006232   0.1929901   0.8019186  )
        57           O   tau(  57) = (  -0.1687207   0.4808105   0.2688532  )
        58           O   tau(  58) = (  -0.1673518   0.4817160   0.7983338  )
        59           O   tau(  59) = (  -0.3348612   0.7704788   0.2665355  )
        60           O   tau(  60) = (  -0.3338917   0.7716645   0.8005451  )
        61           O   tau(  61) = (   0.3337299   0.1929185   0.2684224  )
        62           O   tau(  62) = (   0.3336867   0.1929426   0.7983205  )
        63           O   tau(  63) = (   0.1659755   0.4815496   0.2677770  )
        64           O   tau(  64) = (   0.1656053   0.4815464   0.7993879  )
        65           O   tau(  65) = (  -0.0017110   0.7702339   0.2682518  )
        66           O   tau(  66) = (  -0.0011568   0.7701968   0.7993943  )
        67           O   tau(  67) = (   0.6659274   0.1902624   0.2679585  )
        68           O   tau(  68) = (   0.6662688   0.1923346   0.7988198  )
        69           O   tau(  69) = (   0.4994846   0.4810492   0.2668514  )
        70           O   tau(  70) = (   0.4998332   0.4813423   0.7985503  )
        71           O   tau(  71) = (   0.3313548   0.7682632   0.2716128  )
        72           O   tau(  72) = (   0.3325375   0.7698409   0.7956660  )

   Crystallographic axes

     site n.     atom                  positions (cryst. coord.)
         1           Zn  tau(   1) = (  0.2236448  0.1114217  0.1941273  )
         2           Zn  tau(   2) = (  0.2227522  0.1117759  0.6940313  )
         3           Zn  tau(   3) = (  0.2221683  0.4452497  0.1938687  )
         4           Zn  tau(   4) = (  0.2220126  0.4436466  0.6936103  )
         5           Zn  tau(   5) = (  0.2218632  0.7770272  0.1936369  )
         6           Zn  tau(   6) = (  0.2220053  0.7781664  0.6935556  )
         7           Zn  tau(   7) = (  0.5540958  0.1098521  0.1935292  )
         8           Mg  tau(   8) = (  0.5550599  0.1102318  0.6963026  )
         9           Zn  tau(   9) = (  0.5553505  0.4447994  0.1936257  )
        10           Mg  tau(  10) = (  0.5553977  0.4453176  0.6962399  )
        11           Mg  tau(  11) = (  0.5550515  0.7785042  0.1954812  )
        12           Zn  tau(  12) = (  0.5527465  0.7764235  0.6932325  )
        13           Zn  tau(  13) = (  0.8848797  0.1065984  0.1943803  )
        14           Zn  tau(  14) = (  0.8913338  0.1138780  0.6946686  )
        15           Mg  tau(  15) = (  0.8862615  0.4419002  0.1947368  )
        16           Zn  tau(  16) = (  0.8888101  0.4444346  0.6926463  )
        17           Mg  tau(  17) = (  0.8868512  0.7782047  0.1951862  )
        18           Zn  tau(  18) = (  0.8912828  0.7775104  0.6924861  )
        19           Zn  tau(  19) = (  0.1116348  0.2229262  0.4431477  )
        20           Mg  tau(  20) = (  0.1125454  0.2227936  0.9467811  )
        21           Mg  tau(  21) = (  0.1125985  0.5562803  0.4443256  )
        22           Mg  tau(  22) = (  0.1121151  0.5559338  0.9434808  )
        23           Zn  tau(  23) = (  0.1128939  0.8897788  0.4430129  )
        24           Mg  tau(  24) = (  0.1126175  0.8897889  0.9450826  )
        25           Zn  tau(  25) = (  0.4460203  0.2232808  0.4442761  )
        26           Zn  tau(  26) = (  0.4434481  0.2220017  0.9438735  )
        27           Zn  tau(  27) = (  0.4442544  0.5538787  0.4439001  )
        28           Zn  tau(  28) = (  0.4438041  0.5567783  0.9447411  )
        29           Zn  tau(  29) = (  0.4439147  0.8906319  0.4441742  )
        30           Zn  tau(  30) = (  0.4438417  0.8868954  0.9446035  )
        31           Zn  tau(  31) = (  0.7766777  0.2212744  0.4442551  )
        32           Zn  tau(  32) = (  0.7793102  0.2234278  0.9445102  )
        33           Zn  tau(  33) = (  0.7764155  0.5545693  0.4430224  )
        34           Zn  tau(  34) = (  0.7804556  0.5570342  0.9442337  )
        35           Mg  tau(  35) = (  0.7784069  0.8905023  0.4466011  )
        36           Zn  tau(  36) = (  0.7771594  0.8874001  0.9419267  )
        37           O   tau(  37) = (  0.2221052  0.1108792  0.0028209  )
        38           O   tau(  38) = (  0.2225039  0.1116581  0.5022256  )
        39           O   tau(  39) = (  0.2214691  0.4446235  0.0023717  )
        40           O   tau(  40) = (  0.2221213  0.4442818  0.5023492  )
        41           O   tau(  41) = (  0.2212923  0.7768527  0.0019428  )
        42           O   tau(  42) = (  0.2218580  0.7777404  0.5024222  )
        43           O   tau(  43) = (  0.5554786  0.1108127  0.0013622  )
        44           O   tau(  44) = (  0.5553745  0.1113419  0.5052846  )
        45           O   tau(  45) = (  0.5562511  0.4452505  0.0011710  )
        46           O   tau(  46) = (  0.5556764  0.4446226  0.5051792  )
        47           O   tau(  47) = (  0.5563428  0.7781451  0.0046233  )
        48           O   tau(  48) = (  0.5546972  0.7776623  0.5010755  )
        49           O   tau(  49) = (  0.8887925  0.1100315  0.0022804  )
        50           O   tau(  50) = (  0.8897396  0.1123295  0.5031914  )
        51           O   tau(  51) = (  0.8905506  0.4451640  0.0040095  )
        52           O   tau(  52) = (  0.8893406  0.4446611  0.5005107  )
        53           O   tau(  53) = (  0.8902008  0.7790839  0.0040013  )
        54           O   tau(  54) = (  0.8893229  0.7779871  0.5006455  )
        55           O   tau(  55) = (  0.1100036  0.2214582  0.2509363  )
        56           O   tau(  56) = (  0.1123321  0.2225668  0.7555151  )
        57           O   tau(  57) = (  0.1091432  0.5544729  0.2532163  )
        58           O   tau(  58) = (  0.1111374  0.5554567  0.7520706  )
        59           O   tau(  59) = (  0.1103292  0.8884524  0.2509660  )
        60           O   tau(  60) = (  0.1120865  0.8897582  0.7540872  )
        61           O   tau(  61) = (  0.4455211  0.2229967  0.2529555  )
        62           O   tau(  62) = (  0.4455928  0.2229616  0.7522029  )
        63           O   tau(  63) = (  0.4444928  0.5557772  0.2522804  )
        64           O   tau(  64) = (  0.4442219  0.5557098  0.7531415  )
        65           O   tau(  65) = (  0.4435635  0.8886188  0.2526608  )
        66           O   tau(  66) = (  0.4441979  0.8885137  0.7530808  )
        67           O   tau(  67) = (  0.7764077  0.2203802  0.2525963  )
        68           O   tau(  68) = (  0.7780484  0.2227085  0.7527511  )
        69           O   tau(  69) = (  0.7779380  0.5556495  0.2514863  )
        70           O   tau(  70) = (  0.7785577  0.5559251  0.7524304  )
        71           O   tau(  71) = (  0.7757160  0.8867938  0.2559054  )
        72           O   tau(  72) = (  0.7779114  0.8885535  0.7496461  )

     number of k points=    36  Marzari-Vanderbilt smearing, width (Ry)=  0.0010
                       cart. coord. in units 2pi/alat
        k(    1) = (   0.0000000   0.0000000   0.0000000), wk =   0.0312500
        k(    2) = (   0.0000584  -0.0000241   0.2355394), wk =   0.0625000
        k(    3) = (  -0.0001168   0.0000482  -0.4710787), wk =   0.0312500
        k(    4) = (   0.0003371   0.2884361  -0.0000297), wk =   0.0625000
        k(    5) = (   0.0003955   0.2884120   0.2355097), wk =   0.0625000
        k(    6) = (   0.0002203   0.2884842  -0.4711084), wk =   0.0625000
        k(    7) = (   0.0002787   0.2884601  -0.2355690), wk =   0.0625000
        k(    8) = (  -0.0006742  -0.5768721   0.0000594), wk =   0.0312500
        k(    9) = (  -0.0006158  -0.5768962   0.2355987), wk =   0.0625000
        k(   10) = (  -0.0007910  -0.5768240  -0.4710194), wk =   0.0312500
        k(   11) = (   0.2501691   0.1445095   0.0000477), wk =   0.0625000
        k(   12) = (   0.2502275   0.1444854   0.2355870), wk =   0.0625000
        k(   13) = (   0.2500523   0.1445577  -0.4710310), wk =   0.0625000
        k(   14) = (   0.2501107   0.1445336  -0.2354917), wk =   0.0625000
        k(   15) = (   0.2505062   0.4329456   0.0000180), wk =   0.0625000
        k(   16) = (   0.2505646   0.4329215   0.2355574), wk =   0.0625000
        k(   17) = (   0.2503894   0.4329937  -0.4710607), wk =   0.0625000
        k(   18) = (   0.2504478   0.4329696  -0.2355214), wk =   0.0625000
        k(   19) = (   0.2494949  -0.4323626   0.0001070), wk =   0.0625000
        k(   20) = (   0.2495533  -0.4323867   0.2356464), wk =   0.0625000
        k(   21) = (   0.2493781  -0.4323145  -0.4709717), wk =   0.0625000
        k(   22) = (   0.2494365  -0.4323385  -0.2354323), wk =   0.0625000
        k(   23) = (   0.2498320  -0.1439266   0.0000774), wk =   0.0625000
        k(   24) = (   0.2498904  -0.1439506   0.2356167), wk =   0.0625000
        k(   25) = (   0.2497152  -0.1438784  -0.4710014), wk =   0.0625000
        k(   26) = (   0.2497736  -0.1439025  -0.2354620), wk =   0.0625000
        k(   27) = (  -0.5003382  -0.2890190  -0.0000954), wk =   0.0312500
        k(   28) = (  -0.5002798  -0.2890431   0.2354440), wk =   0.0625000
        k(   29) = (  -0.5004549  -0.2889708  -0.4711741), wk =   0.0312500
        k(   30) = (  -0.5000011  -0.0005829  -0.0001250), wk =   0.0625000
        k(   31) = (  -0.4999427  -0.0006070   0.2354143), wk =   0.0625000
        k(   32) = (  -0.5001178  -0.0005348  -0.4712037), wk =   0.0625000
        k(   33) = (  -0.5000595  -0.0005589  -0.2356644), wk =   0.0625000
        k(   34) = (  -0.5010124  -0.8658911  -0.0000360), wk =   0.0312500
        k(   35) = (  -0.5009540  -0.8659152   0.2355034), wk =   0.0625000
        k(   36) = (  -0.5011292  -0.8658430  -0.4711147), wk =   0.0312500

                       cryst. coord.
        k(    1) = (   0.0000000   0.0000000   0.0000000), wk =   0.0312500
        k(    2) = (   0.0000000   0.0000000   0.2500000), wk =   0.0625000
        k(    3) = (  -0.0000000  -0.0000000  -0.5000000), wk =   0.0312500
        k(    4) = (   0.0000000   0.2500000   0.0000000), wk =   0.0625000
        k(    5) = (   0.0000000   0.2500000   0.2500000), wk =   0.0625000
        k(    6) = (  -0.0000000   0.2500000  -0.5000000), wk =   0.0625000
        k(    7) = (  -0.0000000   0.2500000  -0.2500000), wk =   0.0625000
        k(    8) = (  -0.0000000  -0.5000000  -0.0000000), wk =   0.0312500
        k(    9) = (  -0.0000000  -0.5000000   0.2500000), wk =   0.0625000
        k(   10) = (  -0.0000000  -0.5000000  -0.5000000), wk =   0.0312500
        k(   11) = (   0.2500000  -0.0000000  -0.0000000), wk =   0.0625000
        k(   12) = (   0.2500000  -0.0000000   0.2500000), wk =   0.0625000
        k(   13) = (   0.2500000  -0.0000000  -0.5000000), wk =   0.0625000
        k(   14) = (   0.2500000  -0.0000000  -0.2500000), wk =   0.0625000
        k(   15) = (   0.2500000   0.2500000  -0.0000000), wk =   0.0625000
        k(   16) = (   0.2500000   0.2500000   0.2500000), wk =   0.0625000
        k(   17) = (   0.2500000   0.2500000  -0.5000000), wk =   0.0625000
        k(   18) = (   0.2500000   0.2500000  -0.2500000), wk =   0.0625000
        k(   19) = (   0.2500000  -0.5000000  -0.0000000), wk =   0.0625000
        k(   20) = (   0.2500000  -0.5000000   0.2500000), wk =   0.0625000
        k(   21) = (   0.2500000  -0.5000000  -0.5000000), wk =   0.0625000
        k(   22) = (   0.2500000  -0.5000000  -0.2500000), wk =   0.0625000
        k(   23) = (   0.2500000  -0.2500000  -0.0000000), wk =   0.0625000
        k(   24) = (   0.2500000  -0.2500000   0.2500000), wk =   0.0625000
        k(   25) = (   0.2500000  -0.2500000  -0.5000000), wk =   0.0625000
        k(   26) = (   0.2500000  -0.2500000  -0.2500000), wk =   0.0625000
        k(   27) = (  -0.5000000   0.0000000   0.0000000), wk =   0.0312500
        k(   28) = (  -0.5000000   0.0000000   0.2500000), wk =   0.0625000
        k(   29) = (  -0.5000000   0.0000000  -0.5000000), wk =   0.0312500
        k(   30) = (  -0.5000000   0.2500000   0.0000000), wk =   0.0625000
        k(   31) = (  -0.5000000   0.2500000   0.2500000), wk =   0.0625000
        k(   32) = (  -0.5000000   0.2500000  -0.5000000), wk =   0.0625000
        k(   33) = (  -0.5000000   0.2500000  -0.2500000), wk =   0.0625000
        k(   34) = (  -0.5000000  -0.5000000   0.0000000), wk =   0.0312500
        k(   35) = (  -0.5000000  -0.5000000   0.2500000), wk =   0.0625000
        k(   36) = (  -0.5000000  -0.5000000  -0.5000000), wk =   0.0312500

     Dense  grid:  1081587 G-vectors     FFT dimensions: ( 135, 135, 144)

     Smooth grid:   359645 G-vectors     FFT dimensions: (  96,  96, 100)

     Dynamical RAM for                 wfc:      21.52 MB

     Dynamical RAM for     wfc (w. buffer):     129.10 MB

     Dynamical RAM for           str. fact:       3.09 MB

     Dynamical RAM for           local pot:       0.00 MB

     Dynamical RAM for          nlocal pot:      48.26 MB

     Dynamical RAM for                qrad:      20.99 MB

     Dynamical RAM for          rho,v,vnew:       6.85 MB

     Dynamical RAM for               rhoin:       2.28 MB

     Dynamical RAM for            rho*nmix:      16.50 MB

     Dynamical RAM for           G-vectors:       4.04 MB

     Dynamical RAM for          h,s,v(r/c):      46.14 MB

     Dynamical RAM for          <psi|beta>:       8.63 MB

     Dynamical RAM for                 psi:      86.07 MB

     Dynamical RAM for                hpsi:      86.07 MB

     Dynamical RAM for                spsi:      86.07 MB

     Dynamical RAM for      wfcinit/wfcrot:      52.09 MB

     Dynamical RAM for           addusdens:      31.97 MB

     Estimated static dynamical RAM per process >     241.50 MB

     Estimated max dynamical RAM per process >     554.47 MB

     Estimated total dynamical RAM >      69.31 GB

     Check: negative core charge=   -0.000002

     Initial potential from superposition of free atoms

     starting charge  832.99428, renormalised to  836.00000
     Starting wfcs are  532 randomized atomic wfcs

     total cpu time spent up to now is       15.8 secs

     Self-consistent Calculation

     iteration #  1     ecut=    60.00 Ry     beta= 0.50
     Davidson diagonalization with overlap
     ethr =  1.00E-02,  avg # of iterations =  4.7

     total cpu time spent up to now is       81.1 secs

     total energy              =  -14400.52000188 Ry
     Harris-Foulkes estimate   =  -14413.03779380 Ry
     estimated scf accuracy    <      18.96316152 Ry

     iteration #  2     ecut=    60.00 Ry     beta= 0.50
     Davidson diagonalization with overlap
     ethr =  2.27E-03,  avg # of iterations =  3.6

     total cpu time spent up to now is      160.2 secs

     total energy              =  -14406.10434311 Ry
     Harris-Foulkes estimate   =  -14410.45517412 Ry
     estimated scf accuracy    <       9.96610112 Ry

     iteration #  3     ecut=    60.00 Ry     beta= 0.50
     Davidson diagonalization with overlap
     ethr =  1.19E-03,  avg # of iterations =  2.0

     total cpu time spent up to now is      208.9 secs

     total energy              =  -14407.90091667 Ry
     Harris-Foulkes estimate   =  -14407.96032494 Ry
     estimated scf accuracy    <       0.17259514 Ry

     iteration #  4     ecut=    60.00 Ry     beta= 0.50
     Davidson diagonalization with overlap
     ethr =  2.06E-05,  avg # of iterations =  5.4

     total cpu time spent up to now is      301.9 secs

     total energy              =  -14407.91304067 Ry
     Harris-Foulkes estimate   =  -14407.94274518 Ry
     estimated scf accuracy    <       0.07987745 Ry

     iteration #  5     ecut=    60.00 Ry     beta= 0.50
     Davidson diagonalization with overlap
     ethr =  9.55E-06,  avg # of iterations =  4.2

     total cpu time spent up to now is      373.3 secs

     total energy              =  -14407.92697766 Ry
     Harris-Foulkes estimate   =  -14407.92803900 Ry
     estimated scf accuracy    <       0.00385512 Ry

     iteration #  6     ecut=    60.00 Ry     beta= 0.50
     Davidson diagonalization with overlap
     ethr =  4.61E-07,  avg # of iterations =  2.0

     total cpu time spent up to now is      418.6 secs

     total energy              =  -14407.92763471 Ry
     Harris-Foulkes estimate   =  -14407.92773203 Ry
     estimated scf accuracy    <       0.00038830 Ry

     iteration #  7     ecut=    60.00 Ry     beta= 0.50
     Davidson diagonalization with overlap
     ethr =  4.64E-08,  avg # of iterations =  2.0

     total cpu time spent up to now is      470.0 secs

     total energy              =  -14407.92772484 Ry
     Harris-Foulkes estimate   =  -14407.92774108 Ry
     estimated scf accuracy    <       0.00010199 Ry

     iteration #  8     ecut=    60.00 Ry     beta= 0.50
     Davidson diagonalization with overlap
     ethr =  1.22E-08,  avg # of iterations =  2.0

     total cpu time spent up to now is      513.6 secs

     total energy              =  -14407.92774688 Ry
     Harris-Foulkes estimate   =  -14407.92774431 Ry
     estimated scf accuracy    <       0.00001306 Ry

     iteration #  9     ecut=    60.00 Ry     beta= 0.50
     Davidson diagonalization with overlap
     ethr =  1.56E-09,  avg # of iterations =  2.0

     total cpu time spent up to now is      563.8 secs

     total energy              =  -14407.92774879 Ry
     Harris-Foulkes estimate   =  -14407.92774935 Ry
     estimated scf accuracy    <       0.00000217 Ry

     iteration # 10     ecut=    60.00 Ry     beta= 0.50
     Davidson diagonalization with overlap
     ethr =  2.59E-10,  avg # of iterations =  2.0

     total cpu time spent up to now is      615.1 secs

     total energy              =  -14407.92774926 Ry
     Harris-Foulkes estimate   =  -14407.92774930 Ry
     estimated scf accuracy    <       0.00000035 Ry

     iteration # 11     ecut=    60.00 Ry     beta= 0.50
     Davidson diagonalization with overlap
     ethr =  4.24E-11,  avg # of iterations =  2.0

     total cpu time spent up to now is      660.2 secs

     total energy              =  -14407.92774933 Ry
     Harris-Foulkes estimate   =  -14407.92774934 Ry
     estimated scf accuracy    <       0.00000006 Ry

     iteration # 12     ecut=    60.00 Ry     beta= 0.50
     Davidson diagonalization with overlap
     ethr =  6.91E-12,  avg # of iterations =  2.0

     total cpu time spent up to now is      705.5 secs

     End of self-consistent calculation

          k = 0.0000 0.0000 0.0000 ( 44881 PWs)   bands (ev):

  -115.1452-115.1436-115.1426-115.1422-115.1421-115.1416-115.1406-115.1398
  -115.1397-115.1389-115.1380-115.1377-115.1375-115.1373-115.1363-115.1361
  -115.1360-115.1354-115.1343-115.1339-115.1327-115.1319-115.1296-115.1283
  -115.1272-115.1245 -69.5052 -69.5049 -69.5037 -69.5035 -69.5030 -69.5021
   -69.5019 -69.5015 -69.5015 -69.5011 -69.5007 -69.5004 -69.5003 -69.5001
   -69.5000 -69.4998 -69.4995 -69.4995 -69.4993 -69.4988 -69.4980 -69.4974
   -69.4972 -69.4970 -69.4965 -69.4964 -69.4964 -69.4962 -69.4960 -69.4956
   -69.4955 -69.4954 -69.4952 -69.4942 -69.4941 -69.4941 -69.4940 -69.4938
   -69.4937 -69.4935 -69.4933 -69.4930 -69.4929 -69.4929 -69.4927 -69.4923
   -69.4922 -69.4921 -69.4918 -69.4913 -69.4913 -69.4912 -69.4908 -69.4906
   -69.4901 -69.4899 -69.4895 -69.4895 -69.4894 -69.4892 -69.4887 -69.4886
   -69.4879 -69.4879 -69.4877 -69.4871 -69.4870 -69.4868 -69.4868 -69.4862
   -69.4845 -69.4829 -69.4824 -69.4819 -69.4817 -69.4804 -69.4801 -69.4773
   -64.6123 -64.5900 -64.5880 -64.5871 -64.5784 -64.5779 -64.5774 -64.5700
   -64.5675 -64.5614 -31.6038 -31.5992 -31.5966 -31.5826 -31.5808 -31.5807
   -31.5795 -31.5769 -31.5747 -31.5743 -31.5737 -31.5731 -31.5699 -31.5678
   -31.5673 -31.5666 -31.5643 -31.5641 -31.5633 -31.5630 -31.5620 -31.5615
   -31.5613 -31.5595 -31.5541 -31.5533 -31.5497 -31.5466 -31.5455 -31.5421
    -9.8859  -9.5470  -9.5334  -9.4235  -9.4150  -9.3988  -9.3775  -9.3552
    -9.3478  -9.2548  -9.2243  -9.2089  -9.1903  -9.1658  -9.1608  -9.1551
    -9.1326  -9.1241  -9.0983  -9.0942  -9.0694  -9.0347  -9.0066  -9.0031
    -8.9977  -8.9923  -8.9827  -8.9496  -8.9359  -8.8970  -8.8730  -8.8511
    -8.8275  -8.8172  -8.8078  -8.7032   1.9537   1.9575   1.9720   1.9774
     2.0023   2.0139   2.0214   2.0331   2.0469   2.0637   2.0724   2.0989
     2.1213   2.1318   2.1625   2.1676   2.1948   2.2286   2.2380   2.2609
     2.3097   2.3332   2.3432   2.3549   2.3734   2.3877   2.3973   2.4128
     2.4273   2.4427   2.4528   2.4639   2.4726   2.4772   2.4851   2.5022
     2.5165   2.5218   2.5264   2.5380   2.5478   2.5518   2.5663   2.5737
     2.5896   2.5922   2.6065   2.6087   2.6298   2.6460   2.6549   2.6594
     2.6727   2.6769   2.6789   2.6980   2.7003   2.7116   2.7150   2.7289
     2.7411   2.7690   2.8263   2.8291   2.8442   2.8467   2.8649   2.8725
     2.8847   2.9003   2.9221   2.9427   2.9620   2.9979   3.0097   3.0217
     3.0336   3.0545   3.0691   3.0863   3.0989   3.1365   3.1466   3.1842
     3.1921   3.2049   3.2145   3.2318   3.2417   3.2632   3.2746   3.2875
     3.3041   3.3205   3.3318   3.3621   3.3723   3.3915   3.4099   3.4255
     3.4316   3.4372   3.4596   3.4661   3.4834   3.4891   3.4934   3.5035
     3.5137   3.5192   3.5229   3.5314   3.5336   3.5440   3.5474   3.5653
     3.5720   3.5771   3.5884   3.5984   3.6009   3.6165   3.6223   3.6342
     3.6346   3.6511   3.6866   3.7083   3.7262   3.7452   3.7532   3.8937
     3.9141   3.9494   3.9808   4.0097   4.0196   4.0718   4.1039   4.1318
     4.1463   4.1590   4.1815   4.2166   4.2726   4.2933   4.3051   4.3683
     4.4081   4.4189   4.4850   4.5182   4.5553   4.5752   4.6083   4.6678
     4.7053   4.7142   4.7774   4.8337   4.8709   4.8923   4.9149   4.9618
     5.0449   5.0942   5.1203   5.1327   5.1884   5.2959   5.4304   5.4540
     5.4716   5.4846   5.5992   5.6782   5.7350   5.7742   5.8538   5.8671
     5.8927   5.9243   5.9672   5.9763   5.9978   6.0480   6.0650   6.0823
     6.0979   6.1529   6.2046   6.2509   6.2649   6.3296   6.3548   6.3771
     6.4098   6.4276   6.4790   6.4991   6.5296   6.5510   6.5531   6.5661
     6.5816   6.6077   6.6119   6.6189   6.6512   6.6649   6.6893   6.7015
     6.7122   6.7325   6.7520   6.7655   6.7692   6.8752   6.9261   6.9777
     7.0028   7.0253   7.0265   7.0344   7.0515   7.0596   7.0944   7.1585
     7.1771   7.2057   7.2660   7.3414   7.3968   7.4114   7.4356   7.6655
     7.6834   7.6995   9.1108  11.6357  11.6677  12.3447  12.3670  12.4043
    12.4354  12.5085  12.6028  13.2376  13.2671  13.2908  13.2962  13.3492
    13.3690  13.3960  13.4331  13.4375  13.4995  13.5788  13.7084  13.9115
    15.3449  15.3588  15.3982  15.4405  15.4985  15.5564  15.5958  15.6141
    15.6556  15.6926  15.7040  15.7315  15.7476  15.7567  15.7851  15.8061
    15.8412  15.8485  15.8557  15.8991  15.9592  16.0063  16.0821  16.1565
    16.2199  16.2425  16.2903  16.3854  16.4373  16.6576  16.6783  16.6828
    16.6986  16.7255  16.7642  16.7875  16.7954  16.7999  16.8072  16.8178
    16.8236  17.2061  17.3935  17.5102  17.7238  17.8684  17.9145  18.0061
    18.0632  18.1235  18.2578  18.4636  18.5976  18.7724  18.8215  18.8808
    18.9485  19.0430  19.0696  19.0970  19.1195  19.1626

     occupation numbers 
     1.0000   1.0000   1.0000   1.0000   1.0000   1.0000   1.0000   1.0000
     1.0000   1.0000   1.0000   1.0000   1.0000   1.0000   1.0000   1.0000
     1.0000   1.0000   1.0000   1.0000   1.0000   1.0000   1.0000   1.0000
     1.0000   1.0000   1.0000   1.0000   1.0000   1.0000   1.0000   1.0000
     1.0000   1.0000   1.0000   1.0000   1.0000   1.0000   1.0000   1.0000
     1.0000   1.0000   1.0000   1.0000   1.0000   1.0000   1.0000   1.0000
     1.0000   1.0000   1.0000   1.0000   1.0000   1.0000   1.0000   1.0000
     1.0000   1.0000   1.0000   1.0000   1.0000   1.0000   1.0000   1.0000
     1.0000   1.0000   1.0000   1.0000   1.0000   1.0000   1.0000   1.0000
     1.0000   1.0000   1.0000   1.0000   1.0000   1.0000   1.0000   1.0000
     1.0000   1.0000   1.0000   1.0000   1.0000   1.0000   1.0000   1.0000
     1.0000   1.0000   1.0000   1.0000   1.0000   1.0000   1.0000   1.0000
     1.0000   1.0000   1.0000   1.0000   1.0000   1.0000   1.0000   1.0000
     1.0000   1.0000   1.0000   1.0000   1.0000   1.0000   1.0000   1.0000
     1.0000   1.0000   1.0000   1.0000   1.0000   1.0000   1.0000   1.0000
     1.0000   1.0000   1.0000   1.0000   1.0000   1.0000   1.0000   1.0000
     1.0000   1.0000   1.0000   1.0000   1.0000   1.0000   1.0000   1.0000
     1.0000   1.0000   1.0000   1.0000   1.0000   1.0000   1.0000   1.0000
     1.0000   1.0000   1.0000   1.0000   1.0000   1.0000   1.0000   1.0000
     1.0000   1.0000   1.0000   1.0000   1.0000   1.0000   1.0000   1.0000
     1.0000   1.0000   1.0000   1.0000   1.0000   1.0000   1.0000   1.0000
     1.0000   1.0000   1.0000   1.0000   1.0000   1.0000   1.0000   1.0000
     1.0000   1.0000   1.0000   1.0000   1.0000   1.0000   1.0000   1.0000
     1.0000   1.0000   1.0000   1.0000   1.0000   1.0000   1.0000   1.0000
     1.0000   1.0000   1.0000   1.0000   1.0000   1.0000   1.0000   1.0000
     1.0000   1.0000   1.0000   1.0000   1.0000   1.0000   1.0000   1.0000
     1.0000   1.0000   1.0000   1.0000   1.0000   1.0000   1.0000   1.0000
     1.0000   1.0000   1.0000   1.0000   1.0000   1.0000   1.0000   1.0000
     1.0000   1.0000   1.0000   1.0000   1.0000   1.0000   1.0000   1.0000
     1.0000   1.0000   1.0000   1.0000   1.0000   1.0000   1.0000   1.0000
     1.0000   1.0000   1.0000   1.0000   1.0000   1.0000   1.0000   1.0000
     1.0000   1.0000   1.0000   1.0000   1.0000   1.0000   1.0000   1.0000
     1.0000   1.0000   1.0000   1.0000   1.0000   1.0000   1.0000   1.0000
     1.0000   1.0000   1.0000   1.0000   1.0000   1.0000   1.0000   1.0000
     1.0000   1.0000   1.0000   1.0000   1.0000   1.0000   1.0000   1.0000
     1.0000   1.0000   1.0000   1.0000   1.0000   1.0000   1.0000   1.0000
     1.0000   1.0000   1.0000   1.0000   1.0000   1.0000   1.0000   1.0000
     1.0000   1.0000   1.0000   1.0000   1.0000   1.0000   1.0000   1.0000
     1.0000   1.0000   1.0000   1.0000   1.0000   1.0000   1.0000   1.0000
     1.0000   1.0000   1.0000   1.0000   1.0000   1.0000   1.0000   1.0000
     1.0000   1.0000   1.0000   1.0000   1.0000   1.0000   1.0000   1.0000
     1.0000   1.0000   1.0000   1.0000   1.0000   1.0000   1.0000   1.0000
     1.0000   1.0000   1.0000   1.0000   1.0000   1.0000   1.0000   1.0000
     1.0000   1.0000   1.0000   1.0000   1.0000   1.0000   1.0000   1.0000
     1.0000   1.0000   1.0000   1.0000   1.0000   1.0000   1.0000   1.0000
     1.0000   1.0000   1.0000   1.0000   1.0000   1.0000   1.0000   1.0000
     1.0000   1.0000   1.0000   1.0000   1.0000   1.0000   1.0000   1.0000
     1.0000   1.0000   1.0000   1.0000   1.0000   1.0000   1.0000   1.0000
     1.0000   1.0000   1.0000   1.0000   1.0000   1.0000   1.0000   1.0000
     1.0000   1.0000   1.0000   1.0000   1.0000   1.0000   1.0000   1.0000
     1.0000   1.0000   1.0000   1.0000   1.0000   1.0000   1.0000   1.0000
     1.0000   1.0000   1.0000   1.0000   1.0000   1.0000   1.0000   1.0000
     1.0000   1.0000   0.0000   0.0000   0.0000   0.0000   0.0000   0.0000
     0.0000   0.0000   0.0000   0.0000   0.0000   0.0000   0.0000   0.0000
     0.0000   0.0000   0.0000   0.0000   0.0000   0.0000   0.0000   0.0000
     0.0000   0.0000   0.0000   0.0000   0.0000   0.0000   0.0000   0.0000
     0.0000   0.0000   0.0000   0.0000   0.0000   0.0000   0.0000   0.0000
     0.0000   0.0000   0.0000   0.0000   0.0000   0.0000   0.0000   0.0000
     0.0000   0.0000   0.0000   0.0000   0.0000   0.0000   0.0000   0.0000
     0.0000   0.0000   0.0000   0.0000   0.0000   0.0000   0.0000   0.0000
     0.0000   0.0000   0.0000   0.0000   0.0000   0.0000   0.0000   0.0000
     0.0000   0.0000   0.0000   0.0000   0.0000   0.0000   0.0000   0.0000
     0.0000   0.0000   0.0000   0.0000   0.0000   0.0000

          k = 0.0001-0.0000 0.2355 ( 44987 PWs)   bands (ev):

  -115.1452-115.1436-115.1426-115.1422-115.1421-115.1416-115.1406-115.1398
  -115.1397-115.1389-115.1380-115.1377-115.1375-115.1373-115.1363-115.1361
  -115.1360-115.1354-115.1343-115.1339-115.1327-115.1319-115.1296-115.1283
  -115.1272-115.1245 -69.5052 -69.5049 -69.5037 -69.5035 -69.5030 -69.5021
   -69.5019 -69.5015 -69.5015 -69.5011 -69.5007 -69.5004 -69.5003 -69.5001
   -69.5000 -69.4998 -69.4996 -69.4995 -69.4993 -69.4988 -69.4980 -69.4974
   -69.4972 -69.4970 -69.4965 -69.4964 -69.4964 -69.4962 -69.4960 -69.4956
   -69.4955 -69.4954 -69.4952 -69.4942 -69.4942 -69.4941 -69.4940 -69.4938
   -69.4937 -69.4935 -69.4933 -69.4930 -69.4929 -69.4929 -69.4927 -69.4923
   -69.4922 -69.4921 -69.4918 -69.4913 -69.4913 -69.4912 -69.4908 -69.4906
   -69.4901 -69.4899 -69.4895 -69.4895 -69.4894 -69.4892 -69.4887 -69.4886
   -69.4879 -69.4879 -69.4877 -69.4871 -69.4870 -69.4868 -69.4868 -69.4862
   -69.4845 -69.4829 -69.4824 -69.4819 -69.4817 -69.4804 -69.4801 -69.4773
   -64.6123 -64.5900 -64.5880 -64.5871 -64.5784 -64.5779 -64.5774 -64.5700
   -64.5675 -64.5614 -31.6038 -31.5992 -31.5966 -31.5826 -31.5808 -31.5807
   -31.5795 -31.5770 -31.5747 -31.5743 -31.5737 -31.5731 -31.5699 -31.5678
   -31.5673 -31.5666 -31.5643 -31.5641 -31.5633 -31.5630 -31.5620 -31.5615
   -31.5613 -31.5595 -31.5541 -31.5533 -31.5497 -31.5466 -31.5455 -31.5421
    -9.8594  -9.6654  -9.4496  -9.4101  -9.4031  -9.3791  -9.3561  -9.3501
    -9.3275  -9.2915  -9.2757  -9.2488  -9.2253  -9.1996  -9.1599  -9.1452
    -9.1103  -9.1030  -9.0784  -9.0586  -9.0410  -9.0324  -9.0088  -9.0001
    -8.9932  -8.9866  -8.9827  -8.9572  -8.9373  -8.9028  -8.8746  -8.8545
    -8.8336  -8.8208  -8.8138  -8.7056   1.9593   1.9739   1.9788   1.9957
     2.0059   2.0240   2.0474   2.0638   2.0682   2.0889   2.0954   2.1101
     2.1225   2.1373   2.1670   2.1765   2.2041   2.2366   2.2610   2.2831
     2.3103   2.3329   2.3388   2.3520   2.3768   2.3846   2.3920   2.3979
     2.4167   2.4311   2.4429   2.4482   2.4566   2.4676   2.4788   2.4902
     2.5017   2.5147   2.5223   2.5314   2.5446   2.5593   2.5682   2.5712
     2.5883   2.6045   2.6130   2.6225   2.6260   2.6429   2.6491   2.6579
     2.6682   2.6782   2.6866   2.6915   2.7008   2.7106   2.7159   2.7249
     2.7331   2.7704   2.8053   2.8094   2.8217   2.8316   2.8420   2.8610
     2.8730   2.8745   2.8950   2.9207   2.9284   2.9544   2.9818   2.9894
     3.0154   3.0287   3.0466   3.0591   3.0778   3.0901   3.1338   3.1438
     3.1667   3.1749   3.2065   3.2230   3.2355   3.2553   3.2620   3.2738
     3.2852   3.3081   3.3342   3.3515   3.3642   3.3823   3.4107   3.4267
     3.4342   3.4379   3.4590   3.4671   3.4761   3.4857   3.5035   3.5107
     3.5174   3.5263   3.5290   3.5412   3.5464   3.5524   3.5586   3.5723
     3.5782   3.5889   3.6000   3.6017   3.6132   3.6181   3.6220   3.6399
     3.6545   3.6721   3.6813   3.7048   3.7263   3.7318   3.8060   3.9395
     3.9817   4.0059   4.0360   4.0532   4.0770   4.1049   4.1384   4.1491
     4.1699   4.1945   4.2081   4.2627   4.2744   4.3040   4.3382   4.3777
     4.4118   4.4460   4.4969   4.5198   4.5481   4.5765   4.6226   4.6522
     4.7026   4.7462   4.7753   4.8204   4.8557   4.9152   4.9278   4.9582
     4.9888   5.0256   5.0863   5.1247   5.3460   5.3827   5.4473   5.4753
     5.5191   5.5467   5.5850   5.6894   5.7475   5.7828   5.8374   5.8767
     5.9068   5.9271   5.9363   5.9883   5.9972   6.0108   6.0244   6.0526
     6.0738   6.0963   6.1072   6.1184   6.1474   6.1697   6.2066   6.2902
     6.3240   6.3469   6.3734   6.4034   6.4226   6.4551   6.5298   6.5456
     6.5630   6.5947   6.6608   6.6891   6.7244   6.7484   6.7822   6.7936
     6.8230   6.8495   6.8581   6.8765   6.8811   6.9267   6.9563   7.0053
     7.0144   7.0498   7.0601   7.0695   7.0747   7.1018   7.1106   7.1458
     7.1625   7.1866   7.2392   7.2717   7.3065   7.4131   7.4877   7.5210
     7.6646   7.6801   9.4503  10.9037  12.2461  12.3741  12.3938  12.4295
    12.4657  12.5398  12.6018  12.8574  12.8664  12.9023  12.9696  13.0348
    13.2049  13.5388  13.9280  13.9363  13.9752  14.0044  14.0818  14.1431
    15.0788  15.1019  15.1336  15.1832  15.2095  15.2793  15.4247  15.4317
    15.6242  15.6269  15.7114  15.7451  15.7868  15.7957  15.8081  15.8558
    15.8870  15.9391  15.9682  16.0235  16.0920  16.1429  16.1902  16.2315
    16.2424  16.3277  16.3576  16.4367  16.5370  16.6547  16.6731  16.6941
    16.7078  16.7238  16.7465  16.7640  16.7929  16.8699  16.9219  16.9497
    16.9825  17.1379  17.2904  17.5050  17.6067  17.7416  17.8493  17.9074
    17.9545  18.0642  18.1624  18.3315  18.5156  18.6470  18.7035  18.7420
    18.8348  18.9447  19.0034  19.0559  19.1957  19.2368

     occupation numbers 
     1.0000   1.0000   1.0000   1.0000   1.0000   1.0000   1.0000   1.0000
     1.0000   1.0000   1.0000   1.0000   1.0000   1.0000   1.0000   1.0000
     1.0000   1.0000   1.0000   1.0000   1.0000   1.0000   1.0000   1.0000
     1.0000   1.0000   1.0000   1.0000   1.0000   1.0000   1.0000   1.0000
     1.0000   1.0000   1.0000   1.0000   1.0000   1.0000   1.0000   1.0000
     1.0000   1.0000   1.0000   1.0000   1.0000   1.0000   1.0000   1.0000
     1.0000   1.0000   1.0000   1.0000   1.0000   1.0000   1.0000   1.0000
     1.0000   1.0000   1.0000   1.0000   1.0000   1.0000   1.0000   1.0000
     1.0000   1.0000   1.0000   1.0000   1.0000   1.0000   1.0000   1.0000
     1.0000   1.0000   1.0000   1.0000   1.0000   1.0000   1.0000   1.0000
     1.0000   1.0000   1.0000   1.0000   1.0000   1.0000   1.0000   1.0000
     1.0000   1.0000   1.0000   1.0000   1.0000   1.0000   1.0000   1.0000
     1.0000   1.0000   1.0000   1.0000   1.0000   1.0000   1.0000   1.0000
     1.0000   1.0000   1.0000   1.0000   1.0000   1.0000   1.0000   1.0000
     1.0000   1.0000   1.0000   1.0000   1.0000   1.0000   1.0000   1.0000
     1.0000   1.0000   1.0000   1.0000   1.0000   1.0000   1.0000   1.0000
     1.0000   1.0000   1.0000   1.0000   1.0000   1.0000   1.0000   1.0000
     1.0000   1.0000   1.0000   1.0000   1.0000   1.0000   1.0000   1.0000
     1.0000   1.0000   1.0000   1.0000   1.0000   1.0000   1.0000   1.0000
     1.0000   1.0000   1.0000   1.0000   1.0000   1.0000   1.0000   1.0000
     1.0000   1.0000   1.0000   1.0000   1.0000   1.0000   1.0000   1.0000
     1.0000   1.0000   1.0000   1.0000   1.0000   1.0000   1.0000   1.0000
     1.0000   1.0000   1.0000   1.0000   1.0000   1.0000   1.0000   1.0000
     1.0000   1.0000   1.0000   1.0000   1.0000   1.0000   1.0000   1.0000
     1.0000   1.0000   1.0000   1.0000   1.0000   1.0000   1.0000   1.0000
     1.0000   1.0000   1.0000   1.0000   1.0000   1.0000   1.0000   1.0000
     1.0000   1.0000   1.0000   1.0000   1.0000   1.0000   1.0000   1.0000
     1.0000   1.0000   1.0000   1.0000   1.0000   1.0000   1.0000   1.0000
     1.0000   1.0000   1.0000   1.0000   1.0000   1.0000   1.0000   1.0000
     1.0000   1.0000   1.0000   1.0000   1.0000   1.0000   1.0000   1.0000
     1.0000   1.0000   1.0000   1.0000   1.0000   1.0000   1.0000   1.0000
     1.0000   1.0000   1.0000   1.0000   1.0000   1.0000   1.0000   1.0000
     1.0000   1.0000   1.0000   1.0000   1.0000   1.0000   1.0000   1.0000
     1.0000   1.0000   1.0000   1.0000   1.0000   1.0000   1.0000   1.0000
     1.0000   1.0000   1.0000   1.0000   1.0000   1.0000   1.0000   1.0000
     1.0000   1.0000   1.0000   1.0000   1.0000   1.0000   1.0000   1.0000
     1.0000   1.0000   1.0000   1.0000   1.0000   1.0000   1.0000   1.0000
     1.0000   1.0000   1.0000   1.0000   1.0000   1.0000   1.0000   1.0000
     1.0000   1.0000   1.0000   1.0000   1.0000   1.0000   1.0000   1.0000
     1.0000   1.0000   1.0000   1.0000   1.0000   1.0000   1.0000   1.0000
     1.0000   1.0000   1.0000   1.0000   1.0000   1.0000   1.0000   1.0000
     1.0000   1.0000   1.0000   1.0000   1.0000   1.0000   1.0000   1.0000
     1.0000   1.0000   1.0000   1.0000   1.0000   1.0000   1.0000   1.0000
     1.0000   1.0000   1.0000   1.0000   1.0000   1.0000   1.0000   1.0000
     1.0000   1.0000   1.0000   1.0000   1.0000   1.0000   1.0000   1.0000
     1.0000   1.0000   1.0000   1.0000   1.0000   1.0000   1.0000   1.0000
     1.0000   1.0000   1.0000   1.0000   1.0000   1.0000   1.0000   1.0000
     1.0000   1.0000   1.0000   1.0000   1.0000   1.0000   1.0000   1.0000
     1.0000   1.0000   1.0000   1.0000   1.0000   1.0000   1.0000   1.0000
     1.0000   1.0000   1.0000   1.0000   1.0000   1.0000   1.0000   1.0000
     1.0000   1.0000   1.0000   1.0000   1.0000   1.0000   1.0000   1.0000
     1.0000   1.0000   1.0000   1.0000   1.0000   1.0000   1.0000   1.0000
     1.0000   1.0000   0.0000   0.0000   0.0000   0.0000   0.0000   0.0000
     0.0000   0.0000   0.0000   0.0000   0.0000   0.0000   0.0000   0.0000
     0.0000   0.0000   0.0000   0.0000   0.0000   0.0000   0.0000   0.0000
     0.0000   0.0000   0.0000   0.0000   0.0000   0.0000   0.0000   0.0000
     0.0000   0.0000   0.0000   0.0000   0.0000   0.0000   0.0000   0.0000
     0.0000   0.0000   0.0000   0.0000   0.0000   0.0000   0.0000   0.0000
     0.0000   0.0000   0.0000   0.0000   0.0000   0.0000   0.0000   0.0000
     0.0000   0.0000   0.0000   0.0000   0.0000   0.0000   0.0000   0.0000
     0.0000   0.0000   0.0000   0.0000   0.0000   0.0000   0.0000   0.0000
     0.0000   0.0000   0.0000   0.0000   0.0000   0.0000   0.0000   0.0000
     0.0000   0.0000   0.0000   0.0000   0.0000   0.0000

          k =-0.0001 0.0000-0.4711 ( 44928 PWs)   bands (ev):

  -115.1452-115.1436-115.1426-115.1422-115.1421-115.1416-115.1406-115.1398
  -115.1397-115.1389-115.1380-115.1377-115.1375-115.1373-115.1363-115.1361
  -115.1360-115.1354-115.1343-115.1339-115.1327-115.1319-115.1296-115.1283
  -115.1272-115.1245 -69.5052 -69.5049 -69.5037 -69.5035 -69.5030 -69.5021
   -69.5019 -69.5015 -69.5015 -69.5011 -69.5007 -69.5004 -69.5003 -69.5001
   -69.5000 -69.4998 -69.4996 -69.4995 -69.4993 -69.4988 -69.4980 -69.4974
   -69.4972 -69.4970 -69.4965 -69.4964 -69.4964 -69.4962 -69.4960 -69.4956
   -69.4955 -69.4954 -69.4952 -69.4942 -69.4942 -69.4941 -69.4940 -69.4939
   -69.4937 -69.4935 -69.4933 -69.4930 -69.4929 -69.4929 -69.4927 -69.4923
   -69.4922 -69.4921 -69.4918 -69.4913 -69.4913 -69.4912 -69.4908 -69.4906
   -69.4901 -69.4899 -69.4895 -69.4895 -69.4894 -69.4892 -69.4887 -69.4886
   -69.4879 -69.4879 -69.4877 -69.4871 -69.4870 -69.4868 -69.4868 -69.4862
   -69.4845 -69.4829 -69.4824 -69.4819 -69.4817 -69.4804 -69.4801 -69.4773
   -64.6123 -64.5900 -64.5880 -64.5871 -64.5784 -64.5779 -64.5774 -64.5700
   -64.5675 -64.5614 -31.6038 -31.5992 -31.5966 -31.5826 -31.5808 -31.5807
   -31.5795 -31.5769 -31.5747 -31.5742 -31.5737 -31.5731 -31.5699 -31.5678
   -31.5673 -31.5666 -31.5643 -31.5641 -31.5633 -31.5630 -31.5620 -31.5615
   -31.5613 -31.5595 -31.5541 -31.5533 -31.5497 -31.5466 -31.5455 -31.5421
    -9.7982  -9.7637  -9.4079  -9.3936  -9.3753  -9.3641  -9.3573  -9.3373
    -9.3278  -9.3163  -9.3035  -9.2753  -9.2625  -9.1971  -9.1919  -9.1543
    -9.0914  -9.0783  -9.0638  -9.0398  -9.0246  -9.0168  -9.0053  -8.9945
    -8.9914  -8.9865  -8.9831  -8.9670  -8.9353  -8.9102  -8.8754  -8.8568
    -8.8436  -8.8256  -8.8184  -8.7081   1.9652   1.9895   1.9918   2.0108
     2.0297   2.0364   2.0511   2.0654   2.0835   2.0927   2.1111   2.1499
     2.1626   2.1756   2.1908   2.2026   2.2291   2.2583   2.2717   2.2846
     2.3027   2.3181   2.3205   2.3386   2.3460   2.3626   2.3757   2.3969
     2.4062   2.4235   2.4290   2.4328   2.4443   2.4618   2.4706   2.4887
     2.4933   2.5080   2.5156   2.5374   2.5509   2.5704   2.5767   2.5852
     2.5895   2.5951   2.6098   2.6242   2.6345   2.6404   2.6518   2.6545
     2.6676   2.6699   2.6810   2.6958   2.7107   2.7134   2.7241   2.7312
     2.7422   2.7580   2.7586   2.7706   2.7817   2.7930   2.8067   2.8277
     2.8370   2.8479   2.8730   2.9063   2.9078   2.9239   2.9448   2.9818
     3.0055   3.0144   3.0219   3.0374   3.0658   3.0877   3.0930   3.1304
     3.1503   3.1633   3.1953   3.2122   3.2299   3.2413   3.2518   3.2647
     3.2692   3.2826   3.3179   3.3651   3.3701   3.3971   3.4159   3.4233
     3.4373   3.4483   3.4644   3.4718   3.4818   3.4834   3.5002   3.5083
     3.5194   3.5261   3.5314   3.5367   3.5512   3.5570   3.5645   3.5736
     3.5814   3.5918   3.6014   3.6139   3.6219   3.6278   3.6412   3.6540
     3.6666   3.6766   3.6880   3.6972   3.7028   3.7225   3.9236   3.9866
     4.0088   4.0513   4.0610   4.1057   4.1197   4.1372   4.1440   4.1724
     4.2063   4.2253   4.2468   4.2760   4.3394   4.3579   4.3725   4.4038
     4.4178   4.4292   4.4577   4.4661   4.4864   4.5223   4.5566   4.6425
     4.6596   4.7598   4.7792   4.8420   4.9485   4.9714   5.0261   5.0388
     5.0629   5.0825   5.0931   5.1833   5.3788   5.4293   5.4587   5.5151
     5.5632   5.5803   5.6006   5.6432   5.6612   5.6654   5.7372   5.7585
     5.7743   5.8085   5.8141   5.8513   5.8696   6.0607   6.0644   6.0893
     6.1314   6.1438   6.1531   6.1795   6.2019   6.2224   6.2360   6.2463
     6.2592   6.2801   6.3059   6.3099   6.3299   6.3482   6.3737   6.3954
     6.6100   6.6363   6.7096   6.7553   6.7925   6.8047   6.8228   6.8492
     6.8971   6.9086   6.9233   6.9312   6.9441   6.9751   6.9880   7.0015
     7.0297   7.0559   7.0725   7.0788   7.1014   7.1320   7.1503   7.1558
     7.1681   7.1766   7.1850   7.2045   7.2237   7.2316   7.5509   7.5871
     7.6329   7.6424  10.0983  10.1721  12.4138  12.4523  12.4795  12.4993
    12.5308  12.5456  12.5658  12.6102  12.6538  12.7035  12.7854  13.0023
    13.1383  13.3528  14.4890  14.5045  14.5130  14.5201  14.5664  14.5731
    14.6086  14.6285  14.6476  14.7042  14.7170  14.7797  15.4991  15.5029
    15.5394  15.5424  15.7249  15.7521  15.7954  15.8021  15.8124  15.8672
    15.9117  15.9567  15.9836  16.0092  16.1289  16.1900  16.3408  16.3616
    16.4032  16.4388  16.5149  16.5243  16.5680  16.6166  16.6434  16.6636
    16.7157  16.7284  16.7326  16.7497  16.7563  16.7859  17.0513  17.0853
    17.2257  17.2418  17.3136  17.3357  17.4178  17.5982  17.7390  17.7488
    17.9601  18.0875  18.1050  18.2670  18.3778  18.4919  18.5451  18.6246
    18.8191  18.8852  18.9203  19.0504  19.1971  19.2497

     occupation numbers 
     1.0000   1.0000   1.0000   1.0000   1.0000   1.0000   1.0000   1.0000
     1.0000   1.0000   1.0000   1.0000   1.0000   1.0000   1.0000   1.0000
     1.0000   1.0000   1.0000   1.0000   1.0000   1.0000   1.0000   1.0000
     1.0000   1.0000   1.0000   1.0000   1.0000   1.0000   1.0000   1.0000
     1.0000   1.0000   1.0000   1.0000   1.0000   1.0000   1.0000   1.0000
     1.0000   1.0000   1.0000   1.0000   1.0000   1.0000   1.0000   1.0000
     1.0000   1.0000   1.0000   1.0000   1.0000   1.0000   1.0000   1.0000
     1.0000   1.0000   1.0000   1.0000   1.0000   1.0000   1.0000   1.0000
     1.0000   1.0000   1.0000   1.0000   1.0000   1.0000   1.0000   1.0000
     1.0000   1.0000   1.0000   1.0000   1.0000   1.0000   1.0000   1.0000
     1.0000   1.0000   1.0000   1.0000   1.0000   1.0000   1.0000   1.0000
     1.0000   1.0000   1.0000   1.0000   1.0000   1.0000   1.0000   1.0000
     1.0000   1.0000   1.0000   1.0000   1.0000   1.0000   1.0000   1.0000
     1.0000   1.0000   1.0000   1.0000   1.0000   1.0000   1.0000   1.0000
     1.0000   1.0000   1.0000   1.0000   1.0000   1.0000   1.0000   1.0000
     1.0000   1.0000   1.0000   1.0000   1.0000   1.0000   1.0000   1.0000
     1.0000   1.0000   1.0000   1.0000   1.0000   1.0000   1.0000   1.0000
     1.0000   1.0000   1.0000   1.0000   1.0000   1.0000   1.0000   1.0000
     1.0000   1.0000   1.0000   1.0000   1.0000   1.0000   1.0000   1.0000
     1.0000   1.0000   1.0000   1.0000   1.0000   1.0000   1.0000   1.0000
     1.0000   1.0000   1.0000   1.0000   1.0000   1.0000   1.0000   1.0000
     1.0000   1.0000   1.0000   1.0000   1.0000   1.0000   1.0000   1.0000
     1.0000   1.0000   1.0000   1.0000   1.0000   1.0000   1.0000   1.0000
     1.0000   1.0000   1.0000   1.0000   1.0000   1.0000   1.0000   1.0000
     1.0000   1.0000   1.0000   1.0000   1.0000   1.0000   1.0000   1.0000
     1.0000   1.0000   1.0000   1.0000   1.0000   1.0000   1.0000   1.0000
     1.0000   1.0000   1.0000   1.0000   1.0000   1.0000   1.0000   1.0000
     1.0000   1.0000   1.0000   1.0000   1.0000   1.0000   1.0000   1.0000
     1.0000   1.0000   1.0000   1.0000   1.0000   1.0000   1.0000   1.0000
     1.0000   1.0000   1.0000   1.0000   1.0000   1.0000   1.0000   1.0000
     1.0000   1.0000   1.0000   1.0000   1.0000   1.0000   1.0000   1.0000
     1.0000   1.0000   1.0000   1.0000   1.0000   1.0000   1.0000   1.0000
     1.0000   1.0000   1.0000   1.0000   1.0000   1.0000   1.0000   1.0000
     1.0000   1.0000   1.0000   1.0000   1.0000   1.0000   1.0000   1.0000
     1.0000   1.0000   1.0000   1.0000   1.0000   1.0000   1.0000   1.0000
     1.0000   1.0000   1.0000   1.0000   1.0000   1.0000   1.0000   1.0000
     1.0000   1.0000   1.0000   1.0000   1.0000   1.0000   1.0000   1.0000
     1.0000   1.0000   1.0000   1.0000   1.0000   1.0000   1.0000   1.0000
     1.0000   1.0000   1.0000   1.0000   1.0000   1.0000   1.0000   1.0000
     1.0000   1.0000   1.0000   1.0000   1.0000   1.0000   1.0000   1.0000
     1.0000   1.0000   1.0000   1.0000   1.0000   1.0000   1.0000   1.0000
     1.0000   1.0000   1.0000   1.0000   1.0000   1.0000   1.0000   1.0000
     1.0000   1.0000   1.0000   1.0000   1.0000   1.0000   1.0000   1.0000
     1.0000   1.0000   1.0000   1.0000   1.0000   1.0000   1.0000   1.0000
     1.0000   1.0000   1.0000   1.0000   1.0000   1.0000   1.0000   1.0000
     1.0000   1.0000   1.0000   1.0000   1.0000   1.0000   1.0000   1.0000
     1.0000   1.0000   1.0000   1.0000   1.0000   1.0000   1.0000   1.0000
     1.0000   1.0000   1.0000   1.0000   1.0000   1.0000   1.0000   1.0000
     1.0000   1.0000   1.0000   1.0000   1.0000   1.0000   1.0000   1.0000
     1.0000   1.0000   1.0000   1.0000   1.0000   1.0000   1.0000   1.0000
     1.0000   1.0000   1.0000   1.0000   1.0000   1.0000   1.0000   1.0000
     1.0000   1.0000   1.0000   1.0000   1.0000   1.0000   1.0000   1.0000
     1.0000   1.0000   0.0000   0.0000   0.0000   0.0000   0.0000   0.0000
     0.0000   0.0000   0.0000   0.0000   0.0000   0.0000   0.0000   0.0000
     0.0000   0.0000   0.0000   0.0000   0.0000   0.0000   0.0000   0.0000
     0.0000   0.0000   0.0000   0.0000   0.0000   0.0000   0.0000   0.0000
     0.0000   0.0000   0.0000   0.0000   0.0000   0.0000   0.0000   0.0000
     0.0000   0.0000   0.0000   0.0000   0.0000   0.0000   0.0000   0.0000
     0.0000   0.0000   0.0000   0.0000   0.0000   0.0000   0.0000   0.0000
     0.0000   0.0000   0.0000   0.0000   0.0000   0.0000   0.0000   0.0000
     0.0000   0.0000   0.0000   0.0000   0.0000   0.0000   0.0000   0.0000
     0.0000   0.0000   0.0000   0.0000   0.0000   0.0000   0.0000   0.0000
     0.0000   0.0000   0.0000   0.0000   0.0000   0.0000

          k = 0.0003 0.2884-0.0000 ( 44919 PWs)   bands (ev):

  -115.1452-115.1436-115.1426-115.1422-115.1421-115.1416-115.1406-115.1398
  -115.1397-115.1389-115.1380-115.1377-115.1375-115.1373-115.1363-115.1361
  -115.1360-115.1354-115.1343-115.1339-115.1327-115.1319-115.1296-115.1283
  -115.1272-115.1245 -69.5052 -69.5049 -69.5037 -69.5035 -69.5030 -69.5021
   -69.5019 -69.5015 -69.5015 -69.5011 -69.5007 -69.5004 -69.5003 -69.5001
   -69.5000 -69.4998 -69.4995 -69.4995 -69.4993 -69.4988 -69.4980 -69.4974
   -69.4972 -69.4970 -69.4965 -69.4964 -69.4964 -69.4962 -69.4960 -69.4956
   -69.4955 -69.4953 -69.4952 -69.4942 -69.4942 -69.4941 -69.4940 -69.4938
   -69.4937 -69.4935 -69.4933 -69.4930 -69.4929 -69.4929 -69.4927 -69.4923
   -69.4922 -69.4921 -69.4918 -69.4913 -69.4913 -69.4912 -69.4908 -69.4906
   -69.4901 -69.4899 -69.4895 -69.4895 -69.4894 -69.4892 -69.4887 -69.4886
   -69.4879 -69.4879 -69.4877 -69.4871 -69.4870 -69.4868 -69.4868 -69.4862
   -69.4845 -69.4829 -69.4824 -69.4819 -69.4817 -69.4804 -69.4801 -69.4773
   -64.6123 -64.5900 -64.5880 -64.5871 -64.5784 -64.5779 -64.5774 -64.5700
   -64.5675 -64.5614 -31.6038 -31.5992 -31.5966 -31.5826 -31.5808 -31.5807
   -31.5795 -31.5769 -31.5747 -31.5743 -31.5737 -31.5731 -31.5714 -31.5678
   -31.5673 -31.5666 -31.5643 -31.5641 -31.5632 -31.5629 -31.5620 -31.5614
   -31.5599 -31.5588 -31.5540 -31.5532 -31.5497 -31.5477 -31.5456 -31.5421
    -9.8482  -9.5916  -9.5204  -9.4924  -9.4581  -9.4191  -9.3275  -9.3110
    -9.2885  -9.2789  -9.2538  -9.2185  -9.1949  -9.1826  -9.1663  -9.1395
    -9.1222  -9.1066  -9.0816  -9.0640  -9.0524  -9.0460  -9.0332  -9.0067
    -8.9979  -8.9906  -8.9767  -8.9608  -8.9310  -8.9029  -8.8774  -8.8521
    -8.8245  -8.8132  -8.8059  -8.7037   1.9664   1.9736   1.9934   1.9960
     2.0221   2.0302   2.0401   2.0471   2.0680   2.0874   2.0986   2.1236
     2.1382   2.1591   2.1776   2.1841   2.2043   2.2214   2.2351   2.2635
     2.2919   2.3085   2.3206   2.3463   2.3653   2.3710   2.3896   2.4021
     2.4117   2.4275   2.4362   2.4492   2.4579   2.4713   2.4745   2.4866
     2.4965   2.5107   2.5231   2.5339   2.5443   2.5538   2.5707   2.5770
     2.5870   2.5954   2.6020   2.6045   2.6151   2.6275   2.6375   2.6519
     2.6601   2.6740   2.6909   2.6972   2.7061   2.7193   2.7273   2.7443
     2.7631   2.7720   2.7890   2.8033   2.8203   2.8301   2.8502   2.8601
     2.8655   2.8846   2.9101   2.9199   2.9398   2.9636   2.9737   2.9793
     3.0028   3.0334   3.0522   3.0726   3.1004   3.1088   3.1294   3.1416
     3.1626   3.1906   3.2069   3.2298   3.2398   3.2569   3.2687   3.2951
     3.3106   3.3280   3.3384   3.3468   3.3725   3.3940   3.4139   3.4288
     3.4346   3.4441   3.4529   3.4588   3.4727   3.4839   3.4952   3.5012
     3.5122   3.5225   3.5368   3.5431   3.5573   3.5632   3.5734   3.5841
     3.5888   3.5936   3.6039   3.6103   3.6173   3.6231   3.6325   3.6453
     3.6578   3.6763   3.6908   3.6975   3.7231   3.7380   3.7501   3.8117
     3.8762   3.9229   3.9508   3.9706   3.9953   4.0354   4.0679   4.0892
     4.1455   4.1644   4.1973   4.2377   4.2744   4.3145   4.3533   4.3662
     4.4128   4.4301   4.4654   4.4952   4.5444   4.6233   4.6598   4.7004
     4.7967   4.8512   4.8653   4.9267   4.9504   5.0044   5.0932   5.1403
     5.1843   5.2179   5.2416   5.2893   5.3084   5.3430   5.3867   5.4405
     5.4561   5.5011   5.5495   5.5850   5.6157   5.6765   5.7202   5.7502
     5.7789   5.9158   5.9858   6.0527   6.0693   6.1202   6.1424   6.1542
     6.1899   6.2141   6.2279   6.2675   6.3056   6.3213   6.3368   6.3585
     6.3839   6.3917   6.4254   6.4395   6.4523   6.4783   6.5026   6.5619
     6.5770   6.5926   6.6108   6.6373   6.6590   6.6738   6.6896   6.7009
     6.7157   6.7358   6.7446   6.7563   6.7957   6.8139   6.8289   6.8440
     6.8852   6.9261   6.9674   7.0022   7.0462   7.0604   7.1252   7.1417
     7.1719   7.2284   7.2390   7.2815   7.2956   7.3167   7.3554   7.4296
     7.6279   7.6550   9.5804  11.4317  11.8403  11.8741  12.1022  12.1671
    12.8643  12.9189  13.0093  13.0862  13.2101  13.2868  13.3123  13.3821
    13.4834  13.6110  13.6297  13.6896  13.7360  13.8134  13.9005  14.1204
    14.8713  14.9175  15.0017  15.0214  15.0713  15.1397  15.2721  15.3585
    15.3909  15.4467  15.4764  15.5569  15.5839  15.6594  15.6833  15.7913
    15.8287  15.8984  15.9625  16.0296  16.0817  16.0963  16.2217  16.3401
    16.4225  16.4815  16.4839  16.5327  16.5834  16.6361  16.6518  16.7345
    16.7901  16.8338  16.9564  16.9779  17.0439  17.0982  17.2051  17.2292
    17.2652  17.3183  17.4725  17.6332  17.7914  17.9141  18.0107  18.0851
    18.1162  18.2670  18.3247  18.4592  18.5815  18.7127  18.7898  18.8353
    18.8800  18.9320  18.9561  19.0194  19.0549  19.0985

     occupation numbers 
     1.0000   1.0000   1.0000   1.0000   1.0000   1.0000   1.0000   1.0000
     1.0000   1.0000   1.0000   1.0000   1.0000   1.0000   1.0000   1.0000
     1.0000   1.0000   1.0000   1.0000   1.0000   1.0000   1.0000   1.0000
     1.0000   1.0000   1.0000   1.0000   1.0000   1.0000   1.0000   1.0000
     1.0000   1.0000   1.0000   1.0000   1.0000   1.0000   1.0000   1.0000
     1.0000   1.0000   1.0000   1.0000   1.0000   1.0000   1.0000   1.0000
     1.0000   1.0000   1.0000   1.0000   1.0000   1.0000   1.0000   1.0000
     1.0000   1.0000   1.0000   1.0000   1.0000   1.0000   1.0000   1.0000
     1.0000   1.0000   1.0000   1.0000   1.0000   1.0000   1.0000   1.0000
     1.0000   1.0000   1.0000   1.0000   1.0000   1.0000   1.0000   1.0000
     1.0000   1.0000   1.0000   1.0000   1.0000   1.0000   1.0000   1.0000
     1.0000   1.0000   1.0000   1.0000   1.0000   1.0000   1.0000   1.0000
     1.0000   1.0000   1.0000   1.0000   1.0000   1.0000   1.0000   1.0000
     1.0000   1.0000   1.0000   1.0000   1.0000   1.0000   1.0000   1.0000
     1.0000   1.0000   1.0000   1.0000   1.0000   1.0000   1.0000   1.0000
     1.0000   1.0000   1.0000   1.0000   1.0000   1.0000   1.0000   1.0000
     1.0000   1.0000   1.0000   1.0000   1.0000   1.0000   1.0000   1.0000
     1.0000   1.0000   1.0000   1.0000   1.0000   1.0000   1.0000   1.0000
     1.0000   1.0000   1.0000   1.0000   1.0000   1.0000   1.0000   1.0000
     1.0000   1.0000   1.0000   1.0000   1.0000   1.0000   1.0000   1.0000
     1.0000   1.0000   1.0000   1.0000   1.0000   1.0000   1.0000   1.0000
     1.0000   1.0000   1.0000   1.0000   1.0000   1.0000   1.0000   1.0000
     1.0000   1.0000   1.0000   1.0000   1.0000   1.0000   1.0000   1.0000
     1.0000   1.0000   1.0000   1.0000   1.0000   1.0000   1.0000   1.0000
     1.0000   1.0000   1.0000   1.0000   1.0000   1.0000   1.0000   1.0000
     1.0000   1.0000   1.0000   1.0000   1.0000   1.0000   1.0000   1.0000
     1.0000   1.0000   1.0000   1.0000   1.0000   1.0000   1.0000   1.0000
     1.0000   1.0000   1.0000   1.0000   1.0000   1.0000   1.0000   1.0000
     1.0000   1.0000   1.0000   1.0000   1.0000   1.0000   1.0000   1.0000
     1.0000   1.0000   1.0000   1.0000   1.0000   1.0000   1.0000   1.0000
     1.0000   1.0000   1.0000   1.0000   1.0000   1.0000   1.0000   1.0000
     1.0000   1.0000   1.0000   1.0000   1.0000   1.0000   1.0000   1.0000
     1.0000   1.0000   1.0000   1.0000   1.0000   1.0000   1.0000   1.0000
     1.0000   1.0000   1.0000   1.0000   1.0000   1.0000   1.0000   1.0000
     1.0000   1.0000   1.0000   1.0000   1.0000   1.0000   1.0000   1.0000
     1.0000   1.0000   1.0000   1.0000   1.0000   1.0000   1.0000   1.0000
     1.0000   1.0000   1.0000   1.0000   1.0000   1.0000   1.0000   1.0000
     1.0000   1.0000   1.0000   1.0000   1.0000   1.0000   1.0000   1.0000
     1.0000   1.0000   1.0000   1.0000   1.0000   1.0000   1.0000   1.0000
     1.0000   1.0000   1.0000   1.0000   1.0000   1.0000   1.0000   1.0000
     1.0000   1.0000   1.0000   1.0000   1.0000   1.0000   1.0000   1.0000
     1.0000   1.0000   1.0000   1.0000   1.0000   1.0000   1.0000   1.0000
     1.0000   1.0000   1.0000   1.0000   1.0000   1.0000   1.0000   1.0000
     1.0000   1.0000   1.0000   1.0000   1.0000   1.0000   1.0000   1.0000
     1.0000   1.0000   1.0000   1.0000   1.0000   1.0000   1.0000   1.0000
     1.0000   1.0000   1.0000   1.0000   1.0000   1.0000   1.0000   1.0000
     1.0000   1.0000   1.0000   1.0000   1.0000   1.0000   1.0000   1.0000
     1.0000   1.0000   1.0000   1.0000   1.0000   1.0000   1.0000   1.0000
     1.0000   1.0000   1.0000   1.0000   1.0000   1.0000   1.0000   1.0000
     1.0000   1.0000   1.0000   1.0000   1.0000   1.0000   1.0000   1.0000
     1.0000   1.0000   1.0000   1.0000   1.0000   1.0000   1.0000   1.0000
     1.0000   1.0000   1.0000   1.0000   1.0000   1.0000   1.0000   1.0000
     1.0000   1.0000   0.0000   0.0000   0.0000   0.0000   0.0000   0.0000
     0.0000   0.0000   0.0000   0.0000   0.0000   0.0000   0.0000   0.0000
     0.0000   0.0000   0.0000   0.0000   0.0000   0.0000   0.0000   0.0000
     0.0000   0.0000   0.0000   0.0000   0.0000   0.0000   0.0000   0.0000
     0.0000   0.0000   0.0000   0.0000   0.0000   0.0000   0.0000   0.0000
     0.0000   0.0000   0.0000   0.0000   0.0000   0.0000   0.0000   0.0000
     0.0000   0.0000   0.0000   0.0000   0.0000   0.0000   0.0000   0.0000
     0.0000   0.0000   0.0000   0.0000   0.0000   0.0000   0.0000   0.0000
     0.0000   0.0000   0.0000   0.0000   0.0000   0.0000   0.0000   0.0000
     0.0000   0.0000   0.0000   0.0000   0.0000   0.0000   0.0000   0.0000
     0.0000   0.0000   0.0000   0.0000   0.0000   0.0000

          k = 0.0004 0.2884 0.2355 ( 44948 PWs)   bands (ev):

  -115.1452-115.1436-115.1426-115.1422-115.1421-115.1416-115.1406-115.1398
  -115.1397-115.1389-115.1380-115.1377-115.1375-115.1373-115.1363-115.1361
  -115.1360-115.1354-115.1343-115.1339-115.1327-115.1319-115.1296-115.1283
  -115.1272-115.1245 -69.5052 -69.5049 -69.5037 -69.5035 -69.5030 -69.5021
   -69.5019 -69.5015 -69.5015 -69.5011 -69.5007 -69.5004 -69.5003 -69.5001
   -69.5000 -69.4998 -69.4996 -69.4995 -69.4993 -69.4988 -69.4980 -69.4974
   -69.4972 -69.4970 -69.4965 -69.4964 -69.4964 -69.4962 -69.4960 -69.4956
   -69.4955 -69.4953 -69.4952 -69.4942 -69.4942 -69.4941 -69.4940 -69.4938
   -69.4937 -69.4935 -69.4933 -69.4930 -69.4929 -69.4929 -69.4927 -69.4923
   -69.4922 -69.4921 -69.4918 -69.4913 -69.4913 -69.4912 -69.4908 -69.4906
   -69.4901 -69.4899 -69.4895 -69.4895 -69.4894 -69.4892 -69.4887 -69.4886
   -69.4879 -69.4879 -69.4877 -69.4871 -69.4870 -69.4868 -69.4868 -69.4862
   -69.4845 -69.4829 -69.4824 -69.4819 -69.4817 -69.4804 -69.4801 -69.4773
   -64.6123 -64.5900 -64.5880 -64.5871 -64.5784 -64.5779 -64.5774 -64.5700
   -64.5675 -64.5614 -31.6038 -31.5992 -31.5966 -31.5826 -31.5808 -31.5807
   -31.5795 -31.5769 -31.5747 -31.5743 -31.5737 -31.5731 -31.5714 -31.5678
   -31.5673 -31.5666 -31.5643 -31.5641 -31.5632 -31.5629 -31.5620 -31.5614
   -31.5599 -31.5588 -31.5540 -31.5532 -31.5497 -31.5477 -31.5456 -31.5421
    -9.8230  -9.6374  -9.5483  -9.4662  -9.4596  -9.3739  -9.3496  -9.3275
    -9.2958  -9.2643  -9.2628  -9.2398  -9.2080  -9.1639  -9.1614  -9.1310
    -9.1098  -9.0941  -9.0779  -9.0644  -9.0552  -9.0355  -9.0228  -9.0129
    -8.9976  -8.9888  -8.9727  -8.9584  -8.9339  -8.9054  -8.8825  -8.8560
    -8.8291  -8.8159  -8.8098  -8.7055   1.9814   1.9940   2.0020   2.0152
     2.0327   2.0493   2.0635   2.0770   2.0905   2.1058   2.1158   2.1323
     2.1377   2.1640   2.1790   2.1995   2.2131   2.2292   2.2493   2.2703
     2.3037   2.3120   2.3262   2.3491   2.3587   2.3639   2.3821   2.3978
     2.4158   2.4190   2.4280   2.4393   2.4481   2.4614   2.4722   2.4789
     2.4889   2.4993   2.5075   2.5130   2.5281   2.5549   2.5608   2.5713
     2.5743   2.5937   2.5982   2.6084   2.6128   2.6294   2.6416   2.6521
     2.6654   2.6753   2.6798   2.6878   2.7066   2.7150   2.7345   2.7384
     2.7519   2.7596   2.7826   2.7961   2.7984   2.8130   2.8217   2.8411
     2.8537   2.8609   2.8756   2.8967   2.9217   2.9347   2.9447   2.9677
     2.9862   3.0068   3.0204   3.0452   3.0670   3.0810   3.0986   3.1319
     3.1439   3.1796   3.1929   3.2006   3.2260   3.2554   3.2657   3.2812
     3.3024   3.3284   3.3410   3.3602   3.3759   3.3966   3.4124   3.4180
     3.4392   3.4503   3.4620   3.4734   3.4771   3.4859   3.5054   3.5120
     3.5177   3.5289   3.5344   3.5409   3.5540   3.5645   3.5761   3.5839
     3.5876   3.5957   3.6042   3.6170   3.6267   3.6310   3.6373   3.6452
     3.6566   3.6762   3.6890   3.7104   3.7211   3.7435   3.8200   3.8667
     3.9194   3.9460   3.9749   4.0206   4.0541   4.0760   4.1012   4.1316
     4.1586   4.1995   4.2298   4.2403   4.2826   4.3262   4.3441   4.3863
     4.4402   4.4543   4.4792   4.5051   4.5654   4.6419   4.6605   4.7121
     4.7800   4.8184   4.8579   4.8802   4.9528   4.9994   5.0368   5.0943
     5.1269   5.1923   5.2684   5.2964   5.3370   5.3770   5.4384   5.5263
     5.5298   5.6011   5.6287   5.6469   5.7131   5.7281   5.7692   5.7914
     5.8085   5.8799   5.9319   5.9452   5.9890   6.0114   6.0325   6.0688
     6.1060   6.1351   6.1467   6.1620   6.1753   6.2100   6.2599   6.3131
     6.3368   6.3637   6.3878   6.4148   6.4337   6.4422   6.4768   6.5166
     6.5617   6.6014   6.6356   6.6544   6.6745   6.6939   6.7293   6.7384
     6.7682   6.7863   6.8231   6.8412   6.8571   6.8853   6.9005   6.9191
     6.9308   6.9662   6.9921   7.0167   7.0386   7.0730   7.1194   7.1388
     7.1632   7.1873   7.2182   7.2335   7.2975   7.3055   7.3882   7.4667
     7.5964   7.6360   9.8266  11.1195  11.5491  12.1123  12.1263  12.3698
    12.5521  12.7613  12.8338  13.0513  13.0651  13.2324  13.3273  13.3557
    13.5332  13.6302  13.8335  13.9622  14.0570  14.1636  14.2043  14.2286
    14.7719  14.8450  14.8755  14.9500  15.0128  15.1190  15.1907  15.2235
    15.2462  15.2990  15.3383  15.3764  15.4141  15.4352  15.7523  15.8792
    15.9417  16.0513  16.0720  16.1964  16.2295  16.2670  16.3122  16.3272
    16.3736  16.4173  16.4826  16.5139  16.5865  16.6067  16.6510  16.7570
    16.7928  16.9088  16.9659  17.0165  17.0452  17.1378  17.1669  17.2406
    17.2783  17.3258  17.4480  17.5991  17.7589  17.8253  17.9037  18.0027
    18.0507  18.2103  18.2716  18.3641  18.5612  18.6012  18.6843  18.7254
    18.8272  18.8657  19.0030  19.0750  19.1360  19.2289

     occupation numbers 
     1.0000   1.0000   1.0000   1.0000   1.0000   1.0000   1.0000   1.0000
     1.0000   1.0000   1.0000   1.0000   1.0000   1.0000   1.0000   1.0000
     1.0000   1.0000   1.0000   1.0000   1.0000   1.0000   1.0000   1.0000
     1.0000   1.0000   1.0000   1.0000   1.0000   1.0000   1.0000   1.0000
     1.0000   1.0000   1.0000   1.0000   1.0000   1.0000   1.0000   1.0000
     1.0000   1.0000   1.0000   1.0000   1.0000   1.0000   1.0000   1.0000
     1.0000   1.0000   1.0000   1.0000   1.0000   1.0000   1.0000   1.0000
     1.0000   1.0000   1.0000   1.0000   1.0000   1.0000   1.0000   1.0000
     1.0000   1.0000   1.0000   1.0000   1.0000   1.0000   1.0000   1.0000
     1.0000   1.0000   1.0000   1.0000   1.0000   1.0000   1.0000   1.0000
     1.0000   1.0000   1.0000   1.0000   1.0000   1.0000   1.0000   1.0000
     1.0000   1.0000   1.0000   1.0000   1.0000   1.0000   1.0000   1.0000
     1.0000   1.0000   1.0000   1.0000   1.0000   1.0000   1.0000   1.0000
     1.0000   1.0000   1.0000   1.0000   1.0000   1.0000   1.0000   1.0000
     1.0000   1.0000   1.0000   1.0000   1.0000   1.0000   1.0000   1.0000
     1.0000   1.0000   1.0000   1.0000   1.0000   1.0000   1.0000   1.0000
     1.0000   1.0000   1.0000   1.0000   1.0000   1.0000   1.0000   1.0000
     1.0000   1.0000   1.0000   1.0000   1.0000   1.0000   1.0000   1.0000
     1.0000   1.0000   1.0000   1.0000   1.0000   1.0000   1.0000   1.0000
     1.0000   1.0000   1.0000   1.0000   1.0000   1.0000   1.0000   1.0000
     1.0000   1.0000   1.0000   1.0000   1.0000   1.0000   1.0000   1.0000
     1.0000   1.0000   1.0000   1.0000   1.0000   1.0000   1.0000   1.0000
     1.0000   1.0000   1.0000   1.0000   1.0000   1.0000   1.0000   1.0000
     1.0000   1.0000   1.0000   1.0000   1.0000   1.0000   1.0000   1.0000
     1.0000   1.0000   1.0000   1.0000   1.0000   1.0000   1.0000   1.0000
     1.0000   1.0000   1.0000   1.0000   1.0000   1.0000   1.0000   1.0000
     1.0000   1.0000   1.0000   1.0000   1.0000   1.0000   1.0000   1.0000
     1.0000   1.0000   1.0000   1.0000   1.0000   1.0000   1.0000   1.0000
     1.0000   1.0000   1.0000   1.0000   1.0000   1.0000   1.0000   1.0000
     1.0000   1.0000   1.0000   1.0000   1.0000   1.0000   1.0000   1.0000
     1.0000   1.0000   1.0000   1.0000   1.0000   1.0000   1.0000   1.0000
     1.0000   1.0000   1.0000   1.0000   1.0000   1.0000   1.0000   1.0000
     1.0000   1.0000   1.0000   1.0000   1.0000   1.0000   1.0000   1.0000
     1.0000   1.0000   1.0000   1.0000   1.0000   1.0000   1.0000   1.0000
     1.0000   1.0000   1.0000   1.0000   1.0000   1.0000   1.0000   1.0000
     1.0000   1.0000   1.0000   1.0000   1.0000   1.0000   1.0000   1.0000
     1.0000   1.0000   1.0000   1.0000   1.0000   1.0000   1.0000   1.0000
     1.0000   1.0000   1.0000   1.0000   1.0000   1.0000   1.0000   1.0000
     1.0000   1.0000   1.0000   1.0000   1.0000   1.0000   1.0000   1.0000
     1.0000   1.0000   1.0000   1.0000   1.0000   1.0000   1.0000   1.0000
     1.0000   1.0000   1.0000   1.0000   1.0000   1.0000   1.0000   1.0000
     1.0000   1.0000   1.0000   1.0000   1.0000   1.0000   1.0000   1.0000
     1.0000   1.0000   1.0000   1.0000   1.0000   1.0000   1.0000   1.0000
     1.0000   1.0000   1.0000   1.0000   1.0000   1.0000   1.0000   1.0000
     1.0000   1.0000   1.0000   1.0000   1.0000   1.0000   1.0000   1.0000
     1.0000   1.0000   1.0000   1.0000   1.0000   1.0000   1.0000   1.0000
     1.0000   1.0000   1.0000   1.0000   1.0000   1.0000   1.0000   1.0000
     1.0000   1.0000   1.0000   1.0000   1.0000   1.0000   1.0000   1.0000
     1.0000   1.0000   1.0000   1.0000   1.0000   1.0000   1.0000   1.0000
     1.0000   1.0000   1.0000   1.0000   1.0000   1.0000   1.0000   1.0000
     1.0000   1.0000   1.0000   1.0000   1.0000   1.0000   1.0000   1.0000
     1.0000   1.0000   1.0000   1.0000   1.0000   1.0000   1.0000   1.0000
     1.0000   1.0000   0.0000   0.0000   0.0000   0.0000   0.0000   0.0000
     0.0000   0.0000   0.0000   0.0000   0.0000   0.0000   0.0000   0.0000
     0.0000   0.0000   0.0000   0.0000   0.0000   0.0000   0.0000   0.0000
     0.0000   0.0000   0.0000   0.0000   0.0000   0.0000   0.0000   0.0000
     0.0000   0.0000   0.0000   0.0000   0.0000   0.0000   0.0000   0.0000
     0.0000   0.0000   0.0000   0.0000   0.0000   0.0000   0.0000   0.0000
     0.0000   0.0000   0.0000   0.0000   0.0000   0.0000   0.0000   0.0000
     0.0000   0.0000   0.0000   0.0000   0.0000   0.0000   0.0000   0.0000
     0.0000   0.0000   0.0000   0.0000   0.0000   0.0000   0.0000   0.0000
     0.0000   0.0000   0.0000   0.0000   0.0000   0.0000   0.0000   0.0000
     0.0000   0.0000   0.0000   0.0000   0.0000   0.0000

          k = 0.0002 0.2885-0.4711 ( 44991 PWs)   bands (ev):

  -115.1452-115.1436-115.1426-115.1422-115.1421-115.1416-115.1406-115.1398
  -115.1397-115.1389-115.1380-115.1377-115.1375-115.1373-115.1363-115.1361
  -115.1360-115.1354-115.1343-115.1339-115.1327-115.1319-115.1296-115.1283
  -115.1272-115.1245 -69.5052 -69.5049 -69.5037 -69.5035 -69.5030 -69.5021
   -69.5019 -69.5015 -69.5015 -69.5011 -69.5007 -69.5004 -69.5003 -69.5001
   -69.5000 -69.4998 -69.4996 -69.4995 -69.4993 -69.4988 -69.4980 -69.4974
   -69.4972 -69.4970 -69.4965 -69.4964 -69.4964 -69.4962 -69.4960 -69.4956
   -69.4955 -69.4953 -69.4952 -69.4942 -69.4942 -69.4941 -69.4940 -69.4938
   -69.4937 -69.4935 -69.4933 -69.4930 -69.4929 -69.4929 -69.4927 -69.4923
   -69.4922 -69.4921 -69.4918 -69.4913 -69.4913 -69.4912 -69.4908 -69.4906
   -69.4901 -69.4899 -69.4895 -69.4895 -69.4894 -69.4892 -69.4887 -69.4886
   -69.4879 -69.4879 -69.4877 -69.4871 -69.4870 -69.4868 -69.4868 -69.4862
   -69.4845 -69.4829 -69.4824 -69.4819 -69.4817 -69.4804 -69.4801 -69.4773
   -64.6123 -64.5900 -64.5880 -64.5871 -64.5784 -64.5779 -64.5774 -64.5700
   -64.5675 -64.5614 -31.6038 -31.5992 -31.5966 -31.5826 -31.5808 -31.5807
   -31.5795 -31.5770 -31.5747 -31.5742 -31.5737 -31.5731 -31.5714 -31.5678
   -31.5673 -31.5666 -31.5643 -31.5641 -31.5632 -31.5629 -31.5620 -31.5614
   -31.5599 -31.5588 -31.5540 -31.5532 -31.5497 -31.5477 -31.5456 -31.5421
    -9.7641  -9.7301  -9.5060  -9.4864  -9.4173  -9.3986  -9.3901  -9.3434
    -9.2929  -9.2633  -9.2514  -9.2252  -9.2000  -9.1775  -9.1452  -9.1291
    -9.1085  -9.0853  -9.0805  -9.0544  -9.0435  -9.0396  -9.0227  -9.0122
    -8.9985  -8.9905  -8.9642  -8.9555  -8.9363  -8.9082  -8.8851  -8.8595
    -8.8343  -8.8207  -8.8129  -8.7075   1.9966   2.0134   2.0163   2.0358
     2.0556   2.0684   2.0799   2.0865   2.1029   2.1145   2.1273   2.1653
     2.1730   2.1852   2.1976   2.2119   2.2377   2.2488   2.2632   2.2723
     2.2817   2.3060   2.3307   2.3354   2.3449   2.3612   2.3697   2.3906
     2.3989   2.4076   2.4209   2.4268   2.4413   2.4529   2.4589   2.4715
     2.4824   2.4949   2.5056   2.5141   2.5251   2.5483   2.5527   2.5587
     2.5678   2.5829   2.5960   2.6071   2.6096   2.6229   2.6373   2.6536
     2.6633   2.6710   2.6856   2.6900   2.7057   2.7143   2.7203   2.7336
     2.7379   2.7503   2.7656   2.7763   2.7852   2.7914   2.8012   2.8155
     2.8282   2.8387   2.8515   2.8622   2.8909   2.8934   2.9240   2.9394
     2.9644   2.9893   3.0118   3.0252   3.0614   3.0767   3.0951   3.1130
     3.1477   3.1529   3.1755   3.1981   3.2272   3.2373   3.2511   3.2766
     3.2939   3.3368   3.3501   3.3671   3.3812   3.4024   3.4070   3.4246
     3.4432   3.4518   3.4604   3.4751   3.4892   3.4989   3.5045   3.5146
     3.5192   3.5276   3.5408   3.5481   3.5607   3.5663   3.5735   3.5818
     3.5912   3.5927   3.6100   3.6189   3.6255   3.6275   3.6356   3.6431
     3.6615   3.6794   3.6863   3.7034   3.7203   3.7403   3.8760   3.8971
     3.9630   4.0000   4.0308   4.0637   4.0796   4.1111   4.1313   4.1673
     4.1909   4.2173   4.2531   4.2837   4.2939   4.3534   4.3674   4.3822
     4.4135   4.4739   4.5089   4.5574   4.5906   4.6241   4.6531   4.6674
     4.7318   4.7716   4.7883   4.8390   4.9263   5.0032   5.0729   5.1407
     5.1785   5.1977   5.3410   5.3901   5.4414   5.4665   5.5065   5.5565
     5.5857   5.6104   5.6529   5.6554   5.7063   5.7207   5.7708   5.8150
     5.8302   5.8481   5.8737   5.8901   5.9065   5.9341   5.9510   5.9634
     6.0037   6.0366   6.0589   6.0737   6.1041   6.1557   6.1870   6.2171
     6.2415   6.2807   6.3809   6.4240   6.4755   6.4908   6.5154   6.5344
     6.5774   6.6031   6.6479   6.6831   6.7017   6.7095   6.7490   6.7711
     6.8004   6.8236   6.8318   6.8601   6.8852   6.8948   6.9199   6.9497
     6.9749   6.9953   7.0097   7.0352   7.0519   7.0780   7.0970   7.1311
[...]
     3.6091   3.6128   3.6193   3.6280   3.6314   3.6369   3.6488   3.6534
     3.6634   3.6772   3.6870   3.6990   3.7063   3.7203   3.8223   3.8534
     3.8673   3.9234   3.9453   3.9960   4.0125   4.0395   4.0890   4.0927
     4.1298   4.1558   4.1898   4.2264   4.2785   4.3304   4.3541   4.3949
     4.4277   4.4501   4.5314   4.5511   4.6267   4.6668   4.7243   4.8078
     4.8434   4.9090   5.0510   5.0636   5.1193   5.1480   5.1724   5.2250
     5.2448   5.2733   5.3146   5.3720   5.3778   5.4062   5.4443   5.4610
     5.4799   5.5067   5.5429   5.5750   5.6054   5.7144   5.7383   5.7810
     5.8304   5.9095   5.9447   5.9831   6.0200   6.0357   6.0821   6.0869
     6.1176   6.1428   6.1620   6.2079   6.2322   6.2615   6.2803   6.3069
     6.3230   6.3500   6.4000   6.4116   6.4541   6.4650   6.4896   6.5347
     6.5458   6.5782   6.5987   6.6122   6.6256   6.6475   6.6616   6.6871
     6.7080   6.7229   6.7385   6.7665   6.7971   6.8139   6.8394   6.8599
     6.8666   6.8971   6.9153   6.9486   6.9830   7.0076   7.0381   7.0782
     7.1256   7.1540   7.2076   7.2241   7.2704   7.3063   7.4657   7.4867
     7.4986   7.5156  10.6043  10.6398  11.6229  11.6752  12.0419  12.1716
    12.6707  12.7768  13.0833  13.1491  13.5167  13.7167  13.7944  13.8256
    13.8601  13.8927  13.9732  14.0066  14.0263  14.0651  14.1422  14.1978
    14.3240  14.4903  14.5489  14.6266  14.6435  14.6846  14.7456  14.7822
    15.2530  15.2852  15.3152  15.3275  15.3578  15.4202  15.6189  15.9327
    15.9516  15.9760  16.0379  16.2397  16.2788  16.2946  16.3311  16.3690
    16.3958  16.4349  16.5013  16.5311  16.5786  16.6403  16.7206  16.7798
    16.9198  17.0025  17.0643  17.1875  17.2724  17.4000  17.4907  17.5681
    17.6162  17.6589  17.7359  17.8196  17.8787  17.9571  18.0323  18.1124
    18.1911  18.3389  18.4770  18.5352  18.5525  18.5925  18.6405  18.7012
    18.7544  18.8197  18.9097  18.9911  19.0629  19.1366

     occupation numbers 
     1.0000   1.0000   1.0000   1.0000   1.0000   1.0000   1.0000   1.0000
     1.0000   1.0000   1.0000   1.0000   1.0000   1.0000   1.0000   1.0000
     1.0000   1.0000   1.0000   1.0000   1.0000   1.0000   1.0000   1.0000
     1.0000   1.0000   1.0000   1.0000   1.0000   1.0000   1.0000   1.0000
     1.0000   1.0000   1.0000   1.0000   1.0000   1.0000   1.0000   1.0000
     1.0000   1.0000   1.0000   1.0000   1.0000   1.0000   1.0000   1.0000
     1.0000   1.0000   1.0000   1.0000   1.0000   1.0000   1.0000   1.0000
     1.0000   1.0000   1.0000   1.0000   1.0000   1.0000   1.0000   1.0000
     1.0000   1.0000   1.0000   1.0000   1.0000   1.0000   1.0000   1.0000
     1.0000   1.0000   1.0000   1.0000   1.0000   1.0000   1.0000   1.0000
     1.0000   1.0000   1.0000   1.0000   1.0000   1.0000   1.0000   1.0000
     1.0000   1.0000   1.0000   1.0000   1.0000   1.0000   1.0000   1.0000
     1.0000   1.0000   1.0000   1.0000   1.0000   1.0000   1.0000   1.0000
     1.0000   1.0000   1.0000   1.0000   1.0000   1.0000   1.0000   1.0000
     1.0000   1.0000   1.0000   1.0000   1.0000   1.0000   1.0000   1.0000
     1.0000   1.0000   1.0000   1.0000   1.0000   1.0000   1.0000   1.0000
     1.0000   1.0000   1.0000   1.0000   1.0000   1.0000   1.0000   1.0000
     1.0000   1.0000   1.0000   1.0000   1.0000   1.0000   1.0000   1.0000
     1.0000   1.0000   1.0000   1.0000   1.0000   1.0000   1.0000   1.0000
     1.0000   1.0000   1.0000   1.0000   1.0000   1.0000   1.0000   1.0000
     1.0000   1.0000   1.0000   1.0000   1.0000   1.0000   1.0000   1.0000
     1.0000   1.0000   1.0000   1.0000   1.0000   1.0000   1.0000   1.0000
     1.0000   1.0000   1.0000   1.0000   1.0000   1.0000   1.0000   1.0000
     1.0000   1.0000   1.0000   1.0000   1.0000   1.0000   1.0000   1.0000
     1.0000   1.0000   1.0000   1.0000   1.0000   1.0000   1.0000   1.0000
     1.0000   1.0000   1.0000   1.0000   1.0000   1.0000   1.0000   1.0000
     1.0000   1.0000   1.0000   1.0000   1.0000   1.0000   1.0000   1.0000
     1.0000   1.0000   1.0000   1.0000   1.0000   1.0000   1.0000   1.0000
     1.0000   1.0000   1.0000   1.0000   1.0000   1.0000   1.0000   1.0000
     1.0000   1.0000   1.0000   1.0000   1.0000   1.0000   1.0000   1.0000
     1.0000   1.0000   1.0000   1.0000   1.0000   1.0000   1.0000   1.0000
     1.0000   1.0000   1.0000   1.0000   1.0000   1.0000   1.0000   1.0000
     1.0000   1.0000   1.0000   1.0000   1.0000   1.0000   1.0000   1.0000
     1.0000   1.0000   1.0000   1.0000   1.0000   1.0000   1.0000   1.0000
     1.0000   1.0000   1.0000   1.0000   1.0000   1.0000   1.0000   1.0000
     1.0000   1.0000   1.0000   1.0000   1.0000   1.0000   1.0000   1.0000
     1.0000   1.0000   1.0000   1.0000   1.0000   1.0000   1.0000   1.0000
     1.0000   1.0000   1.0000   1.0000   1.0000   1.0000   1.0000   1.0000
     1.0000   1.0000   1.0000   1.0000   1.0000   1.0000   1.0000   1.0000
     1.0000   1.0000   1.0000   1.0000   1.0000   1.0000   1.0000   1.0000
     1.0000   1.0000   1.0000   1.0000   1.0000   1.0000   1.0000   1.0000
     1.0000   1.0000   1.0000   1.0000   1.0000   1.0000   1.0000   1.0000
     1.0000   1.0000   1.0000   1.0000   1.0000   1.0000   1.0000   1.0000
     1.0000   1.0000   1.0000   1.0000   1.0000   1.0000   1.0000   1.0000
     1.0000   1.0000   1.0000   1.0000   1.0000   1.0000   1.0000   1.0000
     1.0000   1.0000   1.0000   1.0000   1.0000   1.0000   1.0000   1.0000
     1.0000   1.0000   1.0000   1.0000   1.0000   1.0000   1.0000   1.0000
     1.0000   1.0000   1.0000   1.0000   1.0000   1.0000   1.0000   1.0000
     1.0000   1.0000   1.0000   1.0000   1.0000   1.0000   1.0000   1.0000
     1.0000   1.0000   1.0000   1.0000   1.0000   1.0000   1.0000   1.0000
     1.0000   1.0000   1.0000   1.0000   1.0000   1.0000   1.0000   1.0000
     1.0000   1.0000   1.0000   1.0000   1.0000   1.0000   1.0000   1.0000
     1.0000   1.0000   0.0000   0.0000   0.0000   0.0000   0.0000   0.0000
     0.0000   0.0000   0.0000   0.0000   0.0000   0.0000   0.0000   0.0000
     0.0000   0.0000   0.0000   0.0000   0.0000   0.0000   0.0000   0.0000
     0.0000   0.0000   0.0000   0.0000   0.0000   0.0000   0.0000   0.0000
     0.0000   0.0000   0.0000   0.0000   0.0000   0.0000   0.0000   0.0000
     0.0000   0.0000   0.0000   0.0000   0.0000   0.0000   0.0000   0.0000
     0.0000   0.0000   0.0000   0.0000   0.0000   0.0000   0.0000   0.0000
     0.0000   0.0000   0.0000   0.0000   0.0000   0.0000   0.0000   0.0000
     0.0000   0.0000   0.0000   0.0000   0.0000   0.0000   0.0000   0.0000
     0.0000   0.0000   0.0000   0.0000   0.0000   0.0000   0.0000   0.0000
     0.0000   0.0000   0.0000   0.0000   0.0000   0.0000

          k =-0.5011-0.8658-0.4711 ( 44966 PWs)   bands (ev):

  -115.1452-115.1436-115.1426-115.1422-115.1421-115.1416-115.1406-115.1398
  -115.1397-115.1389-115.1380-115.1377-115.1375-115.1373-115.1363-115.1361
  -115.1360-115.1354-115.1343-115.1339-115.1327-115.1319-115.1296-115.1283
  -115.1272-115.1245 -69.5052 -69.5049 -69.5037 -69.5035 -69.5030 -69.5021
   -69.5019 -69.5015 -69.5015 -69.5011 -69.5007 -69.5004 -69.5003 -69.5001
   -69.5000 -69.4998 -69.4996 -69.4995 -69.4993 -69.4988 -69.4980 -69.4974
   -69.4972 -69.4970 -69.4965 -69.4964 -69.4963 -69.4962 -69.4960 -69.4956
   -69.4955 -69.4953 -69.4952 -69.4942 -69.4942 -69.4941 -69.4940 -69.4938
   -69.4937 -69.4935 -69.4933 -69.4931 -69.4929 -69.4929 -69.4927 -69.4923
   -69.4921 -69.4921 -69.4918 -69.4913 -69.4913 -69.4912 -69.4908 -69.4906
   -69.4901 -69.4899 -69.4895 -69.4895 -69.4894 -69.4892 -69.4886 -69.4886
   -69.4879 -69.4879 -69.4877 -69.4871 -69.4870 -69.4868 -69.4868 -69.4862
   -69.4845 -69.4829 -69.4824 -69.4820 -69.4817 -69.4804 -69.4801 -69.4773
   -64.6123 -64.5900 -64.5880 -64.5871 -64.5784 -64.5779 -64.5774 -64.5700
   -64.5675 -64.5614 -31.6038 -31.5992 -31.5966 -31.5826 -31.5808 -31.5807
   -31.5795 -31.5769 -31.5747 -31.5742 -31.5737 -31.5731 -31.5725 -31.5678
   -31.5673 -31.5665 -31.5643 -31.5641 -31.5632 -31.5628 -31.5620 -31.5614
   -31.5597 -31.5568 -31.5534 -31.5532 -31.5498 -31.5495 -31.5456 -31.5421
    -9.6883  -9.6495  -9.6268  -9.6134  -9.4326  -9.4171  -9.3943  -9.3479
    -9.2571  -9.2246  -9.2075  -9.1831  -9.1598  -9.1459  -9.1418  -9.1363
    -9.1116  -9.1078  -9.0958  -9.0763  -9.0701  -9.0421  -9.0213  -9.0171
    -9.0020  -8.9842  -8.9748  -8.9605  -8.9249  -8.9127  -8.8803  -8.8747
    -8.8350  -8.8156  -8.7991  -8.7075   2.0388   2.0573   2.0743   2.0851
     2.0923   2.1058   2.1136   2.1276   2.1398   2.1512   2.1585   2.1726
     2.1763   2.1876   2.2030   2.2192   2.2199   2.2297   2.2363   2.2544
     2.2595   2.2814   2.2930   2.3101   2.3234   2.3257   2.3527   2.3590
     2.3800   2.3891   2.4118   2.4258   2.4290   2.4519   2.4592   2.4718
     2.4817   2.4933   2.4997   2.5029   2.5175   2.5244   2.5295   2.5430
     2.5606   2.5627   2.5832   2.5890   2.5922   2.6103   2.6153   2.6263
     2.6339   2.6529   2.6751   2.6807   2.6888   2.7010   2.7038   2.7185
     2.7302   2.7494   2.7581   2.7692   2.7759   2.7919   2.8002   2.8092
     2.8308   2.8446   2.8616   2.8657   2.8704   2.8865   2.8948   2.9199
     2.9406   2.9762   3.0288   3.0479   3.0599   3.0686   3.0832   3.1003
     3.1276   3.1495   3.1998   3.2104   3.2334   3.2489   3.2661   3.2943
     3.3190   3.3265   3.3316   3.3555   3.3792   3.3941   3.3978   3.4235
     3.4345   3.4465   3.4580   3.4751   3.4825   3.4986   3.5108   3.5155
     3.5287   3.5368   3.5517   3.5594   3.5700   3.5830   3.5848   3.5924
     3.6002   3.6132   3.6221   3.6312   3.6389   3.6427   3.6494   3.6539
     3.6549   3.6689   3.6723   3.7027   3.7055   3.7193   3.8446   3.8711
     3.9024   3.9817   4.0144   4.0519   4.0642   4.0760   4.1229   4.1527
     4.1806   4.2300   4.2430   4.2667   4.2788   4.3218   4.3347   4.3766
     4.3970   4.4486   4.4859   4.5579   4.5939   4.6115   4.7133   4.7411
     4.7623   4.8621   5.1100   5.1292   5.1826   5.1869   5.2105   5.2429
     5.2538   5.2978   5.3345   5.3501   5.3684   5.3708   5.5090   5.5565
     5.5782   5.6405   5.6621   5.6917   5.7066   5.7318   5.7574   5.7703
     5.8272   5.8401   5.8473   5.8668   5.8732   5.9013   5.9305   5.9766
     6.0328   6.0891   6.0955   6.1412   6.2265   6.2574   6.2771   6.3001
     6.3377   6.3554   6.3596   6.3772   6.4097   6.4176   6.4263   6.4572
     6.4903   6.5524   6.5692   6.6245   6.6745   6.7011   6.7068   6.7340
     6.7384   6.7598   6.7786   6.7916   6.8211   6.8277   6.8316   6.8416
     6.8681   6.8765   6.8945   6.9413   6.9828   7.0419   7.0803   7.0925
     7.1028   7.2378   7.2978   7.3331   7.3560   7.3613   7.3856   7.4249
     7.4615   7.4859  10.9793  11.0263  11.0928  11.1029  12.2220  12.3125
    12.3409  12.4573  13.4959  13.5446  13.6351  13.6610  13.6850  13.7829
    13.8251  13.8263  13.9000  13.9156  14.1169  14.1720  14.2071  14.3341
    14.4229  14.4550  14.6069  14.7288  14.7798  14.8112  14.9591  14.9673
    15.0005  15.0222  15.0515  15.0756  15.0845  15.1260  15.9123  15.9234
    16.1161  16.1292  16.1600  16.1658  16.2163  16.2652  16.3049  16.4528
    16.5081  16.5215  16.5659  16.5870  16.6126  16.6235  16.6292  16.6496
    16.8301  16.9286  17.0267  17.0442  17.2695  17.4327  17.4532  17.5678
    17.6018  17.7079  17.7117  17.8315  17.8589  17.9140  18.0911  18.1409
    18.1980  18.2469  18.3259  18.3891  18.4411  18.5024  18.7198  18.8469
    18.9041  18.9508  18.9970  19.1223  19.1735  19.2140

     occupation numbers 
     1.0000   1.0000   1.0000   1.0000   1.0000   1.0000   1.0000   1.0000
     1.0000   1.0000   1.0000   1.0000   1.0000   1.0000   1.0000   1.0000
     1.0000   1.0000   1.0000   1.0000   1.0000   1.0000   1.0000   1.0000
     1.0000   1.0000   1.0000   1.0000   1.0000   1.0000   1.0000   1.0000
     1.0000   1.0000   1.0000   1.0000   1.0000   1.0000   1.0000   1.0000
     1.0000   1.0000   1.0000   1.0000   1.0000   1.0000   1.0000   1.0000
     1.0000   1.0000   1.0000   1.0000   1.0000   1.0000   1.0000   1.0000
     1.0000   1.0000   1.0000   1.0000   1.0000   1.0000   1.0000   1.0000
     1.0000   1.0000   1.0000   1.0000   1.0000   1.0000   1.0000   1.0000
     1.0000   1.0000   1.0000   1.0000   1.0000   1.0000   1.0000   1.0000
     1.0000   1.0000   1.0000   1.0000   1.0000   1.0000   1.0000   1.0000
     1.0000   1.0000   1.0000   1.0000   1.0000   1.0000   1.0000   1.0000
     1.0000   1.0000   1.0000   1.0000   1.0000   1.0000   1.0000   1.0000
     1.0000   1.0000   1.0000   1.0000   1.0000   1.0000   1.0000   1.0000
     1.0000   1.0000   1.0000   1.0000   1.0000   1.0000   1.0000   1.0000
     1.0000   1.0000   1.0000   1.0000   1.0000   1.0000   1.0000   1.0000
     1.0000   1.0000   1.0000   1.0000   1.0000   1.0000   1.0000   1.0000
     1.0000   1.0000   1.0000   1.0000   1.0000   1.0000   1.0000   1.0000
     1.0000   1.0000   1.0000   1.0000   1.0000   1.0000   1.0000   1.0000
     1.0000   1.0000   1.0000   1.0000   1.0000   1.0000   1.0000   1.0000
     1.0000   1.0000   1.0000   1.0000   1.0000   1.0000   1.0000   1.0000
     1.0000   1.0000   1.0000   1.0000   1.0000   1.0000   1.0000   1.0000
     1.0000   1.0000   1.0000   1.0000   1.0000   1.0000   1.0000   1.0000
     1.0000   1.0000   1.0000   1.0000   1.0000   1.0000   1.0000   1.0000
     1.0000   1.0000   1.0000   1.0000   1.0000   1.0000   1.0000   1.0000
     1.0000   1.0000   1.0000   1.0000   1.0000   1.0000   1.0000   1.0000
     1.0000   1.0000   1.0000   1.0000   1.0000   1.0000   1.0000   1.0000
     1.0000   1.0000   1.0000   1.0000   1.0000   1.0000   1.0000   1.0000
     1.0000   1.0000   1.0000   1.0000   1.0000   1.0000   1.0000   1.0000
     1.0000   1.0000   1.0000   1.0000   1.0000   1.0000   1.0000   1.0000
     1.0000   1.0000   1.0000   1.0000   1.0000   1.0000   1.0000   1.0000
     1.0000   1.0000   1.0000   1.0000   1.0000   1.0000   1.0000   1.0000
     1.0000   1.0000   1.0000   1.0000   1.0000   1.0000   1.0000   1.0000
     1.0000   1.0000   1.0000   1.0000   1.0000   1.0000   1.0000   1.0000
     1.0000   1.0000   1.0000   1.0000   1.0000   1.0000   1.0000   1.0000
     1.0000   1.0000   1.0000   1.0000   1.0000   1.0000   1.0000   1.0000
     1.0000   1.0000   1.0000   1.0000   1.0000   1.0000   1.0000   1.0000
     1.0000   1.0000   1.0000   1.0000   1.0000   1.0000   1.0000   1.0000
     1.0000   1.0000   1.0000   1.0000   1.0000   1.0000   1.0000   1.0000
     1.0000   1.0000   1.0000   1.0000   1.0000   1.0000   1.0000   1.0000
     1.0000   1.0000   1.0000   1.0000   1.0000   1.0000   1.0000   1.0000
     1.0000   1.0000   1.0000   1.0000   1.0000   1.0000   1.0000   1.0000
     1.0000   1.0000   1.0000   1.0000   1.0000   1.0000   1.0000   1.0000
     1.0000   1.0000   1.0000   1.0000   1.0000   1.0000   1.0000   1.0000
     1.0000   1.0000   1.0000   1.0000   1.0000   1.0000   1.0000   1.0000
     1.0000   1.0000   1.0000   1.0000   1.0000   1.0000   1.0000   1.0000
     1.0000   1.0000   1.0000   1.0000   1.0000   1.0000   1.0000   1.0000
     1.0000   1.0000   1.0000   1.0000   1.0000   1.0000   1.0000   1.0000
     1.0000   1.0000   1.0000   1.0000   1.0000   1.0000   1.0000   1.0000
     1.0000   1.0000   1.0000   1.0000   1.0000   1.0000   1.0000   1.0000
     1.0000   1.0000   1.0000   1.0000   1.0000   1.0000   1.0000   1.0000
     1.0000   1.0000   1.0000   1.0000   1.0000   1.0000   1.0000   1.0000
     1.0000   1.0000   0.0000   0.0000   0.0000   0.0000   0.0000   0.0000
     0.0000   0.0000   0.0000   0.0000   0.0000   0.0000   0.0000   0.0000
     0.0000   0.0000   0.0000   0.0000   0.0000   0.0000   0.0000   0.0000
     0.0000   0.0000   0.0000   0.0000   0.0000   0.0000   0.0000   0.0000
     0.0000   0.0000   0.0000   0.0000   0.0000   0.0000   0.0000   0.0000
     0.0000   0.0000   0.0000   0.0000   0.0000   0.0000   0.0000   0.0000
     0.0000   0.0000   0.0000   0.0000   0.0000   0.0000   0.0000   0.0000
     0.0000   0.0000   0.0000   0.0000   0.0000   0.0000   0.0000   0.0000
     0.0000   0.0000   0.0000   0.0000   0.0000   0.0000   0.0000   0.0000
     0.0000   0.0000   0.0000   0.0000   0.0000   0.0000   0.0000   0.0000
     0.0000   0.0000   0.0000   0.0000   0.0000   0.0000

     the Fermi energy is     8.8643 ev

!    total energy              =  -14407.92774934 Ry
     Harris-Foulkes estimate   =  -14407.92774934 Ry
     estimated scf accuracy    <          3.8E-09 Ry

     The total energy is the sum of the following terms:

     one-electron contribution =  -11959.59067715 Ry
     hartree contribution      =    6282.50014709 Ry
     xc contribution           =   -1515.46092985 Ry
     ewald contribution        =   -7215.37628944 Ry
     smearing contrib. (-TS)   =       0.00000000 Ry

     convergence has been achieved in  12 iterations

     Writing output data file ZnO.save/
 
     init_run     :     14.75s CPU     15.32s WALL (       1 calls)
     electrons    :    675.12s CPU    689.88s WALL (       1 calls)

     Called by init_run:
     wfcinit      :     12.51s CPU     12.84s WALL (       1 calls)
     wfcinit:atom :      0.09s CPU      0.11s WALL (       5 calls)
     wfcinit:wfcr :     11.99s CPU     12.25s WALL (       5 calls)
     potinit      :      0.99s CPU      1.05s WALL (       1 calls)
     hinit0       :      0.77s CPU      0.88s WALL (       1 calls)

     Called by electrons:
     c_bands      :    621.62s CPU    634.97s WALL (      12 calls)
     sum_band     :     46.67s CPU     47.52s WALL (      12 calls)
     v_of_rho     :      5.46s CPU      5.74s WALL (      13 calls)
     v_h          :      0.14s CPU      0.19s WALL (      13 calls)
     v_xc         :      5.32s CPU      5.55s WALL (      13 calls)
     newd         :      1.21s CPU      1.31s WALL (      13 calls)
     mix_rho      :      0.33s CPU      0.43s WALL (      12 calls)

     Called by c_bands:
     init_us_2    :      4.24s CPU      4.32s WALL (     125 calls)
     cegterg      :    579.56s CPU    592.59s WALL (      60 calls)

     Called by sum_band:
     sum_band:bec :      0.25s CPU      0.25s WALL (      60 calls)
     addusdens    :      1.05s CPU      1.12s WALL (      12 calls)

     Called by *egterg:
     h_psi        :    205.17s CPU    208.56s WALL (     235 calls)
     s_psi        :     51.02s CPU     51.08s WALL (     235 calls)
     g_psi        :      0.75s CPU      0.76s WALL (     170 calls)
     cdiaghg      :    199.70s CPU    205.18s WALL (     230 calls)
     cegterg:over :     56.86s CPU     58.37s WALL (     170 calls)
     cegterg:upda :     36.82s CPU     37.29s WALL (     170 calls)
     cegterg:last :     21.62s CPU     21.70s WALL (      60 calls)
     cdiaghg:chol :      9.26s CPU      9.32s WALL (     230 calls)
     cdiaghg:inve :      2.94s CPU      2.94s WALL (     230 calls)
     cdiaghg:para :     47.97s CPU     52.31s WALL (     460 calls)

     Called by h_psi:
     h_psi:pot    :    203.54s CPU    205.84s WALL (     235 calls)
     h_psi:calbec :     52.15s CPU     53.58s WALL (     235 calls)
     vloc_psi     :     99.65s CPU    100.27s WALL (     235 calls)
     add_vuspsi   :     51.73s CPU     51.98s WALL (     235 calls)

     General routines
     calbec       :     72.80s CPU     74.78s WALL (     295 calls)
     fft          :      1.23s CPU      1.70s WALL (     167 calls)
     ffts         :      0.06s CPU      0.07s WALL (      25 calls)
     fftw         :    112.23s CPU    112.91s WALL (  179016 calls)
     interpolate  :      0.15s CPU      0.19s WALL (      13 calls)
 
     Parallel routines
     fft_scatt_xy :     18.35s CPU     18.46s WALL (  179208 calls)
     fft_scatt_yz :     30.31s CPU     30.95s WALL (  179208 calls)
 
     PWSCF        :  11m31.76s CPU  11m54.57s WALL

 
   This run was terminated on:   1:37:17  15Jul2022            

=------------------------------------------------------------------------------=
   JOB DONE.
=------------------------------------------------------------------------------=
