
     Program PWSCF v.6.4.1 starts on 15Jul2022 at  2:10:51 

     This program is part of the open-source Quantum ESPRESSO suite
     for quantum simulation of materials; please cite
         "P. Giannozzi et al., J. Phys.:Condens. Matter 21 395502 (2009);
         "P. Giannozzi et al., J. Phys.:Condens. Matter 29 465901 (2017);
          URL http://www.quantum-espresso.org", 
     in publications or presentations arising from this work. More details at
     http://www.quantum-espresso.org/quote

     Parallel version (MPI), running on   128 processors

     MPI processes distributed on     2 nodes
     R & G space division:  proc/nbgrp/npool/nimage =     128
     Waiting for input...
     Reading input from standard input
Warning: card &IONS ignored
Warning: card   UPSCALE           = 100.D0, ignored
Warning: card / ignored
Warning: card &CELL ignored
Warning: card   CELL_DYNAMICS     = 'BFGS' ignored
Warning: card   PRESS_CONV_THR    = 0.5D0 ignored
Warning: card   CELL_DOFREE = 'ALL' ignored
Warning: card / ignored

     Current dimensions of program PWSCF are:
     Max number of different atomic species (ntypx) = 10
     Max number of k-points (npk) =  40000
     Max angular momentum in pseudopotentials (lmaxx) =  3

     Atomic positions and unit cell read from directory:
     ./temp/ZnO.save/
 

     Subspace diagonalization in iterative solution of the eigenvalue problem:
     one sub-group per band group will be used
     scalapack distributed-memory algorithm (size of sub-group:  8*  8 procs)

 
     Parallelization info
     --------------------
     sticks:   dense  smooth     PW     G-vecs:    dense   smooth      PW
     Min          91      43     12                 8526     2834     420
     Max          92      44     13                 8533     2841     425
     Sum       11661    5599   1567              1091887   363327   53993
 


     bravais-lattice index     =            0
     lattice parameter (alat)  =      18.3818  a.u.
     unit-cell volume          =    5783.6368 (a.u.)^3
     number of atoms/cell      =           72
     number of atomic types    =            3
     number of electrons       =       856.00
     number of Kohn-Sham states=          428
     kinetic-energy cutoff     =      60.0000  Ry
     charge density cutoff     =     500.0000  Ry
     Exchange-correlation      = SLA  PW   PSX  PSC ( 1  4 10  8 0 0)
     Using LIBXC version       =    4   3   4

     celldm(1)=  18.381787  celldm(2)=   0.000000  celldm(3)=   0.000000
     celldm(4)=   0.000000  celldm(5)=   0.000000  celldm(6)=   0.000000

     crystal axes: (cart. coord. in units of alat)
               a(1) = (   1.000000   0.000460  -0.000016 )  
               a(2) = (  -0.499600   0.866214   0.000205 )  
               a(3) = (  -0.000017   0.000244   1.074725 )  

     reciprocal axes: (cart. coord. in units 2 pi/alat)
               b(1) = (  0.999735  0.576610 -0.000115 )  
               b(2) = ( -0.000531  1.154143 -0.000262 )  
               b(3) = (  0.000015 -0.000212  0.930470 )  


     PseudoPot. # 1 for Zn read from file:
     ./GBRV_PBEsol/zn_pbesol_v1.uspp.F.UPF
     MD5 check sum: 7d8615e52efe7c1e2b1899de8658bae2
     Pseudo is Ultrasoft, Zval = 20.0
     Generated by new atomic code, or converted to UPF format
     Using radial grid of  943 points,  6 beta functions with: 
                l(1) =   0
                l(2) =   0
                l(3) =   1
                l(4) =   1
                l(5) =   2
                l(6) =   2
     Q(r) pseudized with  8 coefficients,  rinner =    1.100   1.100   1.100
                                                       1.100   1.100

     PseudoPot. # 2 for O  read from file:
     ./GBRV_PBEsol/o_pbesol_v1.2.uspp.F.UPF
     MD5 check sum: 501638753501ef6325af9037351f7734
     Pseudo is Ultrasoft + core correction, Zval =  6.0
     Generated by new atomic code, or converted to UPF format
     Using radial grid of  737 points,  5 beta functions with: 
                l(1) =   0
                l(2) =   0
                l(3) =   1
                l(4) =   1
                l(5) =   2
     Q(r) pseudized with  8 coefficients,  rinner =    0.900   0.900   0.900
                                                       0.900   0.900

     PseudoPot. # 3 for Mg read from file:
     ./GBRV_PBEsol/mg_pbesol_v1.4.uspp.F.UPF
     MD5 check sum: 4059f37963cf5867752dbf5ab2400678
     Pseudo is Ultrasoft, Zval = 10.0
     Generated by new atomic code, or converted to UPF format
     Using radial grid of  821 points,  7 beta functions with: 
                l(1) =   0
                l(2) =   0
                l(3) =   0
                l(4) =   1
                l(5) =   1
                l(6) =   2
                l(7) =   2
     Q(r) pseudized with  8 coefficients,  rinner =    1.200   1.200   1.200
                                                       1.200   1.200

     atomic species   valence    mass     pseudopotential
        Zn            20.00    65.38000     Zn( 1.00)
        O              6.00    15.99900     O ( 1.00)
        Mg            10.00    24.30500     Mg( 1.00)

     No symmetry found


                                    s                        frac. trans.

      isym =  1     identity                                     

 cryst.   s( 1) = (     1          0          0      )
                  (     0          1          0      )
                  (     0          0          1      )

 cart.    s( 1) = (  1.0000000 -0.0000000 -0.0000000 )
                  ( -0.0000000  1.0000000 -0.0000000 )
                  (  0.0000000 -0.0000000  1.0000000 )


   Cartesian axes

     site n.     atom                  positions (alat units)
         1           Zn  tau(   1) = (   0.1658000   0.0971757   0.2080617  )
         2           Zn  tau(   2) = (   0.1687495   0.0951724   0.7455187  )
         3           Zn  tau(   3) = (   0.0007295   0.3851074   0.2070819  )
         4           Zn  tau(   4) = (   0.0004812   0.3862409   0.7442116  )
         5           Zn  tau(   5) = (  -0.1658646   0.6745213   0.2091669  )
         6           Zn  tau(   6) = (  -0.1657462   0.6740902   0.7464585  )
         7           Zn  tau(   7) = (   0.4988719   0.0964841   0.2084042  )
         8           Zn  tau(   8) = (   0.5005093   0.0958865   0.7454816  )
         9           Zn  tau(   9) = (   0.3326598   0.3863842   0.2058803  )
        10           Mg  tau(  10) = (   0.3350495   0.3834374   0.7457674  )
        11           Mg  tau(  11) = (   0.1669388   0.6758024   0.2080421  )
        12           Zn  tau(  12) = (   0.1671669   0.6738110   0.7438447  )
        13           Zn  tau(  13) = (   0.8349740   0.0969358   0.2074091  )
        14           Zn  tau(  14) = (   0.8313326   0.0962397   0.7450457  )
        15           Mg  tau(  15) = (   0.6667414   0.3871849   0.2096941  )
        16           Zn  tau(  16) = (   0.6666346   0.3851139   0.7436539  )
        17           Zn  tau(  17) = (   0.4998034   0.6750689   0.2075061  )
        18           Mg  tau(  18) = (   0.5015952   0.6744662   0.7469023  )
        19           Mg  tau(  19) = (  -0.0009615   0.1920406   0.4784155  )
        20           Zn  tau(  20) = (  -0.0005517   0.1922700   1.0129023  )
        21           Zn  tau(  21) = (  -0.1648982   0.4814821   0.4771799  )
        22           Zn  tau(  22) = (  -0.1681662   0.4805445   1.0146038  )
        23           Zn  tau(  23) = (  -0.3329779   0.7698546   0.4768324  )
        24           Zn  tau(  24) = (  -0.3320418   0.7705664   1.0146327  )
        25           Zn  tau(  25) = (   0.3333893   0.1935111   0.4766957  )
        26           Zn  tau(  26) = (   0.3336835   0.1914984   1.0148082  )
        27           Mg  tau(  27) = (   0.1669705   0.4811083   0.4757764  )
        28           Mg  tau(  28) = (   0.1655674   0.4824757   1.0125623  )
        29           Zn  tau(  29) = (  -0.0002373   0.7711700   0.4771103  )
        30           Zn  tau(  30) = (   0.0007368   0.7703875   1.0147538  )
        31           Zn  tau(  31) = (   0.6663002   0.1914874   0.4751114  )
        32           Mg  tau(  32) = (   0.6665335   0.1934001   1.0143346  )
        33           Zn  tau(  33) = (   0.4983818   0.4822267   0.4758457  )
        34           Zn  tau(  34) = (   0.5021732   0.4806353   1.0130829  )
        35           Zn  tau(  35) = (   0.3341973   0.7709012   0.4766539  )
        36           Zn  tau(  36) = (   0.3322845   0.7708504   1.0137469  )
        37           O   tau(  37) = (   0.1662006   0.0964753   0.0043134  )
        38           O   tau(  38) = (   0.1666019   0.0964095   0.5411478  )
        39           O   tau(  39) = (   0.0000765   0.3847590   0.0029361  )
        40           O   tau(  40) = (   0.0012572   0.3845693   0.5404625  )
        41           O   tau(  41) = (  -0.1659360   0.6732264   0.0046497  )
        42           O   tau(  42) = (  -0.1662934   0.6738557   0.5422678  )
        43           O   tau(  43) = (   0.5005812   0.0962464   0.0041876  )
        44           O   tau(  44) = (   0.4996880   0.0970027   0.5415774  )
        45           O   tau(  45) = (   0.3328721   0.3855378   0.0013103  )
        46           O   tau(  46) = (   0.3327622   0.3855819   0.5424507  )
        47           O   tau(  47) = (   0.1668567   0.6733117   0.0050337  )
        48           O   tau(  48) = (   0.1670019   0.6736602   0.5393377  )
        49           O   tau(  49) = (   0.8330654   0.0967344   0.0033285  )
        50           O   tau(  50) = (   0.8327035   0.0966204   0.5412913  )
        51           O   tau(  51) = (   0.6667705   0.3843037   0.0063152  )
        52           O   tau(  52) = (   0.6666263   0.3853330   0.5390067  )
        53           O   tau(  53) = (   0.5002291   0.6738872   0.0027302  )
        54           O   tau(  54) = (   0.5004107   0.6743323   0.5431103  )
        55           O   tau(  55) = (  -0.0000023   0.1933675   0.2746753  )
        56           O   tau(  56) = (   0.0001201   0.1921913   0.8081283  )
        57           O   tau(  57) = (  -0.1660193   0.4817783   0.2729219  )
        58           O   tau(  58) = (  -0.1667271   0.4809120   0.8101141  )
        59           O   tau(  59) = (  -0.3332722   0.7704473   0.2727148  )
        60           O   tau(  60) = (  -0.3323456   0.7698152   0.8108992  )
        61           O   tau(  61) = (   0.3327623   0.1939968   0.2724075  )
        62           O   tau(  62) = (   0.3340810   0.1919875   0.8106170  )
        63           O   tau(  63) = (   0.1667204   0.4831831   0.2718880  )
        64           O   tau(  64) = (   0.1683397   0.4809184   0.8089619  )
        65           O   tau(  65) = (   0.0003598   0.7708331   0.2732479  )
        66           O   tau(  66) = (   0.0012234   0.7697391   0.8104421  )
        67           O   tau(  67) = (   0.6667527   0.1935200   0.2707890  )
        68           O   tau(  68) = (   0.6662728   0.1934167   0.8110249  )
        69           O   tau(  69) = (   0.4993331   0.4824379   0.2720213  )
        70           O   tau(  70) = (   0.5003946   0.4817299   0.8089641  )
        71           O   tau(  71) = (   0.3336742   0.7710400   0.2725589  )
        72           O   tau(  72) = (   0.3338626   0.7698736   0.8096278  )

   Crystallographic axes

     site n.     atom                  positions (cryst. coord.)
         1           Zn  tau(   1) = (  0.2217646  0.1120122  0.1935771  )
         2           Zn  tau(   2) = (  0.2234964  0.1095578  0.6936654  )
         3           Zn  tau(   3) = (  0.2227622  0.4444145  0.1926021  )
         4           Zn  tau(   4) = (  0.2231059  0.4455822  0.6923851  )
         5           Zn  tau(   5) = (  0.2230910  0.7785274  0.1944784  )
         6           Zn  tau(   6) = (  0.2228991  0.7778892  0.6944125  )
         7           Zn  tau(   7) = (  0.5543494  0.1110371  0.1939008  )
         8           Zn  tau(   8) = (  0.5555801  0.1102060  0.6936356  )
         9           Zn  tau(   9) = (  0.5553410  0.4457122  0.1914886  )
        10           Mg  tau(  10) = (  0.5559688  0.4421686  0.6938382  )
        11           Mg  tau(  11) = (  0.5565450  0.7798296  0.1934365  )
        12           Zn  tau(  12) = (  0.5555633  0.7773909  0.6919854  )
        13           Zn  tau(  13) = (  0.8906230  0.1113803  0.1929797  )
        14           Zn  tau(  14) = (  0.8865194  0.1104381  0.6932347  )
        15           Mg  tau(  15) = (  0.8897952  0.4464579  0.1950419  )
        16           Zn  tau(  16) = (  0.8884329  0.4439280  0.6918761  )
        17           Zn  tau(  17) = (  0.8888985  0.7788064  0.1929428  )
        18           Mg  tau(  18) = (  0.8902804  0.7779687  0.6948351  )
        19           Mg  tau(  19) = (  0.1097163  0.2215176  0.4451108  )
        20           Zn  tau(  20) = (  0.1101969  0.2216423  0.9424349  )
        21           Zn  tau(  21) = (  0.1127181  0.5556619  0.4438975  )
        22           Zn  tau(  22) = (  0.1088486  0.5544409  0.9439546  )
        23           Zn  tau(  23) = (  0.1109614  0.8885743  0.4435106  )
        24           Zn  tau(  24) = (  0.1122459  0.8892545  0.9439177  )
        25           Zn  tau(  25) = (  0.4448266  0.2230377  0.4435152  )
        26           Zn  tau(  26) = (  0.4438983  0.2205738  0.9442133  )
        27           Mg  tau(  27) = (  0.4442834  0.5550546  0.4425965  )
        28           Mg  tau(  28) = (  0.4436075  0.5564931  0.9420596  )
        29           Zn  tau(  29) = (  0.4443722  0.8899157  0.4437739  )
        30           Zn  tau(  30) = (  0.4448331  0.8888715  0.9440353  )
        31           Zn  tau(  31) = (  0.7764825  0.2205258  0.4420463  )
        32           Mg  tau(  32) = (  0.7777567  0.2225920  0.9437771  )
        33           Zn  tau(  33) = (  0.7762517  0.5561695  0.4426656  )
        34           Zn  tau(  34) = (  0.7790628  0.5541902  0.9425492  )
        35           Zn  tau(  35) = (  0.7785633  0.8894282  0.4433541  )
        36           Zn  tau(  36) = (  0.7765599  0.8892299  0.9431032  )
        37           O   tau(  37) = (  0.2217846  0.1112570  0.0039955  )
        38           O   tau(  38) = (  0.2220863  0.1110403  0.5035040  )
        39           O   tau(  39) = (  0.2219320  0.4440661  0.0026505  )
        40           O   tau(  40) = (  0.2229413  0.4437059  0.5028030  )
        41           O   tau(  41) = (  0.2222965  0.7770864  0.0041815  )
        42           O   tau(  42) = (  0.2222403  0.7776722  0.5044191  )
        43           O   tau(  43) = (  0.5559446  0.1108152  0.0038834  )
        44           O   tau(  44) = (  0.5554260  0.1115479  0.5039085  )
        45           O   tau(  45) = (  0.5550886  0.4447887  0.0011425  )
        46           O   tau(  46) = (  0.5549420  0.4446980  0.5046575  )
        47           O   tau(  47) = (  0.5550501  0.7770082  0.0045437  )
        48           O   tau(  48) = (  0.5553349  0.7772704  0.5016977  )
        49           O   tau(  49) = (  0.8886222  0.1112022  0.0030888  )
        50           O   tau(  50) = (  0.8881328  0.1109301  0.5036472  )
        51           O   tau(  51) = (  0.8881863  0.4431859  0.0058046  )
        52           O   tau(  52) = (  0.8885744  0.4442344  0.5014580  )
        53           O   tau(  53) = (  0.8886662  0.7774960  0.0024051  )
        54           O   tau(  54) = (  0.8890423  0.7778681  0.5052127  )
        55           O   tau(  55) = (  0.1114638  0.2231019  0.2555363  )
        56           O   tau(  56) = (  0.1108466  0.2216046  0.7518987  )
        57           O   tau(  57) = (  0.1117915  0.5560578  0.2538414  )
        58           O   tau(  58) = (  0.1105227  0.5549178  0.7536830  )
        59           O   tau(  59) = (  0.1110324  0.8893119  0.2535852  )
        60           O   tau(  60) = (  0.1115325  0.8884411  0.7543500  )
        61           O   tau(  61) = (  0.4445033  0.2236521  0.2534309  )
        62           O   tau(  62) = (  0.4446012  0.2211916  0.7542194  )
        63           O   tau(  63) = (  0.4452531  0.5575027  0.2528839  )
        64           O   tau(  64) = (  0.4455045  0.5547476  0.7526158  )
        65           O   tau(  65) = (  0.4447983  0.8895800  0.2540860  )
        66           O   tau(  66) = (  0.4449692  0.8881763  0.7539295  )
        67           O   tau(  67) = (  0.7781304  0.2229250  0.2519300  )
        68           O   tau(  68) = (  0.7775290  0.2226646  0.7546034  )
        69           O   tau(  69) = (  0.7773479  0.5564660  0.2530130  )
        70           O   tau(  70) = (  0.7779392  0.5555078  0.7526225  )
        71           O   tau(  71) = (  0.7781437  0.8896420  0.2534497  )
        72           O   tau(  72) = (  0.7775978  0.8881551  0.7531767  )

     number of k points=    80
                       cart. coord. in units 2pi/alat
        k(    1) = (   0.0000000   0.0000000   0.0000000), wk =   0.0156250
        k(    2) = (   0.0000021  -0.0000302   0.1329243), wk =   0.0156250
        k(    3) = (   0.0000042  -0.0000604   0.2658487), wk =   0.0156250
        k(    4) = (   0.0000063  -0.0000907   0.3987730), wk =   0.0156250
        k(    5) = (   0.0000083  -0.0001209   0.5316973), wk =   0.0156250
        k(    6) = (   0.0000104  -0.0001511   0.6646217), wk =   0.0156250
        k(    7) = (   0.0000125  -0.0001813   0.7975460), wk =   0.0156250
        k(    8) = (   0.0000146  -0.0002116   0.9304703), wk =   0.0156250
        k(    9) = (  -0.0001327   0.2885358  -0.0000654), wk =   0.0312500
        k(   10) = (  -0.0001306   0.2885055   0.1328589), wk =   0.0312500
        k(   11) = (  -0.0001285   0.2884753   0.2657832), wk =   0.0312500
        k(   12) = (  -0.0001265   0.2884451   0.3987076), wk =   0.0312500
        k(   13) = (  -0.0001244   0.2884149   0.5316319), wk =   0.0312500
        k(   14) = (  -0.0001223   0.2883847   0.6645562), wk =   0.0312500
        k(   15) = (  -0.0001202   0.2883544   0.7974806), wk =   0.0312500
        k(   16) = (  -0.0001181   0.2883242   0.9304049), wk =   0.0312500
        k(   17) = (   0.0002654  -0.5770715   0.0001309), wk =   0.0156250
        k(   18) = (   0.0002675  -0.5771018   0.1330552), wk =   0.0156250
        k(   19) = (   0.0002696  -0.5771320   0.2659795), wk =   0.0156250
        k(   20) = (   0.0002717  -0.5771622   0.3989039), wk =   0.0156250
        k(   21) = (   0.0002738  -0.5771924   0.5318282), wk =   0.0156250
        k(   22) = (   0.0002759  -0.5772226   0.6647525), wk =   0.0156250
        k(   23) = (   0.0002779  -0.5772529   0.7976769), wk =   0.0156250
        k(   24) = (   0.0002800  -0.5772831   0.9306012), wk =   0.0156250
        k(   25) = (   0.2499337   0.1441525  -0.0000287), wk =   0.0312500
        k(   26) = (   0.2499358   0.1441223   0.1328956), wk =   0.0312500
        k(   27) = (   0.2499379   0.1440920   0.2658200), wk =   0.0312500
        k(   28) = (   0.2499400   0.1440618   0.3987443), wk =   0.0312500
        k(   29) = (   0.2499421   0.1440316   0.5316686), wk =   0.0312500
        k(   30) = (   0.2499442   0.1440014   0.6645930), wk =   0.0312500
        k(   31) = (   0.2499462   0.1439712   0.7975173), wk =   0.0312500
        k(   32) = (   0.2499483   0.1439409   0.9304416), wk =   0.0312500
        k(   33) = (   0.2498010   0.4326882  -0.0000942), wk =   0.0312500
        k(   34) = (   0.2498031   0.4326580   0.1328302), wk =   0.0312500
        k(   35) = (   0.2498052   0.4326278   0.2657545), wk =   0.0312500
        k(   36) = (   0.2498073   0.4325976   0.3986789), wk =   0.0312500
        k(   37) = (   0.2498094   0.4325674   0.5316032), wk =   0.0312500
        k(   38) = (   0.2498114   0.4325371   0.6645275), wk =   0.0312500
        k(   39) = (   0.2498135   0.4325069   0.7974519), wk =   0.0312500
        k(   40) = (   0.2498156   0.4324767   0.9303762), wk =   0.0312500
        k(   41) = (   0.2501992  -0.4329191   0.0001021), wk =   0.0312500
        k(   42) = (   0.2502012  -0.4329493   0.1330265), wk =   0.0312500
        k(   43) = (   0.2502033  -0.4329795   0.2659508), wk =   0.0312500
        k(   44) = (   0.2502054  -0.4330097   0.3988751), wk =   0.0312500
        k(   45) = (   0.2502075  -0.4330399   0.5317995), wk =   0.0312500
        k(   46) = (   0.2502096  -0.4330702   0.6647238), wk =   0.0312500
        k(   47) = (   0.2502117  -0.4331004   0.7976482), wk =   0.0312500
        k(   48) = (   0.2502138  -0.4331306   0.9305725), wk =   0.0312500
        k(   49) = (   0.2500664  -0.1443833   0.0000367), wk =   0.0312500
        k(   50) = (   0.2500685  -0.1444135   0.1329610), wk =   0.0312500
        k(   51) = (   0.2500706  -0.1444437   0.2658854), wk =   0.0312500
        k(   52) = (   0.2500727  -0.1444740   0.3988097), wk =   0.0312500
        k(   53) = (   0.2500748  -0.1445042   0.5317341), wk =   0.0312500
        k(   54) = (   0.2500769  -0.1445344   0.6646584), wk =   0.0312500
        k(   55) = (   0.2500790  -0.1445646   0.7975827), wk =   0.0312500
        k(   56) = (   0.2500810  -0.1445948   0.9305071), wk =   0.0312500
        k(   57) = (  -0.4998674  -0.2883050   0.0000574), wk =   0.0156250
        k(   58) = (  -0.4998654  -0.2883352   0.1329818), wk =   0.0156250
        k(   59) = (  -0.4998633  -0.2883654   0.2659061), wk =   0.0156250
        k(   60) = (  -0.4998612  -0.2883956   0.3988304), wk =   0.0156250
        k(   61) = (  -0.4998591  -0.2884258   0.5317548), wk =   0.0156250
        k(   62) = (  -0.4998570  -0.2884561   0.6646791), wk =   0.0156250
        k(   63) = (  -0.4998549  -0.2884863   0.7976034), wk =   0.0156250
        k(   64) = (  -0.4998528  -0.2885165   0.9305278), wk =   0.0156250
        k(   65) = (  -0.5000002   0.0002308  -0.0000080), wk =   0.0312500
        k(   66) = (  -0.4999981   0.0002006   0.1329163), wk =   0.0312500
        k(   67) = (  -0.4999960   0.0001704   0.2658407), wk =   0.0312500
        k(   68) = (  -0.4999939   0.0001401   0.3987650), wk =   0.0312500
        k(   69) = (  -0.4999918   0.0001099   0.5316893), wk =   0.0312500
        k(   70) = (  -0.4999897   0.0000797   0.6646137), wk =   0.0312500
        k(   71) = (  -0.4999876   0.0000495   0.7975380), wk =   0.0312500
        k(   72) = (  -0.4999856   0.0000193   0.9304624), wk =   0.0312500
        k(   73) = (  -0.4996020  -0.8653765   0.0001883), wk =   0.0156250
        k(   74) = (  -0.4995999  -0.8654067   0.1331126), wk =   0.0156250
        k(   75) = (  -0.4995978  -0.8654369   0.2660370), wk =   0.0156250
        k(   76) = (  -0.4995958  -0.8654672   0.3989613), wk =   0.0156250
        k(   77) = (  -0.4995937  -0.8654974   0.5318856), wk =   0.0156250
        k(   78) = (  -0.4995916  -0.8655276   0.6648100), wk =   0.0156250
        k(   79) = (  -0.4995895  -0.8655578   0.7977343), wk =   0.0156250
        k(   80) = (  -0.4995874  -0.8655880   0.9306586), wk =   0.0156250

                       cryst. coord.
        k(    1) = (   0.0000000   0.0000000   0.0000000), wk =   0.0156250
        k(    2) = (   0.0000000   0.0000000   0.1428571), wk =   0.0156250
        k(    3) = (   0.0000000   0.0000000   0.2857143), wk =   0.0156250
        k(    4) = (   0.0000000  -0.0000000   0.4285714), wk =   0.0156250
        k(    5) = (   0.0000000   0.0000000   0.5714286), wk =   0.0156250
        k(    6) = (   0.0000000   0.0000000   0.7142857), wk =   0.0156250
        k(    7) = (   0.0000000  -0.0000000   0.8571429), wk =   0.0156250
        k(    8) = (   0.0000000   0.0000000   1.0000000), wk =   0.0156250
        k(    9) = (  -0.0000000   0.2500000  -0.0000000), wk =   0.0312500
        k(   10) = (  -0.0000000   0.2500000   0.1428571), wk =   0.0312500
        k(   11) = (   0.0000000   0.2500000   0.2857143), wk =   0.0312500
        k(   12) = (  -0.0000000   0.2500000   0.4285714), wk =   0.0312500
        k(   13) = (   0.0000000   0.2500000   0.5714286), wk =   0.0312500
        k(   14) = (  -0.0000000   0.2500000   0.7142857), wk =   0.0312500
        k(   15) = (   0.0000000   0.2500000   0.8571429), wk =   0.0312500
        k(   16) = (  -0.0000000   0.2500000   1.0000000), wk =   0.0312500
        k(   17) = (   0.0000000  -0.5000000   0.0000000), wk =   0.0156250
        k(   18) = (   0.0000000  -0.5000000   0.1428571), wk =   0.0156250
        k(   19) = (  -0.0000000  -0.5000000   0.2857143), wk =   0.0156250
        k(   20) = (   0.0000000  -0.5000000   0.4285714), wk =   0.0156250
        k(   21) = (   0.0000000  -0.5000000   0.5714286), wk =   0.0156250
        k(   22) = (   0.0000000  -0.5000000   0.7142857), wk =   0.0156250
        k(   23) = (   0.0000000  -0.5000000   0.8571429), wk =   0.0156250
        k(   24) = (  -0.0000000  -0.5000000   1.0000000), wk =   0.0156250
        k(   25) = (   0.2500000  -0.0000000  -0.0000000), wk =   0.0312500
        k(   26) = (   0.2500000  -0.0000000   0.1428571), wk =   0.0312500
        k(   27) = (   0.2500000  -0.0000000   0.2857143), wk =   0.0312500
        k(   28) = (   0.2500000   0.0000000   0.4285714), wk =   0.0312500
        k(   29) = (   0.2500000  -0.0000000   0.5714286), wk =   0.0312500
        k(   30) = (   0.2500000  -0.0000000   0.7142857), wk =   0.0312500
        k(   31) = (   0.2500000  -0.0000000   0.8571429), wk =   0.0312500
        k(   32) = (   0.2500000  -0.0000000   1.0000000), wk =   0.0312500
        k(   33) = (   0.2500000   0.2500000  -0.0000000), wk =   0.0312500
        k(   34) = (   0.2500000   0.2500000   0.1428571), wk =   0.0312500
        k(   35) = (   0.2500000   0.2500000   0.2857143), wk =   0.0312500
        k(   36) = (   0.2500000   0.2500000   0.4285714), wk =   0.0312500
        k(   37) = (   0.2500000   0.2500000   0.5714286), wk =   0.0312500
        k(   38) = (   0.2500000   0.2500000   0.7142857), wk =   0.0312500
        k(   39) = (   0.2500000   0.2500000   0.8571429), wk =   0.0312500
        k(   40) = (   0.2500000   0.2500000   1.0000000), wk =   0.0312500
        k(   41) = (   0.2500000  -0.5000000  -0.0000000), wk =   0.0312500
        k(   42) = (   0.2500000  -0.5000000   0.1428571), wk =   0.0312500
        k(   43) = (   0.2500000  -0.5000000   0.2857143), wk =   0.0312500
        k(   44) = (   0.2500000  -0.5000000   0.4285714), wk =   0.0312500
        k(   45) = (   0.2500000  -0.5000000   0.5714286), wk =   0.0312500
        k(   46) = (   0.2500000  -0.5000000   0.7142857), wk =   0.0312500
        k(   47) = (   0.2500000  -0.5000000   0.8571429), wk =   0.0312500
        k(   48) = (   0.2500000  -0.5000000   1.0000000), wk =   0.0312500
        k(   49) = (   0.2500000  -0.2500000  -0.0000000), wk =   0.0312500
        k(   50) = (   0.2500000  -0.2500000   0.1428571), wk =   0.0312500
        k(   51) = (   0.2500000  -0.2500000   0.2857143), wk =   0.0312500
        k(   52) = (   0.2500000  -0.2500000   0.4285714), wk =   0.0312500
        k(   53) = (   0.2500000  -0.2500000   0.5714286), wk =   0.0312500
        k(   54) = (   0.2500000  -0.2500000   0.7142857), wk =   0.0312500
        k(   55) = (   0.2500000  -0.2500000   0.8571429), wk =   0.0312500
        k(   56) = (   0.2500000  -0.2500000   1.0000000), wk =   0.0312500
        k(   57) = (  -0.5000000   0.0000000   0.0000000), wk =   0.0156250
        k(   58) = (  -0.5000000  -0.0000000   0.1428571), wk =   0.0156250
        k(   59) = (  -0.5000000   0.0000000   0.2857143), wk =   0.0156250
        k(   60) = (  -0.5000000   0.0000000   0.4285714), wk =   0.0156250
        k(   61) = (  -0.5000000   0.0000000   0.5714286), wk =   0.0156250
        k(   62) = (  -0.5000000   0.0000000   0.7142857), wk =   0.0156250
        k(   63) = (  -0.5000000   0.0000000   0.8571429), wk =   0.0156250
        k(   64) = (  -0.5000000   0.0000000   1.0000000), wk =   0.0156250
        k(   65) = (  -0.5000000   0.2500000   0.0000000), wk =   0.0312500
        k(   66) = (  -0.5000000   0.2500000   0.1428571), wk =   0.0312500
        k(   67) = (  -0.5000000   0.2500000   0.2857143), wk =   0.0312500
        k(   68) = (  -0.5000000   0.2500000   0.4285714), wk =   0.0312500
        k(   69) = (  -0.5000000   0.2500000   0.5714286), wk =   0.0312500
        k(   70) = (  -0.5000000   0.2500000   0.7142857), wk =   0.0312500
        k(   71) = (  -0.5000000   0.2500000   0.8571429), wk =   0.0312500
        k(   72) = (  -0.5000000   0.2500000   1.0000000), wk =   0.0312500
        k(   73) = (  -0.5000000  -0.5000000   0.0000000), wk =   0.0156250
        k(   74) = (  -0.5000000  -0.5000000   0.1428571), wk =   0.0156250
        k(   75) = (  -0.5000000  -0.5000000   0.2857143), wk =   0.0156250
        k(   76) = (  -0.5000000  -0.5000000   0.4285714), wk =   0.0156250
        k(   77) = (  -0.5000000  -0.5000000   0.5714286), wk =   0.0156250
        k(   78) = (  -0.5000000  -0.5000000   0.7142857), wk =   0.0156250
        k(   79) = (  -0.5000000  -0.5000000   0.8571429), wk =   0.0156250
        k(   80) = (  -0.5000000  -0.5000000   1.0000000), wk =   0.0156250

     Dense  grid:  1091887 G-vectors     FFT dimensions: ( 135, 135, 144)

     Smooth grid:   363327 G-vectors     FFT dimensions: (  96,  96, 100)

     Dynamical RAM for                 wfc:       2.31 MB

     Dynamical RAM for     wfc (w. buffer):     187.26 MB

     Dynamical RAM for           str. fact:       0.39 MB

     Dynamical RAM for           local pot:       0.00 MB

     Dynamical RAM for          nlocal pot:       6.07 MB

     Dynamical RAM for                qrad:      20.97 MB

     Dynamical RAM for          rho,v,vnew:       1.22 MB

     Dynamical RAM for           G-vectors:       0.51 MB

     Dynamical RAM for          h,s,v(r/c):       2.10 MB

     Dynamical RAM for          <psi|beta>:       7.34 MB

     Dynamical RAM for                 psi:       9.25 MB

     Dynamical RAM for                hpsi:       9.25 MB

     Dynamical RAM for                spsi:       9.25 MB

     Dynamical RAM for      wfcinit/wfcrot:      12.80 MB

     Dynamical RAM for           addusdens:      31.38 MB

     Estimated static dynamical RAM per process >     218.34 MB

     Estimated max dynamical RAM per process >     255.52 MB

     Estimated total dynamical RAM >      31.94 GB

     Check: negative core charge=   -0.000002

     The potential is recalculated from file :
     ./temp/ZnO.save/charge-density

     Starting wfcs are  548 randomized atomic wfcs

     Band Structure Calculation
     Davidson diagonalization with overlap

     Computing kpt #:     1
     total cpu time spent up to now is       21.2 secs

     Computing kpt #:     2
     total cpu time spent up to now is       36.1 secs

     Computing kpt #:     3
     total cpu time spent up to now is       50.7 secs

     Computing kpt #:     4
     total cpu time spent up to now is       65.1 secs

     Computing kpt #:     5
     total cpu time spent up to now is       79.5 secs

     Computing kpt #:     6
     total cpu time spent up to now is       94.2 secs

     Computing kpt #:     7
     total cpu time spent up to now is      109.1 secs

     Computing kpt #:     8
     total cpu time spent up to now is      123.8 secs

     Computing kpt #:     9
     total cpu time spent up to now is      138.5 secs

     Computing kpt #:    10
     total cpu time spent up to now is      153.2 secs

     Computing kpt #:    11
     total cpu time spent up to now is      167.7 secs

     Computing kpt #:    12
     total cpu time spent up to now is      182.1 secs

     Computing kpt #:    13
     total cpu time spent up to now is      196.6 secs

     Computing kpt #:    14
     total cpu time spent up to now is      211.3 secs

     Computing kpt #:    15
     total cpu time spent up to now is      225.9 secs

     Computing kpt #:    16
     total cpu time spent up to now is      240.5 secs

     Computing kpt #:    17
     total cpu time spent up to now is      255.0 secs

     Computing kpt #:    18
     total cpu time spent up to now is      269.5 secs

     Computing kpt #:    19
     total cpu time spent up to now is      283.9 secs

     Computing kpt #:    20
     total cpu time spent up to now is      298.2 secs

     Computing kpt #:    21
     total cpu time spent up to now is      312.6 secs

     Computing kpt #:    22
     total cpu time spent up to now is      327.1 secs

     Computing kpt #:    23
     total cpu time spent up to now is      341.6 secs

     Computing kpt #:    24
     total cpu time spent up to now is      356.0 secs

     Computing kpt #:    25
     total cpu time spent up to now is      370.7 secs

     Computing kpt #:    26
     total cpu time spent up to now is      385.3 secs

     Computing kpt #:    27
     total cpu time spent up to now is      399.9 secs

     Computing kpt #:    28
     total cpu time spent up to now is      414.3 secs

     Computing kpt #:    29
     total cpu time spent up to now is      428.8 secs

     Computing kpt #:    30
     total cpu time spent up to now is      443.2 secs

     Computing kpt #:    31
     total cpu time spent up to now is      457.8 secs

     Computing kpt #:    32
     total cpu time spent up to now is      472.5 secs

     Computing kpt #:    33
     total cpu time spent up to now is      487.0 secs

     Computing kpt #:    34
     total cpu time spent up to now is      501.3 secs

     Computing kpt #:    35
     total cpu time spent up to now is      515.9 secs

     Computing kpt #:    36
     total cpu time spent up to now is      530.3 secs

     Computing kpt #:    37
     total cpu time spent up to now is      544.6 secs

     Computing kpt #:    38
     total cpu time spent up to now is      559.1 secs

     Computing kpt #:    39
     total cpu time spent up to now is      573.6 secs

     Computing kpt #:    40
     total cpu time spent up to now is      588.2 secs

     Computing kpt #:    41
     total cpu time spent up to now is      602.7 secs

     Computing kpt #:    42
     total cpu time spent up to now is      617.2 secs

     Computing kpt #:    43
     total cpu time spent up to now is      631.8 secs

     Computing kpt #:    44
     total cpu time spent up to now is      646.2 secs

     Computing kpt #:    45
     total cpu time spent up to now is      660.6 secs

     Computing kpt #:    46
     total cpu time spent up to now is      675.0 secs

     Computing kpt #:    47
     total cpu time spent up to now is      689.5 secs

     Computing kpt #:    48
     total cpu time spent up to now is      704.1 secs

     Computing kpt #:    49
     total cpu time spent up to now is      718.9 secs

     Computing kpt #:    50
     total cpu time spent up to now is      733.6 secs

     Computing kpt #:    51
     total cpu time spent up to now is      748.3 secs

     Computing kpt #:    52
     total cpu time spent up to now is      762.9 secs

     Computing kpt #:    53
     total cpu time spent up to now is      777.4 secs

     Computing kpt #:    54
     total cpu time spent up to now is      791.9 secs

     Computing kpt #:    55
     total cpu time spent up to now is      806.4 secs

     Computing kpt #:    56
     total cpu time spent up to now is      821.3 secs

     Computing kpt #:    57
     total cpu time spent up to now is      835.8 secs

     Computing kpt #:    58
     total cpu time spent up to now is      850.2 secs

     Computing kpt #:    59
     total cpu time spent up to now is      864.6 secs

     Computing kpt #:    60
     total cpu time spent up to now is      879.1 secs

     Computing kpt #:    61
     total cpu time spent up to now is      893.4 secs

     Computing kpt #:    62
     total cpu time spent up to now is      907.8 secs

     Computing kpt #:    63
     total cpu time spent up to now is      922.3 secs

     Computing kpt #:    64
     total cpu time spent up to now is      936.9 secs

     Computing kpt #:    65
     total cpu time spent up to now is      951.4 secs

     Computing kpt #:    66
     total cpu time spent up to now is      965.9 secs

     Computing kpt #:    67
     total cpu time spent up to now is      980.3 secs

     Computing kpt #:    68
     total cpu time spent up to now is      994.8 secs

     Computing kpt #:    69
     total cpu time spent up to now is     1009.2 secs

     Computing kpt #:    70
     total cpu time spent up to now is     1023.6 secs

     Computing kpt #:    71
     total cpu time spent up to now is     1038.0 secs

     Computing kpt #:    72
     total cpu time spent up to now is     1052.6 secs

     Computing kpt #:    73
     total cpu time spent up to now is     1067.1 secs

     Computing kpt #:    74
     total cpu time spent up to now is     1081.6 secs

     Computing kpt #:    75
     total cpu time spent up to now is     1095.9 secs

     Computing kpt #:    76
     total cpu time spent up to now is     1110.4 secs

     Computing kpt #:    77
     total cpu time spent up to now is     1124.9 secs

     Computing kpt #:    78
     total cpu time spent up to now is     1139.2 secs

     Computing kpt #:    79
     total cpu time spent up to now is     1153.6 secs

     Computing kpt #:    80
     total cpu time spent up to now is     1168.2 secs

     ethr =  1.17E-12,  avg # of iterations = 12.9

     total cpu time spent up to now is     1168.2 secs

     End of band structure calculation

          k = 0.0000 0.0000 0.0000 ( 45429 PWs)   bands (ev):

  -115.1201-115.1176-115.1174-115.1134-115.1128-115.1127-115.1122-115.1109
  -115.1108-115.1106-115.1101-115.1100-115.1091-115.1091-115.1062-115.1045
  -115.1044-115.1041-115.1037-115.1032-115.1031-115.1015-115.1014-115.1002
  -115.0990-115.0986-115.0982-115.0921 -69.4790 -69.4771 -69.4762 -69.4761
   -69.4746 -69.4730 -69.4726 -69.4726 -69.4719 -69.4717 -69.4713 -69.4709
   -69.4706 -69.4703 -69.4701 -69.4701 -69.4699 -69.4696 -69.4696 -69.4694
   -69.4692 -69.4691 -69.4691 -69.4689 -69.4684 -69.4684 -69.4677 -69.4675
   -69.4674 -69.4672 -69.4665 -69.4658 -69.4658 -69.4655 -69.4653 -69.4647
   -69.4639 -69.4639 -69.4634 -69.4633 -69.4633 -69.4632 -69.4627 -69.4625
   -69.4624 -69.4623 -69.4621 -69.4618 -69.4617 -69.4616 -69.4610 -69.4609
   -69.4606 -69.4605 -69.4604 -69.4603 -69.4598 -69.4597 -69.4593 -69.4592
   -69.4591 -69.4591 -69.4589 -69.4587 -69.4581 -69.4579 -69.4579 -69.4577
   -69.4574 -69.4570 -69.4564 -69.4562 -69.4559 -69.4555 -69.4551 -69.4546
   -69.4538 -69.4536 -69.4528 -69.4527 -69.4520 -69.4512 -69.4490 -69.4465
   -64.6022 -64.6008 -64.5907 -64.5904 -64.5879 -64.5874 -64.5868 -64.5707
   -31.5914 -31.5903 -31.5890 -31.5871 -31.5866 -31.5864 -31.5813 -31.5796
   -31.5788 -31.5776 -31.5771 -31.5765 -31.5748 -31.5745 -31.5739 -31.5732
   -31.5726 -31.5721 -31.5713 -31.5696 -31.5667 -31.5574 -31.5554 -31.5535
    -9.8439  -9.5150  -9.4940  -9.4102  -9.3943  -9.3564  -9.3482  -9.3059
    -9.2601  -9.2107  -9.2048  -9.1923  -9.1727  -9.1670  -9.1479  -9.1287
    -9.1011  -9.0822  -9.0654  -9.0518  -9.0342  -9.0253  -8.9800  -8.9607
    -8.9502  -8.9414  -8.9378  -8.9187  -8.9083  -8.8937  -8.8627  -8.8350
    -8.8125  -8.8057  -8.7644  -8.7449   1.9524   1.9704   1.9780   1.9967
     2.0016   2.0085   2.0354   2.0642   2.0667   2.0742   2.1053   2.1198
     2.1264   2.1476   2.1585   2.1776   2.2160   2.2266   2.2331   2.2639
     2.3395   2.3468   2.3612   2.3814   2.3992   2.4082   2.4233   2.4363
     2.4485   2.4517   2.4672   2.4779   2.4821   2.4961   2.4999   2.5092
     2.5294   2.5378   2.5475   2.5615   2.5756   2.5766   2.5926   2.5955
     2.6043   2.6150   2.6207   2.6396   2.6526   2.6664   2.6766   2.6797
     2.6833   2.6914   2.6946   2.6984   2.7131   2.7156   2.7191   2.7275
     2.7305   2.7446   2.7549   2.7631   2.7827   2.8015   2.8242   2.8298
     2.8627   2.8900   2.8970   2.9016   2.9736   2.9798   2.9921   2.9959
     3.0107   3.0298   3.0511   3.0642   3.0721   3.0956   3.1029   3.1232
     3.1279   3.1525   3.1604   3.1643   3.2131   3.2224   3.2299   3.2521
     3.2647   3.2945   3.2971   3.3276   3.3344   3.3491   3.3756   3.4052
     3.4092   3.4148   3.4462   3.4594   3.4679   3.4771   3.4879   3.5027
     3.5055   3.5134   3.5177   3.5282   3.5336   3.5401   3.5441   3.5585
     3.5685   3.5691   3.5758   3.5797   3.5921   3.5953   3.5964   3.6026
     3.6042   3.6199   3.6241   3.6338   3.6451   3.6459   3.6576   3.6623
     3.6711   3.7003   3.7161   3.7374   3.7580   3.7883   3.8071   3.8350
     3.8532   3.9405   3.9618   3.9975   4.0503   4.0588   4.0966   4.1140
     4.1381   4.1627   4.2174   4.2500   4.2660   4.3247   4.3529   4.3796
     4.3962   4.4429   4.4817   4.5081   4.5554   4.5875   4.6029   4.6615
     4.6810   4.7202   4.7595   4.8150   4.8203   4.8992   4.9037   4.9419
     4.9995   5.0066   5.0990   5.1753   5.2144   5.2370   5.2499   5.3717
     5.4501   5.5059   5.5311   5.5439   5.6216   5.7394   5.7847   5.9126
     5.9408   5.9640   5.9754   6.0034   6.0097   6.0343   6.0982   6.1098
     6.1388   6.1526   6.1620   6.1770   6.2158   6.2924   6.3585   6.3829
     6.4636   6.4723   6.4965   6.5358   6.5532   6.5717   6.5863   6.5945
     6.6102   6.6225   6.6475   6.6545   6.6771   6.6833   6.6921   6.7145
     6.7275   6.7369   6.7394   6.7506   6.7739   6.7843   6.8073   6.8795
     7.0175   7.0450   7.0611   7.0646   7.0781   7.0966   7.1214   7.1464
     7.1762   7.2185   7.2607   7.2963   7.3309   7.4417   7.4518   7.4653
     7.5043   7.7357   7.7806   7.7909

     occupation numbers 
     1.0000   1.0000   1.0000   1.0000   1.0000   1.0000   1.0000   1.0000
     1.0000   1.0000   1.0000   1.0000   1.0000   1.0000   1.0000   1.0000
     1.0000   1.0000   1.0000   1.0000   1.0000   1.0000   1.0000   1.0000
     1.0000   1.0000   1.0000   1.0000   1.0000   1.0000   1.0000   1.0000
     1.0000   1.0000   1.0000   1.0000   1.0000   1.0000   1.0000   1.0000
     1.0000   1.0000   1.0000   1.0000   1.0000   1.0000   1.0000   1.0000
     1.0000   1.0000   1.0000   1.0000   1.0000   1.0000   1.0000   1.0000
     1.0000   1.0000   1.0000   1.0000   1.0000   1.0000   1.0000   1.0000
     1.0000   1.0000   1.0000   1.0000   1.0000   1.0000   1.0000   1.0000
     1.0000   1.0000   1.0000   1.0000   1.0000   1.0000   1.0000   1.0000
     1.0000   1.0000   1.0000   1.0000   1.0000   1.0000   1.0000   1.0000
     1.0000   1.0000   1.0000   1.0000   1.0000   1.0000   1.0000   1.0000
     1.0000   1.0000   1.0000   1.0000   1.0000   1.0000   1.0000   1.0000
     1.0000   1.0000   1.0000   1.0000   1.0000   1.0000   1.0000   1.0000
     1.0000   1.0000   1.0000   1.0000   1.0000   1.0000   1.0000   1.0000
     1.0000   1.0000   1.0000   1.0000   1.0000   1.0000   1.0000   1.0000
     1.0000   1.0000   1.0000   1.0000   1.0000   1.0000   1.0000   1.0000
     1.0000   1.0000   1.0000   1.0000   1.0000   1.0000   1.0000   1.0000
     1.0000   1.0000   1.0000   1.0000   1.0000   1.0000   1.0000   1.0000
     1.0000   1.0000   1.0000   1.0000   1.0000   1.0000   1.0000   1.0000
     1.0000   1.0000   1.0000   1.0000   1.0000   1.0000   1.0000   1.0000
     1.0000   1.0000   1.0000   1.0000   1.0000   1.0000   1.0000   1.0000
     1.0000   1.0000   1.0000   1.0000   1.0000   1.0000   1.0000   1.0000
     1.0000   1.0000   1.0000   1.0000   1.0000   1.0000   1.0000   1.0000
     1.0000   1.0000   1.0000   1.0000   1.0000   1.0000   1.0000   1.0000
     1.0000   1.0000   1.0000   1.0000   1.0000   1.0000   1.0000   1.0000
     1.0000   1.0000   1.0000   1.0000   1.0000   1.0000   1.0000   1.0000
     1.0000   1.0000   1.0000   1.0000   1.0000   1.0000   1.0000   1.0000
     1.0000   1.0000   1.0000   1.0000   1.0000   1.0000   1.0000   1.0000
     1.0000   1.0000   1.0000   1.0000   1.0000   1.0000   1.0000   1.0000
     1.0000   1.0000   1.0000   1.0000   1.0000   1.0000   1.0000   1.0000
     1.0000   1.0000   1.0000   1.0000   1.0000   1.0000   1.0000   1.0000
     1.0000   1.0000   1.0000   1.0000   1.0000   1.0000   1.0000   1.0000
     1.0000   1.0000   1.0000   1.0000   1.0000   1.0000   1.0000   1.0000
     1.0000   1.0000   1.0000   1.0000   1.0000   1.0000   1.0000   1.0000
     1.0000   1.0000   1.0000   1.0000   1.0000   1.0000   1.0000   1.0000
     1.0000   1.0000   1.0000   1.0000   1.0000   1.0000   1.0000   1.0000
     1.0000   1.0000   1.0000   1.0000   1.0000   1.0000   1.0000   1.0000
     1.0000   1.0000   1.0000   1.0000   1.0000   1.0000   1.0000   1.0000
     1.0000   1.0000   1.0000   1.0000   1.0000   1.0000   1.0000   1.0000
     1.0000   1.0000   1.0000   1.0000   1.0000   1.0000   1.0000   1.0000
     1.0000   1.0000   1.0000   1.0000   1.0000   1.0000   1.0000   1.0000
     1.0000   1.0000   1.0000   1.0000   1.0000   1.0000   1.0000   1.0000
     1.0000   1.0000   1.0000   1.0000   1.0000   1.0000   1.0000   1.0000
     1.0000   1.0000   1.0000   1.0000   1.0000   1.0000   1.0000   1.0000
     1.0000   1.0000   1.0000   1.0000   1.0000   1.0000   1.0000   1.0000
     1.0000   1.0000   1.0000   1.0000   1.0000   1.0000   1.0000   1.0000
     1.0000   1.0000   1.0000   1.0000   1.0000   1.0000   1.0000   1.0000
     1.0000   1.0000   1.0000   1.0000   1.0000   1.0000   1.0000   1.0000
     1.0000   1.0000   1.0000   1.0000   1.0000   1.0000   1.0000   1.0000
     1.0000   1.0000   1.0000   1.0000   1.0000   1.0000   1.0000   1.0000
     1.0000   1.0000   1.0000   1.0000   1.0000   1.0000   1.0000   1.0000
     1.0000   1.0000   1.0000   1.0000   1.0000   1.0000   1.0000   1.0000
     1.0000   1.0000   1.0000   1.0000

          k = 0.0000-0.0000 0.1329 ( 45385 PWs)   bands (ev):

  -115.1201-115.1176-115.1174-115.1134-115.1128-115.1127-115.1122-115.1109
  -115.1108-115.1106-115.1101-115.1100-115.1091-115.1091-115.1062-115.1045
  -115.1044-115.1041-115.1037-115.1032-115.1031-115.1015-115.1014-115.1002
  -115.0990-115.0986-115.0982-115.0921 -69.4790 -69.4771 -69.4762 -69.4761
   -69.4746 -69.4730 -69.4726 -69.4726 -69.4719 -69.4717 -69.4713 -69.4709
   -69.4706 -69.4703 -69.4701 -69.4701 -69.4699 -69.4696 -69.4696 -69.4694
   -69.4692 -69.4691 -69.4691 -69.4689 -69.4684 -69.4684 -69.4677 -69.4675
   -69.4674 -69.4672 -69.4665 -69.4658 -69.4658 -69.4655 -69.4653 -69.4647
   -69.4639 -69.4639 -69.4634 -69.4633 -69.4633 -69.4632 -69.4627 -69.4626
   -69.4624 -69.4623 -69.4621 -69.4618 -69.4617 -69.4616 -69.4610 -69.4609
   -69.4606 -69.4605 -69.4604 -69.4603 -69.4598 -69.4597 -69.4593 -69.4592
   -69.4591 -69.4591 -69.4589 -69.4587 -69.4581 -69.4579 -69.4579 -69.4577
   -69.4574 -69.4570 -69.4564 -69.4562 -69.4559 -69.4555 -69.4551 -69.4546
   -69.4538 -69.4536 -69.4528 -69.4527 -69.4520 -69.4512 -69.4490 -69.4465
   -64.6022 -64.6008 -64.5907 -64.5904 -64.5879 -64.5874 -64.5868 -64.5707
   -31.5914 -31.5903 -31.5890 -31.5871 -31.5866 -31.5864 -31.5813 -31.5796
   -31.5789 -31.5776 -31.5771 -31.5765 -31.5748 -31.5745 -31.5739 -31.5732
   -31.5726 -31.5721 -31.5712 -31.5696 -31.5667 -31.5574 -31.5554 -31.5535
    -9.8353  -9.5778  -9.4410  -9.4049  -9.3878  -9.3492  -9.3420  -9.3005
    -9.2644  -9.2353  -9.2230  -9.2069  -9.1752  -9.1564  -9.1423  -9.1309
    -9.0936  -9.0809  -9.0644  -9.0462  -9.0422  -9.0053  -8.9770  -8.9593
    -8.9511  -8.9438  -8.9368  -8.9189  -8.9108  -8.8923  -8.8640  -8.8332
    -8.8129  -8.8068  -8.7668  -8.7486   1.9596   1.9738   1.9834   1.9999
     2.0088   2.0247   2.0485   2.0641   2.0739   2.0795   2.1128   2.1201
     2.1320   2.1458   2.1558   2.1824   2.2209   2.2300   2.2359   2.2757
     2.3403   2.3500   2.3606   2.3787   2.3959   2.4026   2.4205   2.4283
     2.4440   2.4458   2.4649   2.4669   2.4789   2.4870   2.4954   2.5052
     2.5193   2.5371   2.5490   2.5595   2.5692   2.5787   2.5897   2.5974
     2.6021   2.6169   2.6198   2.6414   2.6598   2.6714   2.6761   2.6799
     2.6879   2.6924   2.6984   2.7023   2.7107   2.7154   2.7206   2.7255
     2.7338   2.7438   2.7499   2.7678   2.7782   2.8017   2.8181   2.8286
     2.8582   2.8802   2.8960   2.8983   2.9598   2.9714   2.9750   2.9876
     3.0016   3.0130   3.0263   3.0462   3.0593   3.0721   3.0838   3.1069
     3.1222   3.1418   3.1598   3.1742   3.1923   3.2189   3.2334   3.2543
     3.2610   3.2882   3.2944   3.3212   3.3384   3.3592   3.3740   3.3919
     3.4044   3.4137   3.4308   3.4571   3.4683   3.4804   3.4947   3.5004
     3.5093   3.5161   3.5266   3.5325   3.5358   3.5421   3.5494   3.5550
     3.5666   3.5692   3.5785   3.5837   3.5880   3.5918   3.6012   3.6060
     3.6172   3.6252   3.6312   3.6389   3.6477   3.6515   3.6588   3.6639
     3.6711   3.7044   3.7131   3.7312   3.7517   3.7637   3.8001   3.8289
     3.8735   3.9817   4.0241   4.0357   4.0813   4.0962   4.1129   4.1316
     4.1438   4.1753   4.2268   4.2581   4.2764   4.3208   4.3597   4.3762
     4.4031   4.4444   4.4674   4.5196   4.5740   4.5937   4.6119   4.6553
     4.6907   4.7269   4.7783   4.8198   4.8227   4.9057   4.9168   4.9330
     4.9736   5.0131   5.0437   5.0919   5.1392   5.2129   5.3671   5.4001
     5.4689   5.5152   5.5380   5.5910   5.6453   5.7545   5.7811   5.9039
     5.9557   5.9765   5.9879   6.0131   6.0251   6.0430   6.0814   6.1050
     6.1226   6.1380   6.1555   6.1612   6.1724   6.2150   6.2423   6.2915
     6.3285   6.4092   6.4462   6.4959   6.5144   6.5328   6.5406   6.5753
     6.5851   6.6072   6.6361   6.6710   6.7038   6.7367   6.7410   6.7671
     6.7839   6.7957   6.8033   6.8284   6.8351   6.8535   6.8683   6.9085
     7.0215   7.0544   7.0634   7.0801   7.0923   7.1051   7.1281   7.1461
     7.1730   7.2116   7.2500   7.2845   7.3202   7.3809   7.4116   7.5236
     7.5507   7.6299   7.7725   7.7829

     occupation numbers 
     1.0000   1.0000   1.0000   1.0000   1.0000   1.0000   1.0000   1.0000
     1.0000   1.0000   1.0000   1.0000   1.0000   1.0000   1.0000   1.0000
     1.0000   1.0000   1.0000   1.0000   1.0000   1.0000   1.0000   1.0000
     1.0000   1.0000   1.0000   1.0000   1.0000   1.0000   1.0000   1.0000
     1.0000   1.0000   1.0000   1.0000   1.0000   1.0000   1.0000   1.0000
     1.0000   1.0000   1.0000   1.0000   1.0000   1.0000   1.0000   1.0000
     1.0000   1.0000   1.0000   1.0000   1.0000   1.0000   1.0000   1.0000
     1.0000   1.0000   1.0000   1.0000   1.0000   1.0000   1.0000   1.0000
     1.0000   1.0000   1.0000   1.0000   1.0000   1.0000   1.0000   1.0000
     1.0000   1.0000   1.0000   1.0000   1.0000   1.0000   1.0000   1.0000
     1.0000   1.0000   1.0000   1.0000   1.0000   1.0000   1.0000   1.0000
     1.0000   1.0000   1.0000   1.0000   1.0000   1.0000   1.0000   1.0000
     1.0000   1.0000   1.0000   1.0000   1.0000   1.0000   1.0000   1.0000
     1.0000   1.0000   1.0000   1.0000   1.0000   1.0000   1.0000   1.0000
     1.0000   1.0000   1.0000   1.0000   1.0000   1.0000   1.0000   1.0000
     1.0000   1.0000   1.0000   1.0000   1.0000   1.0000   1.0000   1.0000
     1.0000   1.0000   1.0000   1.0000   1.0000   1.0000   1.0000   1.0000
     1.0000   1.0000   1.0000   1.0000   1.0000   1.0000   1.0000   1.0000
     1.0000   1.0000   1.0000   1.0000   1.0000   1.0000   1.0000   1.0000
     1.0000   1.0000   1.0000   1.0000   1.0000   1.0000   1.0000   1.0000
     1.0000   1.0000   1.0000   1.0000   1.0000   1.0000   1.0000   1.0000
     1.0000   1.0000   1.0000   1.0000   1.0000   1.0000   1.0000   1.0000
     1.0000   1.0000   1.0000   1.0000   1.0000   1.0000   1.0000   1.0000
     1.0000   1.0000   1.0000   1.0000   1.0000   1.0000   1.0000   1.0000
     1.0000   1.0000   1.0000   1.0000   1.0000   1.0000   1.0000   1.0000
     1.0000   1.0000   1.0000   1.0000   1.0000   1.0000   1.0000   1.0000
     1.0000   1.0000   1.0000   1.0000   1.0000   1.0000   1.0000   1.0000
     1.0000   1.0000   1.0000   1.0000   1.0000   1.0000   1.0000   1.0000
     1.0000   1.0000   1.0000   1.0000   1.0000   1.0000   1.0000   1.0000
     1.0000   1.0000   1.0000   1.0000   1.0000   1.0000   1.0000   1.0000
     1.0000   1.0000   1.0000   1.0000   1.0000   1.0000   1.0000   1.0000
     1.0000   1.0000   1.0000   1.0000   1.0000   1.0000   1.0000   1.0000
     1.0000   1.0000   1.0000   1.0000   1.0000   1.0000   1.0000   1.0000
     1.0000   1.0000   1.0000   1.0000   1.0000   1.0000   1.0000   1.0000
     1.0000   1.0000   1.0000   1.0000   1.0000   1.0000   1.0000   1.0000
     1.0000   1.0000   1.0000   1.0000   1.0000   1.0000   1.0000   1.0000
     1.0000   1.0000   1.0000   1.0000   1.0000   1.0000   1.0000   1.0000
     1.0000   1.0000   1.0000   1.0000   1.0000   1.0000   1.0000   1.0000
     1.0000   1.0000   1.0000   1.0000   1.0000   1.0000   1.0000   1.0000
     1.0000   1.0000   1.0000   1.0000   1.0000   1.0000   1.0000   1.0000
     1.0000   1.0000   1.0000   1.0000   1.0000   1.0000   1.0000   1.0000
     1.0000   1.0000   1.0000   1.0000   1.0000   1.0000   1.0000   1.0000
     1.0000   1.0000   1.0000   1.0000   1.0000   1.0000   1.0000   1.0000
     1.0000   1.0000   1.0000   1.0000   1.0000   1.0000   1.0000   1.0000
     1.0000   1.0000   1.0000   1.0000   1.0000   1.0000   1.0000   1.0000
     1.0000   1.0000   1.0000   1.0000   1.0000   1.0000   1.0000   1.0000
     1.0000   1.0000   1.0000   1.0000   1.0000   1.0000   1.0000   1.0000
     1.0000   1.0000   1.0000   1.0000   1.0000   1.0000   1.0000   1.0000
     1.0000   1.0000   1.0000   1.0000   1.0000   1.0000   1.0000   1.0000
     1.0000   1.0000   1.0000   1.0000   1.0000   1.0000   1.0000   1.0000
     1.0000   1.0000   1.0000   1.0000   1.0000   1.0000   1.0000   1.0000
     1.0000   1.0000   1.0000   1.0000   1.0000   1.0000   1.0000   1.0000
     1.0000   1.0000   1.0000   1.0000   1.0000   1.0000   1.0000   1.0000
     1.0000   1.0000   1.0000   1.0000

          k = 0.0000-0.0001 0.2658 ( 45369 PWs)   bands (ev):

  -115.1201-115.1176-115.1174-115.1134-115.1128-115.1127-115.1122-115.1109
  -115.1108-115.1106-115.1101-115.1100-115.1091-115.1091-115.1062-115.1045
  -115.1044-115.1041-115.1037-115.1032-115.1031-115.1015-115.1014-115.1002
  -115.0990-115.0986-115.0982-115.0921 -69.4790 -69.4771 -69.4762 -69.4761
   -69.4746 -69.4730 -69.4726 -69.4726 -69.4719 -69.4717 -69.4713 -69.4709
   -69.4706 -69.4703 -69.4701 -69.4701 -69.4699 -69.4696 -69.4696 -69.4694
   -69.4692 -69.4691 -69.4691 -69.4689 -69.4684 -69.4684 -69.4677 -69.4675
   -69.4674 -69.4672 -69.4665 -69.4658 -69.4658 -69.4655 -69.4653 -69.4647
   -69.4639 -69.4639 -69.4634 -69.4633 -69.4633 -69.4632 -69.4627 -69.4626
   -69.4624 -69.4623 -69.4621 -69.4618 -69.4617 -69.4616 -69.4610 -69.4608
   -69.4606 -69.4605 -69.4604 -69.4603 -69.4598 -69.4597 -69.4593 -69.4592
   -69.4591 -69.4591 -69.4589 -69.4587 -69.4581 -69.4579 -69.4579 -69.4577
   -69.4574 -69.4570 -69.4564 -69.4562 -69.4559 -69.4555 -69.4551 -69.4546
   -69.4538 -69.4536 -69.4528 -69.4527 -69.4520 -69.4512 -69.4490 -69.4465
   -64.6022 -64.6008 -64.5907 -64.5904 -64.5879 -64.5874 -64.5868 -64.5707
   -31.5914 -31.5903 -31.5890 -31.5871 -31.5866 -31.5864 -31.5813 -31.5796
   -31.5789 -31.5776 -31.5771 -31.5765 -31.5748 -31.5745 -31.5739 -31.5732
   -31.5726 -31.5722 -31.5711 -31.5697 -31.5667 -31.5574 -31.5554 -31.5535
    -9.8100  -9.6494  -9.4015  -9.3904  -9.3689  -9.3378  -9.3221  -9.2920
    -9.2759  -9.2665  -9.2491  -9.2250  -9.1938  -9.1725  -9.1413  -9.1213
    -9.0934  -9.0747  -9.0609  -9.0300  -9.0184  -8.9981  -8.9712  -8.9568
    -8.9516  -8.9448  -8.9361  -8.9203  -8.9165  -8.8896  -8.8664  -8.8304
    -8.8107  -8.8092  -8.7730  -8.7585   1.9778   1.9867   1.9958   2.0140
     2.0277   2.0406   2.0641   2.0796   2.0862   2.0989   2.1131   2.1290
     2.1429   2.1582   2.1621   2.2021   2.2308   2.2397   2.2555   2.3007
     2.3308   2.3447   2.3554   2.3681   2.3813   2.3904   2.4011   2.4124
     2.4227   2.4356   2.4385   2.4567   2.4655   2.4770   2.4903   2.5024
     2.5112   2.5338   2.5464   2.5587   2.5642   2.5793   2.5836   2.5982
     2.6080   2.6172   2.6276   2.6424   2.6616   2.6695   2.6711   2.6791
     2.6857   2.6965   2.7006   2.7057   2.7171   2.7230   2.7280   2.7321
     2.7370   2.7468   2.7552   2.7658   2.7749   2.8031   2.8111   2.8220
     2.8428   2.8602   2.8810   2.8887   2.9080   2.9263   2.9419   2.9499
     2.9695   2.9807   2.9940   3.0197   3.0319   3.0506   3.0627   3.0837
     3.1073   3.1270   3.1548   3.1723   3.1826   3.2096   3.2295   3.2542
     3.2612   3.2751   3.2988   3.3081   3.3278   3.3468   3.3611   3.3932
     3.4056   3.4154   3.4318   3.4647   3.4725   3.4822   3.4968   3.5013
     3.5083   3.5166   3.5286   3.5307   3.5366   3.5432   3.5519   3.5547
     3.5675   3.5746   3.5798   3.5855   3.5913   3.6030   3.6053   3.6177
     3.6258   3.6342   3.6435   3.6476   3.6571   3.6612   3.6647   3.6727
     3.6841   3.7022   3.7099   3.7249   3.7403   3.7455   3.7807   3.8060
     3.9529   4.0411   4.0907   4.1164   4.1273   4.1371   4.1557   4.1775
     4.1962   4.2096   4.2577   4.2753   4.3168   4.3300   4.3686   4.3774
     4.4114   4.4320   4.4651   4.5239   4.5760   4.5966   4.6308   4.6686
     4.7170   4.7453   4.7686   4.8091   4.8380   4.8606   4.8805   4.9330
     4.9748   5.0115   5.0522   5.0825   5.1139   5.1901   5.4000   5.4760
     5.5147   5.5564   5.5825   5.6127   5.6608   5.7409   5.7698   5.8104
     5.8858   5.9303   5.9521   5.9940   6.0093   6.0134   6.0603   6.0756
     6.0975   6.1189   6.1385   6.1486   6.1685   6.1788   6.1949   6.2237
     6.3079   6.3287   6.3569   6.4021   6.4339   6.4517   6.4645   6.4935
     6.5309   6.5472   6.6117   6.6542   6.7572   6.7976   6.8206   6.8452
     6.8627   6.8786   6.9006   6.9256   6.9402   6.9603   6.9663   7.0014
     7.0314   7.0726   7.0851   7.1055   7.1173   7.1283   7.1376   7.1546
     7.1719   7.1978   7.2244   7.2543   7.2918   7.3199   7.3491   7.4020
     7.5933   7.6129   7.7486   7.7595

     occupation numbers 
     1.0000   1.0000   1.0000   1.0000   1.0000   1.0000   1.0000   1.0000
     1.0000   1.0000   1.0000   1.0000   1.0000   1.0000   1.0000   1.0000
     1.0000   1.0000   1.0000   1.0000   1.0000   1.0000   1.0000   1.0000
     1.0000   1.0000   1.0000   1.0000   1.0000   1.0000   1.0000   1.0000
     1.0000   1.0000   1.0000   1.0000   1.0000   1.0000   1.0000   1.0000
     1.0000   1.0000   1.0000   1.0000   1.0000   1.0000   1.0000   1.0000
     1.0000   1.0000   1.0000   1.0000   1.0000   1.0000   1.0000   1.0000
     1.0000   1.0000   1.0000   1.0000   1.0000   1.0000   1.0000   1.0000
     1.0000   1.0000   1.0000   1.0000   1.0000   1.0000   1.0000   1.0000
     1.0000   1.0000   1.0000   1.0000   1.0000   1.0000   1.0000   1.0000
     1.0000   1.0000   1.0000   1.0000   1.0000   1.0000   1.0000   1.0000
     1.0000   1.0000   1.0000   1.0000   1.0000   1.0000   1.0000   1.0000
     1.0000   1.0000   1.0000   1.0000   1.0000   1.0000   1.0000   1.0000
     1.0000   1.0000   1.0000   1.0000   1.0000   1.0000   1.0000   1.0000
     1.0000   1.0000   1.0000   1.0000   1.0000   1.0000   1.0000   1.0000
     1.0000   1.0000   1.0000   1.0000   1.0000   1.0000   1.0000   1.0000
     1.0000   1.0000   1.0000   1.0000   1.0000   1.0000   1.0000   1.0000
     1.0000   1.0000   1.0000   1.0000   1.0000   1.0000   1.0000   1.0000
     1.0000   1.0000   1.0000   1.0000   1.0000   1.0000   1.0000   1.0000
     1.0000   1.0000   1.0000   1.0000   1.0000   1.0000   1.0000   1.0000
     1.0000   1.0000   1.0000   1.0000   1.0000   1.0000   1.0000   1.0000
     1.0000   1.0000   1.0000   1.0000   1.0000   1.0000   1.0000   1.0000
     1.0000   1.0000   1.0000   1.0000   1.0000   1.0000   1.0000   1.0000
     1.0000   1.0000   1.0000   1.0000   1.0000   1.0000   1.0000   1.0000
     1.0000   1.0000   1.0000   1.0000   1.0000   1.0000   1.0000   1.0000
     1.0000   1.0000   1.0000   1.0000   1.0000   1.0000   1.0000   1.0000
     1.0000   1.0000   1.0000   1.0000   1.0000   1.0000   1.0000   1.0000
     1.0000   1.0000   1.0000   1.0000   1.0000   1.0000   1.0000   1.0000
     1.0000   1.0000   1.0000   1.0000   1.0000   1.0000   1.0000   1.0000
     1.0000   1.0000   1.0000   1.0000   1.0000   1.0000   1.0000   1.0000
     1.0000   1.0000   1.0000   1.0000   1.0000   1.0000   1.0000   1.0000
     1.0000   1.0000   1.0000   1.0000   1.0000   1.0000   1.0000   1.0000
     1.0000   1.0000   1.0000   1.0000   1.0000   1.0000   1.0000   1.0000
     1.0000   1.0000   1.0000   1.0000   1.0000   1.0000   1.0000   1.0000
     1.0000   1.0000   1.0000   1.0000   1.0000   1.0000   1.0000   1.0000
     1.0000   1.0000   1.0000   1.0000   1.0000   1.0000   1.0000   1.0000
     1.0000   1.0000   1.0000   1.0000   1.0000   1.0000   1.0000   1.0000
     1.0000   1.0000   1.0000   1.0000   1.0000   1.0000   1.0000   1.0000
     1.0000   1.0000   1.0000   1.0000   1.0000   1.0000   1.0000   1.0000
     1.0000   1.0000   1.0000   1.0000   1.0000   1.0000   1.0000   1.0000
     1.0000   1.0000   1.0000   1.0000   1.0000   1.0000   1.0000   1.0000
     1.0000   1.0000   1.0000   1.0000   1.0000   1.0000   1.0000   1.0000
     1.0000   1.0000   1.0000   1.0000   1.0000   1.0000   1.0000   1.0000
     1.0000   1.0000   1.0000   1.0000   1.0000   1.0000   1.0000   1.0000
     1.0000   1.0000   1.0000   1.0000   1.0000   1.0000   1.0000   1.0000
     1.0000   1.0000   1.0000   1.0000   1.0000   1.0000   1.0000   1.0000
     1.0000   1.0000   1.0000   1.0000   1.0000   1.0000   1.0000   1.0000
     1.0000   1.0000   1.0000   1.0000   1.0000   1.0000   1.0000   1.0000
     1.0000   1.0000   1.0000   1.0000   1.0000   1.0000   1.0000   1.0000
     1.0000   1.0000   1.0000   1.0000   1.0000   1.0000   1.0000   1.0000
     1.0000   1.0000   1.0000   1.0000   1.0000   1.0000   1.0000   1.0000
     1.0000   1.0000   1.0000   1.0000   1.0000   1.0000   1.0000   1.0000
     1.0000   1.0000   1.0000   1.0000   1.0000   1.0000   1.0000   1.0000
     1.0000   1.0000   1.0000   1.0000

          k = 0.0000-0.0001 0.3988 ( 45394 PWs)   bands (ev):

  -115.1201-115.1176-115.1174-115.1134-115.1128-115.1127-115.1122-115.1109
  -115.1108-115.1106-115.1101-115.1100-115.1091-115.1091-115.1062-115.1045
  -115.1044-115.1041-115.1037-115.1032-115.1031-115.1015-115.1014-115.1002
  -115.0990-115.0986-115.0982-115.0921 -69.4790 -69.4771 -69.4762 -69.4761
   -69.4746 -69.4730 -69.4726 -69.4726 -69.4719 -69.4717 -69.4713 -69.4709
   -69.4706 -69.4703 -69.4701 -69.4701 -69.4699 -69.4696 -69.4696 -69.4694
   -69.4692 -69.4691 -69.4691 -69.4689 -69.4684 -69.4684 -69.4677 -69.4675
   -69.4674 -69.4672 -69.4665 -69.4658 -69.4658 -69.4655 -69.4653 -69.4647
   -69.4639 -69.4639 -69.4634 -69.4633 -69.4633 -69.4632 -69.4627 -69.4626
   -69.4624 -69.4623 -69.4621 -69.4618 -69.4617 -69.4616 -69.4610 -69.4608
   -69.4606 -69.4605 -69.4604 -69.4603 -69.4598 -69.4597 -69.4593 -69.4592
   -69.4591 -69.4591 -69.4589 -69.4587 -69.4581 -69.4579 -69.4579 -69.4577
   -69.4574 -69.4570 -69.4564 -69.4562 -69.4559 -69.4555 -69.4551 -69.4546
   -69.4538 -69.4536 -69.4528 -69.4527 -69.4520 -69.4512 -69.4490 -69.4465
   -64.6022 -64.6008 -64.5907 -64.5904 -64.5879 -64.5874 -64.5868 -64.5707
   -31.5913 -31.5903 -31.5890 -31.5871 -31.5866 -31.5864 -31.5813 -31.5796
   -31.5789 -31.5776 -31.5771 -31.5765 -31.5748 -31.5745 -31.5739 -31.5732
   -31.5726 -31.5722 -31.5710 -31.5697 -31.5667 -31.5575 -31.5554 -31.5535
    -9.7691  -9.7144  -9.3762  -9.3739  -9.3464  -9.3351  -9.3206  -9.3077
    -9.2910  -9.2679  -9.2429  -9.2382  -9.2062  -9.1759  -9.1606  -9.1421
    -9.0825  -9.0662  -9.0431  -9.0192  -9.0026  -8.9931  -8.9756  -8.9631
    -8.9465  -8.9393  -8.9348  -8.9256  -8.9192  -8.8891  -8.8668  -8.8306
    -8.8113  -8.8002  -8.7819  -8.7689   1.9967   2.0022   2.0140   2.0245
     2.0337   2.0432   2.0655   2.0830   2.0932   2.1043   2.1271   2.1387
     2.1697   2.1851   2.2003   2.2288   2.2438   2.2603   2.2791   2.2847
     2.3153   2.3265   2.3355   2.3461   2.3676   2.3721   2.3873   2.3972
     2.4042   2.4150   2.4321   2.4411   2.4558   2.4721   2.4810   2.5092
     2.5186   2.5316   2.5356   2.5615   2.5706   2.5837   2.5899   2.5995
     2.6066   2.6202   2.6265   2.6412   2.6520   2.6613   2.6701   2.6783
     2.6875   2.6920   2.6983   2.7094   2.7207   2.7259   2.7348   2.7426
     2.7448   2.7529   2.7596   2.7754   2.7798   2.8016   2.8078   2.8194
     2.8312   2.8432   2.8552   2.8616   2.8729   2.8819   2.8972   2.9098
     2.9445   2.9541   2.9839   3.0051   3.0275   3.0449   3.0572   3.0692
     3.0991   3.1143   3.1468   3.1683   3.1903   3.2018   3.2220   3.2489
     3.2624   3.2723   3.2831   3.3121   3.3159   3.3267   3.3656   3.3957
     3.4065   3.4240   3.4483   3.4691   3.4762   3.4792   3.4875   3.4993
     3.5087   3.5186   3.5238   3.5284   3.5389   3.5419   3.5476   3.5547
     3.5660   3.5753   3.5830   3.5917   3.5981   3.6049   3.6113   3.6290
     3.6336   3.6367   3.6458   3.6529   3.6629   3.6687   3.6715   3.6843
     3.6945   3.7090   3.7154   3.7209   3.7358   3.7421   3.7611   3.7759
     4.0296   4.0955   4.1203   4.1392   4.1517   4.1715   4.1843   4.2108
     4.2187   4.2458   4.2804   4.3173   4.3481   4.3613   4.3927   4.4113
     4.4254   4.4596   4.4782   4.5218   4.5348   4.5568   4.5747   4.6189
     4.6809   4.6945   4.7429   4.7973   4.8411   4.8793   4.9431   4.9632
     5.0495   5.0853   5.1029   5.1372   5.1519   5.2091   5.3910   5.4789
     5.5066   5.5456   5.5680   5.6283   5.6643   5.6809   5.7130   5.7451
     5.7930   5.8115   5.8505   5.9085   5.9322   5.9443   6.0874   6.1099
     6.1471   6.1564   6.1719   6.2034   6.2232   6.2405   6.2483   6.2634
     6.2801   6.2992   6.3241   6.3475   6.3556   6.3697   6.3832   6.4092
     6.4451   6.4530   6.6546   6.6869   6.7863   6.8418   6.8721   6.8863
     6.9049   6.9129   6.9366   6.9697   6.9932   7.0276   7.0412   7.0513
     7.0755   7.0931   7.1059   7.1124   7.1319   7.1420   7.1586   7.1645
     7.1698   7.1906   7.2006   7.2212   7.2288   7.2623   7.2759   7.2890
     7.6556   7.6704   7.7102   7.7224

     occupation numbers 
     1.0000   1.0000   1.0000   1.0000   1.0000   1.0000   1.0000   1.0000
     1.0000   1.0000   1.0000   1.0000   1.0000   1.0000   1.0000   1.0000
     1.0000   1.0000   1.0000   1.0000   1.0000   1.0000   1.0000   1.0000
     1.0000   1.0000   1.0000   1.0000   1.0000   1.0000   1.0000   1.0000
     1.0000   1.0000   1.0000   1.0000   1.0000   1.0000   1.0000   1.0000
     1.0000   1.0000   1.0000   1.0000   1.0000   1.0000   1.0000   1.0000
     1.0000   1.0000   1.0000   1.0000   1.0000   1.0000   1.0000   1.0000
     1.0000   1.0000   1.0000   1.0000   1.0000   1.0000   1.0000   1.0000
     1.0000   1.0000   1.0000   1.0000   1.0000   1.0000   1.0000   1.0000
     1.0000   1.0000   1.0000   1.0000   1.0000   1.0000   1.0000   1.0000
     1.0000   1.0000   1.0000   1.0000   1.0000   1.0000   1.0000   1.0000
     1.0000   1.0000   1.0000   1.0000   1.0000   1.0000   1.0000   1.0000
     1.0000   1.0000   1.0000   1.0000   1.0000   1.0000   1.0000   1.0000
     1.0000   1.0000   1.0000   1.0000   1.0000   1.0000   1.0000   1.0000
     1.0000   1.0000   1.0000   1.0000   1.0000   1.0000   1.0000   1.0000
     1.0000   1.0000   1.0000   1.0000   1.0000   1.0000   1.0000   1.0000
     1.0000   1.0000   1.0000   1.0000   1.0000   1.0000   1.0000   1.0000
     1.0000   1.0000   1.0000   1.0000   1.0000   1.0000   1.0000   1.0000
     1.0000   1.0000   1.0000   1.0000   1.0000   1.0000   1.0000   1.0000
     1.0000   1.0000   1.0000   1.0000   1.0000   1.0000   1.0000   1.0000
     1.0000   1.0000   1.0000   1.0000   1.0000   1.0000   1.0000   1.0000
     1.0000   1.0000   1.0000   1.0000   1.0000   1.0000   1.0000   1.0000
     1.0000   1.0000   1.0000   1.0000   1.0000   1.0000   1.0000   1.0000
     1.0000   1.0000   1.0000   1.0000   1.0000   1.0000   1.0000   1.0000
     1.0000   1.0000   1.0000   1.0000   1.0000   1.0000   1.0000   1.0000
     1.0000   1.0000   1.0000   1.0000   1.0000   1.0000   1.0000   1.0000
     1.0000   1.0000   1.0000   1.0000   1.0000   1.0000   1.0000   1.0000
     1.0000   1.0000   1.0000   1.0000   1.0000   1.0000   1.0000   1.0000
     1.0000   1.0000   1.0000   1.0000   1.0000   1.0000   1.0000   1.0000
     1.0000   1.0000   1.0000   1.0000   1.0000   1.0000   1.0000   1.0000
     1.0000   1.0000   1.0000   1.0000   1.0000   1.0000   1.0000   1.0000
     1.0000   1.0000   1.0000   1.0000   1.0000   1.0000   1.0000   1.0000
     1.0000   1.0000   1.0000   1.0000   1.0000   1.0000   1.0000   1.0000
     1.0000   1.0000   1.0000   1.0000   1.0000   1.0000   1.0000   1.0000
     1.0000   1.0000   1.0000   1.0000   1.0000   1.0000   1.0000   1.0000
     1.0000   1.0000   1.0000   1.0000   1.0000   1.0000   1.0000   1.0000
     1.0000   1.0000   1.0000   1.0000   1.0000   1.0000   1.0000   1.0000
     1.0000   1.0000   1.0000   1.0000   1.0000   1.0000   1.0000   1.0000
     1.0000   1.0000   1.0000   1.0000   1.0000   1.0000   1.0000   1.0000
     1.0000   1.0000   1.0000   1.0000   1.0000   1.0000   1.0000   1.0000
     1.0000   1.0000   1.0000   1.0000   1.0000   1.0000   1.0000   1.0000
     1.0000   1.0000   1.0000   1.0000   1.0000   1.0000   1.0000   1.0000
     1.0000   1.0000   1.0000   1.0000   1.0000   1.0000   1.0000   1.0000
     1.0000   1.0000   1.0000   1.0000   1.0000   1.0000   1.0000   1.0000
     1.0000   1.0000   1.0000   1.0000   1.0000   1.0000   1.0000   1.0000
     1.0000   1.0000   1.0000   1.0000   1.0000   1.0000   1.0000   1.0000
     1.0000   1.0000   1.0000   1.0000   1.0000   1.0000   1.0000   1.0000
     1.0000   1.0000   1.0000   1.0000   1.0000   1.0000   1.0000   1.0000
     1.0000   1.0000   1.0000   1.0000   1.0000   1.0000   1.0000   1.0000
     1.0000   1.0000   1.0000   1.0000   1.0000   1.0000   1.0000   1.0000
     1.0000   1.0000   1.0000   1.0000   1.0000   1.0000   1.0000   1.0000
     1.0000   1.0000   1.0000   1.0000   1.0000   1.0000   1.0000   1.0000
     1.0000   1.0000   1.0000   1.0000   1.0000   1.0000   1.0000   1.0000
     1.0000   1.0000   1.0000   1.0000

          k = 0.0000-0.0001 0.5317 ( 45394 PWs)   bands (ev):

  -115.1201-115.1176-115.1174-115.1134-115.1128-115.1127-115.1122-115.1109
  -115.1108-115.1106-115.1101-115.1100-115.1091-115.1091-115.1062-115.1045
  -115.1044-115.1041-115.1037-115.1032-115.1031-115.1015-115.1014-115.1002
  -115.0990-115.0986-115.0982-115.0921 -69.4790 -69.4771 -69.4762 -69.4761
   -69.4746 -69.4730 -69.4726 -69.4726 -69.4719 -69.4717 -69.4713 -69.4709
   -69.4706 -69.4703 -69.4701 -69.4701 -69.4699 -69.4696 -69.4696 -69.4694
   -69.4692 -69.4691 -69.4691 -69.4689 -69.4684 -69.4684 -69.4677 -69.4675
   -69.4674 -69.4672 -69.4665 -69.4658 -69.4658 -69.4655 -69.4653 -69.4647
   -69.4639 -69.4639 -69.4634 -69.4633 -69.4633 -69.4632 -69.4627 -69.4626
   -69.4624 -69.4623 -69.4621 -69.4618 -69.4617 -69.4616 -69.4610 -69.4608
   -69.4606 -69.4605 -69.4604 -69.4603 -69.4598 -69.4597 -69.4593 -69.4592
   -69.4591 -69.4591 -69.4589 -69.4587 -69.4581 -69.4579 -69.4579 -69.4577
   -69.4574 -69.4570 -69.4564 -69.4562 -69.4559 -69.4555 -69.4551 -69.4546
   -69.4538 -69.4536 -69.4528 -69.4527 -69.4520 -69.4512 -69.4490 -69.4465
   -64.6022 -64.6008 -64.5907 -64.5904 -64.5879 -64.5874 -64.5868 -64.5707
   -31.5913 -31.5903 -31.5890 -31.5871 -31.5866 -31.5864 -31.5813 -31.5796
   -31.5789 -31.5776 -31.5771 -31.5765 -31.5748 -31.5745 -31.5739 -31.5732
   -31.5726 -31.5722 -31.5710 -31.5697 -31.5667 -31.5575 -31.5554 -31.5535
    -9.7691  -9.7144  -9.3762  -9.3739  -9.3464  -9.3351  -9.3206  -9.3077
    -9.2910  -9.2679  -9.2429  -9.2382  -9.2062  -9.1759  -9.1606  -9.1421
    -9.0825  -9.0662  -9.0431  -9.0192  -9.0026  -8.9931  -8.9756  -8.9631
    -8.9465  -8.9393  -8.9348  -8.9256  -8.9192  -8.8891  -8.8668  -8.8306
    -8.8113  -8.8002  -8.7819  -8.7689   1.9967   2.0022   2.0140   2.0245
     2.0337   2.0432   2.0655   2.0830   2.0932   2.1043   2.1271   2.1387
     2.1697   2.1851   2.2003   2.2288   2.2438   2.2603   2.2791   2.2847
     2.3153   2.3265   2.3355   2.3461   2.3676   2.3721   2.3873   2.3972
     2.4042   2.4150   2.4321   2.4411   2.4558   2.4721   2.4810   2.5092
     2.5186   2.5316   2.5356   2.5615   2.5706   2.5837   2.5899   2.5995
     2.6066   2.6202   2.6265   2.6412   2.6520   2.6613   2.6701   2.6783
     2.6875   2.6920   2.6983   2.7094   2.7207   2.7259   2.7348   2.7426
     2.7448   2.7529   2.7596   2.7754   2.7798   2.8016   2.8078   2.8194
     2.8312   2.8432   2.8552   2.8616   2.8729   2.8819   2.8972   2.9098
     2.9445   2.9541   2.9839   3.0051   3.0275   3.0449   3.0572   3.0692
     3.0991   3.1143   3.1468   3.1683   3.1903   3.2018   3.2220   3.2489
     3.2624   3.2723   3.2831   3.3121   3.3159   3.3267   3.3656   3.3957
     3.4065   3.4240   3.4483   3.4691   3.4762   3.4792   3.4875   3.4993
     3.5087   3.5186   3.5238   3.5284   3.5389   3.5419   3.5476   3.5547
     3.5660   3.5753   3.5830   3.5917   3.5981   3.6049   3.6113   3.6290
     3.6336   3.6367   3.6458   3.6529   3.6629   3.6687   3.6715   3.6843
     3.6945   3.7090   3.7154   3.7209   3.7358   3.7421   3.7611   3.7759
     4.0296   4.0955   4.1203   4.1392   4.1517   4.1715   4.1843   4.2108
     4.2187   4.2458   4.2804   4.3173   4.3481   4.3613   4.3927   4.4113
     4.4254   4.4596   4.4782   4.5218   4.5348   4.5568   4.5747   4.6189
     4.6809   4.6945   4.7429   4.7973   4.8411   4.8793   4.9431   4.9632
     5.0495   5.0853   5.1029   5.1372   5.1519   5.2091   5.3910   5.4789
     5.5066   5.5456   5.5680   5.6283   5.6643   5.6809   5.7130   5.7451
     5.7930   5.8115   5.8505   5.9085   5.9322   5.9443   6.0874   6.1099
     6.1471   6.1564   6.1719   6.2034   6.2232   6.2405   6.2483   6.2634
     6.2801   6.2992   6.3241   6.3475   6.3556   6.3697   6.3832   6.4092
     6.4451   6.4530   6.6546   6.6869   6.7863   6.8418   6.8721   6.8863
     6.9049   6.9129   6.9366   6.9697   6.9932   7.0276   7.0412   7.0513
     7.0755   7.0931   7.1059   7.1124   7.1319   7.1420   7.1586   7.1645
     7.1698   7.1906   7.2006   7.2212   7.2288   7.2623   7.2759   7.2890
     7.6556   7.6704   7.7102   7.7224

     occupation numbers 
     1.0000   1.0000   1.0000   1.0000   1.0000   1.0000   1.0000   1.0000
     1.0000   1.0000   1.0000   1.0000   1.0000   1.0000   1.0000   1.0000
     1.0000   1.0000   1.0000   1.0000   1.0000   1.0000   1.0000   1.0000
     1.0000   1.0000   1.0000   1.0000   1.0000   1.0000   1.0000   1.0000
     1.0000   1.0000   1.0000   1.0000   1.0000   1.0000   1.0000   1.0000
     1.0000   1.0000   1.0000   1.0000   1.0000   1.0000   1.0000   1.0000
     1.0000   1.0000   1.0000   1.0000   1.0000   1.0000   1.0000   1.0000
     1.0000   1.0000   1.0000   1.0000   1.0000   1.0000   1.0000   1.0000
     1.0000   1.0000   1.0000   1.0000   1.0000   1.0000   1.0000   1.0000
     1.0000   1.0000   1.0000   1.0000   1.0000   1.0000   1.0000   1.0000
     1.0000   1.0000   1.0000   1.0000   1.0000   1.0000   1.0000   1.0000
     1.0000   1.0000   1.0000   1.0000   1.0000   1.0000   1.0000   1.0000
     1.0000   1.0000   1.0000   1.0000   1.0000   1.0000   1.0000   1.0000
     1.0000   1.0000   1.0000   1.0000   1.0000   1.0000   1.0000   1.0000
     1.0000   1.0000   1.0000   1.0000   1.0000   1.0000   1.0000   1.0000
     1.0000   1.0000   1.0000   1.0000   1.0000   1.0000   1.0000   1.0000
     1.0000   1.0000   1.0000   1.0000   1.0000   1.0000   1.0000   1.0000
     1.0000   1.0000   1.0000   1.0000   1.0000   1.0000   1.0000   1.0000
     1.0000   1.0000   1.0000   1.0000   1.0000   1.0000   1.0000   1.0000
     1.0000   1.0000   1.0000   1.0000   1.0000   1.0000   1.0000   1.0000
     1.0000   1.0000   1.0000   1.0000   1.0000   1.0000   1.0000   1.0000
     1.0000   1.0000   1.0000   1.0000   1.0000   1.0000   1.0000   1.0000
     1.0000   1.0000   1.0000   1.0000   1.0000   1.0000   1.0000   1.0000
     1.0000   1.0000   1.0000   1.0000   1.0000   1.0000   1.0000   1.0000
     1.0000   1.0000   1.0000   1.0000   1.0000   1.0000   1.0000   1.0000
     1.0000   1.0000   1.0000   1.0000   1.0000   1.0000   1.0000   1.0000
     1.0000   1.0000   1.0000   1.0000   1.0000   1.0000   1.0000   1.0000
     1.0000   1.0000   1.0000   1.0000   1.0000   1.0000   1.0000   1.0000
     1.0000   1.0000   1.0000   1.0000   1.0000   1.0000   1.0000   1.0000
     1.0000   1.0000   1.0000   1.0000   1.0000   1.0000   1.0000   1.0000
     1.0000   1.0000   1.0000   1.0000   1.0000   1.0000   1.0000   1.0000
     1.0000   1.0000   1.0000   1.0000   1.0000   1.0000   1.0000   1.0000
     1.0000   1.0000   1.0000   1.0000   1.0000   1.0000   1.0000   1.0000
     1.0000   1.0000   1.0000   1.0000   1.0000   1.0000   1.0000   1.0000
     1.0000   1.0000   1.0000   1.0000   1.0000   1.0000   1.0000   1.0000
     1.0000   1.0000   1.0000   1.0000   1.0000   1.0000   1.0000   1.0000
     1.0000   1.0000   1.0000   1.0000   1.0000   1.0000   1.0000   1.0000
     1.0000   1.0000   1.0000   1.0000   1.0000   1.0000   1.0000   1.0000
     1.0000   1.0000   1.0000   1.0000   1.0000   1.0000   1.0000   1.0000
     1.0000   1.0000   1.0000   1.0000   1.0000   1.0000   1.0000   1.0000
     1.0000   1.0000   1.0000   1.0000   1.0000   1.0000   1.0000   1.0000
     1.0000   1.0000   1.0000   1.0000   1.0000   1.0000   1.0000   1.0000
     1.0000   1.0000   1.0000   1.0000   1.0000   1.0000   1.0000   1.0000
     1.0000   1.0000   1.0000   1.0000   1.0000   1.0000   1.0000   1.0000
     1.0000   1.0000   1.0000   1.0000   1.0000   1.0000   1.0000   1.0000
     1.0000   1.0000   1.0000   1.0000   1.0000   1.0000   1.0000   1.0000
     1.0000   1.0000   1.0000   1.0000   1.0000   1.0000   1.0000   1.0000
     1.0000   1.0000   1.0000   1.0000   1.0000   1.0000   1.0000   1.0000
     1.0000   1.0000   1.0000   1.0000   1.0000   1.0000   1.0000   1.0000
     1.0000   1.0000   1.0000   1.0000   1.0000   1.0000   1.0000   1.0000
     1.0000   1.0000   1.0000   1.0000   1.0000   1.0000   1.0000   1.0000
     1.0000   1.0000   1.0000   1.0000   1.0000   1.0000   1.0000   1.0000
     1.0000   1.0000   1.0000   1.0000   1.0000   1.0000   1.0000   1.0000
     1.0000   1.0000   1.0000   1.0000

          k = 0.0000-0.0002 0.6646 ( 45369 PWs)   bands (ev):

  -115.1201-115.1176-115.1174-115.1134-115.1128-115.1127-115.1122-115.1109
  -115.1108-115.1106-115.1101-115.1100-115.1091-115.1091-115.1062-115.1045
  -115.1044-115.1041-115.1037-115.1032-115.1031-115.1015-115.1014-115.1002
  -115.0990-115.0986-115.0982-115.0921 -69.4790 -69.4771 -69.4762 -69.4761
   -69.4746 -69.4730 -69.4726 -69.4726 -69.4719 -69.4717 -69.4713 -69.4709
   -69.4706 -69.4703 -69.4701 -69.4701 -69.4699 -69.4696 -69.4696 -69.4694
   -69.4692 -69.4691 -69.4691 -69.4689 -69.4684 -69.4684 -69.4677 -69.4675
   -69.4674 -69.4672 -69.4665 -69.4658 -69.4658 -69.4655 -69.4653 -69.4647
   -69.4639 -69.4639 -69.4634 -69.4633 -69.4633 -69.4632 -69.4627 -69.4626
   -69.4624 -69.4623 -69.4621 -69.4618 -69.4617 -69.4616 -69.4610 -69.4608
   -69.4606 -69.4605 -69.4604 -69.4603 -69.4598 -69.4597 -69.4593 -69.4592
   -69.4591 -69.4591 -69.4589 -69.4587 -69.4581 -69.4579 -69.4579 -69.4577
   -69.4574 -69.4570 -69.4564 -69.4562 -69.4559 -69.4555 -69.4551 -69.4546
   -69.4538 -69.4536 -69.4528 -69.4527 -69.4520 -69.4512 -69.4490 -69.4465
   -64.6022 -64.6008 -64.5907 -64.5904 -64.5879 -64.5874 -64.5868 -64.5707
   -31.5914 -31.5903 -31.5890 -31.5871 -31.5866 -31.5864 -31.5813 -31.5796
   -31.5789 -31.5776 -31.5771 -31.5765 -31.5748 -31.5745 -31.5739 -31.5732
   -31.5726 -31.5722 -31.5711 -31.5697 -31.5667 -31.5574 -31.5554 -31.5535
    -9.8100  -9.6494  -9.4015  -9.3904  -9.3689  -9.3378  -9.3221  -9.2920
    -9.2759  -9.2665  -9.2491  -9.2250  -9.1938  -9.1725  -9.1413  -9.1213
    -9.0934  -9.0747  -9.0609  -9.0300  -9.0184  -8.9981  -8.9712  -8.9568
    -8.9516  -8.9448  -8.9361  -8.9203  -8.9165  -8.8896  -8.8664  -8.8304
    -8.8107  -8.8092  -8.7730  -8.7585   1.9778   1.9867   1.9958   2.0140
     2.0277   2.0406   2.0641   2.0796   2.0862   2.0989   2.1131   2.1290
     2.1429   2.1582   2.1621   2.2021   2.2308   2.2397   2.2555   2.3007
[...]
    -9.0867  -9.0757  -9.0533  -9.0313  -9.0133  -9.0083  -9.0010  -8.9861
    -8.9775  -8.9488  -8.9356  -8.9179  -8.9063  -8.8929  -8.8614  -8.8397
    -8.8178  -8.7930  -8.7629  -8.7454   1.9720   1.9967   2.0167   2.0224
     2.0293   2.0515   2.0876   2.0987   2.1156   2.1291   2.1358   2.1465
     2.1768   2.1834   2.2032   2.2160   2.2373   2.2560   2.2595   2.2870
     2.3008   2.3086   2.3392   2.3453   2.3628   2.3700   2.4065   2.4142
     2.4232   2.4432   2.4554   2.4656   2.4784   2.4867   2.4974   2.5060
     2.5103   2.5224   2.5343   2.5473   2.5524   2.5623   2.5709   2.5770
     2.5858   2.5955   2.6074   2.6120   2.6232   2.6347   2.6476   2.6539
     2.6629   2.6723   2.6798   2.6879   2.6906   2.7020   2.7028   2.7284
     2.7358   2.7463   2.7579   2.7694   2.7876   2.8065   2.8157   2.8238
     2.8284   2.8464   2.8571   2.8706   2.8773   2.8932   2.9204   2.9342
     2.9584   2.9663   3.0138   3.0185   3.0459   3.0609   3.0651   3.0974
     3.1172   3.1385   3.1618   3.1718   3.1839   3.2064   3.2138   3.2508
     3.2791   3.2910   3.3039   3.3151   3.3377   3.3567   3.3729   3.3940
     3.4128   3.4184   3.4371   3.4478   3.4641   3.4707   3.4819   3.4924
     3.5024   3.5097   3.5255   3.5281   3.5359   3.5512   3.5607   3.5663
     3.5715   3.5808   3.5907   3.5944   3.6074   3.6134   3.6201   3.6348
     3.6376   3.6439   3.6486   3.6577   3.6691   3.6734   3.6813   3.6943
     3.7040   3.7075   3.7127   3.7432   3.7554   3.7747   3.7792   3.8064
     3.8320   3.8757   3.9261   3.9623   4.0037   4.0259   4.0518   4.0687
     4.1140   4.1425   4.1884   4.2106   4.2329   4.2773   4.3082   4.3648
     4.3941   4.4328   4.4610   4.4836   4.5564   4.6245   4.6941   4.7155
     4.8961   4.9342   4.9958   5.0570   5.0694   5.1185   5.1716   5.1783
     5.2047   5.2439   5.3055   5.3249   5.3532   5.3673   5.3858   5.4347
     5.4437   5.5247   5.5808   5.5995   5.6291   5.7267   5.7443   5.8250
     5.8381   5.8654   5.8844   5.9102   5.9358   5.9509   6.0910   6.1189
     6.1778   6.1895   6.2565   6.3028   6.3413   6.3698   6.3906   6.4304
     6.4384   6.4538   6.4632   6.4965   6.5319   6.5595   6.5741   6.5789
     6.5946   6.6043   6.6179   6.6404   6.6433   6.6617   6.6767   6.6953
     6.6998   6.7065   6.7166   6.7202   6.7247   6.7442   6.7788   6.7830
     6.8209   6.8485   6.8653   6.8957   6.9591   6.9894   7.0039   7.0186
     7.0634   7.1723   7.1760   7.1973   7.2213   7.2482   7.2768   7.3108
     7.5141   7.5691   7.6254   7.7001

     occupation numbers 
     1.0000   1.0000   1.0000   1.0000   1.0000   1.0000   1.0000   1.0000
     1.0000   1.0000   1.0000   1.0000   1.0000   1.0000   1.0000   1.0000
     1.0000   1.0000   1.0000   1.0000   1.0000   1.0000   1.0000   1.0000
     1.0000   1.0000   1.0000   1.0000   1.0000   1.0000   1.0000   1.0000
     1.0000   1.0000   1.0000   1.0000   1.0000   1.0000   1.0000   1.0000
     1.0000   1.0000   1.0000   1.0000   1.0000   1.0000   1.0000   1.0000
     1.0000   1.0000   1.0000   1.0000   1.0000   1.0000   1.0000   1.0000
     1.0000   1.0000   1.0000   1.0000   1.0000   1.0000   1.0000   1.0000
     1.0000   1.0000   1.0000   1.0000   1.0000   1.0000   1.0000   1.0000
     1.0000   1.0000   1.0000   1.0000   1.0000   1.0000   1.0000   1.0000
     1.0000   1.0000   1.0000   1.0000   1.0000   1.0000   1.0000   1.0000
     1.0000   1.0000   1.0000   1.0000   1.0000   1.0000   1.0000   1.0000
     1.0000   1.0000   1.0000   1.0000   1.0000   1.0000   1.0000   1.0000
     1.0000   1.0000   1.0000   1.0000   1.0000   1.0000   1.0000   1.0000
     1.0000   1.0000   1.0000   1.0000   1.0000   1.0000   1.0000   1.0000
     1.0000   1.0000   1.0000   1.0000   1.0000   1.0000   1.0000   1.0000
     1.0000   1.0000   1.0000   1.0000   1.0000   1.0000   1.0000   1.0000
     1.0000   1.0000   1.0000   1.0000   1.0000   1.0000   1.0000   1.0000
     1.0000   1.0000   1.0000   1.0000   1.0000   1.0000   1.0000   1.0000
     1.0000   1.0000   1.0000   1.0000   1.0000   1.0000   1.0000   1.0000
     1.0000   1.0000   1.0000   1.0000   1.0000   1.0000   1.0000   1.0000
     1.0000   1.0000   1.0000   1.0000   1.0000   1.0000   1.0000   1.0000
     1.0000   1.0000   1.0000   1.0000   1.0000   1.0000   1.0000   1.0000
     1.0000   1.0000   1.0000   1.0000   1.0000   1.0000   1.0000   1.0000
     1.0000   1.0000   1.0000   1.0000   1.0000   1.0000   1.0000   1.0000
     1.0000   1.0000   1.0000   1.0000   1.0000   1.0000   1.0000   1.0000
     1.0000   1.0000   1.0000   1.0000   1.0000   1.0000   1.0000   1.0000
     1.0000   1.0000   1.0000   1.0000   1.0000   1.0000   1.0000   1.0000
     1.0000   1.0000   1.0000   1.0000   1.0000   1.0000   1.0000   1.0000
     1.0000   1.0000   1.0000   1.0000   1.0000   1.0000   1.0000   1.0000
     1.0000   1.0000   1.0000   1.0000   1.0000   1.0000   1.0000   1.0000
     1.0000   1.0000   1.0000   1.0000   1.0000   1.0000   1.0000   1.0000
     1.0000   1.0000   1.0000   1.0000   1.0000   1.0000   1.0000   1.0000
     1.0000   1.0000   1.0000   1.0000   1.0000   1.0000   1.0000   1.0000
     1.0000   1.0000   1.0000   1.0000   1.0000   1.0000   1.0000   1.0000
     1.0000   1.0000   1.0000   1.0000   1.0000   1.0000   1.0000   1.0000
     1.0000   1.0000   1.0000   1.0000   1.0000   1.0000   1.0000   1.0000
     1.0000   1.0000   1.0000   1.0000   1.0000   1.0000   1.0000   1.0000
     1.0000   1.0000   1.0000   1.0000   1.0000   1.0000   1.0000   1.0000
     1.0000   1.0000   1.0000   1.0000   1.0000   1.0000   1.0000   1.0000
     1.0000   1.0000   1.0000   1.0000   1.0000   1.0000   1.0000   1.0000
     1.0000   1.0000   1.0000   1.0000   1.0000   1.0000   1.0000   1.0000
     1.0000   1.0000   1.0000   1.0000   1.0000   1.0000   1.0000   1.0000
     1.0000   1.0000   1.0000   1.0000   1.0000   1.0000   1.0000   1.0000
     1.0000   1.0000   1.0000   1.0000   1.0000   1.0000   1.0000   1.0000
     1.0000   1.0000   1.0000   1.0000   1.0000   1.0000   1.0000   1.0000
     1.0000   1.0000   1.0000   1.0000   1.0000   1.0000   1.0000   1.0000
     1.0000   1.0000   1.0000   1.0000   1.0000   1.0000   1.0000   1.0000
     1.0000   1.0000   1.0000   1.0000   1.0000   1.0000   1.0000   1.0000
     1.0000   1.0000   1.0000   1.0000   1.0000   1.0000   1.0000   1.0000
     1.0000   1.0000   1.0000   1.0000   1.0000   1.0000   1.0000   1.0000
     1.0000   1.0000   1.0000   1.0000   1.0000   1.0000   1.0000   1.0000
     1.0000   1.0000   1.0000   1.0000   1.0000   1.0000   1.0000   1.0000
     1.0000   1.0000   1.0000   1.0000

     highest occupied level (ev):     7.7909



               ==================================================
                            POLARIZATION CALCULATION
                         !!! NOT THOROUGHLY TESTED !!!
               --------------------------------------------------


                     K-POINTS STRINGS USED IN CALCULATIONS
                     ~~~~~~~~~~~~~~~~~~~~~~~~~~~~~~~~~~~~~

       G-vector along string (2 pi/a):  0.00001 -0.00021  0.93047
       Modulus of the vector (1/bohr):  0.31805
       Number of k-points per string:   8
       Number of different strings  :  10


                               IONIC POLARIZATION
                               ~~~~~~~~~~~~~~~~~~

        Note: (mod 1) means that the phases (angles ranging from
        -pi to pi) have been mapped to the interval [-1/2,+1/2) by
        dividing by 2*pi; (mod 2) refers to the interval [-1,+1)

  ============================================================================
    Ion    Species    Charge              Position                Phase
  ----------------------------------------------------------------------------
     1        Zn      20.000       0.1658  0.0972  0.2081    -0.12846 (mod 2)
     2        Zn      20.000       0.1687  0.0952  0.7455    -0.12669 (mod 2)
     3        Zn      20.000       0.0007  0.3851  0.2071    -0.14796 (mod 2)
     4        Zn      20.000       0.0005  0.3862  0.7442    -0.15230 (mod 2)
     5        Zn      20.000      -0.1659  0.6745  0.2092    -0.11043 (mod 2)
     6        Zn      20.000      -0.1657  0.6741  0.7465    -0.11175 (mod 2)
     7        Zn      20.000       0.4989  0.0965  0.2084    -0.12198 (mod 2)
     8        Zn      20.000       0.5005  0.0959  0.7455    -0.12729 (mod 2)
     9        Zn      20.000       0.3327  0.3864  0.2059    -0.17023 (mod 2)
    10        Mg      10.000       0.3350  0.3834  0.7458     0.93838 (mod 2)
    11        Mg      10.000       0.1669  0.6758  0.2080    -0.06564 (mod 2)
    12        Zn      20.000       0.1672  0.6738  0.7438    -0.16029 (mod 2)
    13        Zn      20.000       0.8350  0.0969  0.2074    -0.14041 (mod 2)
    14        Zn      20.000       0.8313  0.0962  0.7450    -0.13531 (mod 2)
    15        Mg      10.000       0.6667  0.3872  0.2097    -0.04958 (mod 2)
    16        Zn      20.000       0.6666  0.3851  0.7437    -0.16248 (mod 2)
    17        Zn      20.000       0.4998  0.6751  0.2075    -0.14114 (mod 2)
    18        Mg      10.000       0.5016  0.6745  0.7469     0.94835 (mod 2)
    19        Mg      10.000      -0.0010  0.1920  0.4784     0.45111 (mod 2)
    20        Zn      20.000      -0.0006  0.1923  1.0129     0.84870 (mod 2)
    21        Zn      20.000      -0.1649  0.4815  0.4772     0.87795 (mod 2)
    22        Zn      20.000      -0.1682  0.4805  1.0146     0.87909 (mod 2)
    23        Zn      20.000      -0.3330  0.7699  0.4768     0.87021 (mod 2)
    24        Zn      20.000      -0.3320  0.7706  1.0146     0.87835 (mod 2)
    25        Zn      20.000       0.3334  0.1935  0.4767     0.87030 (mod 2)
    26        Zn      20.000       0.3337  0.1915  1.0148     0.88427 (mod 2)
    27        Mg      10.000       0.1670  0.4811  0.4758     0.42596 (mod 2)
    28        Mg      10.000       0.1656  0.4825  1.0126    -0.57940 (mod 2)
    29        Zn      20.000      -0.0002  0.7712  0.4771     0.87548 (mod 2)
    30        Zn      20.000       0.0007  0.7704  1.0148     0.88071 (mod 2)
    31        Zn      20.000       0.6663  0.1915  0.4751     0.84093 (mod 2)
    32        Mg      10.000       0.6665  0.1934  1.0143    -0.56223 (mod 2)
    33        Zn      20.000       0.4984  0.4822  0.4758     0.85331 (mod 2)
    34        Zn      20.000       0.5022  0.4806  1.0131     0.85098 (mod 2)
    35        Zn      20.000       0.3342  0.7709  0.4767     0.86708 (mod 2)
    36        Zn      20.000       0.3323  0.7709  1.0137     0.86206 (mod 2)
    37        O        6.000       0.1662  0.0965  0.0043     0.02397 (mod 2)
    38        O        6.000       0.1666  0.0964  0.5411    -0.97898 (mod 2)
    39        O        6.000       0.0001  0.3848  0.0029     0.01590 (mod 2)
    40        O        6.000       0.0013  0.3846  0.5405    -0.98318 (mod 2)
    41        O        6.000      -0.1659  0.6732  0.0046     0.02509 (mod 2)
    42        O        6.000      -0.1663  0.6739  0.5423    -0.97349 (mod 2)
    43        O        6.000       0.5006  0.0962  0.0042     0.02330 (mod 2)
    44        O        6.000       0.4997  0.0970  0.5416    -0.97655 (mod 2)
    45        O        6.000       0.3329  0.3855  0.0013     0.00685 (mod 2)
    46        O        6.000       0.3328  0.3856  0.5425    -0.97205 (mod 2)
    47        O        6.000       0.1669  0.6733  0.0050     0.02726 (mod 2)
    48        O        6.000       0.1670  0.6737  0.5393    -0.98981 (mod 2)
    49        O        6.000       0.8331  0.0967  0.0033     0.01853 (mod 2)
    50        O        6.000       0.8327  0.0966  0.5413    -0.97812 (mod 2)
    51        O        6.000       0.6668  0.3843  0.0063     0.03483 (mod 2)
    52        O        6.000       0.6666  0.3853  0.5390    -0.99125 (mod 2)
    53        O        6.000       0.5002  0.6739  0.0027     0.01443 (mod 2)
    54        O        6.000       0.5004  0.6743  0.5431    -0.96872 (mod 2)
    55        O        6.000      -0.0000  0.1934  0.2747    -0.46678 (mod 2)
    56        O        6.000       0.0001  0.1922  0.8081     0.51139 (mod 2)
    57        O        6.000      -0.1660  0.4818  0.2729    -0.47695 (mod 2)
    58        O        6.000      -0.1667  0.4809  0.8101     0.52210 (mod 2)
    59        O        6.000      -0.3333  0.7704  0.2727    -0.47849 (mod 2)
    60        O        6.000      -0.3323  0.7698  0.8109     0.52610 (mod 2)
    61        O        6.000       0.3328  0.1940  0.2724    -0.47941 (mod 2)
    62        O        6.000       0.3341  0.1920  0.8106     0.52532 (mod 2)
    63        O        6.000       0.1667  0.4832  0.2719    -0.48270 (mod 2)
    64        O        6.000       0.1683  0.4809  0.8090     0.51569 (mod 2)
    65        O        6.000       0.0004  0.7708  0.2732    -0.47548 (mod 2)
    66        O        6.000       0.0012  0.7697  0.8104     0.52358 (mod 2)
    67        O        6.000       0.6668  0.1935  0.2708    -0.48842 (mod 2)
    68        O        6.000       0.6663  0.1934  0.8110     0.52762 (mod 2)
    69        O        6.000       0.4993  0.4824  0.2720    -0.48192 (mod 2)
    70        O        6.000       0.5004  0.4817  0.8090     0.51574 (mod 2)
    71        O        6.000       0.3337  0.7710  0.2726    -0.47930 (mod 2)
    72        O        6.000       0.3339  0.7699  0.8096     0.51906 (mod 2)
  ----------------------------------------------------------------------------
                                               IONIC PHASE:  -0.53518 (mod 2)
  ============================================================================


                            ELECTRONIC POLARIZATION
                            ~~~~~~~~~~~~~~~~~~~~~~~

        Note: (mod 1) means that the phases (angles ranging from
        -pi to pi) have been mapped to the interval [-1/2,+1/2) by
        dividing by 2*pi; (mod 2) refers to the interval [-1,+1)

  ============================================================================
   Spin    String     Weight      First k-point in string         Phase
  ----------------------------------------------------------------------------
    up        1      0.062500      0.0000  0.0000  0.0000     0.12527 (mod 1)
    up        2      0.125000     -0.0001  0.2885 -0.0001     0.11996 (mod 1)
    up        3      0.062500      0.0003 -0.5771  0.0001     0.11683 (mod 1)
    up        4      0.125000      0.2499  0.1442 -0.0000     0.12001 (mod 1)
    up        5      0.125000      0.2498  0.4327 -0.0001     0.11682 (mod 1)
    up        6      0.125000      0.2502 -0.4329  0.0001     0.11680 (mod 1)
    up        7      0.125000      0.2501 -0.1444  0.0000     0.11999 (mod 1)
    up        8      0.062500     -0.4999 -0.2883  0.0001     0.11687 (mod 1)
    up        9      0.125000     -0.5000  0.0002 -0.0000     0.11682 (mod 1)
    up       10      0.062500     -0.4996 -0.8654  0.0002     0.11683 (mod 1)
  ----------------------------------------------------------------------------
   down       1      0.062500      0.0000  0.0000  0.0000     0.12527 (mod 1)
   down       2      0.125000     -0.0001  0.2885 -0.0001     0.11996 (mod 1)
   down       3      0.062500      0.0003 -0.5771  0.0001     0.11683 (mod 1)
   down       4      0.125000      0.2499  0.1442 -0.0000     0.12001 (mod 1)
   down       5      0.125000      0.2498  0.4327 -0.0001     0.11682 (mod 1)
   down       6      0.125000      0.2502 -0.4329  0.0001     0.11680 (mod 1)
   down       7      0.125000      0.2501 -0.1444  0.0000     0.11999 (mod 1)
   down       8      0.062500     -0.4999 -0.2883  0.0001     0.11687 (mod 1)
   down       9      0.125000     -0.5000  0.0002 -0.0000     0.11682 (mod 1)
   down      10      0.062500     -0.4996 -0.8654  0.0002     0.11683 (mod 1)
  ----------------------------------------------------------------------------
                                        Average phase (up):   0.11854 (mod 1)
                                      Average phase (down):   0.11854 (mod 1)
                                          ELECTRONIC PHASE:   0.23708 (mod 2)
  ============================================================================


                               SUMMARY OF PHASES
                               ~~~~~~~~~~~~~~~~~

                          Ionic Phase: -0.53518 (mod 2)
                     Electronic Phase:  0.23708 (mod 2)
                          TOTAL PHASE: -0.29810 (mod 2)


                             VALUES OF POLARIZATION
                             ~~~~~~~~~~~~~~~~~~~~~~

        The calculation of phases done along the direction of vector 3
        of the reciprocal lattice gives the following contribution to
        the polarization vector (in different units, and being Omega
        the volume of the unit cell):

           P =  -5.8890523  (mod  39.5107464)  (e/Omega).bohr

           P =  -0.0010182  (mod   0.0068315)  e/bohr^2

           P =  -0.0582138  (mod   0.3905670)  C/m^2

        The polarization direction is:  (-0.00002 , 0.00023 , 1.00000 )


               ==================================================



     Writing output data file ZnO.save/
 
     init_run     :      1.78s CPU      5.44s WALL (       1 calls)
     electrons    :   1596.52s CPU   1632.83s WALL (       1 calls)

     Called by init_run:
     wfcinit      :      0.00s CPU      0.00s WALL (       1 calls)
     wfcinit:atom :      0.05s CPU      0.21s WALL (      80 calls)
     wfcinit:wfcr :     69.78s CPU     71.80s WALL (      80 calls)
     potinit      :      0.20s CPU      0.33s WALL (       1 calls)
     hinit0       :      0.84s CPU      4.14s WALL (       1 calls)

     Called by electrons:
     c_bands      :   1127.35s CPU   1161.81s WALL (       1 calls)
     v_of_rho     :      0.15s CPU      0.16s WALL (       1 calls)
     v_h          :      0.01s CPU      0.01s WALL (       1 calls)
     v_xc         :      0.14s CPU      0.15s WALL (       1 calls)
     newd         :      0.07s CPU      0.11s WALL (       1 calls)

     Called by c_bands:
     init_us_2    :      0.66s CPU      0.69s WALL (     220 calls)
     cegterg      :   1055.21s CPU   1085.64s WALL (      80 calls)

     Called by sum_band:

     Called by *egterg:
     h_psi        :    442.16s CPU    453.74s WALL (    1194 calls)
     s_psi        :     37.90s CPU     37.95s WALL (    1194 calls)
     g_psi        :      0.31s CPU      0.32s WALL (    1034 calls)
     cdiaghg      :    351.33s CPU    359.75s WALL (    1114 calls)
     cegterg:over :     86.09s CPU     97.69s WALL (    1034 calls)
     cegterg:upda :     98.03s CPU     98.24s WALL (    1034 calls)
     cegterg:last :     92.17s CPU     92.36s WALL (     320 calls)
     cdiaghg:chol :     21.41s CPU     21.74s WALL (    1114 calls)
     cdiaghg:inve :     15.10s CPU     15.15s WALL (    1114 calls)
     cdiaghg:para :     57.97s CPU     63.25s WALL (    2228 calls)

     Called by h_psi:
     h_psi:pot    :    441.21s CPU    452.72s WALL (    1194 calls)
     h_psi:calbec :     55.37s CPU     63.42s WALL (    1194 calls)
     vloc_psi     :    347.41s CPU    350.30s WALL (    1194 calls)
     add_vuspsi   :     38.42s CPU     38.99s WALL (    1194 calls)

     General routines
     calbec       :     67.29s CPU     76.58s WALL (    1334 calls)
     fft          :      0.77s CPU      4.01s WALL (      13 calls)
     ffts         :      0.01s CPU      0.01s WALL (       1 calls)
     fftw         :    343.62s CPU    346.48s WALL (  778602 calls)
     interpolate  :      0.02s CPU      0.02s WALL (       1 calls)
 
     Parallel routines
     fft_scatt_xy :      9.88s CPU      9.95s WALL (  778616 calls)
     fft_scatt_yz :    295.18s CPU    300.92s WALL (  778616 calls)
 
     PWSCF        :  27m58.11s CPU  28m54.29s WALL

 
   This run was terminated on:   2:39:46  15Jul2022            

=------------------------------------------------------------------------------=
   JOB DONE.
=------------------------------------------------------------------------------=
