
     Program PWSCF v.6.4.1 starts on  7Jun2022 at 23: 1: 0 

     This program is part of the open-source Quantum ESPRESSO suite
     for quantum simulation of materials; please cite
         "P. Giannozzi et al., J. Phys.:Condens. Matter 21 395502 (2009);
         "P. Giannozzi et al., J. Phys.:Condens. Matter 29 465901 (2017);
          URL http://www.quantum-espresso.org", 
     in publications or presentations arising from this work. More details at
     http://www.quantum-espresso.org/quote

     Parallel version (MPI), running on    64 processors

     MPI processes distributed on     1 nodes
     K-points division:     npool     =       4
     R & G space division:  proc/nbgrp/npool/nimage =      16
     Waiting for input...
     Reading input from standard input

     Current dimensions of program PWSCF are:
     Max number of different atomic species (ntypx) = 10
     Max number of k-points (npk) =  40000
     Max angular momentum in pseudopotentials (lmaxx) =  3

     Subspace diagonalization in iterative solution of the eigenvalue problem:
     one sub-group per band group will be used
     scalapack distributed-memory algorithm (size of sub-group:  2*  2 procs)

 
     Parallelization info
     --------------------
     sticks:   dense  smooth     PW     G-vecs:    dense   smooth      PW
     Min          95      51     15                 4937     1921     333
     Max          96      52     16                 4944     1926     340
     Sum        1531     823    253                79067    30771    5395
 


     bravais-lattice index     =            0
     lattice parameter (alat)  =       6.1103  a.u.
     unit-cell volume          =     318.8455 (a.u.)^3
     number of atoms/cell      =            4
     number of atomic types    =            2
     number of electrons       =        52.00
     number of Kohn-Sham states=           26
     kinetic-energy cutoff     =      80.0000  Ry
     charge density cutoff     =     600.0000  Ry
     convergence threshold     =      1.0E-06
     mixing beta               =       0.5000
     number of iterations used =            8  plain     mixing
     Exchange-correlation      = SLA  PW   PSX  PSC ( 1  4 10  8 0 0)
     Using LIBXC version       =    4   3   4
     nstep                     =          200


     celldm(1)=   6.110292  celldm(2)=   0.000000  celldm(3)=   0.000000
     celldm(4)=   0.000000  celldm(5)=   0.000000  celldm(6)=   0.000000

     crystal axes: (cart. coord. in units of alat)
               a(1) = (   1.000000  -0.000000  -0.000000 )  
               a(2) = (  -0.500000   0.866025  -0.000000 )  
               a(3) = (  -0.000000  -0.000000   1.613853 )  

     reciprocal axes: (cart. coord. in units 2 pi/alat)
               b(1) = (  1.000000  0.577350  0.000000 )  
               b(2) = (  0.000000  1.154701  0.000000 )  
               b(3) = (  0.000000  0.000000  0.619635 )  


     PseudoPot. # 1 for Zn read from file:
     ./GBRV_PBEsol/zn_pbesol_v1.uspp.F.UPF
     MD5 check sum: 7d8615e52efe7c1e2b1899de8658bae2
     Pseudo is Ultrasoft, Zval = 20.0
     Generated by new atomic code, or converted to UPF format
     Using radial grid of  943 points,  6 beta functions with: 
                l(1) =   0
                l(2) =   0
                l(3) =   1
                l(4) =   1
                l(5) =   2
                l(6) =   2
     Q(r) pseudized with  8 coefficients,  rinner =    1.100   1.100   1.100
                                                       1.100   1.100

     PseudoPot. # 2 for O  read from file:
     ./GBRV_PBEsol/o_pbesol_v1.2.uspp.F.UPF
     MD5 check sum: 501638753501ef6325af9037351f7734
     Pseudo is Ultrasoft + core correction, Zval =  6.0
     Generated by new atomic code, or converted to UPF format
     Using radial grid of  737 points,  5 beta functions with: 
                l(1) =   0
                l(2) =   0
                l(3) =   1
                l(4) =   1
                l(5) =   2
     Q(r) pseudized with  8 coefficients,  rinner =    0.900   0.900   0.900
                                                       0.900   0.900

     atomic species   valence    mass     pseudopotential
        Zn            20.00    65.38000     Zn( 1.00)
        O              6.00    15.99900     O ( 1.00)

     No symmetry found


                                    s                        frac. trans.

      isym =  1     identity                                     

 cryst.   s( 1) = (     1          0          0      )
                  (     0          1          0      )
                  (     0          0          1      )

 cart.    s( 1) = (  1.0000000  0.0000000 -0.0000000 )
                  ( -0.0000000  1.0000000  0.0000000 )
                  ( -0.0000000 -0.0000000  1.0000000 )


   Cartesian axes

     site n.     atom                  positions (alat units)
         1           O   tau(   1) = (   0.5000001   0.2886754   0.0118550  )
         2           O   tau(   2) = (  -0.0000000   0.5773492   0.8187812  )
         3           Zn  tau(   3) = (   0.4999999   0.2886746   0.7526268  )
         4           Zn  tau(   4) = (  -0.0000004   0.5773508   1.5595531  )

   Crystallographic axes

     site n.     atom                  positions (cryst. coord.)
         1           O   tau(   1) = (  0.6666670  0.3333337  0.0073459  )
         2           O   tau(   2) = (  0.3333329  0.6666657  0.5073458  )
         3           Zn  tau(   3) = (  0.6666664  0.3333329  0.4663542  )
         4           Zn  tau(   4) = (  0.3333336  0.6666677  0.9663542  )

     number of k points=   260
                       cart. coord. in units 2pi/alat
        k(    1) = (   0.0000000   0.0000000   0.0000000), wk =   0.0039062
        k(    2) = (   0.0000000   0.0000000   0.0774544), wk =   0.0078125
        k(    3) = (   0.0000000   0.0000000   0.1549088), wk =   0.0078125
        k(    4) = (   0.0000000   0.0000000   0.2323632), wk =   0.0078125
        k(    5) = (  -0.0000000  -0.0000000  -0.3098176), wk =   0.0039062
        k(    6) = (   0.0000000   0.1443376   0.0000000), wk =   0.0078125
        k(    7) = (   0.0000000   0.1443376   0.0774544), wk =   0.0078125
        k(    8) = (   0.0000000   0.1443376   0.1549088), wk =   0.0078125
        k(    9) = (   0.0000000   0.1443376   0.2323633), wk =   0.0078125
        k(   10) = (  -0.0000000   0.1443375  -0.3098176), wk =   0.0078125
        k(   11) = (  -0.0000000   0.1443376  -0.2323632), wk =   0.0078125
        k(   12) = (  -0.0000000   0.1443376  -0.1549088), wk =   0.0078125
        k(   13) = (  -0.0000000   0.1443376  -0.0774544), wk =   0.0078125
        k(   14) = (   0.0000000   0.2886752   0.0000000), wk =   0.0078125
        k(   15) = (   0.0000000   0.2886752   0.0774545), wk =   0.0078125
        k(   16) = (   0.0000000   0.2886752   0.1549089), wk =   0.0078125
        k(   17) = (   0.0000000   0.2886752   0.2323633), wk =   0.0078125
        k(   18) = (  -0.0000000   0.2886751  -0.3098176), wk =   0.0078125
        k(   19) = (  -0.0000000   0.2886752  -0.2323632), wk =   0.0078125
        k(   20) = (  -0.0000000   0.2886752  -0.1549088), wk =   0.0078125
        k(   21) = (  -0.0000000   0.2886752  -0.0774544), wk =   0.0078125
        k(   22) = (   0.0000000   0.4330128   0.0000001), wk =   0.0078125
        k(   23) = (   0.0000000   0.4330128   0.0774545), wk =   0.0078125
        k(   24) = (   0.0000000   0.4330128   0.1549089), wk =   0.0078125
        k(   25) = (   0.0000000   0.4330128   0.2323633), wk =   0.0078125
        k(   26) = (  -0.0000000   0.4330127  -0.3098176), wk =   0.0078125
        k(   27) = (  -0.0000000   0.4330127  -0.2323632), wk =   0.0078125
        k(   28) = (  -0.0000000   0.4330128  -0.1549088), wk =   0.0078125
        k(   29) = (  -0.0000000   0.4330128  -0.0774543), wk =   0.0078125
        k(   30) = (  -0.0000000  -0.5773504  -0.0000001), wk =   0.0039062
        k(   31) = (  -0.0000000  -0.5773504   0.0774543), wk =   0.0078125
        k(   32) = (   0.0000000  -0.5773503   0.1549087), wk =   0.0078125
        k(   33) = (   0.0000000  -0.5773503   0.2323631), wk =   0.0078125
        k(   34) = (  -0.0000000  -0.5773504  -0.3098177), wk =   0.0039062
        k(   35) = (   0.1250000   0.0721688   0.0000000), wk =   0.0078125
        k(   36) = (   0.1250000   0.0721688   0.0774544), wk =   0.0078125
        k(   37) = (   0.1250000   0.0721688   0.1549088), wk =   0.0078125
        k(   38) = (   0.1250000   0.0721688   0.2323633), wk =   0.0078125
        k(   39) = (   0.1250000   0.0721688  -0.3098176), wk =   0.0078125
        k(   40) = (   0.1250000   0.0721688  -0.2323632), wk =   0.0078125
        k(   41) = (   0.1250000   0.0721688  -0.1549088), wk =   0.0078125
        k(   42) = (   0.1250000   0.0721688  -0.0774544), wk =   0.0078125
        k(   43) = (   0.1250000   0.2165064   0.0000000), wk =   0.0078125
        k(   44) = (   0.1250000   0.2165064   0.0774545), wk =   0.0078125
        k(   45) = (   0.1250000   0.2165064   0.1549089), wk =   0.0078125
        k(   46) = (   0.1250000   0.2165064   0.2323633), wk =   0.0078125
        k(   47) = (   0.1250000   0.2165063  -0.3098176), wk =   0.0078125
        k(   48) = (   0.1250000   0.2165064  -0.2323632), wk =   0.0078125
        k(   49) = (   0.1250000   0.2165064  -0.1549088), wk =   0.0078125
        k(   50) = (   0.1250000   0.2165064  -0.0774544), wk =   0.0078125
        k(   51) = (   0.1250000   0.3608440   0.0000001), wk =   0.0078125
        k(   52) = (   0.1250000   0.3608440   0.0774545), wk =   0.0078125
        k(   53) = (   0.1250000   0.3608440   0.1549089), wk =   0.0078125
        k(   54) = (   0.1250000   0.3608440   0.2323633), wk =   0.0078125
        k(   55) = (   0.1250000   0.3608439  -0.3098176), wk =   0.0078125
        k(   56) = (   0.1250000   0.3608440  -0.2323632), wk =   0.0078125
        k(   57) = (   0.1250000   0.3608440  -0.1549088), wk =   0.0078125
        k(   58) = (   0.1250000   0.3608440  -0.0774543), wk =   0.0078125
        k(   59) = (   0.1250000   0.5051816   0.0000001), wk =   0.0078125
        k(   60) = (   0.1250000   0.5051816   0.0774545), wk =   0.0078125
        k(   61) = (   0.1250000   0.5051816   0.1549089), wk =   0.0078125
        k(   62) = (   0.1250000   0.5051816   0.2323633), wk =   0.0078125
        k(   63) = (   0.1250000   0.5051815  -0.3098176), wk =   0.0078125
        k(   64) = (   0.1250000   0.5051815  -0.2323631), wk =   0.0078125
        k(   65) = (   0.1250000   0.5051816  -0.1549087), wk =   0.0078125
        k(   66) = (   0.1250000   0.5051816  -0.0774543), wk =   0.0078125
        k(   67) = (   0.1250000  -0.5051816  -0.0000001), wk =   0.0078125
        k(   68) = (   0.1250000  -0.5051816   0.0774543), wk =   0.0078125
        k(   69) = (   0.1250000  -0.5051816   0.1549088), wk =   0.0078125
        k(   70) = (   0.1250000  -0.5051815   0.2323632), wk =   0.0078125
        k(   71) = (   0.1250000  -0.5051816  -0.3098177), wk =   0.0078125
        k(   72) = (   0.1250000  -0.5051816  -0.2323633), wk =   0.0078125
        k(   73) = (   0.1250000  -0.5051816  -0.1549089), wk =   0.0078125
        k(   74) = (   0.1250000  -0.5051816  -0.0774545), wk =   0.0078125
        k(   75) = (   0.1250000  -0.3608440  -0.0000000), wk =   0.0078125
        k(   76) = (   0.1250000  -0.3608440   0.0774544), wk =   0.0078125
        k(   77) = (   0.1250000  -0.3608440   0.1549088), wk =   0.0078125
        k(   78) = (   0.1250000  -0.3608439   0.2323632), wk =   0.0078125
        k(   79) = (   0.1250000  -0.3608440  -0.3098177), wk =   0.0078125
        k(   80) = (   0.1250000  -0.3608440  -0.2323633), wk =   0.0078125
        k(   81) = (   0.1250000  -0.3608440  -0.1549089), wk =   0.0078125
        k(   82) = (   0.1250000  -0.3608440  -0.0774545), wk =   0.0078125
        k(   83) = (   0.1250000  -0.2165064  -0.0000000), wk =   0.0078125
        k(   84) = (   0.1250000  -0.2165064   0.0774544), wk =   0.0078125
        k(   85) = (   0.1250000  -0.2165064   0.1549088), wk =   0.0078125
        k(   86) = (   0.1250000  -0.2165064   0.2323632), wk =   0.0078125
        k(   87) = (   0.1250000  -0.2165064  -0.3098177), wk =   0.0078125
        k(   88) = (   0.1250000  -0.2165064  -0.2323633), wk =   0.0078125
        k(   89) = (   0.1250000  -0.2165064  -0.1549088), wk =   0.0078125
        k(   90) = (   0.1250000  -0.2165064  -0.0774544), wk =   0.0078125
        k(   91) = (   0.1250000  -0.0721688   0.0000000), wk =   0.0078125
        k(   92) = (   0.1250000  -0.0721688   0.0774544), wk =   0.0078125
        k(   93) = (   0.1250000  -0.0721688   0.1549088), wk =   0.0078125
        k(   94) = (   0.1250000  -0.0721688   0.2323632), wk =   0.0078125
        k(   95) = (   0.1250000  -0.0721688  -0.3098176), wk =   0.0078125
        k(   96) = (   0.1250000  -0.0721688  -0.2323632), wk =   0.0078125
        k(   97) = (   0.1250000  -0.0721688  -0.1549088), wk =   0.0078125
        k(   98) = (   0.1250000  -0.0721688  -0.0774544), wk =   0.0078125
        k(   99) = (   0.2500000   0.1443376   0.0000000), wk =   0.0078125
        k(  100) = (   0.2500000   0.1443376   0.0774545), wk =   0.0078125
        k(  101) = (   0.2500000   0.1443376   0.1549089), wk =   0.0078125
        k(  102) = (   0.2500000   0.1443376   0.2323633), wk =   0.0078125
        k(  103) = (   0.2500000   0.1443376  -0.3098176), wk =   0.0078125
        k(  104) = (   0.2500000   0.1443376  -0.2323632), wk =   0.0078125
        k(  105) = (   0.2500000   0.1443376  -0.1549088), wk =   0.0078125
        k(  106) = (   0.2500000   0.1443376  -0.0774544), wk =   0.0078125
        k(  107) = (   0.2500000   0.2886752   0.0000001), wk =   0.0078125
        k(  108) = (   0.2500000   0.2886752   0.0774545), wk =   0.0078125
        k(  109) = (   0.2500000   0.2886752   0.1549089), wk =   0.0078125
        k(  110) = (   0.2500000   0.2886752   0.2323633), wk =   0.0078125
        k(  111) = (   0.2500000   0.2886751  -0.3098176), wk =   0.0078125
        k(  112) = (   0.2500000   0.2886752  -0.2323632), wk =   0.0078125
        k(  113) = (   0.2500000   0.2886752  -0.1549088), wk =   0.0078125
        k(  114) = (   0.2500000   0.2886752  -0.0774543), wk =   0.0078125
        k(  115) = (   0.2500000   0.4330128   0.0000001), wk =   0.0078125
        k(  116) = (   0.2500000   0.4330128   0.0774545), wk =   0.0078125
        k(  117) = (   0.2500000   0.4330128   0.1549089), wk =   0.0078125
        k(  118) = (   0.2500000   0.4330128   0.2323633), wk =   0.0078125
        k(  119) = (   0.2500000   0.4330127  -0.3098176), wk =   0.0078125
        k(  120) = (   0.2500000   0.4330127  -0.2323631), wk =   0.0078125
        k(  121) = (   0.2500000   0.4330128  -0.1549087), wk =   0.0078125
        k(  122) = (   0.2500000   0.4330128  -0.0774543), wk =   0.0078125
        k(  123) = (   0.2500000   0.5773504   0.0000001), wk =   0.0078125
        k(  124) = (   0.2500000   0.5773504   0.0774545), wk =   0.0078125
        k(  125) = (   0.2500000   0.5773504   0.1549089), wk =   0.0078125
        k(  126) = (   0.2500000   0.5773504   0.2323633), wk =   0.0078125
        k(  127) = (   0.2500000   0.5773503  -0.3098175), wk =   0.0078125
        k(  128) = (   0.2500000   0.5773503  -0.2323631), wk =   0.0078125
        k(  129) = (   0.2500000   0.5773504  -0.1549087), wk =   0.0078125
        k(  130) = (   0.2500000   0.5773504  -0.0774543), wk =   0.0078125
        k(  131) = (   0.2500000  -0.4330128  -0.0000000), wk =   0.0078125
        k(  132) = (   0.2500000  -0.4330128   0.0774544), wk =   0.0078125
        k(  133) = (   0.2500000  -0.4330128   0.1549088), wk =   0.0078125
        k(  134) = (   0.2500000  -0.4330127   0.2323632), wk =   0.0078125
        k(  135) = (   0.2500000  -0.4330128  -0.3098177), wk =   0.0078125
        k(  136) = (   0.2500000  -0.4330128  -0.2323633), wk =   0.0078125
        k(  137) = (   0.2500000  -0.4330128  -0.1549089), wk =   0.0078125
        k(  138) = (   0.2500000  -0.4330128  -0.0774545), wk =   0.0078125
        k(  139) = (   0.2500000  -0.2886752  -0.0000000), wk =   0.0078125
        k(  140) = (   0.2500000  -0.2886752   0.0774544), wk =   0.0078125
        k(  141) = (   0.2500000  -0.2886752   0.1549088), wk =   0.0078125
        k(  142) = (   0.2500000  -0.2886751   0.2323632), wk =   0.0078125
        k(  143) = (   0.2500000  -0.2886752  -0.3098177), wk =   0.0078125
        k(  144) = (   0.2500000  -0.2886752  -0.2323633), wk =   0.0078125
        k(  145) = (   0.2500000  -0.2886752  -0.1549088), wk =   0.0078125
        k(  146) = (   0.2500000  -0.2886752  -0.0774544), wk =   0.0078125
        k(  147) = (   0.2500000  -0.1443376   0.0000000), wk =   0.0078125
        k(  148) = (   0.2500000  -0.1443376   0.0774544), wk =   0.0078125
        k(  149) = (   0.2500000  -0.1443376   0.1549088), wk =   0.0078125
        k(  150) = (   0.2500000  -0.1443376   0.2323632), wk =   0.0078125
        k(  151) = (   0.2500000  -0.1443376  -0.3098176), wk =   0.0078125
        k(  152) = (   0.2500000  -0.1443376  -0.2323632), wk =   0.0078125
        k(  153) = (   0.2500000  -0.1443376  -0.1549088), wk =   0.0078125
        k(  154) = (   0.2500000  -0.1443376  -0.0774544), wk =   0.0078125
        k(  155) = (   0.2500000   0.0000000   0.0000000), wk =   0.0078125
        k(  156) = (   0.2500000   0.0000000   0.0774544), wk =   0.0078125
        k(  157) = (   0.2500000   0.0000000   0.1549088), wk =   0.0078125
        k(  158) = (   0.2500000   0.0000000   0.2323633), wk =   0.0078125
        k(  159) = (   0.2500000  -0.0000000  -0.3098176), wk =   0.0078125
        k(  160) = (   0.2500000  -0.0000000  -0.2323632), wk =   0.0078125
        k(  161) = (   0.2500000  -0.0000000  -0.1549088), wk =   0.0078125
        k(  162) = (   0.2500000  -0.0000000  -0.0774544), wk =   0.0078125
        k(  163) = (   0.3750000   0.2165064   0.0000001), wk =   0.0078125
        k(  164) = (   0.3750000   0.2165064   0.0774545), wk =   0.0078125
        k(  165) = (   0.3750000   0.2165064   0.1549089), wk =   0.0078125
        k(  166) = (   0.3750000   0.2165064   0.2323633), wk =   0.0078125
        k(  167) = (   0.3750000   0.2165063  -0.3098176), wk =   0.0078125
        k(  168) = (   0.3750000   0.2165064  -0.2323632), wk =   0.0078125
        k(  169) = (   0.3750000   0.2165064  -0.1549088), wk =   0.0078125
        k(  170) = (   0.3750000   0.2165064  -0.0774543), wk =   0.0078125
        k(  171) = (   0.3750000   0.3608440   0.0000001), wk =   0.0078125
        k(  172) = (   0.3750000   0.3608440   0.0774545), wk =   0.0078125
        k(  173) = (   0.3750000   0.3608440   0.1549089), wk =   0.0078125
        k(  174) = (   0.3750000   0.3608440   0.2323633), wk =   0.0078125
        k(  175) = (   0.3750000   0.3608439  -0.3098176), wk =   0.0078125
        k(  176) = (   0.3750000   0.3608440  -0.2323631), wk =   0.0078125
        k(  177) = (   0.3750000   0.3608440  -0.1549087), wk =   0.0078125
        k(  178) = (   0.3750000   0.3608440  -0.0774543), wk =   0.0078125
        k(  179) = (   0.3750000   0.5051816   0.0000001), wk =   0.0078125
        k(  180) = (   0.3750000   0.5051816   0.0774545), wk =   0.0078125
        k(  181) = (   0.3750000   0.5051816   0.1549089), wk =   0.0078125
        k(  182) = (   0.3750000   0.5051816   0.2323633), wk =   0.0078125
        k(  183) = (   0.3750000   0.5051815  -0.3098175), wk =   0.0078125
        k(  184) = (   0.3750000   0.5051815  -0.2323631), wk =   0.0078125
        k(  185) = (   0.3750000   0.5051816  -0.1549087), wk =   0.0078125
        k(  186) = (   0.3750000   0.5051816  -0.0774543), wk =   0.0078125
        k(  187) = (   0.3750000   0.6495192   0.0000001), wk =   0.0078125
        k(  188) = (   0.3750000   0.6495192   0.0774545), wk =   0.0078125
        k(  189) = (   0.3750000   0.6495192   0.1549090), wk =   0.0078125
        k(  190) = (   0.3750000   0.6495192   0.2323634), wk =   0.0078125
        k(  191) = (   0.3750000   0.6495191  -0.3098175), wk =   0.0078125
        k(  192) = (   0.3750000   0.6495191  -0.2323631), wk =   0.0078125
        k(  193) = (   0.3750000   0.6495192  -0.1549087), wk =   0.0078125
        k(  194) = (   0.3750000   0.6495192  -0.0774543), wk =   0.0078125
        k(  195) = (   0.3750000  -0.3608440  -0.0000000), wk =   0.0078125
        k(  196) = (   0.3750000  -0.3608440   0.0774544), wk =   0.0078125
        k(  197) = (   0.3750000  -0.3608440   0.1549088), wk =   0.0078125
        k(  198) = (   0.3750000  -0.3608439   0.2323632), wk =   0.0078125
        k(  199) = (   0.3750000  -0.3608440  -0.3098177), wk =   0.0078125
        k(  200) = (   0.3750000  -0.3608440  -0.2323632), wk =   0.0078125
        k(  201) = (   0.3750000  -0.3608440  -0.1549088), wk =   0.0078125
        k(  202) = (   0.3750000  -0.3608440  -0.0774544), wk =   0.0078125
        k(  203) = (   0.3750000  -0.2165064   0.0000000), wk =   0.0078125
        k(  204) = (   0.3750000  -0.2165064   0.0774544), wk =   0.0078125
        k(  205) = (   0.3750000  -0.2165064   0.1549088), wk =   0.0078125
        k(  206) = (   0.3750000  -0.2165063   0.2323632), wk =   0.0078125
        k(  207) = (   0.3750000  -0.2165064  -0.3098176), wk =   0.0078125
        k(  208) = (   0.3750000  -0.2165064  -0.2323632), wk =   0.0078125
        k(  209) = (   0.3750000  -0.2165064  -0.1549088), wk =   0.0078125
        k(  210) = (   0.3750000  -0.2165064  -0.0774544), wk =   0.0078125
        k(  211) = (   0.3750000  -0.0721688   0.0000000), wk =   0.0078125
        k(  212) = (   0.3750000  -0.0721688   0.0774544), wk =   0.0078125
        k(  213) = (   0.3750000  -0.0721688   0.1549088), wk =   0.0078125
        k(  214) = (   0.3750000  -0.0721688   0.2323633), wk =   0.0078125
        k(  215) = (   0.3750000  -0.0721688  -0.3098176), wk =   0.0078125
        k(  216) = (   0.3750000  -0.0721688  -0.2323632), wk =   0.0078125
        k(  217) = (   0.3750000  -0.0721688  -0.1549088), wk =   0.0078125
        k(  218) = (   0.3750000  -0.0721688  -0.0774544), wk =   0.0078125
        k(  219) = (   0.3750000   0.0721688   0.0000000), wk =   0.0078125
        k(  220) = (   0.3750000   0.0721688   0.0774545), wk =   0.0078125
        k(  221) = (   0.3750000   0.0721688   0.1549089), wk =   0.0078125
        k(  222) = (   0.3750000   0.0721688   0.2323633), wk =   0.0078125
        k(  223) = (   0.3750000   0.0721688  -0.3098176), wk =   0.0078125
        k(  224) = (   0.3750000   0.0721688  -0.2323632), wk =   0.0078125
        k(  225) = (   0.3750000   0.0721688  -0.1549088), wk =   0.0078125
        k(  226) = (   0.3750000   0.0721688  -0.0774544), wk =   0.0078125
        k(  227) = (  -0.5000000  -0.2886752  -0.0000001), wk =   0.0039062
        k(  228) = (  -0.5000000  -0.2886752   0.0774543), wk =   0.0078125
        k(  229) = (  -0.5000000  -0.2886752   0.1549087), wk =   0.0078125
        k(  230) = (  -0.5000000  -0.2886752   0.2323631), wk =   0.0078125
        k(  231) = (  -0.5000000  -0.2886752  -0.3098177), wk =   0.0039062
        k(  232) = (  -0.5000000  -0.1443376  -0.0000001), wk =   0.0078125
        k(  233) = (  -0.5000000  -0.1443376   0.0774543), wk =   0.0078125
        k(  234) = (  -0.5000000  -0.1443376   0.1549088), wk =   0.0078125
        k(  235) = (  -0.5000000  -0.1443376   0.2323632), wk =   0.0078125
        k(  236) = (  -0.5000000  -0.1443376  -0.3098177), wk =   0.0078125
        k(  237) = (  -0.5000000  -0.1443376  -0.2323633), wk =   0.0078125
        k(  238) = (  -0.5000000  -0.1443376  -0.1549089), wk =   0.0078125
        k(  239) = (  -0.5000000  -0.1443376  -0.0774545), wk =   0.0078125
        k(  240) = (  -0.5000000  -0.0000000  -0.0000000), wk =   0.0078125
        k(  241) = (  -0.5000000   0.0000000   0.0774544), wk =   0.0078125
        k(  242) = (  -0.5000000   0.0000000   0.1549088), wk =   0.0078125
        k(  243) = (  -0.5000000   0.0000000   0.2323632), wk =   0.0078125
        k(  244) = (  -0.5000000  -0.0000001  -0.3098177), wk =   0.0078125
        k(  245) = (  -0.5000000  -0.0000000  -0.2323633), wk =   0.0078125
        k(  246) = (  -0.5000000  -0.0000000  -0.1549089), wk =   0.0078125
        k(  247) = (  -0.5000000  -0.0000000  -0.0774545), wk =   0.0078125
        k(  248) = (  -0.5000000   0.1443376  -0.0000000), wk =   0.0078125
        k(  249) = (  -0.5000000   0.1443376   0.0774544), wk =   0.0078125
        k(  250) = (  -0.5000000   0.1443376   0.1549088), wk =   0.0078125
        k(  251) = (  -0.5000000   0.1443376   0.2323632), wk =   0.0078125
        k(  252) = (  -0.5000000   0.1443375  -0.3098177), wk =   0.0078125
        k(  253) = (  -0.5000000   0.1443375  -0.2323633), wk =   0.0078125
        k(  254) = (  -0.5000000   0.1443376  -0.1549089), wk =   0.0078125
        k(  255) = (  -0.5000000   0.1443376  -0.0774544), wk =   0.0078125
        k(  256) = (  -0.5000000  -0.8660256  -0.0000002), wk =   0.0039062
        k(  257) = (  -0.5000000  -0.8660256   0.0774542), wk =   0.0078125
        k(  258) = (  -0.5000000  -0.8660255   0.1549086), wk =   0.0078125
        k(  259) = (  -0.5000000  -0.8660255   0.2323631), wk =   0.0078125
        k(  260) = (  -0.5000000  -0.8660256  -0.3098178), wk =   0.0039062

                       cryst. coord.
        k(    1) = (   0.0000000   0.0000000   0.0000000), wk =   0.0039062
        k(    2) = (  -0.0000000  -0.0000000   0.1250000), wk =   0.0078125
        k(    3) = (  -0.0000000  -0.0000000   0.2500000), wk =   0.0078125
        k(    4) = (  -0.0000000  -0.0000000   0.3750000), wk =   0.0078125
        k(    5) = (   0.0000000   0.0000000  -0.5000000), wk =   0.0039062
        k(    6) = (  -0.0000000   0.1250000   0.0000000), wk =   0.0078125
        k(    7) = (   0.0000000   0.1250000   0.1250000), wk =   0.0078125
        k(    8) = (   0.0000000   0.1250000   0.2500000), wk =   0.0078125
        k(    9) = (   0.0000000   0.1250000   0.3750000), wk =   0.0078125
        k(   10) = (  -0.0000000   0.1250000  -0.5000000), wk =   0.0078125
        k(   11) = (  -0.0000000   0.1250000  -0.3750000), wk =   0.0078125
        k(   12) = (   0.0000000   0.1250000  -0.2500000), wk =   0.0078125
        k(   13) = (  -0.0000000   0.1250000  -0.1250000), wk =   0.0078125
        k(   14) = (  -0.0000000   0.2500000   0.0000000), wk =   0.0078125
        k(   15) = (   0.0000000   0.2500000   0.1250000), wk =   0.0078125
        k(   16) = (   0.0000000   0.2500000   0.2500000), wk =   0.0078125
        k(   17) = (   0.0000000   0.2500000   0.3750000), wk =   0.0078125
        k(   18) = (   0.0000000   0.2500000  -0.5000000), wk =   0.0078125
        k(   19) = (  -0.0000000   0.2500000  -0.3750000), wk =   0.0078125
        k(   20) = (  -0.0000000   0.2500000  -0.2500000), wk =   0.0078125
        k(   21) = (  -0.0000000   0.2500000  -0.1250000), wk =   0.0078125
        k(   22) = (   0.0000000   0.3750000  -0.0000000), wk =   0.0078125
        k(   23) = (  -0.0000000   0.3750000   0.1250000), wk =   0.0078125
        k(   24) = (   0.0000000   0.3750000   0.2500000), wk =   0.0078125
        k(   25) = (   0.0000000   0.3750000   0.3750000), wk =   0.0078125
        k(   26) = (  -0.0000000   0.3750000  -0.5000000), wk =   0.0078125
        k(   27) = (   0.0000000   0.3750000  -0.3750000), wk =   0.0078125
        k(   28) = (   0.0000000   0.3750000  -0.2500000), wk =   0.0078125
        k(   29) = (   0.0000000   0.3750000  -0.1250000), wk =   0.0078125
        k(   30) = (   0.0000000  -0.5000000  -0.0000000), wk =   0.0039062
        k(   31) = (  -0.0000000  -0.5000000   0.1250000), wk =   0.0078125
        k(   32) = (   0.0000000  -0.5000000   0.2500000), wk =   0.0078125
        k(   33) = (  -0.0000000  -0.5000000   0.3750000), wk =   0.0078125
        k(   34) = (  -0.0000000  -0.5000000  -0.5000000), wk =   0.0039062
        k(   35) = (   0.1250000  -0.0000000  -0.0000000), wk =   0.0078125
        k(   36) = (   0.1250000  -0.0000000   0.1250000), wk =   0.0078125
        k(   37) = (   0.1250000   0.0000000   0.2500000), wk =   0.0078125
        k(   38) = (   0.1250000  -0.0000000   0.3750000), wk =   0.0078125
        k(   39) = (   0.1250000  -0.0000000  -0.5000000), wk =   0.0078125
        k(   40) = (   0.1250000   0.0000000  -0.3750000), wk =   0.0078125
        k(   41) = (   0.1250000  -0.0000000  -0.2500000), wk =   0.0078125
        k(   42) = (   0.1250000  -0.0000000  -0.1250000), wk =   0.0078125
        k(   43) = (   0.1250000   0.1250000  -0.0000000), wk =   0.0078125
        k(   44) = (   0.1250000   0.1250000   0.1250000), wk =   0.0078125
        k(   45) = (   0.1250000   0.1250000   0.2500000), wk =   0.0078125
        k(   46) = (   0.1250000   0.1250000   0.3750000), wk =   0.0078125
        k(   47) = (   0.1250000   0.1250000  -0.5000000), wk =   0.0078125
        k(   48) = (   0.1250000   0.1250000  -0.3750000), wk =   0.0078125
        k(   49) = (   0.1250000   0.1250000  -0.2500000), wk =   0.0078125
        k(   50) = (   0.1250000   0.1250000  -0.1250000), wk =   0.0078125
        k(   51) = (   0.1250000   0.2500000   0.0000000), wk =   0.0078125
        k(   52) = (   0.1250000   0.2500000   0.1250000), wk =   0.0078125
        k(   53) = (   0.1250000   0.2500000   0.2500000), wk =   0.0078125
        k(   54) = (   0.1250000   0.2500000   0.3750000), wk =   0.0078125
        k(   55) = (   0.1250000   0.2500000  -0.5000000), wk =   0.0078125
        k(   56) = (   0.1250000   0.2500000  -0.3750000), wk =   0.0078125
        k(   57) = (   0.1250000   0.2500000  -0.2500000), wk =   0.0078125
        k(   58) = (   0.1250000   0.2500000  -0.1250000), wk =   0.0078125
        k(   59) = (   0.1250000   0.3750000  -0.0000000), wk =   0.0078125
        k(   60) = (   0.1250000   0.3750000   0.1250000), wk =   0.0078125
        k(   61) = (   0.1250000   0.3750000   0.2500000), wk =   0.0078125
        k(   62) = (   0.1250000   0.3750000   0.3750000), wk =   0.0078125
        k(   63) = (   0.1250000   0.3750000  -0.5000000), wk =   0.0078125
        k(   64) = (   0.1250000   0.3750000  -0.3750000), wk =   0.0078125
        k(   65) = (   0.1250000   0.3750000  -0.2500000), wk =   0.0078125
        k(   66) = (   0.1250000   0.3750000  -0.1250000), wk =   0.0078125
        k(   67) = (   0.1250000  -0.5000000  -0.0000000), wk =   0.0078125
        k(   68) = (   0.1250000  -0.5000000   0.1250000), wk =   0.0078125
        k(   69) = (   0.1250000  -0.5000000   0.2500000), wk =   0.0078125
        k(   70) = (   0.1250000  -0.5000000   0.3750000), wk =   0.0078125
        k(   71) = (   0.1250000  -0.5000000  -0.5000000), wk =   0.0078125
        k(   72) = (   0.1250000  -0.5000000  -0.3750000), wk =   0.0078125
        k(   73) = (   0.1250000  -0.5000000  -0.2500000), wk =   0.0078125
        k(   74) = (   0.1250000  -0.5000000  -0.1250000), wk =   0.0078125
        k(   75) = (   0.1250000  -0.3750000   0.0000000), wk =   0.0078125
        k(   76) = (   0.1250000  -0.3750000   0.1250000), wk =   0.0078125
        k(   77) = (   0.1250000  -0.3750000   0.2500000), wk =   0.0078125
        k(   78) = (   0.1250000  -0.3750000   0.3750000), wk =   0.0078125
        k(   79) = (   0.1250000  -0.3750000  -0.5000000), wk =   0.0078125
        k(   80) = (   0.1250000  -0.3750000  -0.3750000), wk =   0.0078125
        k(   81) = (   0.1250000  -0.3750000  -0.2500000), wk =   0.0078125
        k(   82) = (   0.1250000  -0.3750000  -0.1250000), wk =   0.0078125
        k(   83) = (   0.1250000  -0.2500000  -0.0000000), wk =   0.0078125
        k(   84) = (   0.1250000  -0.2500000   0.1250000), wk =   0.0078125
        k(   85) = (   0.1250000  -0.2500000   0.2500000), wk =   0.0078125
        k(   86) = (   0.1250000  -0.2500000   0.3750000), wk =   0.0078125
        k(   87) = (   0.1250000  -0.2500000  -0.5000000), wk =   0.0078125
        k(   88) = (   0.1250000  -0.2500000  -0.3750000), wk =   0.0078125
        k(   89) = (   0.1250000  -0.2500000  -0.2500000), wk =   0.0078125
        k(   90) = (   0.1250000  -0.2500000  -0.1250000), wk =   0.0078125
        k(   91) = (   0.1250000  -0.1250000  -0.0000000), wk =   0.0078125
        k(   92) = (   0.1250000  -0.1250000   0.1250000), wk =   0.0078125
        k(   93) = (   0.1250000  -0.1250000   0.2500000), wk =   0.0078125
        k(   94) = (   0.1250000  -0.1250000   0.3750000), wk =   0.0078125
        k(   95) = (   0.1250000  -0.1250000  -0.5000000), wk =   0.0078125
        k(   96) = (   0.1250000  -0.1250000  -0.3750000), wk =   0.0078125
        k(   97) = (   0.1250000  -0.1250000  -0.2500000), wk =   0.0078125
        k(   98) = (   0.1250000  -0.1250000  -0.1250000), wk =   0.0078125
        k(   99) = (   0.2500000  -0.0000000  -0.0000000), wk =   0.0078125
        k(  100) = (   0.2500000  -0.0000000   0.1250000), wk =   0.0078125
        k(  101) = (   0.2500000  -0.0000000   0.2500000), wk =   0.0078125
        k(  102) = (   0.2500000   0.0000000   0.3750000), wk =   0.0078125
        k(  103) = (   0.2500000  -0.0000000  -0.5000000), wk =   0.0078125
        k(  104) = (   0.2500000  -0.0000000  -0.3750000), wk =   0.0078125
        k(  105) = (   0.2500000  -0.0000000  -0.2500000), wk =   0.0078125
        k(  106) = (   0.2500000   0.0000000  -0.1250000), wk =   0.0078125
        k(  107) = (   0.2500000   0.1250000  -0.0000000), wk =   0.0078125
        k(  108) = (   0.2500000   0.1250000   0.1250000), wk =   0.0078125
        k(  109) = (   0.2500000   0.1250000   0.2500000), wk =   0.0078125
        k(  110) = (   0.2500000   0.1250000   0.3750000), wk =   0.0078125
        k(  111) = (   0.2500000   0.1250000  -0.5000000), wk =   0.0078125
        k(  112) = (   0.2500000   0.1250000  -0.3750000), wk =   0.0078125
        k(  113) = (   0.2500000   0.1250000  -0.2500000), wk =   0.0078125
        k(  114) = (   0.2500000   0.1250000  -0.1250000), wk =   0.0078125
        k(  115) = (   0.2500000   0.2500000  -0.0000000), wk =   0.0078125
        k(  116) = (   0.2500000   0.2500000   0.1250000), wk =   0.0078125
        k(  117) = (   0.2500000   0.2500000   0.2500000), wk =   0.0078125
        k(  118) = (   0.2500000   0.2500000   0.3750000), wk =   0.0078125
        k(  119) = (   0.2500000   0.2500000  -0.5000000), wk =   0.0078125
        k(  120) = (   0.2500000   0.2500000  -0.3750000), wk =   0.0078125
        k(  121) = (   0.2500000   0.2500000  -0.2500000), wk =   0.0078125
        k(  122) = (   0.2500000   0.2500000  -0.1250000), wk =   0.0078125
        k(  123) = (   0.2500000   0.3750000  -0.0000000), wk =   0.0078125
        k(  124) = (   0.2500000   0.3750000   0.1250000), wk =   0.0078125
        k(  125) = (   0.2500000   0.3750000   0.2500000), wk =   0.0078125
        k(  126) = (   0.2500000   0.3750000   0.3750000), wk =   0.0078125
        k(  127) = (   0.2500000   0.3750000  -0.5000000), wk =   0.0078125
        k(  128) = (   0.2500000   0.3750000  -0.3750000), wk =   0.0078125
        k(  129) = (   0.2500000   0.3750000  -0.2500000), wk =   0.0078125
        k(  130) = (   0.2500000   0.3750000  -0.1250000), wk =   0.0078125
        k(  131) = (   0.2500000  -0.5000000  -0.0000000), wk =   0.0078125
        k(  132) = (   0.2500000  -0.5000000   0.1250000), wk =   0.0078125
        k(  133) = (   0.2500000  -0.5000000   0.2500000), wk =   0.0078125
        k(  134) = (   0.2500000  -0.5000000   0.3750000), wk =   0.0078125
        k(  135) = (   0.2500000  -0.5000000  -0.5000000), wk =   0.0078125
        k(  136) = (   0.2500000  -0.5000000  -0.3750000), wk =   0.0078125
        k(  137) = (   0.2500000  -0.5000000  -0.2500000), wk =   0.0078125
        k(  138) = (   0.2500000  -0.5000000  -0.1250000), wk =   0.0078125
        k(  139) = (   0.2500000  -0.3750000  -0.0000000), wk =   0.0078125
        k(  140) = (   0.2500000  -0.3750000   0.1250000), wk =   0.0078125
        k(  141) = (   0.2500000  -0.3750000   0.2500000), wk =   0.0078125
        k(  142) = (   0.2500000  -0.3750000   0.3750000), wk =   0.0078125
        k(  143) = (   0.2500000  -0.3750000  -0.5000000), wk =   0.0078125
        k(  144) = (   0.2500000  -0.3750000  -0.3750000), wk =   0.0078125
        k(  145) = (   0.2500000  -0.3750000  -0.2500000), wk =   0.0078125
        k(  146) = (   0.2500000  -0.3750000  -0.1250000), wk =   0.0078125
        k(  147) = (   0.2500000  -0.2500000  -0.0000000), wk =   0.0078125
        k(  148) = (   0.2500000  -0.2500000   0.1250000), wk =   0.0078125
        k(  149) = (   0.2500000  -0.2500000   0.2500000), wk =   0.0078125
        k(  150) = (   0.2500000  -0.2500000   0.3750000), wk =   0.0078125
        k(  151) = (   0.2500000  -0.2500000  -0.5000000), wk =   0.0078125
        k(  152) = (   0.2500000  -0.2500000  -0.3750000), wk =   0.0078125
        k(  153) = (   0.2500000  -0.2500000  -0.2500000), wk =   0.0078125
        k(  154) = (   0.2500000  -0.2500000  -0.1250000), wk =   0.0078125
        k(  155) = (   0.2500000  -0.1250000  -0.0000000), wk =   0.0078125
        k(  156) = (   0.2500000  -0.1250000   0.1250000), wk =   0.0078125
        k(  157) = (   0.2500000  -0.1250000   0.2500000), wk =   0.0078125
        k(  158) = (   0.2500000  -0.1250000   0.3750000), wk =   0.0078125
        k(  159) = (   0.2500000  -0.1250000  -0.5000000), wk =   0.0078125
        k(  160) = (   0.2500000  -0.1250000  -0.3750000), wk =   0.0078125
        k(  161) = (   0.2500000  -0.1250000  -0.2500000), wk =   0.0078125
        k(  162) = (   0.2500000  -0.1250000  -0.1250000), wk =   0.0078125
        k(  163) = (   0.3750000  -0.0000000  -0.0000000), wk =   0.0078125
        k(  164) = (   0.3750000  -0.0000000   0.1250000), wk =   0.0078125
        k(  165) = (   0.3750000  -0.0000000   0.2500000), wk =   0.0078125
        k(  166) = (   0.3750000   0.0000000   0.3750000), wk =   0.0078125
        k(  167) = (   0.3750000   0.0000000  -0.5000000), wk =   0.0078125
        k(  168) = (   0.3750000   0.0000000  -0.3750000), wk =   0.0078125
        k(  169) = (   0.3750000   0.0000000  -0.2500000), wk =   0.0078125
        k(  170) = (   0.3750000  -0.0000000  -0.1250000), wk =   0.0078125
        k(  171) = (   0.3750000   0.1250000  -0.0000000), wk =   0.0078125
        k(  172) = (   0.3750000   0.1250000   0.1250000), wk =   0.0078125
        k(  173) = (   0.3750000   0.1250000   0.2500000), wk =   0.0078125
        k(  174) = (   0.3750000   0.1250000   0.3750000), wk =   0.0078125
        k(  175) = (   0.3750000   0.1250000  -0.5000000), wk =   0.0078125
        k(  176) = (   0.3750000   0.1250000  -0.3750000), wk =   0.0078125
        k(  177) = (   0.3750000   0.1250000  -0.2500000), wk =   0.0078125
        k(  178) = (   0.3750000   0.1250000  -0.1250000), wk =   0.0078125
        k(  179) = (   0.3750000   0.2500000  -0.0000000), wk =   0.0078125
        k(  180) = (   0.3750000   0.2500000   0.1250000), wk =   0.0078125
        k(  181) = (   0.3750000   0.2500000   0.2500000), wk =   0.0078125
        k(  182) = (   0.3750000   0.2500000   0.3750000), wk =   0.0078125
        k(  183) = (   0.3750000   0.2500000  -0.5000000), wk =   0.0078125
        k(  184) = (   0.3750000   0.2500000  -0.3750000), wk =   0.0078125
        k(  185) = (   0.3750000   0.2500000  -0.2500000), wk =   0.0078125
        k(  186) = (   0.3750000   0.2500000  -0.1250000), wk =   0.0078125
        k(  187) = (   0.3750000   0.3750000  -0.0000000), wk =   0.0078125
        k(  188) = (   0.3750000   0.3750000   0.1250000), wk =   0.0078125
        k(  189) = (   0.3750000   0.3750000   0.2500000), wk =   0.0078125
        k(  190) = (   0.3750000   0.3750000   0.3750000), wk =   0.0078125
        k(  191) = (   0.3750000   0.3750000  -0.5000000), wk =   0.0078125
        k(  192) = (   0.3750000   0.3750000  -0.3750000), wk =   0.0078125
        k(  193) = (   0.3750000   0.3750000  -0.2500000), wk =   0.0078125
        k(  194) = (   0.3750000   0.3750000  -0.1250000), wk =   0.0078125
        k(  195) = (   0.3750000  -0.5000000  -0.0000000), wk =   0.0078125
        k(  196) = (   0.3750000  -0.5000000   0.1250000), wk =   0.0078125
        k(  197) = (   0.3750000  -0.5000000   0.2500000), wk =   0.0078125
        k(  198) = (   0.3750000  -0.5000000   0.3750000), wk =   0.0078125
        k(  199) = (   0.3750000  -0.5000000  -0.5000000), wk =   0.0078125
        k(  200) = (   0.3750000  -0.5000000  -0.3750000), wk =   0.0078125
        k(  201) = (   0.3750000  -0.5000000  -0.2500000), wk =   0.0078125
        k(  202) = (   0.3750000  -0.5000000  -0.1250000), wk =   0.0078125
        k(  203) = (   0.3750000  -0.3750000  -0.0000000), wk =   0.0078125
        k(  204) = (   0.3750000  -0.3750000   0.1250000), wk =   0.0078125
        k(  205) = (   0.3750000  -0.3750000   0.2500000), wk =   0.0078125
        k(  206) = (   0.3750000  -0.3750000   0.3750000), wk =   0.0078125
        k(  207) = (   0.3750000  -0.3750000  -0.5000000), wk =   0.0078125
        k(  208) = (   0.3750000  -0.3750000  -0.3750000), wk =   0.0078125
        k(  209) = (   0.3750000  -0.3750000  -0.2500000), wk =   0.0078125
        k(  210) = (   0.3750000  -0.3750000  -0.1250000), wk =   0.0078125
        k(  211) = (   0.3750000  -0.2500000  -0.0000000), wk =   0.0078125
        k(  212) = (   0.3750000  -0.2500000   0.1250000), wk =   0.0078125
        k(  213) = (   0.3750000  -0.2500000   0.2500000), wk =   0.0078125
        k(  214) = (   0.3750000  -0.2500000   0.3750000), wk =   0.0078125
        k(  215) = (   0.3750000  -0.2500000  -0.5000000), wk =   0.0078125
        k(  216) = (   0.3750000  -0.2500000  -0.3750000), wk =   0.0078125
        k(  217) = (   0.3750000  -0.2500000  -0.2500000), wk =   0.0078125
        k(  218) = (   0.3750000  -0.2500000  -0.1250000), wk =   0.0078125
        k(  219) = (   0.3750000  -0.1250000  -0.0000000), wk =   0.0078125
        k(  220) = (   0.3750000  -0.1250000   0.1250000), wk =   0.0078125
        k(  221) = (   0.3750000  -0.1250000   0.2500000), wk =   0.0078125
        k(  222) = (   0.3750000  -0.1250000   0.3750000), wk =   0.0078125
        k(  223) = (   0.3750000  -0.1250000  -0.5000000), wk =   0.0078125
        k(  224) = (   0.3750000  -0.1250000  -0.3750000), wk =   0.0078125
        k(  225) = (   0.3750000  -0.1250000  -0.2500000), wk =   0.0078125
        k(  226) = (   0.3750000  -0.1250000  -0.1250000), wk =   0.0078125
        k(  227) = (  -0.5000000   0.0000000   0.0000000), wk =   0.0039062
        k(  228) = (  -0.5000000  -0.0000000   0.1250000), wk =   0.0078125
        k(  229) = (  -0.5000000  -0.0000000   0.2500000), wk =   0.0078125
        k(  230) = (  -0.5000000   0.0000000   0.3750000), wk =   0.0078125
        k(  231) = (  -0.5000000   0.0000000  -0.5000000), wk =   0.0039062
        k(  232) = (  -0.5000000   0.1250000   0.0000000), wk =   0.0078125
        k(  233) = (  -0.5000000   0.1250000   0.1250000), wk =   0.0078125
        k(  234) = (  -0.5000000   0.1250000   0.2500000), wk =   0.0078125
        k(  235) = (  -0.5000000   0.1250000   0.3750000), wk =   0.0078125
        k(  236) = (  -0.5000000   0.1250000  -0.5000000), wk =   0.0078125
        k(  237) = (  -0.5000000   0.1250000  -0.3750000), wk =   0.0078125
        k(  238) = (  -0.5000000   0.1250000  -0.2500000), wk =   0.0078125
        k(  239) = (  -0.5000000   0.1250000  -0.1250000), wk =   0.0078125
        k(  240) = (  -0.5000000   0.2500000   0.0000000), wk =   0.0078125
        k(  241) = (  -0.5000000   0.2500000   0.1250000), wk =   0.0078125
        k(  242) = (  -0.5000000   0.2500000   0.2500000), wk =   0.0078125
        k(  243) = (  -0.5000000   0.2500000   0.3750000), wk =   0.0078125
        k(  244) = (  -0.5000000   0.2500000  -0.5000000), wk =   0.0078125
        k(  245) = (  -0.5000000   0.2500000  -0.3750000), wk =   0.0078125
        k(  246) = (  -0.5000000   0.2500000  -0.2500000), wk =   0.0078125
        k(  247) = (  -0.5000000   0.2500000  -0.1250000), wk =   0.0078125
        k(  248) = (  -0.5000000   0.3750000   0.0000000), wk =   0.0078125
        k(  249) = (  -0.5000000   0.3750000   0.1250000), wk =   0.0078125
        k(  250) = (  -0.5000000   0.3750000   0.2500000), wk =   0.0078125
        k(  251) = (  -0.5000000   0.3750000   0.3750000), wk =   0.0078125
        k(  252) = (  -0.5000000   0.3750000  -0.5000000), wk =   0.0078125
        k(  253) = (  -0.5000000   0.3750000  -0.3750000), wk =   0.0078125
        k(  254) = (  -0.5000000   0.3750000  -0.2500000), wk =   0.0078125
        k(  255) = (  -0.5000000   0.3750000  -0.1250000), wk =   0.0078125
        k(  256) = (  -0.5000000  -0.5000000   0.0000000), wk =   0.0039062
        k(  257) = (  -0.5000000  -0.5000000   0.1250000), wk =   0.0078125
        k(  258) = (  -0.5000000  -0.5000000   0.2500000), wk =   0.0078125
        k(  259) = (  -0.5000000  -0.5000000   0.3750000), wk =   0.0078125
        k(  260) = (  -0.5000000  -0.5000000  -0.5000000), wk =   0.0039062

     Dense  grid:    79067 G-vectors     FFT dimensions: (  48,  48,  80)

     Smooth grid:    30771 G-vectors     FFT dimensions: (  36,  36,  60)

     Dynamical RAM for                 wfc:       0.10 MB

     Dynamical RAM for     wfc (w. buffer):       6.28 MB

     Dynamical RAM for           str. fact:       0.15 MB

     Dynamical RAM for           local pot:       0.00 MB

     Dynamical RAM for          nlocal pot:       0.23 MB

     Dynamical RAM for                qrad:       7.65 MB

     Dynamical RAM for          rho,v,vnew:       0.49 MB

     Dynamical RAM for               rhoin:       0.16 MB

     Dynamical RAM for            rho*nmix:       1.21 MB

     Dynamical RAM for           G-vectors:       0.30 MB

     Dynamical RAM for          h,s,v(r/c):       0.12 MB

     Dynamical RAM for          <psi|beta>:       0.02 MB

     Dynamical RAM for                 psi:       0.38 MB

     Dynamical RAM for                hpsi:       0.38 MB

     Dynamical RAM for                spsi:       0.38 MB

     Dynamical RAM for      wfcinit/wfcrot:       0.28 MB

     Dynamical RAM for           addusdens:       3.60 MB

     Dynamical RAM for          addusforce:       3.74 MB

     Dynamical RAM for         addusstress:       3.81 MB

     Estimated static dynamical RAM per process >      17.13 MB

     Estimated max dynamical RAM per process >      20.94 MB

     Estimated total dynamical RAM >       1.31 GB

     Check: negative core charge=   -0.000003

     Initial potential from superposition of free atoms

     starting charge   51.99974, renormalised to   52.00000
     Starting wfcs are   34 randomized atomic wfcs

     total cpu time spent up to now is        1.6 secs

     Self-consistent Calculation

     iteration #  1     ecut=    80.00 Ry     beta= 0.50
     Davidson diagonalization with overlap
     ethr =  1.00E-02,  avg # of iterations =  1.0

     total cpu time spent up to now is        2.5 secs

     total energy              =    -986.72172308 Ry
     Harris-Foulkes estimate   =    -987.27215064 Ry
     estimated scf accuracy    <       0.86297369 Ry

     iteration #  2     ecut=    80.00 Ry     beta= 0.50
     Davidson diagonalization with overlap
     ethr =  1.66E-03,  avg # of iterations =  3.0

     total cpu time spent up to now is        3.7 secs

     total energy              =    -986.97567440 Ry
     Harris-Foulkes estimate   =    -987.14912244 Ry
     estimated scf accuracy    <       0.39840754 Ry

     iteration #  3     ecut=    80.00 Ry     beta= 0.50
     Davidson diagonalization with overlap
     ethr =  7.66E-04,  avg # of iterations =  2.1

     total cpu time spent up to now is        4.8 secs

     total energy              =    -987.04797141 Ry
     Harris-Foulkes estimate   =    -987.05032539 Ry
     estimated scf accuracy    <       0.00706892 Ry

     iteration #  4     ecut=    80.00 Ry     beta= 0.50
     Davidson diagonalization with overlap
     ethr =  1.36E-05,  avg # of iterations =  2.0

     total cpu time spent up to now is        5.9 secs

     total energy              =    -987.04859280 Ry
     Harris-Foulkes estimate   =    -987.04905822 Ry
     estimated scf accuracy    <       0.00159742 Ry

     iteration #  5     ecut=    80.00 Ry     beta= 0.50
     Davidson diagonalization with overlap
     ethr =  3.07E-06,  avg # of iterations =  2.0

     total cpu time spent up to now is        7.0 secs

     total energy              =    -987.04875869 Ry
     Harris-Foulkes estimate   =    -987.04877011 Ry
     estimated scf accuracy    <       0.00002145 Ry

     iteration #  6     ecut=    80.00 Ry     beta= 0.50
     Davidson diagonalization with overlap
     ethr =  4.13E-08,  avg # of iterations =  2.0

     total cpu time spent up to now is        8.0 secs

     total energy              =    -987.04876271 Ry
     Harris-Foulkes estimate   =    -987.04876141 Ry
     estimated scf accuracy    <       0.00000262 Ry

     iteration #  7     ecut=    80.00 Ry     beta= 0.50
     Davidson diagonalization with overlap
     ethr =  5.04E-09,  avg # of iterations =  2.1

     total cpu time spent up to now is        9.0 secs

     End of self-consistent calculation

          k = 0.0000 0.0000 0.0000 (  3851 PWs)   bands (ev):

  -114.4302-114.4300 -68.8692 -68.8664 -68.7482 -68.7482 -68.7477 -68.7477
    -9.3857  -8.6938   2.5254   2.5254   2.5476   2.5476   3.6431   3.7898
     4.1438   4.1438   4.3402   4.3402   4.7638   7.8759   8.5631   8.5631
     8.9343   8.9343

     occupation numbers 
     1.0000   1.0000   1.0000   1.0000   1.0000   1.0000   1.0000   1.0000
     1.0000   1.0000   1.0000   1.0000   1.0000   1.0000   1.0000   1.0000
     1.0000   1.0000   1.0000   1.0000   1.0000   1.0000   1.0000   1.0000
     1.0000   1.0000

          k = 0.0000 0.0000 0.0775 (  3880 PWs)   bands (ev):

  -114.4302-114.4301 -68.8692 -68.8665 -68.7482 -68.7482 -68.7477 -68.7477
    -9.3607  -8.7216   2.5246   2.5246   2.5450   2.5450   3.5794   3.7564
     4.1532   4.1532   4.3346   4.3346   4.9206   7.6572   8.5781   8.5781
     8.9212   8.9212

     occupation numbers 
     1.0000   1.0000   1.0000   1.0000   1.0000   1.0000   1.0000   1.0000
     1.0000   1.0000   1.0000   1.0000   1.0000   1.0000   1.0000   1.0000
     1.0000   1.0000   1.0000   1.0000   1.0000   1.0000   1.0000   1.0000
     1.0000   1.0000

          k = 0.0000 0.0000 0.1549 (  3844 PWs)   bands (ev):

  -114.4302-114.4301 -68.8688 -68.8668 -68.7481 -68.7481 -68.7478 -68.7478
    -9.2890  -8.8000   2.5230   2.5230   2.5383   2.5383   3.4786   3.6683
     4.1793   4.1793   4.3179   4.3179   5.2895   7.2106   8.6205   8.6205
     8.8834   8.8834

     occupation numbers 
     1.0000   1.0000   1.0000   1.0000   1.0000   1.0000   1.0000   1.0000
     1.0000   1.0000   1.0000   1.0000   1.0000   1.0000   1.0000   1.0000
     1.0000   1.0000   1.0000   1.0000   1.0000   1.0000   1.0000   1.0000
     1.0000   1.0000

          k = 0.0000 0.0000 0.2324 (  3826 PWs)   bands (ev):

  -114.4302-114.4301 -68.8683 -68.8673 -68.7480 -68.7480 -68.7478 -68.7478
    -9.1802  -8.9156   2.5225   2.5225   2.5307   2.5307   3.4346   3.5580
     4.2158   4.2158   4.2907   4.2907   5.7459   6.7213   8.6831   8.6831
     8.8255   8.8255

     occupation numbers 
     1.0000   1.0000   1.0000   1.0000   1.0000   1.0000   1.0000   1.0000
     1.0000   1.0000   1.0000   1.0000   1.0000   1.0000   1.0000   1.0000
     1.0000   1.0000   1.0000   1.0000   1.0000   1.0000   1.0000   1.0000
     1.0000   1.0000

          k =-0.0000-0.0000-0.3098 (  3796 PWs)   bands (ev):

  -114.4301-114.4301 -68.8677 -68.8677 -68.7479 -68.7479 -68.7479 -68.7479
    -9.0497  -9.0488   2.5247   2.5247   2.5251   2.5251   3.4674   3.4676
     4.2552   4.2552   4.2552   4.2552   6.2302   6.2306   8.7549   8.7549
     8.7556   8.7556

     occupation numbers 
     1.0000   1.0000   1.0000   1.0000   1.0000   1.0000   1.0000   1.0000
     1.0000   1.0000   1.0000   1.0000   1.0000   1.0000   1.0000   1.0000
     1.0000   1.0000   1.0000   1.0000   1.0000   1.0000   1.0000   1.0000
     1.0000   1.0000

          k = 0.0000 0.1443 0.0000 (  3869 PWs)   bands (ev):

  -114.4302-114.4300 -68.8691 -68.8665 -68.7486 -68.7484 -68.7481 -68.7478
    -9.2902  -8.6411   2.4663   2.5252   2.6165   2.6650   3.5071   3.8015
     4.0930   4.1251   4.3466   4.5656   4.8695   7.8589   7.9627   8.0693
     8.2716   8.6996

     occupation numbers 
     1.0000   1.0000   1.0000   1.0000   1.0000   1.0000   1.0000   1.0000
     1.0000   1.0000   1.0000   1.0000   1.0000   1.0000   1.0000   1.0000
     1.0000   1.0000   1.0000   1.0000   1.0000   1.0000   1.0000   1.0000
     1.0000   1.0000

          k = 0.0000 0.1443 0.0775 (  3870 PWs)   bands (ev):

  -114.4302-114.4300 -68.8690 -68.8666 -68.7486 -68.7484 -68.7482 -68.7478
    -9.2665  -8.6668   2.4639   2.5174   2.6167   2.6612   3.4691   3.7516
     4.1209   4.1356   4.3399   4.4965   5.0628   7.5712   7.9729   8.2737
     8.2888   8.6843

     occupation numbers 
     1.0000   1.0000   1.0000   1.0000   1.0000   1.0000   1.0000   1.0000
     1.0000   1.0000   1.0000   1.0000   1.0000   1.0000   1.0000   1.0000
     1.0000   1.0000   1.0000   1.0000   1.0000   1.0000   1.0000   1.0000
     1.0000   1.0000

          k = 0.0000 0.1443 0.1549 (  3857 PWs)   bands (ev):

  -114.4302-114.4301 -68.8687 -68.8668 -68.7486 -68.7483 -68.7482 -68.7479
    -9.1987  -8.7397   2.4586   2.4978   2.6177   2.6514   3.4042   3.6395
     4.1642   4.1781   4.3203   4.4208   5.4441   7.1627   8.0474   8.3373
     8.3969   8.6402

     occupation numbers 
     1.0000   1.0000   1.0000   1.0000   1.0000   1.0000   1.0000   1.0000
     1.0000   1.0000   1.0000   1.0000   1.0000   1.0000   1.0000   1.0000
     1.0000   1.0000   1.0000   1.0000   1.0000   1.0000   1.0000   1.0000
     1.0000   1.0000

          k = 0.0000 0.1443 0.2324 (  3843 PWs)   bands (ev):

  -114.4301-114.4301 -68.8682 -68.8672 -68.7485 -68.7483 -68.7482 -68.7480
    -9.0959  -8.8475   2.4555   2.4760   2.6211   2.6392   3.3804   3.5163
     4.2046   4.2410   4.2889   4.3608   5.8816   6.7462   8.1601   8.3829
     8.4089   8.5730

     occupation numbers 
     1.0000   1.0000   1.0000   1.0000   1.0000   1.0000   1.0000   1.0000
     1.0000   1.0000   1.0000   1.0000   1.0000   1.0000   1.0000   1.0000
     1.0000   1.0000   1.0000   1.0000   1.0000   1.0000   1.0000   1.0000
     1.0000   1.0000

          k =-0.0000 0.1443-0.3098 (  3856 PWs)   bands (ev):

  -114.4301-114.4301 -68.8678 -68.8677 -68.7484 -68.7484 -68.7481 -68.7481
    -8.9732  -8.9723   2.4604   2.4607   2.6282   2.6286   3.4207   3.4209
     4.2485   4.2486   4.3024   4.3024   6.3210   6.3213   8.2853   8.2858
     8.4916   8.4922

     occupation numbers 
     1.0000   1.0000   1.0000   1.0000   1.0000   1.0000   1.0000   1.0000
     1.0000   1.0000   1.0000   1.0000   1.0000   1.0000   1.0000   1.0000
     1.0000   1.0000   1.0000   1.0000   1.0000   1.0000   1.0000   1.0000
     1.0000   1.0000

          k =-0.0000 0.1443-0.2324 (  3843 PWs)   bands (ev):

  -114.4301-114.4301 -68.8682 -68.8672 -68.7485 -68.7483 -68.7482 -68.7480
    -9.0959  -8.8475   2.4554   2.4760   2.6211   2.6392   3.3804   3.5163
     4.2046   4.2410   4.2889   4.3608   5.8816   6.7462   8.1601   8.3829
     8.4089   8.5730

     occupation numbers 
     1.0000   1.0000   1.0000   1.0000   1.0000   1.0000   1.0000   1.0000
     1.0000   1.0000   1.0000   1.0000   1.0000   1.0000   1.0000   1.0000
     1.0000   1.0000   1.0000   1.0000   1.0000   1.0000   1.0000   1.0000
     1.0000   1.0000

          k =-0.0000 0.1443-0.1549 (  3857 PWs)   bands (ev):

  -114.4302-114.4301 -68.8687 -68.8668 -68.7486 -68.7483 -68.7482 -68.7479
    -9.1987  -8.7397   2.4585   2.4979   2.6177   2.6514   3.4042   3.6395
     4.1642   4.1781   4.3203   4.4208   5.4441   7.1627   8.0475   8.3373
     8.3968   8.6402

     occupation numbers 
     1.0000   1.0000   1.0000   1.0000   1.0000   1.0000   1.0000   1.0000
     1.0000   1.0000   1.0000   1.0000   1.0000   1.0000   1.0000   1.0000
     1.0000   1.0000   1.0000   1.0000   1.0000   1.0000   1.0000   1.0000
     1.0000   1.0000

          k =-0.0000 0.1443-0.0775 (  3870 PWs)   bands (ev):

  -114.4302-114.4300 -68.8690 -68.8666 -68.7486 -68.7484 -68.7482 -68.7478
    -9.2665  -8.6668   2.4639   2.5174   2.6167   2.6612   3.4691   3.7516
     4.1209   4.1356   4.3399   4.4965   5.0628   7.5711   7.9730   8.2736
     8.2888   8.6843

     occupation numbers 
     1.0000   1.0000   1.0000   1.0000   1.0000   1.0000   1.0000   1.0000
     1.0000   1.0000   1.0000   1.0000   1.0000   1.0000   1.0000   1.0000
     1.0000   1.0000   1.0000   1.0000   1.0000   1.0000   1.0000   1.0000
     1.0000   1.0000

          k = 0.0000 0.2887 0.0000 (  3871 PWs)   bands (ev):

  -114.4301-114.4300 -68.8687 -68.8667 -68.7496 -68.7491 -68.7487 -68.7481
    -9.0443  -8.5200   2.3556   2.5568   2.8871   2.9587   3.3805   3.7613
     4.0532   4.0914   4.3577   4.6420   5.4326   6.6227   6.8815   7.5748
     7.9674   8.1144

     occupation numbers 
     1.0000   1.0000   1.0000   1.0000   1.0000   1.0000   1.0000   1.0000
     1.0000   1.0000   1.0000   1.0000   1.0000   1.0000   1.0000   1.0000
     1.0000   1.0000   1.0000   1.0000   1.0000   1.0000   1.0000   1.0000
     1.0000   1.0000

          k = 0.0000 0.2887 0.0775 (  3865 PWs)   bands (ev):

  -114.4301-114.4300 -68.8687 -68.8667 -68.7495 -68.7491 -68.7487 -68.7481
    -9.0245  -8.5400   2.3527   2.5347   2.8879   2.9537   3.3574   3.6892
     4.1033   4.1088   4.3489   4.6065   5.5486   6.6483   6.8461   7.5964
     8.0073   8.0949

     occupation numbers 
     1.0000   1.0000   1.0000   1.0000   1.0000   1.0000   1.0000   1.0000
     1.0000   1.0000   1.0000   1.0000   1.0000   1.0000   1.0000   1.0000
     1.0000   1.0000   1.0000   1.0000   1.0000   1.0000   1.0000   1.0000
     1.0000   1.0000

          k = 0.0000 0.2887 0.1549 (  3856 PWs)   bands (ev):

  -114.4301-114.4300 -68.8684 -68.8669 -68.7495 -68.7492 -68.7486 -68.7481
    -8.9681  -8.5971   2.3471   2.4792   2.8909   2.9405   3.3172   3.5546
     4.1363   4.2066   4.3234   4.5391   5.7886   6.5639   6.9717   7.6574
     8.0351   8.0390

     occupation numbers 
     1.0000   1.0000   1.0000   1.0000   1.0000   1.0000   1.0000   1.0000
     1.0000   1.0000   1.0000   1.0000   1.0000   1.0000   1.0000   1.0000
     1.0000   1.0000   1.0000   1.0000   1.0000   1.0000   1.0000   1.0000
     1.0000   1.0000

          k = 0.0000 0.2887 0.2324 (  3860 PWs)   bands (ev):

  -114.4301-114.4300 -68.8681 -68.8673 -68.7494 -68.7493 -68.7485 -68.7482
    -8.8833  -8.6824   2.3487   2.4164   2.8975   2.9240   3.3047   3.4284
     4.1831   4.2839   4.3024   4.4671   6.0182   6.3914   7.2931   7.7475
     7.9250   7.9540

     occupation numbers 
     1.0000   1.0000   1.0000   1.0000   1.0000   1.0000   1.0000   1.0000
     1.0000   1.0000   1.0000   1.0000   1.0000   1.0000   1.0000   1.0000
     1.0000   1.0000   1.0000   1.0000   1.0000   1.0000   1.0000   1.0000
     1.0000   1.0000

          k =-0.0000 0.2887-0.3098 (  3850 PWs)   bands (ev):

  -114.4301-114.4300 -68.8677 -68.8677 -68.7494 -68.7493 -68.7484 -68.7483
    -8.7834  -8.7826   2.3697   2.3701   2.9085   2.9088   3.3410   3.3411
     4.2349   4.2350   4.3893   4.3893   6.2116   6.2117   7.6533   7.6534
     7.8515   7.8521

     occupation numbers 
     1.0000   1.0000   1.0000   1.0000   1.0000   1.0000   1.0000   1.0000
     1.0000   1.0000   1.0000   1.0000   1.0000   1.0000   1.0000   1.0000
     1.0000   1.0000   1.0000   1.0000   1.0000   1.0000   1.0000   1.0000
     1.0000   1.0000

          k =-0.0000 0.2887-0.2324 (  3860 PWs)   bands (ev):

  -114.4301-114.4300 -68.8681 -68.8673 -68.7494 -68.7493 -68.7485 -68.7482
    -8.8833  -8.6824   2.3486   2.4164   2.8975   2.9240   3.3047   3.4284
     4.1831   4.2839   4.3025   4.4671   6.0183   6.3913   7.2932   7.7475
     7.9250   7.9540

     occupation numbers 
     1.0000   1.0000   1.0000   1.0000   1.0000   1.0000   1.0000   1.0000
     1.0000   1.0000   1.0000   1.0000   1.0000   1.0000   1.0000   1.0000
     1.0000   1.0000   1.0000   1.0000   1.0000   1.0000   1.0000   1.0000
     1.0000   1.0000

          k =-0.0000 0.2887-0.1549 (  3856 PWs)   bands (ev):

  -114.4301-114.4300 -68.8684 -68.8669 -68.7495 -68.7492 -68.7486 -68.7481
    -8.9681  -8.5971   2.3471   2.4792   2.8909   2.9405   3.3172   3.5546
     4.1363   4.2066   4.3234   4.5391   5.7887   6.5637   6.9719   7.6574
     8.0351   8.0390

     occupation numbers 
     1.0000   1.0000   1.0000   1.0000   1.0000   1.0000   1.0000   1.0000
     1.0000   1.0000   1.0000   1.0000   1.0000   1.0000   1.0000   1.0000
     1.0000   1.0000   1.0000   1.0000   1.0000   1.0000   1.0000   1.0000
     1.0000   1.0000

          k =-0.0000 0.2887-0.0775 (  3865 PWs)   bands (ev):

  -114.4301-114.4300 -68.8687 -68.8667 -68.7495 -68.7491 -68.7487 -68.7481
    -9.0245  -8.5400   2.3527   2.5347   2.8879   2.9537   3.3574   3.6892
     4.1033   4.1088   4.3489   4.6065   5.5486   6.6481   6.8464   7.5964
     8.0073   8.0949

     occupation numbers 
     1.0000   1.0000   1.0000   1.0000   1.0000   1.0000   1.0000   1.0000
     1.0000   1.0000   1.0000   1.0000   1.0000   1.0000   1.0000   1.0000
     1.0000   1.0000   1.0000   1.0000   1.0000   1.0000   1.0000   1.0000
     1.0000   1.0000

          k = 0.0000 0.4330 0.0000 (  3859 PWs)   bands (ev):

  -114.4301-114.4300 -68.8683 -68.8669 -68.7505 -68.7501 -68.7490 -68.7483
    -8.7622  -8.4212   2.3627   2.6898   3.2362   3.2950   3.4149   3.6444
     4.0858   4.1281   4.3669   4.5755   5.4387   5.6579   6.2510   6.8401
     7.4845   7.8878

     occupation numbers 
     1.0000   1.0000   1.0000   1.0000   1.0000   1.0000   1.0000   1.0000
     1.0000   1.0000   1.0000   1.0000   1.0000   1.0000   1.0000   1.0000
     1.0000   1.0000   1.0000   1.0000   1.0000   1.0000   1.0000   1.0000
     1.0000   1.0000

          k = 0.0000 0.4330 0.0775 (  3854 PWs)   bands (ev):

  -114.4301-114.4300 -68.8682 -68.8670 -68.7504 -68.7501 -68.7490 -68.7483
    -8.7485  -8.4332   2.3580   2.6569   3.2365   3.2903   3.3869   3.5875
     4.0975   4.1742   4.3563   4.5672   5.4172   5.6362   6.4169   6.8665
     7.4616   7.9326

     occupation numbers 
     1.0000   1.0000   1.0000   1.0000   1.0000   1.0000   1.0000   1.0000
     1.0000   1.0000   1.0000   1.0000   1.0000   1.0000   1.0000   1.0000
     1.0000   1.0000   1.0000   1.0000   1.0000   1.0000   1.0000   1.0000
     1.0000   1.0000

          k = 0.0000 0.4330 0.1549 (  3860 PWs)   bands (ev):

  -114.4301-114.4300 -68.8681 -68.8671 -68.7504 -68.7502 -68.7489 -68.7484
    -8.7096  -8.4680   2.3495   2.5718   3.2379   3.2783   3.3342   3.4751
     4.1300   4.2660   4.3264   4.5415   5.3993   5.5779   6.8179   6.9410
     7.3958   7.9999

     occupation numbers 
     1.0000   1.0000   1.0000   1.0000   1.0000   1.0000   1.0000   1.0000
     1.0000   1.0000   1.0000   1.0000   1.0000   1.0000   1.0000   1.0000
     1.0000   1.0000   1.0000   1.0000   1.0000   1.0000   1.0000   1.0000
     1.0000   1.0000

          k = 0.0000 0.4330 0.2324 (  3861 PWs)   bands (ev):

  -114.4300-114.4300 -68.8679 -68.8674 -68.7504 -68.7502 -68.7488 -68.7485
    -8.6522  -8.5213   2.3542   2.4710   3.2422   3.2636   3.3036   3.3752
     4.1767   4.2822   4.3576   4.4976   5.4128   5.5103   7.0497   7.2945
     7.2955   7.9532

     occupation numbers 
     1.0000   1.0000   1.0000   1.0000   1.0000   1.0000   1.0000   1.0000
     1.0000   1.0000   1.0000   1.0000   1.0000   1.0000   1.0000   1.0000
     1.0000   1.0000   1.0000   1.0000   1.0000   1.0000   1.0000   1.0000
     1.0000   1.0000

          k =-0.0000 0.4330-0.3098 (  3854 PWs)   bands (ev):

  -114.4300-114.4300 -68.8676 -68.8676 -68.7503 -68.7503 -68.7487 -68.7486
    -8.5863  -8.5854   2.3923   2.3926   3.2507   3.2510   3.3159   3.3160
     4.2299   4.2300   4.4358   4.4359   5.4523   5.4525   7.1740   7.1746
     7.7081   7.7086

     occupation numbers 
     1.0000   1.0000   1.0000   1.0000   1.0000   1.0000   1.0000   1.0000
     1.0000   1.0000   1.0000   1.0000   1.0000   1.0000   1.0000   1.0000
     1.0000   1.0000   1.0000   1.0000   1.0000   1.0000   1.0000   1.0000
     1.0000   1.0000

          k =-0.0000 0.4330-0.2324 (  3861 PWs)   bands (ev):

  -114.4300-114.4300 -68.8679 -68.8674 -68.7504 -68.7502 -68.7488 -68.7485
    -8.6522  -8.5212   2.3542   2.4710   3.2423   3.2636   3.3036   3.3752
     4.1767   4.2822   4.3576   4.4975   5.4129   5.5102   7.0497   7.2945
     7.2955   7.9532

     occupation numbers 
     1.0000   1.0000   1.0000   1.0000   1.0000   1.0000   1.0000   1.0000
     1.0000   1.0000   1.0000   1.0000   1.0000   1.0000   1.0000   1.0000
     1.0000   1.0000   1.0000   1.0000   1.0000   1.0000   1.0000   1.0000
     1.0000   1.0000

          k =-0.0000 0.4330-0.1549 (  3860 PWs)   bands (ev):

  -114.4301-114.4300 -68.8681 -68.8671 -68.7504 -68.7502 -68.7489 -68.7484
    -8.7096  -8.4680   2.3495   2.5719   3.2379   3.2783   3.3342   3.4751
     4.1300   4.2660   4.3264   4.5415   5.3994   5.5777   6.8180   6.9410
     7.3958   7.9999

     occupation numbers 
     1.0000   1.0000   1.0000   1.0000   1.0000   1.0000   1.0000   1.0000
     1.0000   1.0000   1.0000   1.0000   1.0000   1.0000   1.0000   1.0000
     1.0000   1.0000   1.0000   1.0000   1.0000   1.0000   1.0000   1.0000
     1.0000   1.0000

          k =-0.0000 0.4330-0.0775 (  3854 PWs)   bands (ev):

  -114.4301-114.4300 -68.8682 -68.8670 -68.7504 -68.7501 -68.7490 -68.7483
    -8.7485  -8.4332   2.3580   2.6569   3.2365   3.2903   3.3869   3.5876
     4.0975   4.1743   4.3563   4.5672   5.4173   5.6360   6.4169   6.8665
     7.4616   7.9326

     occupation numbers 
     1.0000   1.0000   1.0000   1.0000   1.0000   1.0000   1.0000   1.0000
     1.0000   1.0000   1.0000   1.0000   1.0000   1.0000   1.0000   1.0000
     1.0000   1.0000   1.0000   1.0000   1.0000   1.0000   1.0000   1.0000
     1.0000   1.0000

          k =-0.0000-0.5774-0.0000 (  3852 PWs)   bands (ev):

  -114.4300-114.4300 -68.8681 -68.8671 -68.7509 -68.7505 -68.7491 -68.7484
    -8.6190  -8.4023   2.4321   2.7673   3.4166   3.4473   3.4985   3.6340
     4.1079   4.2320   4.3717   4.4702   4.8447   5.2219   6.5019   6.5890
     7.1990   7.7651

     occupation numbers 
     1.0000   1.0000   1.0000   1.0000   1.0000   1.0000   1.0000   1.0000
     1.0000   1.0000   1.0000   1.0000   1.0000   1.0000   1.0000   1.0000
     1.0000   1.0000   1.0000   1.0000   1.0000   1.0000   1.0000   1.0000
     1.0000   1.0000

          k =-0.0000-0.5774 0.0775 (  3838 PWs)   bands (ev):

  -114.4300-114.4300 -68.8680 -68.8671 -68.7508 -68.7505 -68.7491 -68.7484
    -8.6095  -8.4092   2.4244   2.7347   3.4161   3.4441   3.4592   3.5877
     4.1179   4.2592   4.3604   4.4682   4.8670   5.1959   6.5313   6.7277
     7.1746   7.8262

     occupation numbers 
     1.0000   1.0000   1.0000   1.0000   1.0000   1.0000   1.0000   1.0000
     1.0000   1.0000   1.0000   1.0000   1.0000   1.0000   1.0000   1.0000
     1.0000   1.0000   1.0000   1.0000   1.0000   1.0000   1.0000   1.0000
     1.0000   1.0000

          k = 0.0000-0.5774 0.1549 (  3864 PWs)   bands (ev):

  -114.4300-114.4300 -68.8679 -68.8673 -68.7508 -68.7506 -68.7490 -68.7485
    -8.5830  -8.4295   2.4093   2.6472   3.3864   3.4153   3.4361   3.4890
     4.1458   4.3148   4.3293   4.4592   4.9185   5.1421   6.6134   7.0730
     7.1045   7.9457

     occupation numbers 
     1.0000   1.0000   1.0000   1.0000   1.0000   1.0000   1.0000   1.0000
     1.0000   1.0000   1.0000   1.0000   1.0000   1.0000   1.0000   1.0000
     1.0000   1.0000   1.0000   1.0000   1.0000   1.0000   1.0000   1.0000
     1.0000   1.0000

          k = 0.0000-0.5774 0.2324 (  3866 PWs)   bands (ev):

  -114.4300-114.4300 -68.8678 -68.8674 -68.7508 -68.7506 -68.7489 -68.7486
    -8.5448  -8.4615   2.4093   2.5378   3.3416   3.3988   3.4159   3.4268
     4.1869   4.2851   4.3680   4.4400   4.9766   5.0863   6.7323   6.9973
     7.4847   7.9806

     occupation numbers 
     1.0000   1.0000   1.0000   1.0000   1.0000   1.0000   1.0000   1.0000
     1.0000   1.0000   1.0000   1.0000   1.0000   1.0000   1.0000   1.0000
     1.0000   1.0000   1.0000   1.0000   1.0000   1.0000   1.0000   1.0000
     1.0000   1.0000

          k =-0.0000-0.5774-0.3098 (  3856 PWs)   bands (ev):

  -114.4300-114.4300 -68.8676 -68.8676 -68.7507 -68.7507 -68.7488 -68.7487
    -8.5023  -8.5014   2.4500   2.4504   3.3463   3.3465   3.4194   3.4198
     4.2354   4.2354   4.4098   4.4099   5.0322   5.0324   6.8669   6.8675
     7.8226   7.8232

     occupation numbers 
     1.0000   1.0000   1.0000   1.0000   1.0000   1.0000   1.0000   1.0000
     1.0000   1.0000   1.0000   1.0000   1.0000   1.0000   1.0000   1.0000
     1.0000   1.0000   1.0000   1.0000   1.0000   1.0000   1.0000   1.0000
     1.0000   1.0000

          k = 0.1250 0.0722 0.0000 (  3869 PWs)   bands (ev):

  -114.4302-114.4300 -68.8691 -68.8665 -68.7486 -68.7484 -68.7481 -68.7478
    -9.2902  -8.6411   2.4663   2.5252   2.6166   2.6650   3.5071   3.8015
     4.0930   4.1251   4.3466   4.5656   4.8695   7.8589   7.9627   8.0693
     8.2716   8.6996

     occupation numbers 
     1.0000   1.0000   1.0000   1.0000   1.0000   1.0000   1.0000   1.0000
     1.0000   1.0000   1.0000   1.0000   1.0000   1.0000   1.0000   1.0000
     1.0000   1.0000   1.0000   1.0000   1.0000   1.0000   1.0000   1.0000
     1.0000   1.0000

          k = 0.1250 0.0722 0.0775 (  3870 PWs)   bands (ev):

  -114.4302-114.4300 -68.8690 -68.8666 -68.7486 -68.7484 -68.7482 -68.7478
    -9.2665  -8.6668   2.4639   2.5174   2.6167   2.6612   3.4691   3.7516
     4.1209   4.1356   4.3399   4.4965   5.0628   7.5711   7.9730   8.2736
     8.2888   8.6843

     occupation numbers 
     1.0000   1.0000   1.0000   1.0000   1.0000   1.0000   1.0000   1.0000
     1.0000   1.0000   1.0000   1.0000   1.0000   1.0000   1.0000   1.0000
     1.0000   1.0000   1.0000   1.0000   1.0000   1.0000   1.0000   1.0000
     1.0000   1.0000

          k = 0.1250 0.0722 0.1549 (  3857 PWs)   bands (ev):

  -114.4302-114.4301 -68.8687 -68.8668 -68.7486 -68.7483 -68.7482 -68.7479
    -9.1987  -8.7397   2.4585   2.4979   2.6177   2.6514   3.4042   3.6395
     4.1642   4.1781   4.3203   4.4208   5.4441   7.1627   8.0475   8.3373
     8.3968   8.6402

     occupation numbers 
     1.0000   1.0000   1.0000   1.0000   1.0000   1.0000   1.0000   1.0000
     1.0000   1.0000   1.0000   1.0000   1.0000   1.0000   1.0000   1.0000
     1.0000   1.0000   1.0000   1.0000   1.0000   1.0000   1.0000   1.0000
     1.0000   1.0000

          k = 0.1250 0.0722 0.2324 (  3843 PWs)   bands (ev):

  -114.4301-114.4301 -68.8682 -68.8672 -68.7485 -68.7483 -68.7482 -68.7480
    -9.0959  -8.8475   2.4554   2.4760   2.6211   2.6392   3.3804   3.5163
     4.2046   4.2410   4.2889   4.3608   5.8816   6.7462   8.1601   8.3829
     8.4089   8.5730

     occupation numbers 
     1.0000   1.0000   1.0000   1.0000   1.0000   1.0000   1.0000   1.0000
     1.0000   1.0000   1.0000   1.0000   1.0000   1.0000   1.0000   1.0000
     1.0000   1.0000   1.0000   1.0000   1.0000   1.0000   1.0000   1.0000
     1.0000   1.0000

          k = 0.1250 0.0722-0.3098 (  3856 PWs)   bands (ev):

  -114.4301-114.4301 -68.8678 -68.8677 -68.7484 -68.7484 -68.7481 -68.7481
    -8.9732  -8.9723   2.4604   2.4607   2.6282   2.6285   3.4207   3.4209
     4.2485   4.2486   4.3024   4.3024   6.3210   6.3213   8.2853   8.2858
     8.4916   8.4922

     occupation numbers 
     1.0000   1.0000   1.0000   1.0000   1.0000   1.0000   1.0000   1.0000
     1.0000   1.0000   1.0000   1.0000   1.0000   1.0000   1.0000   1.0000
     1.0000   1.0000   1.0000   1.0000   1.0000   1.0000   1.0000   1.0000
     1.0000   1.0000

          k = 0.1250 0.0722-0.2324 (  3843 PWs)   bands (ev):

  -114.4301-114.4301 -68.8682 -68.8672 -68.7485 -68.7483 -68.7482 -68.7480
    -9.0959  -8.8475   2.4555   2.4760   2.6211   2.6392   3.3804   3.5163
     4.2046   4.2410   4.2889   4.3608   5.8816   6.7462   8.1601   8.3829
     8.4089   8.5730

     occupation numbers 
     1.0000   1.0000   1.0000   1.0000   1.0000   1.0000   1.0000   1.0000
     1.0000   1.0000   1.0000   1.0000   1.0000   1.0000   1.0000   1.0000
     1.0000   1.0000   1.0000   1.0000   1.0000   1.0000   1.0000   1.0000
     1.0000   1.0000

          k = 0.1250 0.0722-0.1549 (  3857 PWs)   bands (ev):

  -114.4302-114.4301 -68.8687 -68.8668 -68.7486 -68.7483 -68.7482 -68.7479
    -9.1987  -8.7397   2.4586   2.4978   2.6177   2.6514   3.4042   3.6395
     4.1642   4.1781   4.3203   4.4208   5.4441   7.1627   8.0474   8.3373
     8.3969   8.6402

     occupation numbers 
     1.0000   1.0000   1.0000   1.0000   1.0000   1.0000   1.0000   1.0000
     1.0000   1.0000   1.0000   1.0000   1.0000   1.0000   1.0000   1.0000
     1.0000   1.0000   1.0000   1.0000   1.0000   1.0000   1.0000   1.0000
     1.0000   1.0000

          k = 0.1250 0.0722-0.0775 (  3870 PWs)   bands (ev):

  -114.4302-114.4300 -68.8690 -68.8666 -68.7486 -68.7484 -68.7482 -68.7478
    -9.2665  -8.6668   2.4639   2.5174   2.6167   2.6612   3.4691   3.7516
     4.1209   4.1356   4.3399   4.4965   5.0628   7.5712   7.9729   8.2737
     8.2888   8.6843

     occupation numbers 
     1.0000   1.0000   1.0000   1.0000   1.0000   1.0000   1.0000   1.0000
     1.0000   1.0000   1.0000   1.0000   1.0000   1.0000   1.0000   1.0000
     1.0000   1.0000   1.0000   1.0000   1.0000   1.0000   1.0000   1.0000
     1.0000   1.0000

          k = 0.1250 0.2165 0.0000 (  3859 PWs)   bands (ev):

  -114.4302-114.4300 -68.8688 -68.8666 -68.7492 -68.7489 -68.7485 -68.7480
    -9.1193  -8.5542   2.4095   2.5131   2.8141   2.8525   3.4064   3.7838
     4.0513   4.0989   4.3509   4.6432   5.2580   7.1207   7.1559   7.6707
     7.9955   8.1990

     occupation numbers 
     1.0000   1.0000   1.0000   1.0000   1.0000   1.0000   1.0000   1.0000
     1.0000   1.0000   1.0000   1.0000   1.0000   1.0000   1.0000   1.0000
     1.0000   1.0000   1.0000   1.0000   1.0000   1.0000   1.0000   1.0000
     1.0000   1.0000

          k = 0.1250 0.2165 0.0775 (  3856 PWs)   bands (ev):

  -114.4301-114.4300 -68.8687 -68.8667 -68.7492 -68.7489 -68.7485 -68.7481
    -9.0982  -8.5761   2.4062   2.4970   2.8131   2.8483   3.3808   3.7140
     4.1037   4.1093   4.3431   4.5962   5.4037   7.0541   7.1689   7.6772
     8.0632   8.1793

     occupation numbers 
     1.0000   1.0000   1.0000   1.0000   1.0000   1.0000   1.0000   1.0000
     1.0000   1.0000   1.0000   1.0000   1.0000   1.0000   1.0000   1.0000
     1.0000   1.0000   1.0000   1.0000   1.0000   1.0000   1.0000   1.0000
     1.0000   1.0000

          k = 0.1250 0.2165 0.1549 (  3855 PWs)   bands (ev):

  -114.4301-114.4300 -68.8685 -68.8669 -68.7492 -68.7489 -68.7485 -68.7481
    -9.0380  -8.6382   2.3982   2.4578   2.8112   2.8379   3.3364   3.5813
     4.1394   4.1947   4.3203   4.5191   5.7142   6.8351   7.3146   7.7227
     8.1234   8.1269

     occupation numbers 
     1.0000   1.0000   1.0000   1.0000   1.0000   1.0000   1.0000   1.0000
     1.0000   1.0000   1.0000   1.0000   1.0000   1.0000   1.0000   1.0000
     1.0000   1.0000   1.0000   1.0000   1.0000   1.0000   1.0000   1.0000
     1.0000   1.0000

          k = 0.1250 0.2165 0.2324 (  3849 PWs)   bands (ev):

  -114.4301-114.4300 -68.8681 -68.8673 -68.7491 -68.7490 -68.7484 -68.7482
    -8.9473  -8.7308   2.3910   2.4174   2.8115   2.8258   3.3225   3.4530
     4.1837   4.2687   4.2993   4.4456   6.0427   6.5900   7.5450   7.7970
     8.0416   8.0631

     occupation numbers 
     1.0000   1.0000   1.0000   1.0000   1.0000   1.0000   1.0000   1.0000
     1.0000   1.0000   1.0000   1.0000   1.0000   1.0000   1.0000   1.0000
     1.0000   1.0000   1.0000   1.0000   1.0000   1.0000   1.0000   1.0000
     1.0000   1.0000

          k = 0.1250 0.2165-0.3098 (  3852 PWs)   bands (ev):

  -114.4301-114.4301 -68.8677 -68.8677 -68.7490 -68.7490 -68.7483 -68.7483
    -8.8399  -8.8390   2.3942   2.3946   2.8161   2.8164   3.3614   3.3615
     4.2328   4.2329   4.3708   4.3708   6.3323   6.3325   7.7837   7.7839
     7.9688   7.9693

     occupation numbers 
     1.0000   1.0000   1.0000   1.0000   1.0000   1.0000   1.0000   1.0000
     1.0000   1.0000   1.0000   1.0000   1.0000   1.0000   1.0000   1.0000
     1.0000   1.0000   1.0000   1.0000   1.0000   1.0000   1.0000   1.0000
     1.0000   1.0000

          k = 0.1250 0.2165-0.2324 (  3849 PWs)   bands (ev):

  -114.4301-114.4300 -68.8681 -68.8673 -68.7491 -68.7490 -68.7484 -68.7482
    -8.9473  -8.7308   2.3910   2.4174   2.8115   2.8258   3.3226   3.4530
     4.1837   4.2687   4.2993   4.4456   6.0427   6.5900   7.5450   7.7970
     8.0416   8.0631

     occupation numbers 
     1.0000   1.0000   1.0000   1.0000   1.0000   1.0000   1.0000   1.0000
     1.0000   1.0000   1.0000   1.0000   1.0000   1.0000   1.0000   1.0000
     1.0000   1.0000   1.0000   1.0000   1.0000   1.0000   1.0000   1.0000
     1.0000   1.0000

          k = 0.1250 0.2165-0.1549 (  3855 PWs)   bands (ev):

  -114.4301-114.4300 -68.8685 -68.8669 -68.7492 -68.7489 -68.7485 -68.7481
    -9.0380  -8.6382   2.3982   2.4578   2.8112   2.8379   3.3364   3.5813
     4.1394   4.1947   4.3203   4.5191   5.7142   6.8351   7.3146   7.7227
     8.1234   8.1269

     occupation numbers 
     1.0000   1.0000   1.0000   1.0000   1.0000   1.0000   1.0000   1.0000
     1.0000   1.0000   1.0000   1.0000   1.0000   1.0000   1.0000   1.0000
     1.0000   1.0000   1.0000   1.0000   1.0000   1.0000   1.0000   1.0000
     1.0000   1.0000

          k = 0.1250 0.2165-0.0775 (  3856 PWs)   bands (ev):

  -114.4301-114.4300 -68.8687 -68.8667 -68.7492 -68.7489 -68.7485 -68.7481
    -9.0982  -8.5761   2.4062   2.4970   2.8131   2.8483   3.3808   3.7140
     4.1037   4.1093   4.3431   4.5962   5.4037   7.0541   7.1689   7.6772
     8.0632   8.1793

     occupation numbers 
     1.0000   1.0000   1.0000   1.0000   1.0000   1.0000   1.0000   1.0000
     1.0000   1.0000   1.0000   1.0000   1.0000   1.0000   1.0000   1.0000
     1.0000   1.0000   1.0000   1.0000   1.0000   1.0000   1.0000   1.0000
     1.0000   1.0000

          k = 0.1250 0.3608 0.0000 (  3838 PWs)   bands (ev):

  -114.4301-114.4300 -68.8684 -68.8668 -68.7500 -68.7498 -68.7489 -68.7484
    -8.8527  -8.4455   2.4124   2.6377   3.1121   3.1450   3.4207   3.6857
     4.0616   4.0961   4.3581   4.6188   5.8165   6.0217   6.2439   6.7838
     7.4530   7.9401

     occupation numbers 
     1.0000   1.0000   1.0000   1.0000   1.0000   1.0000   1.0000   1.0000
     1.0000   1.0000   1.0000   1.0000   1.0000   1.0000   1.0000   1.0000
     1.0000   1.0000   1.0000   1.0000   1.0000   1.0000   1.0000   1.0000
     1.0000   1.0000

          k = 0.1250 0.3608 0.0775 (  3843 PWs)   bands (ev):

  -114.4301-114.4300 -68.8684 -68.8669 -68.7500 -68.7498 -68.7489 -68.7484
    -8.8367  -8.4604   2.4077   2.6097   3.1113   3.1411   3.3948   3.6224
     4.0751   4.1459   4.3486   4.6035   5.7612   6.0858   6.3492   6.8114
     7.4267   7.9871

     occupation numbers 
     1.0000   1.0000   1.0000   1.0000   1.0000   1.0000   1.0000   1.0000
     1.0000   1.0000   1.0000   1.0000   1.0000   1.0000   1.0000   1.0000
     1.0000   1.0000   1.0000   1.0000   1.0000   1.0000   1.0000   1.0000
     1.0000   1.0000

          k = 0.1250 0.3608 0.1549 (  3851 PWs)   bands (ev):

  -114.4301-114.4300 -68.8682 -68.8671 -68.7500 -68.7498 -68.7489 -68.7485
    -8.7914  -8.5030   2.3971   2.5398   3.1103   3.1320   3.3453   3.5002
     4.1102   4.2388   4.3252   4.5641   5.7393   6.0214   6.7037   6.9225
[...]
    -8.1063  -7.8454   3.2082   3.2408   3.7812   3.7999   3.9564   3.9786
     4.5579   4.6620   4.8853   5.0035   5.6619   5.8215   6.0555   6.9901
     7.6879   8.4740

     occupation numbers 
     1.0000   1.0000   1.0000   1.0000   1.0000   1.0000   1.0000   1.0000
     1.0000   1.0000   1.0000   1.0000   1.0000   1.0000   1.0000   1.0000
     1.0000   1.0000   1.0000   1.0000   1.0000   1.0000   1.0000   1.0000
     1.0000   1.0000

          k =-0.4795 0.0000 0.2595 (  3760 PWs)   bands (ev):

  -113.9793-113.9792 -68.3683 -68.3676 -68.3246 -68.3245 -68.3241 -68.3236
    -8.0339  -7.8920   3.0471   3.0606   3.7358   3.7404   3.9152   3.9278
     4.6024   4.6634   4.8997   4.9681   5.6787   5.7674   6.2592   6.7801
     8.3184   8.7701

     occupation numbers 
     1.0000   1.0000   1.0000   1.0000   1.0000   1.0000   1.0000   1.0000
     1.0000   1.0000   1.0000   1.0000   1.0000   1.0000   1.0000   1.0000
     1.0000   1.0000   1.0000   1.0000   1.0000   1.0000   1.0000   1.0000
     1.0000   1.0000

          k =-0.4795 0.0000-0.3460 (  3756 PWs)   bands (ev):

  -113.9792-113.9792 -68.3680 -68.3680 -68.3244 -68.3244 -68.3239 -68.3239
    -7.9576  -7.9576   2.9829   2.9829   3.7202   3.7202   3.9069   3.9069
     4.6399   4.6399   4.9317   4.9317   5.7169   5.7170   6.5219   6.5219
     8.7258   8.7259

     occupation numbers 
     1.0000   1.0000   1.0000   1.0000   1.0000   1.0000   1.0000   1.0000
     1.0000   1.0000   1.0000   1.0000   1.0000   1.0000   1.0000   1.0000
     1.0000   1.0000   1.0000   1.0000   1.0000   1.0000   1.0000   1.0000
     1.0000   1.0000

          k =-0.4795 0.0000-0.2595 (  3760 PWs)   bands (ev):

  -113.9793-113.9792 -68.3683 -68.3676 -68.3246 -68.3245 -68.3241 -68.3236
    -8.0339  -7.8920   3.0471   3.0606   3.7358   3.7404   3.9152   3.9278
     4.6024   4.6634   4.8997   4.9681   5.6787   5.7674   6.2592   6.7801
     8.3184   8.7701

     occupation numbers 
     1.0000   1.0000   1.0000   1.0000   1.0000   1.0000   1.0000   1.0000
     1.0000   1.0000   1.0000   1.0000   1.0000   1.0000   1.0000   1.0000
     1.0000   1.0000   1.0000   1.0000   1.0000   1.0000   1.0000   1.0000
     1.0000   1.0000

          k =-0.4795 0.0000-0.1730 (  3754 PWs)   bands (ev):

  -113.9793-113.9792 -68.3686 -68.3672 -68.3249 -68.3246 -68.3240 -68.3232
    -8.1063  -7.8454   3.2082   3.2408   3.7812   3.7999   3.9564   3.9786
     4.5579   4.6620   4.8853   5.0035   5.6619   5.8215   6.0555   6.9901
     7.6879   8.4740

     occupation numbers 
     1.0000   1.0000   1.0000   1.0000   1.0000   1.0000   1.0000   1.0000
     1.0000   1.0000   1.0000   1.0000   1.0000   1.0000   1.0000   1.0000
     1.0000   1.0000   1.0000   1.0000   1.0000   1.0000   1.0000   1.0000
     1.0000   1.0000

          k =-0.4795 0.0000-0.0865 (  3757 PWs)   bands (ev):

  -113.9793-113.9792 -68.3688 -68.3670 -68.3251 -68.3247 -68.3240 -68.3230
    -8.1581  -7.8191   3.3203   3.4508   3.8253   3.8781   4.0375   4.0674
     4.5149   4.6308   4.8965   5.0330   5.6968   5.7734   6.0650   6.9725
     7.2031   8.0465

     occupation numbers 
     1.0000   1.0000   1.0000   1.0000   1.0000   1.0000   1.0000   1.0000
     1.0000   1.0000   1.0000   1.0000   1.0000   1.0000   1.0000   1.0000
     1.0000   1.0000   1.0000   1.0000   1.0000   1.0000   1.0000   1.0000
     1.0000   1.0000

          k =-0.4795 0.1384-0.0000 (  3748 PWs)   bands (ev):

  -113.9793-113.9792 -68.3689 -68.3669 -68.3252 -68.3247 -68.3241 -68.3228
    -8.1709  -7.8151   3.2070   3.5022   3.9088   3.9437   4.0346   4.2002
     4.4874   4.6260   4.9065   4.9675   5.5934   5.8140   6.2420   6.6885
     7.5238   7.8345

     occupation numbers 
     1.0000   1.0000   1.0000   1.0000   1.0000   1.0000   1.0000   1.0000
     1.0000   1.0000   1.0000   1.0000   1.0000   1.0000   1.0000   1.0000
     1.0000   1.0000   1.0000   1.0000   1.0000   1.0000   1.0000   1.0000
     1.0000   1.0000

          k =-0.4795 0.1384 0.0865 (  3756 PWs)   bands (ev):

  -113.9793-113.9792 -68.3688 -68.3670 -68.3251 -68.3246 -68.3241 -68.3228
    -8.1524  -7.8229   3.1643   3.4304   3.8609   3.9314   3.9951   4.1252
     4.5115   4.6531   4.8911   4.9604   5.5577   5.7582   6.2700   6.9932
     7.4712   8.0455

     occupation numbers 
     1.0000   1.0000   1.0000   1.0000   1.0000   1.0000   1.0000   1.0000
     1.0000   1.0000   1.0000   1.0000   1.0000   1.0000   1.0000   1.0000
     1.0000   1.0000   1.0000   1.0000   1.0000   1.0000   1.0000   1.0000
     1.0000   1.0000

          k =-0.4795 0.1384 0.1730 (  3753 PWs)   bands (ev):

  -113.9793-113.9792 -68.3686 -68.3672 -68.3250 -68.3245 -68.3242 -68.3231
    -8.1015  -7.8479   3.0443   3.2411   3.7665   3.8909   3.9519   3.9966
     4.5608   4.6928   4.8636   4.9413   5.5326   5.6688   6.4142   7.3273
     7.6189   8.4525

     occupation numbers 
     1.0000   1.0000   1.0000   1.0000   1.0000   1.0000   1.0000   1.0000
     1.0000   1.0000   1.0000   1.0000   1.0000   1.0000   1.0000   1.0000
     1.0000   1.0000   1.0000   1.0000   1.0000   1.0000   1.0000   1.0000
     1.0000   1.0000

          k =-0.4795 0.1384 0.2595 (  3758 PWs)   bands (ev):

  -113.9793-113.9792 -68.3683 -68.3676 -68.3248 -68.3244 -68.3241 -68.3234
    -8.0307  -7.8927   2.9233   3.0309   3.7255   3.8120   3.9252   3.9338
     4.6154   4.6982   4.8589   4.9139   5.5460   5.6107   6.6381   7.1325
     8.2327   8.7214

     occupation numbers 
     1.0000   1.0000   1.0000   1.0000   1.0000   1.0000   1.0000   1.0000
     1.0000   1.0000   1.0000   1.0000   1.0000   1.0000   1.0000   1.0000
     1.0000   1.0000   1.0000   1.0000   1.0000   1.0000   1.0000   1.0000
     1.0000   1.0000

          k =-0.4795 0.1384-0.3460 (  3766 PWs)   bands (ev):

  -113.9792-113.9792 -68.3680 -68.3680 -68.3245 -68.3245 -68.3238 -68.3238
    -7.9563  -7.9563   2.9079   2.9079   3.7462   3.7462   3.9173   3.9174
     4.6653   4.6653   4.8827   4.8827   5.5744   5.5744   6.8909   6.8909
     8.6487   8.6487

     occupation numbers 
     1.0000   1.0000   1.0000   1.0000   1.0000   1.0000   1.0000   1.0000
     1.0000   1.0000   1.0000   1.0000   1.0000   1.0000   1.0000   1.0000
     1.0000   1.0000   1.0000   1.0000   1.0000   1.0000   1.0000   1.0000
     1.0000   1.0000

          k =-0.4795 0.1384-0.2595 (  3758 PWs)   bands (ev):

  -113.9793-113.9792 -68.3683 -68.3676 -68.3248 -68.3244 -68.3241 -68.3234
    -8.0307  -7.8927   2.9233   3.0309   3.7255   3.8121   3.9252   3.9338
     4.6154   4.6982   4.8589   4.9139   5.5460   5.6107   6.6381   7.1325
     8.2327   8.7214

     occupation numbers 
     1.0000   1.0000   1.0000   1.0000   1.0000   1.0000   1.0000   1.0000
     1.0000   1.0000   1.0000   1.0000   1.0000   1.0000   1.0000   1.0000
     1.0000   1.0000   1.0000   1.0000   1.0000   1.0000   1.0000   1.0000
     1.0000   1.0000

          k =-0.4795 0.1384-0.1730 (  3753 PWs)   bands (ev):

  -113.9793-113.9792 -68.3686 -68.3672 -68.3250 -68.3245 -68.3242 -68.3231
    -8.1015  -7.8479   3.0443   3.2411   3.7665   3.8909   3.9519   3.9966
     4.5608   4.6928   4.8636   4.9413   5.5326   5.6688   6.4142   7.3273
     7.6189   8.4525

     occupation numbers 
     1.0000   1.0000   1.0000   1.0000   1.0000   1.0000   1.0000   1.0000
     1.0000   1.0000   1.0000   1.0000   1.0000   1.0000   1.0000   1.0000
     1.0000   1.0000   1.0000   1.0000   1.0000   1.0000   1.0000   1.0000
     1.0000   1.0000

          k =-0.4795 0.1384-0.0865 (  3756 PWs)   bands (ev):

  -113.9793-113.9792 -68.3688 -68.3670 -68.3251 -68.3246 -68.3241 -68.3228
    -8.1524  -7.8229   3.1643   3.4304   3.8609   3.9314   3.9951   4.1252
     4.5115   4.6531   4.8911   4.9604   5.5577   5.7582   6.2700   6.9932
     7.4712   8.0455

     occupation numbers 
     1.0000   1.0000   1.0000   1.0000   1.0000   1.0000   1.0000   1.0000
     1.0000   1.0000   1.0000   1.0000   1.0000   1.0000   1.0000   1.0000
     1.0000   1.0000   1.0000   1.0000   1.0000   1.0000   1.0000   1.0000
     1.0000   1.0000

          k =-0.4795-0.8306 0.0000 (  3730 PWs)   bands (ev):

  -113.9793-113.9792 -68.3688 -68.3669 -68.3252 -68.3247 -68.3242 -68.3226
    -8.1647  -7.8195   3.0903   3.4689   3.9562   3.9695   4.0220   4.2102
     4.4933   4.6522   4.9051   4.9160   5.5180   5.7061   6.5430   6.6283
     7.7804   7.8416

     occupation numbers 
     1.0000   1.0000   1.0000   1.0000   1.0000   1.0000   1.0000   1.0000
     1.0000   1.0000   1.0000   1.0000   1.0000   1.0000   1.0000   1.0000
     1.0000   1.0000   1.0000   1.0000   1.0000   1.0000   1.0000   1.0000
     1.0000   1.0000

          k =-0.4795-0.8306 0.0865 (  3742 PWs)   bands (ev):

  -113.9793-113.9792 -68.3688 -68.3670 -68.3251 -68.3246 -68.3242 -68.3227
    -8.1465  -7.8269   3.0476   3.3977   3.8913   3.9506   4.0076   4.1379
     4.5135   4.6830   4.8847   4.9092   5.4912   5.6323   6.6043   6.9112
     7.7427   8.0340

     occupation numbers 
     1.0000   1.0000   1.0000   1.0000   1.0000   1.0000   1.0000   1.0000
     1.0000   1.0000   1.0000   1.0000   1.0000   1.0000   1.0000   1.0000
     1.0000   1.0000   1.0000   1.0000   1.0000   1.0000   1.0000   1.0000
     1.0000   1.0000

          k =-0.4795-0.8306 0.1730 (  3768 PWs)   bands (ev):

  -113.9793-113.9792 -68.3686 -68.3673 -68.3250 -68.3244 -68.3243 -68.3230
    -8.0966  -7.8506   2.9358   3.2058   3.7760   3.9376   3.9752   3.9872
     4.5642   4.7373   4.8332   4.8916   5.4658   5.5505   6.7689   7.4987
     7.6320   8.4149

     occupation numbers 
     1.0000   1.0000   1.0000   1.0000   1.0000   1.0000   1.0000   1.0000
     1.0000   1.0000   1.0000   1.0000   1.0000   1.0000   1.0000   1.0000
     1.0000   1.0000   1.0000   1.0000   1.0000   1.0000   1.0000   1.0000
     1.0000   1.0000

          k =-0.4795-0.8306 0.2595 (  3740 PWs)   bands (ev):

  -113.9793-113.9792 -68.3683 -68.3676 -68.3248 -68.3244 -68.3240 -68.3232
    -8.0274  -7.8935   2.8343   2.9820   3.7343   3.8530   3.9265   3.9443
     4.6292   4.7677   4.7871   4.8650   5.4718   5.5119   6.9940   7.4572
     8.1045   8.6486

     occupation numbers 
     1.0000   1.0000   1.0000   1.0000   1.0000   1.0000   1.0000   1.0000
     1.0000   1.0000   1.0000   1.0000   1.0000   1.0000   1.0000   1.0000
     1.0000   1.0000   1.0000   1.0000   1.0000   1.0000   1.0000   1.0000
     1.0000   1.0000

          k =-0.4795-0.8306-0.3460 (  3752 PWs)   bands (ev):

  -113.9792-113.9792 -68.3680 -68.3680 -68.3246 -68.3246 -68.3236 -68.3236
    -7.9550  -7.9550   2.8400   2.8400   3.7656   3.7656   3.9271   3.9271
     4.6984   4.6984   4.8298   4.8298   5.4902   5.4902   7.2356   7.2356
     8.5374   8.5374

     occupation numbers 
     1.0000   1.0000   1.0000   1.0000   1.0000   1.0000   1.0000   1.0000
     1.0000   1.0000   1.0000   1.0000   1.0000   1.0000   1.0000   1.0000
     1.0000   1.0000   1.0000   1.0000   1.0000   1.0000   1.0000   1.0000
     1.0000   1.0000

     highest occupied level (ev):     9.0935

!    total energy              =    -987.06510285 Ry
     Harris-Foulkes estimate   =    -987.06510286 Ry
     estimated scf accuracy    <          8.6E-09 Ry

     The total energy is the sum of the following terms:

     one-electron contribution =    -794.41895912 Ry
     hartree contribution      =     419.36289342 Ry
     xc contribution           =     -98.09154663 Ry
     ewald contribution        =    -513.91749052 Ry

     convergence has been achieved in   8 iterations

     Forces acting on atoms (cartesian axes, Ry/au):

     atom    1 type  2   force =    -0.00000002   -0.00000041    0.00840155
     atom    2 type  2   force =    -0.00000127    0.00000108    0.00840168
     atom    3 type  1   force =     0.00000183   -0.00000097   -0.00839958
     atom    4 type  1   force =    -0.00000054    0.00000029   -0.00840365
     The non-local contrib.  to forces
     atom    1 type  2   force =    -0.00000028   -0.00000253    0.06106705
     atom    2 type  2   force =     0.00000148   -0.00000020    0.06106843
     atom    3 type  1   force =     0.00000484   -0.00000660    0.14353226
     atom    4 type  1   force =    -0.00000105    0.00000003    0.14352888
     The ionic contribution  to forces
     atom    1 type  2   force =     0.00001437    0.00002279   -0.85121826
     atom    2 type  2   force =    -0.00003378    0.00002046   -0.85121751
     atom    3 type  1   force =     0.00004470   -0.00003552    0.85122254
     atom    4 type  1   force =    -0.00002529   -0.00000773    0.85121323
     The local contribution  to forces
     atom    1 type  2   force =    -0.00001413   -0.00002067    0.79892107
     atom    2 type  2   force =     0.00003105   -0.00001921    0.79891855
     atom    3 type  1   force =    -0.00004774    0.00004122   -1.00323525
     atom    4 type  1   force =     0.00002582    0.00000796   -1.00321628
     The core correction contribution to forces
     atom    1 type  2   force =    -0.00000000    0.00000001   -0.00033205
     atom    2 type  2   force =    -0.00000001   -0.00000001   -0.00033206
     atom    3 type  1   force =     0.00000000    0.00000000    0.00000000
     atom    4 type  1   force =     0.00000000    0.00000000    0.00000000
     The Hubbard contrib.    to forces
     atom    1 type  2   force =     0.00000000    0.00000000    0.00000000
     atom    2 type  2   force =     0.00000000    0.00000000    0.00000000
     atom    3 type  1   force =     0.00000000    0.00000000    0.00000000
     atom    4 type  1   force =     0.00000000    0.00000000    0.00000000
     The SCF correction term to forces
     atom    1 type  2   force =     0.00000000    0.00000000    0.00000000
     atom    2 type  2   force =     0.00000000    0.00000000    0.00000000
     atom    3 type  1   force =     0.00000000    0.00000000    0.00000000
     atom    4 type  1   force =     0.00000000    0.00000000    0.00000000

     Total force =     0.000000     Total SCF correction =     0.000000


     Computing stress (Cartesian axis) and pressure

          total   stress  (Ry/bohr**3)                   (kbar)     P=    1.19
   0.00001257  -0.00000001  -0.00000000          1.85     -0.00     -0.00
  -0.00000001   0.00001255  -0.00000001         -0.00      1.85     -0.00
  -0.00000000  -0.00000001  -0.00000089         -0.00     -0.00     -0.13

     kinetic stress (kbar)  34676.37     -0.00      0.00
                               -0.00  34676.37     -0.00
                                0.00     -0.00  35096.35

     local   stress (kbar)   -857.97      0.01      0.02
                                0.01   -858.10     -0.05
                                0.02     -0.05  -8292.32

     nonloc. stress (kbar)  -1694.34      0.00      0.00
                                0.00  -1694.34      0.00
                                0.00      0.00  -1858.27

     hartree stress (kbar)  64711.15     -0.00     -0.01
                               -0.00  64711.21      0.02
                               -0.01      0.02  69307.41

     exc-cor stress (kbar) -14536.27      0.00      0.00
                                0.00 -14536.27      0.00
                                0.00      0.00 -14542.07

     corecor stress (kbar)   -255.59      0.00     -0.00
                                0.00   -255.59      0.00
                               -0.00      0.00   -256.38

     ewald   stress (kbar) -82041.50     -0.01     -0.01
                               -0.01 -82041.43      0.03
                               -0.01      0.03 -79454.84

     hubbard stress (kbar)      0.00      0.00      0.00
                                0.00      0.00      0.00
                                0.00      0.00      0.00

     london  stress (kbar)      0.00      0.00      0.00
                                0.00      0.00      0.00
                                0.00      0.00      0.00

     DFT-D3  stress (kbar)      0.00      0.00      0.00
                                0.00      0.00      0.00
                                0.00      0.00      0.00

     XDM     stress (kbar)      0.00      0.00      0.00
                                0.00      0.00      0.00
                                0.00      0.00      0.00

     dft-nl  stress (kbar)      0.00      0.00      0.00
                                0.00      0.00      0.00
                                0.00      0.00      0.00

     TS-vdW  stress (kbar)      0.00      0.00      0.00
                                0.00      0.00      0.00
                                0.00      0.00      0.00



     Writing output data file ZnO.save/
 
     init_run     :      1.07s CPU      1.48s WALL (       2 calls)
     electrons    :    191.21s CPU    203.29s WALL (      16 calls)
     update_pot   :      1.70s CPU      1.72s WALL (      14 calls)
     forces       :      2.45s CPU      2.59s WALL (      16 calls)
     stress       :      4.44s CPU      4.53s WALL (      16 calls)

     Called by init_run:
     wfcinit      :      0.74s CPU      0.86s WALL (       2 calls)
     wfcinit:atom :      0.01s CPU      0.01s WALL (     130 calls)
     wfcinit:wfcr :      0.70s CPU      0.80s WALL (     130 calls)
     potinit      :      0.11s CPU      0.15s WALL (       2 calls)
     hinit0       :      0.18s CPU      0.29s WALL (       2 calls)

     Called by electrons:
     c_bands      :    163.88s CPU    174.85s WALL (     175 calls)
     sum_band     :     21.29s CPU     21.99s WALL (     175 calls)
     v_of_rho     :      4.87s CPU      4.91s WALL (     187 calls)
     v_h          :      0.06s CPU      0.07s WALL (     187 calls)
     v_xc         :      5.62s CPU      5.66s WALL (     219 calls)
     newd         :      0.99s CPU      1.03s WALL (     187 calls)
     mix_rho      :      0.20s CPU      0.21s WALL (     175 calls)

     Called by c_bands:
     init_us_2    :      1.72s CPU      1.85s WALL (   24960 calls)
     cegterg      :    148.23s CPU    154.89s WALL (   11375 calls)

     Called by sum_band:
     sum_band:bec :      0.13s CPU      0.14s WALL (   11375 calls)
     addusdens    :      0.88s CPU      0.89s WALL (     175 calls)

     Called by *egterg:
     h_psi        :     85.33s CPU     88.46s WALL (   35090 calls)
     s_psi        :      2.77s CPU      2.87s WALL (   35090 calls)
     g_psi        :      0.19s CPU      0.20s WALL (   23585 calls)
     cdiaghg      :     37.62s CPU     39.42s WALL (   33790 calls)
     cegterg:over :      9.74s CPU     11.25s WALL (   23585 calls)
     cegterg:upda :      5.64s CPU      5.74s WALL (   23585 calls)
     cegterg:last :      3.76s CPU      3.81s WALL (   11830 calls)
     cdiaghg:chol :      1.70s CPU      1.92s WALL (   33790 calls)
     cdiaghg:inve :      0.60s CPU      0.67s WALL (   33790 calls)
     cdiaghg:para :      3.94s CPU      4.23s WALL (   67580 calls)

     Called by h_psi:
     h_psi:pot    :     85.08s CPU     88.21s WALL (   35090 calls)
     h_psi:calbec :      5.01s CPU      5.20s WALL (   35090 calls)
     vloc_psi     :     77.20s CPU     80.04s WALL (   35090 calls)
     add_vuspsi   :      2.76s CPU      2.87s WALL (   35090 calls)

     General routines
     calbec       :      7.64s CPU      7.91s WALL (   51665 calls)
     fft          :      0.87s CPU      0.92s WALL (    2817 calls)
     ffts         :      0.09s CPU      0.10s WALL (     362 calls)
     fftw         :     88.45s CPU     91.63s WALL ( 1825476 calls)
     interpolate  :      0.08s CPU      0.08s WALL (     187 calls)
 
     Parallel routines
     fft_scatt_xy :     12.55s CPU     12.98s WALL ( 1828655 calls)
     fft_scatt_yz :     45.85s CPU     47.58s WALL ( 1828655 calls)
 
     PWSCF        :   3m21.81s CPU   3m36.33s WALL

 
   This run was terminated on:  23: 4:37   7Jun2022            

=------------------------------------------------------------------------------=
   JOB DONE.
=------------------------------------------------------------------------------=
