
     Program PWSCF v.6.4.1 starts on 15Jun2022 at 23:28:30 

     This program is part of the open-source Quantum ESPRESSO suite
     for quantum simulation of materials; please cite
         "P. Giannozzi et al., J. Phys.:Condens. Matter 21 395502 (2009);
         "P. Giannozzi et al., J. Phys.:Condens. Matter 29 465901 (2017);
          URL http://www.quantum-espresso.org", 
     in publications or presentations arising from this work. More details at
     http://www.quantum-espresso.org/quote

     Parallel version (MPI), running on    64 processors

     MPI processes distributed on     1 nodes
     K-points division:     npool     =       4
     R & G space division:  proc/nbgrp/npool/nimage =      16
     Waiting for input...
     Reading input from standard input
Warning: card &IONS ignored
Warning: card   UPSCALE           = 100.D0, ignored
Warning: card / ignored
Warning: card &CELL ignored
Warning: card   CELL_DYNAMICS     = 'BFGS' ignored
Warning: card   PRESS_CONV_THR    = 0.5D0 ignored
Warning: card   CELL_DOFREE = 'ALL' ignored
Warning: card / ignored

     Current dimensions of program PWSCF are:
     Max number of different atomic species (ntypx) = 10
     Max number of k-points (npk) =  40000
     Max angular momentum in pseudopotentials (lmaxx) =  3

     Subspace diagonalization in iterative solution of the eigenvalue problem:
     one sub-group per band group will be used
     scalapack distributed-memory algorithm (size of sub-group:  2*  2 procs)

 
     Parallelization info
     --------------------
     sticks:   dense  smooth     PW     G-vecs:    dense   smooth      PW
     Min          95      51     15                 4967     1931     335
     Max          96      52     16                 4974     1938     344
     Sum        1531     823    253                79547    30951    5431
 


     bravais-lattice index     =            0
     lattice parameter (alat)  =       6.1087  a.u.
     unit-cell volume          =     320.4780 (a.u.)^3
     number of atoms/cell      =            4
     number of atomic types    =            3
     number of electrons       =        42.00
     number of Kohn-Sham states=           21
     kinetic-energy cutoff     =      80.0000  Ry
     charge density cutoff     =     600.0000  Ry
     convergence threshold     =      1.0E-06
     mixing beta               =       0.5000
     number of iterations used =            8  plain     mixing
     Exchange-correlation      = SLA  PW   PSX  PSC ( 1  4 10  8 0 0)
     Using LIBXC version       =    4   3   4

     celldm(1)=   6.108655  celldm(2)=   0.000000  celldm(3)=   0.000000
     celldm(4)=   0.000000  celldm(5)=   0.000000  celldm(6)=   0.000000

     crystal axes: (cart. coord. in units of alat)
               a(1) = (   1.000000   0.000000   0.000000 )  
               a(2) = (  -0.500000   0.866026  -0.000000 )  
               a(3) = (   0.000000  -0.000000   1.623420 )  

     reciprocal axes: (cart. coord. in units 2 pi/alat)
               b(1) = (  1.000000  0.577350 -0.000000 )  
               b(2) = ( -0.000000  1.154700  0.000000 )  
               b(3) = ( -0.000000  0.000000  0.615984 )  


     PseudoPot. # 1 for Mg read from file:
     ./GBRV_PBEsol/mg_pbesol_v1.4.uspp.F.UPF
     MD5 check sum: 4059f37963cf5867752dbf5ab2400678
     Pseudo is Ultrasoft, Zval = 10.0
     Generated by new atomic code, or converted to UPF format
     Using radial grid of  821 points,  7 beta functions with: 
                l(1) =   0
                l(2) =   0
                l(3) =   0
                l(4) =   1
                l(5) =   1
                l(6) =   2
                l(7) =   2
     Q(r) pseudized with  8 coefficients,  rinner =    1.200   1.200   1.200
                                                       1.200   1.200

     PseudoPot. # 2 for Zn read from file:
     ./GBRV_PBEsol/zn_pbesol_v1.uspp.F.UPF
     MD5 check sum: 7d8615e52efe7c1e2b1899de8658bae2
     Pseudo is Ultrasoft, Zval = 20.0
     Generated by new atomic code, or converted to UPF format
     Using radial grid of  943 points,  6 beta functions with: 
                l(1) =   0
                l(2) =   0
                l(3) =   1
                l(4) =   1
                l(5) =   2
                l(6) =   2
     Q(r) pseudized with  8 coefficients,  rinner =    1.100   1.100   1.100
                                                       1.100   1.100

     PseudoPot. # 3 for O  read from file:
     ./GBRV_PBEsol/o_pbesol_v1.2.uspp.F.UPF
     MD5 check sum: 501638753501ef6325af9037351f7734
     Pseudo is Ultrasoft + core correction, Zval =  6.0
     Generated by new atomic code, or converted to UPF format
     Using radial grid of  737 points,  5 beta functions with: 
                l(1) =   0
                l(2) =   0
                l(3) =   1
                l(4) =   1
                l(5) =   2
     Q(r) pseudized with  8 coefficients,  rinner =    0.900   0.900   0.900
                                                       0.900   0.900

     atomic species   valence    mass     pseudopotential
        Mg            10.00    24.30500     Mg( 1.00)
        Zn            20.00    65.38000     Zn( 1.00)
        O              6.00    15.99900     O ( 1.00)

     No symmetry found


                                    s                        frac. trans.

      isym =  1     identity                                     

 cryst.   s( 1) = (     1          0          0      )
                  (     0          1          0      )
                  (     0          0          1      )

 cart.    s( 1) = (  1.0000000  0.0000000  0.0000000 )
                  (  0.0000000  1.0000000 -0.0000000 )
                  (  0.0000000 -0.0000000  1.0000000 )


   Cartesian axes

     site n.     atom                  positions (alat units)
         1           O   tau(   1) = (   0.5000001   0.2886755   0.0119254  )
         2           O   tau(   2) = (   0.0000001   0.5773494   0.8236350  )
         3           Zn  tau(   3) = (   0.5000000   0.2886748   1.0292382  )
         4           Mg  tau(   4) = (  -0.0000001   0.5773511   1.8462803  )

   Crystallographic axes

     site n.     atom                  positions (cryst. coord.)
         1           O   tau(   1) = (  0.6666670  0.3333337  0.0073459  )
         2           O   tau(   2) = (  0.3333329  0.6666657  0.5073458  )
         3           Zn  tau(   3) = (  0.6666664  0.3333329  0.6339939  )
         4           Mg  tau(   4) = (  0.3333336  0.6666677  1.1372785  )

     number of k points=   260
                       cart. coord. in units 2pi/alat
        k(    1) = (   0.0000000   0.0000000   0.0000000), wk =   0.0039062
        k(    2) = (  -0.0000000   0.0000000   0.0769980), wk =   0.0078125
        k(    3) = (  -0.0000000   0.0000000   0.1539959), wk =   0.0078125
        k(    4) = (  -0.0000000   0.0000000   0.2309939), wk =   0.0078125
        k(    5) = (   0.0000000  -0.0000000  -0.3079918), wk =   0.0039062
        k(    6) = (  -0.0000000   0.1443375   0.0000000), wk =   0.0078125
        k(    7) = (  -0.0000000   0.1443376   0.0769980), wk =   0.0078125
        k(    8) = (  -0.0000000   0.1443376   0.1539959), wk =   0.0078125
        k(    9) = (  -0.0000000   0.1443376   0.2309939), wk =   0.0078125
        k(   10) = (   0.0000000   0.1443375  -0.3079918), wk =   0.0078125
        k(   11) = (   0.0000000   0.1443375  -0.2309939), wk =   0.0078125
        k(   12) = (   0.0000000   0.1443375  -0.1539959), wk =   0.0078125
        k(   13) = (   0.0000000   0.1443375  -0.0769979), wk =   0.0078125
        k(   14) = (  -0.0000000   0.2886751   0.0000000), wk =   0.0078125
        k(   15) = (  -0.0000000   0.2886751   0.0769980), wk =   0.0078125
        k(   16) = (  -0.0000000   0.2886751   0.1539959), wk =   0.0078125
        k(   17) = (  -0.0000000   0.2886751   0.2309939), wk =   0.0078125
        k(   18) = (   0.0000000   0.2886751  -0.3079918), wk =   0.0078125
        k(   19) = (   0.0000000   0.2886751  -0.2309939), wk =   0.0078125
        k(   20) = (   0.0000000   0.2886751  -0.1539959), wk =   0.0078125
        k(   21) = (   0.0000000   0.2886751  -0.0769979), wk =   0.0078125
        k(   22) = (  -0.0000000   0.4330126   0.0000000), wk =   0.0078125
        k(   23) = (  -0.0000000   0.4330126   0.0769980), wk =   0.0078125
        k(   24) = (  -0.0000000   0.4330127   0.1539959), wk =   0.0078125
        k(   25) = (  -0.0000000   0.4330127   0.2309939), wk =   0.0078125
        k(   26) = (   0.0000000   0.4330126  -0.3079918), wk =   0.0078125
        k(   27) = (   0.0000000   0.4330126  -0.2309938), wk =   0.0078125
        k(   28) = (   0.0000000   0.4330126  -0.1539959), wk =   0.0078125
        k(   29) = (   0.0000000   0.4330126  -0.0769979), wk =   0.0078125
        k(   30) = (   0.0000000  -0.5773502  -0.0000000), wk =   0.0039062
        k(   31) = (  -0.0000000  -0.5773502   0.0769979), wk =   0.0078125
        k(   32) = (  -0.0000000  -0.5773502   0.1539959), wk =   0.0078125
        k(   33) = (  -0.0000000  -0.5773502   0.2309938), wk =   0.0078125
        k(   34) = (   0.0000000  -0.5773502  -0.3079919), wk =   0.0039062
        k(   35) = (   0.1250000   0.0721688  -0.0000000), wk =   0.0078125
        k(   36) = (   0.1250000   0.0721688   0.0769980), wk =   0.0078125
        k(   37) = (   0.1250000   0.0721688   0.1539959), wk =   0.0078125
        k(   38) = (   0.1250000   0.0721688   0.2309939), wk =   0.0078125
        k(   39) = (   0.1250000   0.0721688  -0.3079918), wk =   0.0078125
        k(   40) = (   0.1250000   0.0721688  -0.2309939), wk =   0.0078125
        k(   41) = (   0.1250000   0.0721688  -0.1539959), wk =   0.0078125
        k(   42) = (   0.1250000   0.0721688  -0.0769980), wk =   0.0078125
        k(   43) = (   0.1250000   0.2165063   0.0000000), wk =   0.0078125
        k(   44) = (   0.1250000   0.2165063   0.0769980), wk =   0.0078125
        k(   45) = (   0.1250000   0.2165063   0.1539959), wk =   0.0078125
        k(   46) = (   0.1250000   0.2165063   0.2309939), wk =   0.0078125
        k(   47) = (   0.1250000   0.2165063  -0.3079918), wk =   0.0078125
        k(   48) = (   0.1250000   0.2165063  -0.2309939), wk =   0.0078125
        k(   49) = (   0.1250000   0.2165063  -0.1539959), wk =   0.0078125
        k(   50) = (   0.1250000   0.2165063  -0.0769980), wk =   0.0078125
        k(   51) = (   0.1250000   0.3608439   0.0000000), wk =   0.0078125
        k(   52) = (   0.1250000   0.3608439   0.0769980), wk =   0.0078125
        k(   53) = (   0.1250000   0.3608439   0.1539959), wk =   0.0078125
        k(   54) = (   0.1250000   0.3608439   0.2309939), wk =   0.0078125
        k(   55) = (   0.1250000   0.3608438  -0.3079918), wk =   0.0078125
        k(   56) = (   0.1250000   0.3608439  -0.2309939), wk =   0.0078125
        k(   57) = (   0.1250000   0.3608439  -0.1539959), wk =   0.0078125
        k(   58) = (   0.1250000   0.3608439  -0.0769979), wk =   0.0078125
        k(   59) = (   0.1250000   0.5051814   0.0000000), wk =   0.0078125
        k(   60) = (   0.1250000   0.5051814   0.0769980), wk =   0.0078125
        k(   61) = (   0.1250000   0.5051814   0.1539959), wk =   0.0078125
        k(   62) = (   0.1250000   0.5051814   0.2309939), wk =   0.0078125
        k(   63) = (   0.1250000   0.5051814  -0.3079918), wk =   0.0078125
        k(   64) = (   0.1250000   0.5051814  -0.2309939), wk =   0.0078125
        k(   65) = (   0.1250000   0.5051814  -0.1539959), wk =   0.0078125
        k(   66) = (   0.1250000   0.5051814  -0.0769979), wk =   0.0078125
        k(   67) = (   0.1250000  -0.5051814  -0.0000000), wk =   0.0078125
        k(   68) = (   0.1250000  -0.5051814   0.0769979), wk =   0.0078125
        k(   69) = (   0.1250000  -0.5051814   0.1539959), wk =   0.0078125
        k(   70) = (   0.1250000  -0.5051814   0.2309938), wk =   0.0078125
        k(   71) = (   0.1250000  -0.5051814  -0.3079919), wk =   0.0078125
        k(   72) = (   0.1250000  -0.5051814  -0.2309939), wk =   0.0078125
        k(   73) = (   0.1250000  -0.5051814  -0.1539960), wk =   0.0078125
        k(   74) = (   0.1250000  -0.5051814  -0.0769980), wk =   0.0078125
        k(   75) = (   0.1250000  -0.3608439  -0.0000000), wk =   0.0078125
        k(   76) = (   0.1250000  -0.3608439   0.0769979), wk =   0.0078125
        k(   77) = (   0.1250000  -0.3608439   0.1539959), wk =   0.0078125
        k(   78) = (   0.1250000  -0.3608439   0.2309938), wk =   0.0078125
        k(   79) = (   0.1250000  -0.3608439  -0.3079919), wk =   0.0078125
        k(   80) = (   0.1250000  -0.3608439  -0.2309939), wk =   0.0078125
        k(   81) = (   0.1250000  -0.3608439  -0.1539960), wk =   0.0078125
        k(   82) = (   0.1250000  -0.3608439  -0.0769980), wk =   0.0078125
        k(   83) = (   0.1250000  -0.2165063  -0.0000000), wk =   0.0078125
        k(   84) = (   0.1250000  -0.2165063   0.0769979), wk =   0.0078125
        k(   85) = (   0.1250000  -0.2165063   0.1539959), wk =   0.0078125
        k(   86) = (   0.1250000  -0.2165063   0.2309939), wk =   0.0078125
        k(   87) = (   0.1250000  -0.2165063  -0.3079919), wk =   0.0078125
        k(   88) = (   0.1250000  -0.2165063  -0.2309939), wk =   0.0078125
        k(   89) = (   0.1250000  -0.2165063  -0.1539959), wk =   0.0078125
        k(   90) = (   0.1250000  -0.2165063  -0.0769980), wk =   0.0078125
        k(   91) = (   0.1250000  -0.0721688  -0.0000000), wk =   0.0078125
        k(   92) = (   0.1250000  -0.0721688   0.0769979), wk =   0.0078125
        k(   93) = (   0.1250000  -0.0721688   0.1539959), wk =   0.0078125
        k(   94) = (   0.1250000  -0.0721688   0.2309939), wk =   0.0078125
        k(   95) = (   0.1250000  -0.0721688  -0.3079919), wk =   0.0078125
        k(   96) = (   0.1250000  -0.0721688  -0.2309939), wk =   0.0078125
        k(   97) = (   0.1250000  -0.0721688  -0.1539959), wk =   0.0078125
        k(   98) = (   0.1250000  -0.0721688  -0.0769980), wk =   0.0078125
        k(   99) = (   0.2500000   0.1443375  -0.0000000), wk =   0.0078125
        k(  100) = (   0.2500000   0.1443376   0.0769980), wk =   0.0078125
        k(  101) = (   0.2500000   0.1443376   0.1539959), wk =   0.0078125
        k(  102) = (   0.2500000   0.1443376   0.2309939), wk =   0.0078125
        k(  103) = (   0.2500000   0.1443375  -0.3079918), wk =   0.0078125
        k(  104) = (   0.2500000   0.1443375  -0.2309939), wk =   0.0078125
        k(  105) = (   0.2500000   0.1443375  -0.1539959), wk =   0.0078125
        k(  106) = (   0.2500000   0.1443375  -0.0769980), wk =   0.0078125
        k(  107) = (   0.2500000   0.2886751   0.0000000), wk =   0.0078125
        k(  108) = (   0.2500000   0.2886751   0.0769980), wk =   0.0078125
        k(  109) = (   0.2500000   0.2886751   0.1539959), wk =   0.0078125
        k(  110) = (   0.2500000   0.2886751   0.2309939), wk =   0.0078125
        k(  111) = (   0.2500000   0.2886751  -0.3079918), wk =   0.0078125
        k(  112) = (   0.2500000   0.2886751  -0.2309939), wk =   0.0078125
        k(  113) = (   0.2500000   0.2886751  -0.1539959), wk =   0.0078125
        k(  114) = (   0.2500000   0.2886751  -0.0769980), wk =   0.0078125
        k(  115) = (   0.2500000   0.4330126   0.0000000), wk =   0.0078125
        k(  116) = (   0.2500000   0.4330126   0.0769980), wk =   0.0078125
        k(  117) = (   0.2500000   0.4330127   0.1539959), wk =   0.0078125
        k(  118) = (   0.2500000   0.4330127   0.2309939), wk =   0.0078125
        k(  119) = (   0.2500000   0.4330126  -0.3079918), wk =   0.0078125
        k(  120) = (   0.2500000   0.4330126  -0.2309939), wk =   0.0078125
        k(  121) = (   0.2500000   0.4330126  -0.1539959), wk =   0.0078125
        k(  122) = (   0.2500000   0.4330126  -0.0769979), wk =   0.0078125
        k(  123) = (   0.2500000   0.5773502   0.0000000), wk =   0.0078125
        k(  124) = (   0.2500000   0.5773502   0.0769980), wk =   0.0078125
        k(  125) = (   0.2500000   0.5773502   0.1539959), wk =   0.0078125
        k(  126) = (   0.2500000   0.5773502   0.2309939), wk =   0.0078125
        k(  127) = (   0.2500000   0.5773502  -0.3079918), wk =   0.0078125
        k(  128) = (   0.2500000   0.5773502  -0.2309939), wk =   0.0078125
        k(  129) = (   0.2500000   0.5773502  -0.1539959), wk =   0.0078125
        k(  130) = (   0.2500000   0.5773502  -0.0769979), wk =   0.0078125
        k(  131) = (   0.2500000  -0.4330126  -0.0000000), wk =   0.0078125
        k(  132) = (   0.2500000  -0.4330126   0.0769979), wk =   0.0078125
        k(  133) = (   0.2500000  -0.4330126   0.1539959), wk =   0.0078125
        k(  134) = (   0.2500000  -0.4330126   0.2309938), wk =   0.0078125
        k(  135) = (   0.2500000  -0.4330127  -0.3079919), wk =   0.0078125
        k(  136) = (   0.2500000  -0.4330127  -0.2309939), wk =   0.0078125
        k(  137) = (   0.2500000  -0.4330127  -0.1539960), wk =   0.0078125
        k(  138) = (   0.2500000  -0.4330126  -0.0769980), wk =   0.0078125
        k(  139) = (   0.2500000  -0.2886751  -0.0000000), wk =   0.0078125
        k(  140) = (   0.2500000  -0.2886751   0.0769979), wk =   0.0078125
        k(  141) = (   0.2500000  -0.2886751   0.1539959), wk =   0.0078125
        k(  142) = (   0.2500000  -0.2886751   0.2309938), wk =   0.0078125
        k(  143) = (   0.2500000  -0.2886751  -0.3079919), wk =   0.0078125
        k(  144) = (   0.2500000  -0.2886751  -0.2309939), wk =   0.0078125
        k(  145) = (   0.2500000  -0.2886751  -0.1539960), wk =   0.0078125
        k(  146) = (   0.2500000  -0.2886751  -0.0769980), wk =   0.0078125
        k(  147) = (   0.2500000  -0.1443375  -0.0000000), wk =   0.0078125
        k(  148) = (   0.2500000  -0.1443375   0.0769979), wk =   0.0078125
        k(  149) = (   0.2500000  -0.1443375   0.1539959), wk =   0.0078125
        k(  150) = (   0.2500000  -0.1443375   0.2309939), wk =   0.0078125
        k(  151) = (   0.2500000  -0.1443376  -0.3079919), wk =   0.0078125
        k(  152) = (   0.2500000  -0.1443376  -0.2309939), wk =   0.0078125
        k(  153) = (   0.2500000  -0.1443376  -0.1539959), wk =   0.0078125
        k(  154) = (   0.2500000  -0.1443376  -0.0769980), wk =   0.0078125
        k(  155) = (   0.2500000  -0.0000000  -0.0000000), wk =   0.0078125
        k(  156) = (   0.2500000   0.0000000   0.0769979), wk =   0.0078125
        k(  157) = (   0.2500000   0.0000000   0.1539959), wk =   0.0078125
        k(  158) = (   0.2500000   0.0000000   0.2309939), wk =   0.0078125
        k(  159) = (   0.2500000  -0.0000000  -0.3079919), wk =   0.0078125
        k(  160) = (   0.2500000  -0.0000000  -0.2309939), wk =   0.0078125
        k(  161) = (   0.2500000  -0.0000000  -0.1539959), wk =   0.0078125
        k(  162) = (   0.2500000  -0.0000000  -0.0769980), wk =   0.0078125
        k(  163) = (   0.3750000   0.2165063  -0.0000000), wk =   0.0078125
        k(  164) = (   0.3750000   0.2165063   0.0769980), wk =   0.0078125
        k(  165) = (   0.3750000   0.2165063   0.1539959), wk =   0.0078125
        k(  166) = (   0.3750000   0.2165063   0.2309939), wk =   0.0078125
        k(  167) = (   0.3750000   0.2165063  -0.3079918), wk =   0.0078125
        k(  168) = (   0.3750000   0.2165063  -0.2309939), wk =   0.0078125
        k(  169) = (   0.3750000   0.2165063  -0.1539959), wk =   0.0078125
        k(  170) = (   0.3750000   0.2165063  -0.0769980), wk =   0.0078125
        k(  171) = (   0.3750000   0.3608439   0.0000000), wk =   0.0078125
        k(  172) = (   0.3750000   0.3608439   0.0769980), wk =   0.0078125
        k(  173) = (   0.3750000   0.3608439   0.1539959), wk =   0.0078125
        k(  174) = (   0.3750000   0.3608439   0.2309939), wk =   0.0078125
        k(  175) = (   0.3750000   0.3608438  -0.3079918), wk =   0.0078125
        k(  176) = (   0.3750000   0.3608439  -0.2309939), wk =   0.0078125
        k(  177) = (   0.3750000   0.3608439  -0.1539959), wk =   0.0078125
        k(  178) = (   0.3750000   0.3608439  -0.0769980), wk =   0.0078125
        k(  179) = (   0.3750000   0.5051814   0.0000000), wk =   0.0078125
        k(  180) = (   0.3750000   0.5051814   0.0769980), wk =   0.0078125
        k(  181) = (   0.3750000   0.5051814   0.1539959), wk =   0.0078125
        k(  182) = (   0.3750000   0.5051814   0.2309939), wk =   0.0078125
        k(  183) = (   0.3750000   0.5051814  -0.3079918), wk =   0.0078125
        k(  184) = (   0.3750000   0.5051814  -0.2309939), wk =   0.0078125
        k(  185) = (   0.3750000   0.5051814  -0.1539959), wk =   0.0078125
        k(  186) = (   0.3750000   0.5051814  -0.0769979), wk =   0.0078125
        k(  187) = (   0.3750000   0.6495190   0.0000000), wk =   0.0078125
        k(  188) = (   0.3750000   0.6495190   0.0769980), wk =   0.0078125
        k(  189) = (   0.3750000   0.6495190   0.1539959), wk =   0.0078125
        k(  190) = (   0.3750000   0.6495190   0.2309939), wk =   0.0078125
        k(  191) = (   0.3750000   0.6495189  -0.3079918), wk =   0.0078125
        k(  192) = (   0.3750000   0.6495189  -0.2309939), wk =   0.0078125
        k(  193) = (   0.3750000   0.6495190  -0.1539959), wk =   0.0078125
        k(  194) = (   0.3750000   0.6495190  -0.0769979), wk =   0.0078125
        k(  195) = (   0.3750000  -0.3608439  -0.0000000), wk =   0.0078125
        k(  196) = (   0.3750000  -0.3608439   0.0769979), wk =   0.0078125
        k(  197) = (   0.3750000  -0.3608439   0.1539959), wk =   0.0078125
        k(  198) = (   0.3750000  -0.3608439   0.2309938), wk =   0.0078125
        k(  199) = (   0.3750000  -0.3608439  -0.3079919), wk =   0.0078125
        k(  200) = (   0.3750000  -0.3608439  -0.2309939), wk =   0.0078125
        k(  201) = (   0.3750000  -0.3608439  -0.1539960), wk =   0.0078125
        k(  202) = (   0.3750000  -0.3608439  -0.0769980), wk =   0.0078125
        k(  203) = (   0.3750000  -0.2165063  -0.0000000), wk =   0.0078125
        k(  204) = (   0.3750000  -0.2165063   0.0769979), wk =   0.0078125
        k(  205) = (   0.3750000  -0.2165063   0.1539959), wk =   0.0078125
        k(  206) = (   0.3750000  -0.2165063   0.2309938), wk =   0.0078125
        k(  207) = (   0.3750000  -0.2165063  -0.3079919), wk =   0.0078125
        k(  208) = (   0.3750000  -0.2165063  -0.2309939), wk =   0.0078125
        k(  209) = (   0.3750000  -0.2165063  -0.1539960), wk =   0.0078125
        k(  210) = (   0.3750000  -0.2165063  -0.0769980), wk =   0.0078125
        k(  211) = (   0.3750000  -0.0721688  -0.0000000), wk =   0.0078125
        k(  212) = (   0.3750000  -0.0721688   0.0769979), wk =   0.0078125
        k(  213) = (   0.3750000  -0.0721688   0.1539959), wk =   0.0078125
        k(  214) = (   0.3750000  -0.0721688   0.2309939), wk =   0.0078125
        k(  215) = (   0.3750000  -0.0721688  -0.3079919), wk =   0.0078125
        k(  216) = (   0.3750000  -0.0721688  -0.2309939), wk =   0.0078125
        k(  217) = (   0.3750000  -0.0721688  -0.1539959), wk =   0.0078125
        k(  218) = (   0.3750000  -0.0721688  -0.0769980), wk =   0.0078125
        k(  219) = (   0.3750000   0.0721688  -0.0000000), wk =   0.0078125
        k(  220) = (   0.3750000   0.0721688   0.0769979), wk =   0.0078125
        k(  221) = (   0.3750000   0.0721688   0.1539959), wk =   0.0078125
        k(  222) = (   0.3750000   0.0721688   0.2309939), wk =   0.0078125
        k(  223) = (   0.3750000   0.0721687  -0.3079919), wk =   0.0078125
        k(  224) = (   0.3750000   0.0721688  -0.2309939), wk =   0.0078125
        k(  225) = (   0.3750000   0.0721688  -0.1539959), wk =   0.0078125
        k(  226) = (   0.3750000   0.0721688  -0.0769980), wk =   0.0078125
        k(  227) = (  -0.5000000  -0.2886751   0.0000000), wk =   0.0039062
        k(  228) = (  -0.5000000  -0.2886751   0.0769980), wk =   0.0078125
        k(  229) = (  -0.5000000  -0.2886751   0.1539959), wk =   0.0078125
        k(  230) = (  -0.5000000  -0.2886751   0.2309939), wk =   0.0078125
        k(  231) = (  -0.5000000  -0.2886751  -0.3079918), wk =   0.0039062
        k(  232) = (  -0.5000000  -0.1443375   0.0000000), wk =   0.0078125
        k(  233) = (  -0.5000000  -0.1443375   0.0769980), wk =   0.0078125
        k(  234) = (  -0.5000000  -0.1443375   0.1539959), wk =   0.0078125
        k(  235) = (  -0.5000000  -0.1443375   0.2309939), wk =   0.0078125
        k(  236) = (  -0.5000000  -0.1443376  -0.3079918), wk =   0.0078125
        k(  237) = (  -0.5000000  -0.1443376  -0.2309939), wk =   0.0078125
        k(  238) = (  -0.5000000  -0.1443376  -0.1539959), wk =   0.0078125
        k(  239) = (  -0.5000000  -0.1443376  -0.0769979), wk =   0.0078125
        k(  240) = (  -0.5000000   0.0000000   0.0000000), wk =   0.0078125
        k(  241) = (  -0.5000000   0.0000000   0.0769980), wk =   0.0078125
        k(  242) = (  -0.5000000   0.0000000   0.1539960), wk =   0.0078125
        k(  243) = (  -0.5000000   0.0000000   0.2309939), wk =   0.0078125
        k(  244) = (  -0.5000000  -0.0000000  -0.3079918), wk =   0.0078125
        k(  245) = (  -0.5000000  -0.0000000  -0.2309938), wk =   0.0078125
        k(  246) = (  -0.5000000  -0.0000000  -0.1539959), wk =   0.0078125
        k(  247) = (  -0.5000000  -0.0000000  -0.0769979), wk =   0.0078125
        k(  248) = (  -0.5000000   0.1443376   0.0000000), wk =   0.0078125
        k(  249) = (  -0.5000000   0.1443376   0.0769980), wk =   0.0078125
        k(  250) = (  -0.5000000   0.1443376   0.1539960), wk =   0.0078125
        k(  251) = (  -0.5000000   0.1443376   0.2309939), wk =   0.0078125
        k(  252) = (  -0.5000000   0.1443375  -0.3079918), wk =   0.0078125
        k(  253) = (  -0.5000000   0.1443375  -0.2309938), wk =   0.0078125
        k(  254) = (  -0.5000000   0.1443375  -0.1539959), wk =   0.0078125
        k(  255) = (  -0.5000000   0.1443375  -0.0769979), wk =   0.0078125
        k(  256) = (  -0.5000000  -0.8660253  -0.0000000), wk =   0.0039062
        k(  257) = (  -0.5000000  -0.8660253   0.0769979), wk =   0.0078125
        k(  258) = (  -0.5000000  -0.8660253   0.1539959), wk =   0.0078125
        k(  259) = (  -0.5000000  -0.8660253   0.2309939), wk =   0.0078125
        k(  260) = (  -0.5000000  -0.8660253  -0.3079919), wk =   0.0039062

                       cryst. coord.
        k(    1) = (   0.0000000   0.0000000   0.0000000), wk =   0.0039062
        k(    2) = (   0.0000000  -0.0000000   0.1250000), wk =   0.0078125
        k(    3) = (   0.0000000  -0.0000000   0.2500000), wk =   0.0078125
        k(    4) = (   0.0000000  -0.0000000   0.3750000), wk =   0.0078125
        k(    5) = (  -0.0000000   0.0000000  -0.5000000), wk =   0.0039062
        k(    6) = (  -0.0000000   0.1250000   0.0000000), wk =   0.0078125
        k(    7) = (   0.0000000   0.1250000   0.1250000), wk =   0.0078125
        k(    8) = (   0.0000000   0.1250000   0.2500000), wk =   0.0078125
        k(    9) = (   0.0000000   0.1250000   0.3750000), wk =   0.0078125
        k(   10) = (  -0.0000000   0.1250000  -0.5000000), wk =   0.0078125
        k(   11) = (  -0.0000000   0.1250000  -0.3750000), wk =   0.0078125
        k(   12) = (  -0.0000000   0.1250000  -0.2500000), wk =   0.0078125
        k(   13) = (  -0.0000000   0.1250000  -0.1250000), wk =   0.0078125
        k(   14) = (  -0.0000000   0.2500000   0.0000000), wk =   0.0078125
        k(   15) = (   0.0000000   0.2500000   0.1250000), wk =   0.0078125
        k(   16) = (   0.0000000   0.2500000   0.2500000), wk =   0.0078125
        k(   17) = (   0.0000000   0.2500000   0.3750000), wk =   0.0078125
        k(   18) = (  -0.0000000   0.2500000  -0.5000000), wk =   0.0078125
        k(   19) = (  -0.0000000   0.2500000  -0.3750000), wk =   0.0078125
        k(   20) = (  -0.0000000   0.2500000  -0.2500000), wk =   0.0078125
        k(   21) = (  -0.0000000   0.2500000  -0.1250000), wk =   0.0078125
        k(   22) = (  -0.0000000   0.3750000   0.0000000), wk =   0.0078125
        k(   23) = (  -0.0000000   0.3750000   0.1250000), wk =   0.0078125
        k(   24) = (   0.0000000   0.3750000   0.2500000), wk =   0.0078125
        k(   25) = (   0.0000000   0.3750000   0.3750000), wk =   0.0078125
        k(   26) = (  -0.0000000   0.3750000  -0.5000000), wk =   0.0078125
        k(   27) = (  -0.0000000   0.3750000  -0.3750000), wk =   0.0078125
        k(   28) = (  -0.0000000   0.3750000  -0.2500000), wk =   0.0078125
        k(   29) = (  -0.0000000   0.3750000  -0.1250000), wk =   0.0078125
        k(   30) = (   0.0000000  -0.5000000  -0.0000000), wk =   0.0039062
        k(   31) = (   0.0000000  -0.5000000   0.1250000), wk =   0.0078125
        k(   32) = (   0.0000000  -0.5000000   0.2500000), wk =   0.0078125
        k(   33) = (   0.0000000  -0.5000000   0.3750000), wk =   0.0078125
        k(   34) = (  -0.0000000  -0.5000000  -0.5000000), wk =   0.0039062
        k(   35) = (   0.1250000  -0.0000000   0.0000000), wk =   0.0078125
        k(   36) = (   0.1250000   0.0000000   0.1250000), wk =   0.0078125
        k(   37) = (   0.1250000   0.0000000   0.2500000), wk =   0.0078125
        k(   38) = (   0.1250000   0.0000000   0.3750000), wk =   0.0078125
        k(   39) = (   0.1250000  -0.0000000  -0.5000000), wk =   0.0078125
        k(   40) = (   0.1250000   0.0000000  -0.3750000), wk =   0.0078125
        k(   41) = (   0.1250000  -0.0000000  -0.2500000), wk =   0.0078125
        k(   42) = (   0.1250000  -0.0000000  -0.1250000), wk =   0.0078125
        k(   43) = (   0.1250000   0.1250000  -0.0000000), wk =   0.0078125
        k(   44) = (   0.1250000   0.1250000   0.1250000), wk =   0.0078125
        k(   45) = (   0.1250000   0.1250000   0.2500000), wk =   0.0078125
        k(   46) = (   0.1250000   0.1250000   0.3750000), wk =   0.0078125
        k(   47) = (   0.1250000   0.1250000  -0.5000000), wk =   0.0078125
        k(   48) = (   0.1250000   0.1250000  -0.3750000), wk =   0.0078125
        k(   49) = (   0.1250000   0.1250000  -0.2500000), wk =   0.0078125
        k(   50) = (   0.1250000   0.1250000  -0.1250000), wk =   0.0078125
        k(   51) = (   0.1250000   0.2500000   0.0000000), wk =   0.0078125
        k(   52) = (   0.1250000   0.2500000   0.1250000), wk =   0.0078125
        k(   53) = (   0.1250000   0.2500000   0.2500000), wk =   0.0078125
        k(   54) = (   0.1250000   0.2500000   0.3750000), wk =   0.0078125
        k(   55) = (   0.1250000   0.2500000  -0.5000000), wk =   0.0078125
        k(   56) = (   0.1250000   0.2500000  -0.3750000), wk =   0.0078125
        k(   57) = (   0.1250000   0.2500000  -0.2500000), wk =   0.0078125
        k(   58) = (   0.1250000   0.2500000  -0.1250000), wk =   0.0078125
        k(   59) = (   0.1250000   0.3750000   0.0000000), wk =   0.0078125
        k(   60) = (   0.1250000   0.3750000   0.1250000), wk =   0.0078125
        k(   61) = (   0.1250000   0.3750000   0.2500000), wk =   0.0078125
        k(   62) = (   0.1250000   0.3750000   0.3750000), wk =   0.0078125
        k(   63) = (   0.1250000   0.3750000  -0.5000000), wk =   0.0078125
        k(   64) = (   0.1250000   0.3750000  -0.3750000), wk =   0.0078125
        k(   65) = (   0.1250000   0.3750000  -0.2500000), wk =   0.0078125
        k(   66) = (   0.1250000   0.3750000  -0.1250000), wk =   0.0078125
        k(   67) = (   0.1250000  -0.5000000  -0.0000000), wk =   0.0078125
        k(   68) = (   0.1250000  -0.5000000   0.1250000), wk =   0.0078125
        k(   69) = (   0.1250000  -0.5000000   0.2500000), wk =   0.0078125
        k(   70) = (   0.1250000  -0.5000000   0.3750000), wk =   0.0078125
        k(   71) = (   0.1250000  -0.5000000  -0.5000000), wk =   0.0078125
        k(   72) = (   0.1250000  -0.5000000  -0.3750000), wk =   0.0078125
        k(   73) = (   0.1250000  -0.5000000  -0.2500000), wk =   0.0078125
        k(   74) = (   0.1250000  -0.5000000  -0.1250000), wk =   0.0078125
        k(   75) = (   0.1250000  -0.3750000  -0.0000000), wk =   0.0078125
        k(   76) = (   0.1250000  -0.3750000   0.1250000), wk =   0.0078125
        k(   77) = (   0.1250000  -0.3750000   0.2500000), wk =   0.0078125
        k(   78) = (   0.1250000  -0.3750000   0.3750000), wk =   0.0078125
        k(   79) = (   0.1250000  -0.3750000  -0.5000000), wk =   0.0078125
        k(   80) = (   0.1250000  -0.3750000  -0.3750000), wk =   0.0078125
        k(   81) = (   0.1250000  -0.3750000  -0.2500000), wk =   0.0078125
        k(   82) = (   0.1250000  -0.3750000  -0.1250000), wk =   0.0078125
        k(   83) = (   0.1250000  -0.2500000  -0.0000000), wk =   0.0078125
        k(   84) = (   0.1250000  -0.2500000   0.1250000), wk =   0.0078125
        k(   85) = (   0.1250000  -0.2500000   0.2500000), wk =   0.0078125
        k(   86) = (   0.1250000  -0.2500000   0.3750000), wk =   0.0078125
        k(   87) = (   0.1250000  -0.2500000  -0.5000000), wk =   0.0078125
        k(   88) = (   0.1250000  -0.2500000  -0.3750000), wk =   0.0078125
        k(   89) = (   0.1250000  -0.2500000  -0.2500000), wk =   0.0078125
        k(   90) = (   0.1250000  -0.2500000  -0.1250000), wk =   0.0078125
        k(   91) = (   0.1250000  -0.1250000  -0.0000000), wk =   0.0078125
        k(   92) = (   0.1250000  -0.1250000   0.1250000), wk =   0.0078125
        k(   93) = (   0.1250000  -0.1250000   0.2500000), wk =   0.0078125
        k(   94) = (   0.1250000  -0.1250000   0.3750000), wk =   0.0078125
        k(   95) = (   0.1250000  -0.1250000  -0.5000000), wk =   0.0078125
        k(   96) = (   0.1250000  -0.1250000  -0.3750000), wk =   0.0078125
        k(   97) = (   0.1250000  -0.1250000  -0.2500000), wk =   0.0078125
        k(   98) = (   0.1250000  -0.1250000  -0.1250000), wk =   0.0078125
        k(   99) = (   0.2500000  -0.0000000   0.0000000), wk =   0.0078125
        k(  100) = (   0.2500000   0.0000000   0.1250000), wk =   0.0078125
        k(  101) = (   0.2500000   0.0000000   0.2500000), wk =   0.0078125
        k(  102) = (   0.2500000   0.0000000   0.3750000), wk =   0.0078125
        k(  103) = (   0.2500000  -0.0000000  -0.5000000), wk =   0.0078125
        k(  104) = (   0.2500000  -0.0000000  -0.3750000), wk =   0.0078125
        k(  105) = (   0.2500000  -0.0000000  -0.2500000), wk =   0.0078125
        k(  106) = (   0.2500000  -0.0000000  -0.1250000), wk =   0.0078125
        k(  107) = (   0.2500000   0.1250000   0.0000000), wk =   0.0078125
        k(  108) = (   0.2500000   0.1250000   0.1250000), wk =   0.0078125
        k(  109) = (   0.2500000   0.1250000   0.2500000), wk =   0.0078125
        k(  110) = (   0.2500000   0.1250000   0.3750000), wk =   0.0078125
        k(  111) = (   0.2500000   0.1250000  -0.5000000), wk =   0.0078125
        k(  112) = (   0.2500000   0.1250000  -0.3750000), wk =   0.0078125
        k(  113) = (   0.2500000   0.1250000  -0.2500000), wk =   0.0078125
        k(  114) = (   0.2500000   0.1250000  -0.1250000), wk =   0.0078125
        k(  115) = (   0.2500000   0.2500000  -0.0000000), wk =   0.0078125
        k(  116) = (   0.2500000   0.2500000   0.1250000), wk =   0.0078125
        k(  117) = (   0.2500000   0.2500000   0.2500000), wk =   0.0078125
        k(  118) = (   0.2500000   0.2500000   0.3750000), wk =   0.0078125
        k(  119) = (   0.2500000   0.2500000  -0.5000000), wk =   0.0078125
        k(  120) = (   0.2500000   0.2500000  -0.3750000), wk =   0.0078125
        k(  121) = (   0.2500000   0.2500000  -0.2500000), wk =   0.0078125
        k(  122) = (   0.2500000   0.2500000  -0.1250000), wk =   0.0078125
        k(  123) = (   0.2500000   0.3750000   0.0000000), wk =   0.0078125
        k(  124) = (   0.2500000   0.3750000   0.1250000), wk =   0.0078125
        k(  125) = (   0.2500000   0.3750000   0.2500000), wk =   0.0078125
        k(  126) = (   0.2500000   0.3750000   0.3750000), wk =   0.0078125
        k(  127) = (   0.2500000   0.3750000  -0.5000000), wk =   0.0078125
        k(  128) = (   0.2500000   0.3750000  -0.3750000), wk =   0.0078125
        k(  129) = (   0.2500000   0.3750000  -0.2500000), wk =   0.0078125
        k(  130) = (   0.2500000   0.3750000  -0.1250000), wk =   0.0078125
        k(  131) = (   0.2500000  -0.5000000  -0.0000000), wk =   0.0078125
        k(  132) = (   0.2500000  -0.5000000   0.1250000), wk =   0.0078125
        k(  133) = (   0.2500000  -0.5000000   0.2500000), wk =   0.0078125
        k(  134) = (   0.2500000  -0.5000000   0.3750000), wk =   0.0078125
        k(  135) = (   0.2500000  -0.5000000  -0.5000000), wk =   0.0078125
        k(  136) = (   0.2500000  -0.5000000  -0.3750000), wk =   0.0078125
        k(  137) = (   0.2500000  -0.5000000  -0.2500000), wk =   0.0078125
        k(  138) = (   0.2500000  -0.5000000  -0.1250000), wk =   0.0078125
        k(  139) = (   0.2500000  -0.3750000  -0.0000000), wk =   0.0078125
        k(  140) = (   0.2500000  -0.3750000   0.1250000), wk =   0.0078125
        k(  141) = (   0.2500000  -0.3750000   0.2500000), wk =   0.0078125
        k(  142) = (   0.2500000  -0.3750000   0.3750000), wk =   0.0078125
        k(  143) = (   0.2500000  -0.3750000  -0.5000000), wk =   0.0078125
        k(  144) = (   0.2500000  -0.3750000  -0.3750000), wk =   0.0078125
        k(  145) = (   0.2500000  -0.3750000  -0.2500000), wk =   0.0078125
        k(  146) = (   0.2500000  -0.3750000  -0.1250000), wk =   0.0078125
        k(  147) = (   0.2500000  -0.2500000  -0.0000000), wk =   0.0078125
        k(  148) = (   0.2500000  -0.2500000   0.1250000), wk =   0.0078125
        k(  149) = (   0.2500000  -0.2500000   0.2500000), wk =   0.0078125
        k(  150) = (   0.2500000  -0.2500000   0.3750000), wk =   0.0078125
        k(  151) = (   0.2500000  -0.2500000  -0.5000000), wk =   0.0078125
        k(  152) = (   0.2500000  -0.2500000  -0.3750000), wk =   0.0078125
        k(  153) = (   0.2500000  -0.2500000  -0.2500000), wk =   0.0078125
        k(  154) = (   0.2500000  -0.2500000  -0.1250000), wk =   0.0078125
        k(  155) = (   0.2500000  -0.1250000  -0.0000000), wk =   0.0078125
        k(  156) = (   0.2500000  -0.1250000   0.1250000), wk =   0.0078125
        k(  157) = (   0.2500000  -0.1250000   0.2500000), wk =   0.0078125
        k(  158) = (   0.2500000  -0.1250000   0.3750000), wk =   0.0078125
        k(  159) = (   0.2500000  -0.1250000  -0.5000000), wk =   0.0078125
        k(  160) = (   0.2500000  -0.1250000  -0.3750000), wk =   0.0078125
        k(  161) = (   0.2500000  -0.1250000  -0.2500000), wk =   0.0078125
        k(  162) = (   0.2500000  -0.1250000  -0.1250000), wk =   0.0078125
        k(  163) = (   0.3750000   0.0000000  -0.0000000), wk =   0.0078125
        k(  164) = (   0.3750000   0.0000000   0.1250000), wk =   0.0078125
        k(  165) = (   0.3750000  -0.0000000   0.2500000), wk =   0.0078125
        k(  166) = (   0.3750000  -0.0000000   0.3750000), wk =   0.0078125
        k(  167) = (   0.3750000  -0.0000000  -0.5000000), wk =   0.0078125
        k(  168) = (   0.3750000   0.0000000  -0.3750000), wk =   0.0078125
        k(  169) = (   0.3750000   0.0000000  -0.2500000), wk =   0.0078125
        k(  170) = (   0.3750000  -0.0000000  -0.1250000), wk =   0.0078125
        k(  171) = (   0.3750000   0.1250000   0.0000000), wk =   0.0078125
        k(  172) = (   0.3750000   0.1250000   0.1250000), wk =   0.0078125
        k(  173) = (   0.3750000   0.1250000   0.2500000), wk =   0.0078125
        k(  174) = (   0.3750000   0.1250000   0.3750000), wk =   0.0078125
        k(  175) = (   0.3750000   0.1250000  -0.5000000), wk =   0.0078125
        k(  176) = (   0.3750000   0.1250000  -0.3750000), wk =   0.0078125
        k(  177) = (   0.3750000   0.1250000  -0.2500000), wk =   0.0078125
        k(  178) = (   0.3750000   0.1250000  -0.1250000), wk =   0.0078125
        k(  179) = (   0.3750000   0.2500000  -0.0000000), wk =   0.0078125
        k(  180) = (   0.3750000   0.2500000   0.1250000), wk =   0.0078125
        k(  181) = (   0.3750000   0.2500000   0.2500000), wk =   0.0078125
        k(  182) = (   0.3750000   0.2500000   0.3750000), wk =   0.0078125
        k(  183) = (   0.3750000   0.2500000  -0.5000000), wk =   0.0078125
        k(  184) = (   0.3750000   0.2500000  -0.3750000), wk =   0.0078125
        k(  185) = (   0.3750000   0.2500000  -0.2500000), wk =   0.0078125
        k(  186) = (   0.3750000   0.2500000  -0.1250000), wk =   0.0078125
        k(  187) = (   0.3750000   0.3750000   0.0000000), wk =   0.0078125
        k(  188) = (   0.3750000   0.3750000   0.1250000), wk =   0.0078125
        k(  189) = (   0.3750000   0.3750000   0.2500000), wk =   0.0078125
        k(  190) = (   0.3750000   0.3750000   0.3750000), wk =   0.0078125
        k(  191) = (   0.3750000   0.3750000  -0.5000000), wk =   0.0078125
        k(  192) = (   0.3750000   0.3750000  -0.3750000), wk =   0.0078125
        k(  193) = (   0.3750000   0.3750000  -0.2500000), wk =   0.0078125
        k(  194) = (   0.3750000   0.3750000  -0.1250000), wk =   0.0078125
        k(  195) = (   0.3750000  -0.5000000  -0.0000000), wk =   0.0078125
        k(  196) = (   0.3750000  -0.5000000   0.1250000), wk =   0.0078125
        k(  197) = (   0.3750000  -0.5000000   0.2500000), wk =   0.0078125
        k(  198) = (   0.3750000  -0.5000000   0.3750000), wk =   0.0078125
        k(  199) = (   0.3750000  -0.5000000  -0.5000000), wk =   0.0078125
        k(  200) = (   0.3750000  -0.5000000  -0.3750000), wk =   0.0078125
        k(  201) = (   0.3750000  -0.5000000  -0.2500000), wk =   0.0078125
        k(  202) = (   0.3750000  -0.5000000  -0.1250000), wk =   0.0078125
        k(  203) = (   0.3750000  -0.3750000   0.0000000), wk =   0.0078125
        k(  204) = (   0.3750000  -0.3750000   0.1250000), wk =   0.0078125
        k(  205) = (   0.3750000  -0.3750000   0.2500000), wk =   0.0078125
        k(  206) = (   0.3750000  -0.3750000   0.3750000), wk =   0.0078125
        k(  207) = (   0.3750000  -0.3750000  -0.5000000), wk =   0.0078125
        k(  208) = (   0.3750000  -0.3750000  -0.3750000), wk =   0.0078125
        k(  209) = (   0.3750000  -0.3750000  -0.2500000), wk =   0.0078125
        k(  210) = (   0.3750000  -0.3750000  -0.1250000), wk =   0.0078125
        k(  211) = (   0.3750000  -0.2500000  -0.0000000), wk =   0.0078125
        k(  212) = (   0.3750000  -0.2500000   0.1250000), wk =   0.0078125
        k(  213) = (   0.3750000  -0.2500000   0.2500000), wk =   0.0078125
        k(  214) = (   0.3750000  -0.2500000   0.3750000), wk =   0.0078125
        k(  215) = (   0.3750000  -0.2500000  -0.5000000), wk =   0.0078125
        k(  216) = (   0.3750000  -0.2500000  -0.3750000), wk =   0.0078125
        k(  217) = (   0.3750000  -0.2500000  -0.2500000), wk =   0.0078125
        k(  218) = (   0.3750000  -0.2500000  -0.1250000), wk =   0.0078125
        k(  219) = (   0.3750000  -0.1250000   0.0000000), wk =   0.0078125
        k(  220) = (   0.3750000  -0.1250000   0.1250000), wk =   0.0078125
        k(  221) = (   0.3750000  -0.1250000   0.2500000), wk =   0.0078125
        k(  222) = (   0.3750000  -0.1250000   0.3750000), wk =   0.0078125
        k(  223) = (   0.3750000  -0.1250000  -0.5000000), wk =   0.0078125
        k(  224) = (   0.3750000  -0.1250000  -0.3750000), wk =   0.0078125
        k(  225) = (   0.3750000  -0.1250000  -0.2500000), wk =   0.0078125
        k(  226) = (   0.3750000  -0.1250000  -0.1250000), wk =   0.0078125
        k(  227) = (  -0.5000000   0.0000000  -0.0000000), wk =   0.0039062
        k(  228) = (  -0.5000000   0.0000000   0.1250000), wk =   0.0078125
        k(  229) = (  -0.5000000   0.0000000   0.2500000), wk =   0.0078125
        k(  230) = (  -0.5000000   0.0000000   0.3750000), wk =   0.0078125
        k(  231) = (  -0.5000000  -0.0000000  -0.5000000), wk =   0.0039062
        k(  232) = (  -0.5000000   0.1250000   0.0000000), wk =   0.0078125
        k(  233) = (  -0.5000000   0.1250000   0.1250000), wk =   0.0078125
        k(  234) = (  -0.5000000   0.1250000   0.2500000), wk =   0.0078125
        k(  235) = (  -0.5000000   0.1250000   0.3750000), wk =   0.0078125
        k(  236) = (  -0.5000000   0.1250000  -0.5000000), wk =   0.0078125
        k(  237) = (  -0.5000000   0.1250000  -0.3750000), wk =   0.0078125
        k(  238) = (  -0.5000000   0.1250000  -0.2500000), wk =   0.0078125
        k(  239) = (  -0.5000000   0.1250000  -0.1250000), wk =   0.0078125
        k(  240) = (  -0.5000000   0.2500000   0.0000000), wk =   0.0078125
        k(  241) = (  -0.5000000   0.2500000   0.1250000), wk =   0.0078125
        k(  242) = (  -0.5000000   0.2500000   0.2500000), wk =   0.0078125
        k(  243) = (  -0.5000000   0.2500000   0.3750000), wk =   0.0078125
        k(  244) = (  -0.5000000   0.2500000  -0.5000000), wk =   0.0078125
        k(  245) = (  -0.5000000   0.2500000  -0.3750000), wk =   0.0078125
        k(  246) = (  -0.5000000   0.2500000  -0.2500000), wk =   0.0078125
        k(  247) = (  -0.5000000   0.2500000  -0.1250000), wk =   0.0078125
        k(  248) = (  -0.5000000   0.3750000   0.0000000), wk =   0.0078125
        k(  249) = (  -0.5000000   0.3750000   0.1250000), wk =   0.0078125
        k(  250) = (  -0.5000000   0.3750000   0.2500000), wk =   0.0078125
        k(  251) = (  -0.5000000   0.3750000   0.3750000), wk =   0.0078125
        k(  252) = (  -0.5000000   0.3750000  -0.5000000), wk =   0.0078125
        k(  253) = (  -0.5000000   0.3750000  -0.3750000), wk =   0.0078125
        k(  254) = (  -0.5000000   0.3750000  -0.2500000), wk =   0.0078125
        k(  255) = (  -0.5000000   0.3750000  -0.1250000), wk =   0.0078125
        k(  256) = (  -0.5000000  -0.5000000   0.0000000), wk =   0.0039062
        k(  257) = (  -0.5000000  -0.5000000   0.1250000), wk =   0.0078125
        k(  258) = (  -0.5000000  -0.5000000   0.2500000), wk =   0.0078125
        k(  259) = (  -0.5000000  -0.5000000   0.3750000), wk =   0.0078125
        k(  260) = (  -0.5000000  -0.5000000  -0.5000000), wk =   0.0039062

     Dense  grid:    79547 G-vectors     FFT dimensions: (  48,  48,  80)

     Smooth grid:    30951 G-vectors     FFT dimensions: (  36,  36,  60)

     Dynamical RAM for                 wfc:       0.08 MB

     Dynamical RAM for     wfc (w. buffer):       5.12 MB

     Dynamical RAM for           str. fact:       0.23 MB

     Dynamical RAM for           local pot:       0.00 MB

     Dynamical RAM for          nlocal pot:       0.23 MB

     Dynamical RAM for                qrad:       7.64 MB

     Dynamical RAM for          rho,v,vnew:       0.49 MB

     Dynamical RAM for               rhoin:       0.16 MB

     Dynamical RAM for            rho*nmix:       1.21 MB

     Dynamical RAM for           G-vectors:       0.30 MB

     Dynamical RAM for          h,s,v(r/c):       0.08 MB

     Dynamical RAM for          <psi|beta>:       0.02 MB

     Dynamical RAM for                 psi:       0.31 MB

     Dynamical RAM for                hpsi:       0.31 MB

     Dynamical RAM for                spsi:       0.31 MB

     Dynamical RAM for      wfcinit/wfcrot:       0.21 MB

     Dynamical RAM for           addusdens:       3.98 MB

     Dynamical RAM for          addusforce:       4.13 MB

     Dynamical RAM for         addusstress:       4.20 MB

     Estimated static dynamical RAM per process >      16.13 MB

     Estimated max dynamical RAM per process >      20.33 MB

     Estimated total dynamical RAM >       1.27 GB

     Check: negative core charge=   -0.000003

     Initial potential from superposition of free atoms

     starting charge   41.69964, renormalised to   42.00000
     Starting wfcs are   26 randomized atomic wfcs

     total cpu time spent up to now is        1.0 secs

     Self-consistent Calculation

     iteration #  1     ecut=    80.00 Ry     beta= 0.50
     Davidson diagonalization with overlap
     ethr =  1.00E-02,  avg # of iterations =  2.0

     total cpu time spent up to now is        1.8 secs

     total energy              =    -650.61807487 Ry
     Harris-Foulkes estimate   =    -651.46509434 Ry
     estimated scf accuracy    <       1.26976769 Ry

     iteration #  2     ecut=    80.00 Ry     beta= 0.50
     Davidson diagonalization with overlap
     ethr =  3.02E-03,  avg # of iterations =  3.0

     total cpu time spent up to now is        2.8 secs

     total energy              =    -651.01323572 Ry
     Harris-Foulkes estimate   =    -651.30423408 Ry
     estimated scf accuracy    <       0.66704416 Ry

     iteration #  3     ecut=    80.00 Ry     beta= 0.50
     Davidson diagonalization with overlap
     ethr =  1.59E-03,  avg # of iterations =  2.0

     total cpu time spent up to now is        3.7 secs

     total energy              =    -651.12739296 Ry
     Harris-Foulkes estimate   =    -651.13063723 Ry
     estimated scf accuracy    <       0.00999795 Ry

     iteration #  4     ecut=    80.00 Ry     beta= 0.50
     Davidson diagonalization with overlap
     ethr =  2.38E-05,  avg # of iterations =  2.0

     total cpu time spent up to now is        4.6 secs

     total energy              =    -651.12844758 Ry
     Harris-Foulkes estimate   =    -651.12876284 Ry
     estimated scf accuracy    <       0.00080764 Ry

     iteration #  5     ecut=    80.00 Ry     beta= 0.50
     Davidson diagonalization with overlap
     ethr =  1.92E-06,  avg # of iterations =  2.0

     total cpu time spent up to now is        5.4 secs

     total energy              =    -651.12858485 Ry
     Harris-Foulkes estimate   =    -651.12859408 Ry
     estimated scf accuracy    <       0.00007468 Ry

     iteration #  6     ecut=    80.00 Ry     beta= 0.50
     Davidson diagonalization with overlap
     ethr =  1.78E-07,  avg # of iterations =  2.9

     total cpu time spent up to now is        6.4 secs

     total energy              =    -651.12859679 Ry
     Harris-Foulkes estimate   =    -651.12860385 Ry
     estimated scf accuracy    <       0.00002607 Ry

     iteration #  7     ecut=    80.00 Ry     beta= 0.50
     Davidson diagonalization with overlap
     ethr =  6.21E-08,  avg # of iterations =  2.7

     total cpu time spent up to now is        7.4 secs

     total energy              =    -651.12860240 Ry
     Harris-Foulkes estimate   =    -651.12860179 Ry
     estimated scf accuracy    <       0.00000204 Ry

     iteration #  8     ecut=    80.00 Ry     beta= 0.50
     Davidson diagonalization with overlap
     ethr =  4.85E-09,  avg # of iterations =  2.5

     total cpu time spent up to now is        8.4 secs

     End of self-consistent calculation

          k = 0.0000 0.0000 0.0000 (  3875 PWs)   bands (ev):

  -115.9172 -70.2757 -70.2757 -70.2719 -65.3317 -32.3164 -32.3042 -32.3042
   -10.4996  -9.5560   1.6134   1.6134   1.8133   2.3878   2.6779   2.6779
     5.7352   5.7352   6.5556   6.8109   6.8109

     occupation numbers 
     1.0000   1.0000   1.0000   1.0000   1.0000   1.0000   1.0000   1.0000
     1.0000   1.0000   1.0000   1.0000   1.0000   1.0000   1.0000   1.0000
     1.0000   1.0000   1.0000   1.0000   1.0000

          k =-0.0000 0.0000 0.0770 (  3892 PWs)   bands (ev):

  -115.9172 -70.2757 -70.2757 -70.2720 -65.3317 -32.3165 -32.3042 -32.3042
   -10.4797  -9.5795   1.6131   1.6131   1.7282   2.5220   2.6759   2.6759
     5.7458   5.7458   6.3391   6.8039   6.8039

     occupation numbers 
     1.0000   1.0000   1.0000   1.0000   1.0000   1.0000   1.0000   1.0000
     1.0000   1.0000   1.0000   1.0000   1.0000   1.0000   1.0000   1.0000
     1.0000   1.0000   1.0000   1.0000   1.0000

          k =-0.0000 0.0000 0.1540 (  3844 PWs)   bands (ev):

  -115.9172 -70.2756 -70.2756 -70.2719 -65.3317 -32.3165 -32.3042 -32.3042
   -10.4267  -9.6411   1.5947   1.6124   1.6124   2.6711   2.6711   2.7847
     5.7722   5.7722   5.9215   6.7865   6.7865

     occupation numbers 
     1.0000   1.0000   1.0000   1.0000   1.0000   1.0000   1.0000   1.0000
     1.0000   1.0000   1.0000   1.0000   1.0000   1.0000   1.0000   1.0000
     1.0000   1.0000   1.0000   1.0000   1.0000

          k =-0.0000 0.0000 0.2310 (  3838 PWs)   bands (ev):

  -115.9172 -70.2756 -70.2756 -70.2719 -65.3317 -32.3165 -32.3042 -32.3042
   -10.3640  -9.7124   1.5028   1.6116   1.6116   2.6663   2.6663   3.0271
     5.5626   5.7994   5.7994   6.7682   6.7682

     occupation numbers 
     1.0000   1.0000   1.0000   1.0000   1.0000   1.0000   1.0000   1.0000
     1.0000   1.0000   1.0000   1.0000   1.0000   1.0000   1.0000   1.0000
     1.0000   1.0000   1.0000   1.0000   1.0000

          k = 0.0000-0.0000-0.3080 (  3880 PWs)   bands (ev):

  -115.9172 -70.2756 -70.2756 -70.2719 -65.3317 -32.3165 -32.3042 -32.3042
   -10.3336  -9.7464   1.4712   1.6113   1.6113   2.6643   2.6643   3.1301
     5.4184   5.8109   5.8109   6.7603   6.7603

     occupation numbers 
     1.0000   1.0000   1.0000   1.0000   1.0000   1.0000   1.0000   1.0000
     1.0000   1.0000   1.0000   1.0000   1.0000   1.0000   1.0000   1.0000
     1.0000   1.0000   1.0000   1.0000   1.0000

          k =-0.0000 0.1443 0.0000 (  3893 PWs)   bands (ev):

  -115.9172 -70.2760 -70.2758 -70.2719 -65.3314 -32.3160 -32.3088 -32.3053
   -10.4155  -9.5135   1.5597   1.6730   1.9131   2.4070   2.6746   2.7375
     5.3085   5.6449   6.0765   6.5022   6.6937

     occupation numbers 
     1.0000   1.0000   1.0000   1.0000   1.0000   1.0000   1.0000   1.0000
     1.0000   1.0000   1.0000   1.0000   1.0000   1.0000   1.0000   1.0000
     1.0000   1.0000   1.0000   1.0000   1.0000

          k =-0.0000 0.1443 0.0770 (  3884 PWs)   bands (ev):

  -115.9172 -70.2760 -70.2758 -70.2719 -65.3314 -32.3161 -32.3088 -32.3053
   -10.3972  -9.5346   1.5544   1.6720   1.8174   2.4778   2.6729   2.8096
     5.3015   5.6658   5.9620   6.5232   6.6746

     occupation numbers 
     1.0000   1.0000   1.0000   1.0000   1.0000   1.0000   1.0000   1.0000
     1.0000   1.0000   1.0000   1.0000   1.0000   1.0000   1.0000   1.0000
     1.0000   1.0000   1.0000   1.0000   1.0000

          k =-0.0000 0.1443 0.1540 (  3880 PWs)   bands (ev):

  -115.9172 -70.2760 -70.2758 -70.2719 -65.3314 -32.3161 -32.3087 -32.3053
   -10.3486  -9.5898   1.5364   1.6707   1.6802   2.5259   2.6682   3.0197
     5.2748   5.7039   5.7967   6.4828   6.6431

     occupation numbers 
     1.0000   1.0000   1.0000   1.0000   1.0000   1.0000   1.0000   1.0000
     1.0000   1.0000   1.0000   1.0000   1.0000   1.0000   1.0000   1.0000
     1.0000   1.0000   1.0000   1.0000   1.0000

          k =-0.0000 0.1443 0.2310 (  3874 PWs)   bands (ev):

  -115.9172 -70.2760 -70.2757 -70.2719 -65.3314 -32.3161 -32.3087 -32.3053
   -10.2918  -9.6533   1.4987   1.6093   1.6698   2.5329   2.6633   3.2373
     5.1857   5.7357   5.7376   6.4049   6.6168

     occupation numbers 
     1.0000   1.0000   1.0000   1.0000   1.0000   1.0000   1.0000   1.0000
     1.0000   1.0000   1.0000   1.0000   1.0000   1.0000   1.0000   1.0000
     1.0000   1.0000   1.0000   1.0000   1.0000

          k = 0.0000 0.1443-0.3080 (  3878 PWs)   bands (ev):

  -115.9172 -70.2760 -70.2757 -70.2719 -65.3314 -32.3161 -32.3088 -32.3053
   -10.2647  -9.6832   1.4805   1.5898   1.6700   2.5328   2.6611   3.3241
     5.1473   5.7351   5.7451   6.3507   6.6133

     occupation numbers 
     1.0000   1.0000   1.0000   1.0000   1.0000   1.0000   1.0000   1.0000
     1.0000   1.0000   1.0000   1.0000   1.0000   1.0000   1.0000   1.0000
     1.0000   1.0000   1.0000   1.0000   1.0000

          k = 0.0000 0.1443-0.2310 (  3874 PWs)   bands (ev):

  -115.9172 -70.2760 -70.2757 -70.2719 -65.3314 -32.3161 -32.3087 -32.3053
   -10.2918  -9.6533   1.5125   1.5965   1.6710   2.5335   2.6627   3.2234
     5.2443   5.7213   5.7226   6.3660   6.6354

     occupation numbers 
     1.0000   1.0000   1.0000   1.0000   1.0000   1.0000   1.0000   1.0000
     1.0000   1.0000   1.0000   1.0000   1.0000   1.0000   1.0000   1.0000
     1.0000   1.0000   1.0000   1.0000   1.0000

          k = 0.0000 0.1443-0.1540 (  3880 PWs)   bands (ev):

  -115.9172 -70.2760 -70.2758 -70.2719 -65.3314 -32.3161 -32.3087 -32.3053
   -10.3486  -9.5899   1.5491   1.6703   1.6723   2.5253   2.6674   3.0040
     5.3425   5.6824   5.7961   6.4206   6.6678

     occupation numbers 
     1.0000   1.0000   1.0000   1.0000   1.0000   1.0000   1.0000   1.0000
     1.0000   1.0000   1.0000   1.0000   1.0000   1.0000   1.0000   1.0000
     1.0000   1.0000   1.0000   1.0000   1.0000

          k = 0.0000 0.1443-0.0770 (  3884 PWs)   bands (ev):

  -115.9172 -70.2760 -70.2758 -70.2719 -65.3314 -32.3161 -32.3087 -32.3053
   -10.3971  -9.5347   1.5584   1.6731   1.8176   2.4734   2.6723   2.8020
     5.3331   5.6516   5.9895   6.4652   6.6911

     occupation numbers 
     1.0000   1.0000   1.0000   1.0000   1.0000   1.0000   1.0000   1.0000
     1.0000   1.0000   1.0000   1.0000   1.0000   1.0000   1.0000   1.0000
     1.0000   1.0000   1.0000   1.0000   1.0000

          k =-0.0000 0.2887 0.0000 (  3893 PWs)   bands (ev):

  -115.9172 -70.2768 -70.2760 -70.2718 -65.3306 -32.3210 -32.3137 -32.3079
   -10.2025  -9.4128   1.4632   1.8183   2.1043   2.4215   2.6849   3.0061
     4.4119   5.1155   5.4021   6.2399   6.4308

     occupation numbers 
     1.0000   1.0000   1.0000   1.0000   1.0000   1.0000   1.0000   1.0000
     1.0000   1.0000   1.0000   1.0000   1.0000   1.0000   1.0000   1.0000
     1.0000   1.0000   1.0000   1.0000   1.0000

          k =-0.0000 0.2887 0.0770 (  3876 PWs)   bands (ev):

  -115.9172 -70.2768 -70.2760 -70.2718 -65.3306 -32.3210 -32.3137 -32.3079
   -10.1887  -9.4273   1.4533   1.8161   1.9971   2.4190   2.6838   3.1668
     4.3714   5.0950   5.4334   6.2802   6.3992

     occupation numbers 
     1.0000   1.0000   1.0000   1.0000   1.0000   1.0000   1.0000   1.0000
     1.0000   1.0000   1.0000   1.0000   1.0000   1.0000   1.0000   1.0000
     1.0000   1.0000   1.0000   1.0000   1.0000

          k =-0.0000 0.2887 0.1540 (  3875 PWs)   bands (ev):

  -115.9172 -70.2768 -70.2760 -70.2718 -65.3306 -32.3210 -32.3138 -32.3079
   -10.1528  -9.4649   1.4240   1.8132   1.8508   2.3908   2.6799   3.4019
     4.3553   5.1433   5.4940   6.2438   6.3409

     occupation numbers 
     1.0000   1.0000   1.0000   1.0000   1.0000   1.0000   1.0000   1.0000
     1.0000   1.0000   1.0000   1.0000   1.0000   1.0000   1.0000   1.0000
     1.0000   1.0000   1.0000   1.0000   1.0000

          k =-0.0000 0.2887 0.2310 (  3875 PWs)   bands (ev):

  -115.9172 -70.2768 -70.2760 -70.2718 -65.3306 -32.3210 -32.3138 -32.3079
   -10.1124  -9.5072   1.3897   1.7533   1.8111   2.3641   2.6754   3.5548
     4.3505   5.3218   5.5522   6.0894   6.2860

     occupation numbers 
     1.0000   1.0000   1.0000   1.0000   1.0000   1.0000   1.0000   1.0000
     1.0000   1.0000   1.0000   1.0000   1.0000   1.0000   1.0000   1.0000
     1.0000   1.0000   1.0000   1.0000   1.0000

          k = 0.0000 0.2887-0.3080 (  3878 PWs)   bands (ev):

  -115.9172 -70.2768 -70.2760 -70.2718 -65.3306 -32.3210 -32.3138 -32.3079
   -10.0938  -9.5265   1.3790   1.7192   1.8112   2.3541   2.6731   3.5502
     4.4317   5.4808   5.5667   5.9045   6.2741

     occupation numbers 
     1.0000   1.0000   1.0000   1.0000   1.0000   1.0000   1.0000   1.0000
     1.0000   1.0000   1.0000   1.0000   1.0000   1.0000   1.0000   1.0000
     1.0000   1.0000   1.0000   1.0000   1.0000

          k = 0.0000 0.2887-0.2310 (  3875 PWs)   bands (ev):

  -115.9172 -70.2768 -70.2760 -70.2718 -65.3306 -32.3210 -32.3138 -32.3079
   -10.1122  -9.5074   1.4003   1.7546   1.8133   2.3632   2.6741   3.4260
     4.5789   5.3054   5.5253   5.9755   6.3158

     occupation numbers 
     1.0000   1.0000   1.0000   1.0000   1.0000   1.0000   1.0000   1.0000
     1.0000   1.0000   1.0000   1.0000   1.0000   1.0000   1.0000   1.0000
     1.0000   1.0000   1.0000   1.0000   1.0000

          k = 0.0000 0.2887-0.1540 (  3875 PWs)   bands (ev):

  -115.9172 -70.2768 -70.2760 -70.2718 -65.3306 -32.3210 -32.3138 -32.3079
   -10.1526  -9.4652   1.4321   1.8163   1.8710   2.3835   2.6779   3.2459
     4.6566   5.0857   5.4613   6.1076   6.3777

     occupation numbers 
     1.0000   1.0000   1.0000   1.0000   1.0000   1.0000   1.0000   1.0000
     1.0000   1.0000   1.0000   1.0000   1.0000   1.0000   1.0000   1.0000
     1.0000   1.0000   1.0000   1.0000   1.0000

          k = 0.0000 0.2887-0.0770 (  3876 PWs)   bands (ev):

  -115.9172 -70.2768 -70.2760 -70.2718 -65.3306 -32.3210 -32.3137 -32.3079
   -10.1885  -9.4275   1.4549   1.8183   2.0344   2.4028   2.6824   3.0649
     4.5317   5.0910   5.4129   6.1843   6.4226

     occupation numbers 
     1.0000   1.0000   1.0000   1.0000   1.0000   1.0000   1.0000   1.0000
     1.0000   1.0000   1.0000   1.0000   1.0000   1.0000   1.0000   1.0000
     1.0000   1.0000   1.0000   1.0000   1.0000

          k =-0.0000 0.4330 0.0000 (  3877 PWs)   bands (ev):

  -115.9171 -70.2776 -70.2762 -70.2717 -65.3299 -32.3321 -32.3126 -32.3104
    -9.9708  -9.3177   1.4322   1.9555   2.2467   2.4221   2.7430   3.1687
     3.8891   4.4755   5.1070   5.7975   6.1985

     occupation numbers 
     1.0000   1.0000   1.0000   1.0000   1.0000   1.0000   1.0000   1.0000
     1.0000   1.0000   1.0000   1.0000   1.0000   1.0000   1.0000   1.0000
     1.0000   1.0000   1.0000   1.0000   1.0000

          k =-0.0000 0.4330 0.0770 (  3877 PWs)   bands (ev):

  -115.9171 -70.2776 -70.2762 -70.2717 -65.3299 -32.3321 -32.3126 -32.3104
    -9.9634  -9.3238   1.4253   1.9523   2.1441   2.3815   2.7426   3.3345
     3.8308   4.4766   5.1406   5.8990   6.1638

     occupation numbers 
     1.0000   1.0000   1.0000   1.0000   1.0000   1.0000   1.0000   1.0000
     1.0000   1.0000   1.0000   1.0000   1.0000   1.0000   1.0000   1.0000
     1.0000   1.0000   1.0000   1.0000   1.0000

          k =-0.0000 0.4330 0.1540 (  3873 PWs)   bands (ev):

  -115.9171 -70.2776 -70.2762 -70.2717 -65.3299 -32.3321 -32.3126 -32.3104
    -9.9447  -9.3392   1.3885   1.9465   2.0131   2.3239   2.7404   3.3597
     3.8800   4.6504   5.2155   5.9987   6.0879

     occupation numbers 
     1.0000   1.0000   1.0000   1.0000   1.0000   1.0000   1.0000   1.0000
     1.0000   1.0000   1.0000   1.0000   1.0000   1.0000   1.0000   1.0000
     1.0000   1.0000   1.0000   1.0000   1.0000

          k =-0.0000 0.4330 0.2310 (  3879 PWs)   bands (ev):

  -115.9171 -70.2776 -70.2762 -70.2717 -65.3299 -32.3321 -32.3127 -32.3104
    -9.9247  -9.3560   1.3433   1.9175   1.9417   2.2863   2.7376   3.3140
     3.9111   4.9491   5.2971   6.0017   6.0060

     occupation numbers 
     1.0000   1.0000   1.0000   1.0000   1.0000   1.0000   1.0000   1.0000
     1.0000   1.0000   1.0000   1.0000   1.0000   1.0000   1.0000   1.0000
     1.0000   1.0000   1.0000   1.0000   1.0000

          k = 0.0000 0.4330-0.3080 (  3876 PWs)   bands (ev):

  -115.9171 -70.2776 -70.2762 -70.2717 -65.3299 -32.3321 -32.3127 -32.3104
    -9.9160  -9.3634   1.3219   1.8935   1.9405   2.2762   2.7360   3.2284
     3.9874   5.1269   5.3275   5.9210   5.9762

     occupation numbers 
     1.0000   1.0000   1.0000   1.0000   1.0000   1.0000   1.0000   1.0000
     1.0000   1.0000   1.0000   1.0000   1.0000   1.0000   1.0000   1.0000
     1.0000   1.0000   1.0000   1.0000   1.0000

          k = 0.0000 0.4330-0.2310 (  3879 PWs)   bands (ev):

  -115.9171 -70.2776 -70.2762 -70.2717 -65.3299 -32.3321 -32.3127 -32.3104
    -9.9245  -9.3563   1.3363   1.9437   1.9615   2.2881   2.7363   3.1296
     4.1071   4.9987   5.2773   5.8762   6.0276

     occupation numbers 
     1.0000   1.0000   1.0000   1.0000   1.0000   1.0000   1.0000   1.0000
     1.0000   1.0000   1.0000   1.0000   1.0000   1.0000   1.0000   1.0000
     1.0000   1.0000   1.0000   1.0000   1.0000

          k = 0.0000 0.4330-0.1540 (  3873 PWs)   bands (ev):

  -115.9171 -70.2776 -70.2762 -70.2717 -65.3299 -32.3321 -32.3126 -32.3104
    -9.9444  -9.3397   1.3726   1.9494   2.1185   2.3127   2.7385   3.0454
     4.2185   4.6728   5.1928   5.8404   6.1132

     occupation numbers 
     1.0000   1.0000   1.0000   1.0000   1.0000   1.0000   1.0000   1.0000
     1.0000   1.0000   1.0000   1.0000   1.0000   1.0000   1.0000   1.0000
     1.0000   1.0000   1.0000   1.0000   1.0000

          k = 0.0000 0.4330-0.0770 (  3877 PWs)   bands (ev):

  -115.9171 -70.2776 -70.2762 -70.2717 -65.3299 -32.3321 -32.3126 -32.3104
    -9.9632  -9.3241   1.4104   1.9543   2.2625   2.3669   2.7413   3.0292
     4.1261   4.4887   5.1268   5.7862   6.1794

     occupation numbers 
     1.0000   1.0000   1.0000   1.0000   1.0000   1.0000   1.0000   1.0000
     1.0000   1.0000   1.0000   1.0000   1.0000   1.0000   1.0000   1.0000
     1.0000   1.0000   1.0000   1.0000   1.0000

          k = 0.0000-0.5774-0.0000 (  3864 PWs)   bands (ev):

  -115.9171 -70.2779 -70.2763 -70.2717 -65.3296 -32.3367 -32.3120 -32.3115
    -9.8673  -9.2818   1.4521   2.0050   2.3163   2.4836   2.7925   2.8019
     4.1204   4.3049   4.9624   5.4634   6.1115

     occupation numbers 
     1.0000   1.0000   1.0000   1.0000   1.0000   1.0000   1.0000   1.0000
     1.0000   1.0000   1.0000   1.0000   1.0000   1.0000   1.0000   1.0000
     1.0000   1.0000   1.0000   1.0000   1.0000

          k =-0.0000-0.5774 0.0770 (  3868 PWs)   bands (ev):

  -115.9171 -70.2779 -70.2763 -70.2717 -65.3296 -32.3367 -32.3120 -32.3115
    -9.8635  -9.2835   1.4325   2.0021   2.2949   2.4189   2.7918   2.8002
     4.0885   4.4139   4.9906   5.5555   6.0826

     occupation numbers 
     1.0000   1.0000   1.0000   1.0000   1.0000   1.0000   1.0000   1.0000
     1.0000   1.0000   1.0000   1.0000   1.0000   1.0000   1.0000   1.0000
     1.0000   1.0000   1.0000   1.0000   1.0000

          k =-0.0000-0.5774 0.1540 (  3884 PWs)   bands (ev):

  -115.9171 -70.2780 -70.2763 -70.2717 -65.3296 -32.3367 -32.3121 -32.3115
    -9.8540  -9.2876   1.3849   1.9952   2.1716   2.3698   2.7901   2.7959
     3.9953   4.6938   5.0652   5.7429   6.0063

     occupation numbers 
     1.0000   1.0000   1.0000   1.0000   1.0000   1.0000   1.0000   1.0000
     1.0000   1.0000   1.0000   1.0000   1.0000   1.0000   1.0000   1.0000
     1.0000   1.0000   1.0000   1.0000   1.0000

          k =-0.0000-0.5774 0.2310 (  3894 PWs)   bands (ev):

  -115.9171 -70.2780 -70.2763 -70.2717 -65.3296 -32.3367 -32.3121 -32.3115
    -9.8443  -9.2919   1.3366   1.9883   2.0361   2.3649   2.7885   2.7918
     3.9174   4.9683   5.1536   5.8883   5.9161

     occupation numbers 
     1.0000   1.0000   1.0000   1.0000   1.0000   1.0000   1.0000   1.0000
     1.0000   1.0000   1.0000   1.0000   1.0000   1.0000   1.0000   1.0000
     1.0000   1.0000   1.0000   1.0000   1.0000

          k = 0.0000-0.5774-0.3080 (  3868 PWs)   bands (ev):

  -115.9171 -70.2779 -70.2763 -70.2717 -65.3296 -32.3367 -32.3121 -32.3115
    -9.8402  -9.2938   1.3164   1.9845   1.9855   2.3650   2.7879   2.7901
     3.8894   5.0839   5.1969   5.8722   5.9357

     occupation numbers 
     1.0000   1.0000   1.0000   1.0000   1.0000   1.0000   1.0000   1.0000
     1.0000   1.0000   1.0000   1.0000   1.0000   1.0000   1.0000   1.0000
     1.0000   1.0000   1.0000   1.0000   1.0000

          k = 0.1250 0.0722-0.0000 (  3893 PWs)   bands (ev):

  -115.9172 -70.2760 -70.2758 -70.2719 -65.3314 -32.3160 -32.3088 -32.3053
   -10.4155  -9.5135   1.5597   1.6730   1.9131   2.4070   2.6746   2.7375
     5.3085   5.6449   6.0765   6.5022   6.6937

     occupation numbers 
     1.0000   1.0000   1.0000   1.0000   1.0000   1.0000   1.0000   1.0000
     1.0000   1.0000   1.0000   1.0000   1.0000   1.0000   1.0000   1.0000
     1.0000   1.0000   1.0000   1.0000   1.0000

          k = 0.1250 0.0722 0.0770 (  3884 PWs)   bands (ev):

  -115.9172 -70.2760 -70.2758 -70.2719 -65.3314 -32.3161 -32.3088 -32.3053
   -10.3971  -9.5347   1.5584   1.6731   1.8176   2.4734   2.6723   2.8020
     5.3331   5.6516   5.9895   6.4652   6.6911

     occupation numbers 
     1.0000   1.0000   1.0000   1.0000   1.0000   1.0000   1.0000   1.0000
     1.0000   1.0000   1.0000   1.0000   1.0000   1.0000   1.0000   1.0000
     1.0000   1.0000   1.0000   1.0000   1.0000

          k = 0.1250 0.0722 0.1540 (  3880 PWs)   bands (ev):

  -115.9172 -70.2760 -70.2758 -70.2719 -65.3314 -32.3161 -32.3087 -32.3053
   -10.3486  -9.5899   1.5491   1.6703   1.6723   2.5253   2.6674   3.0040
     5.3425   5.6824   5.7961   6.4206   6.6678

     occupation numbers 
     1.0000   1.0000   1.0000   1.0000   1.0000   1.0000   1.0000   1.0000
     1.0000   1.0000   1.0000   1.0000   1.0000   1.0000   1.0000   1.0000
     1.0000   1.0000   1.0000   1.0000   1.0000

          k = 0.1250 0.0722 0.2310 (  3874 PWs)   bands (ev):

  -115.9172 -70.2760 -70.2757 -70.2719 -65.3314 -32.3161 -32.3087 -32.3053
   -10.2918  -9.6533   1.5125   1.5965   1.6710   2.5335   2.6627   3.2234
     5.2443   5.7213   5.7226   6.3660   6.6354

     occupation numbers 
     1.0000   1.0000   1.0000   1.0000   1.0000   1.0000   1.0000   1.0000
     1.0000   1.0000   1.0000   1.0000   1.0000   1.0000   1.0000   1.0000
     1.0000   1.0000   1.0000   1.0000   1.0000

          k = 0.1250 0.0722-0.3080 (  3878 PWs)   bands (ev):

  -115.9172 -70.2760 -70.2757 -70.2719 -65.3314 -32.3161 -32.3088 -32.3053
   -10.2647  -9.6832   1.4805   1.5898   1.6700   2.5328   2.6611   3.3241
     5.1473   5.7351   5.7451   6.3507   6.6133

     occupation numbers 
     1.0000   1.0000   1.0000   1.0000   1.0000   1.0000   1.0000   1.0000
     1.0000   1.0000   1.0000   1.0000   1.0000   1.0000   1.0000   1.0000
     1.0000   1.0000   1.0000   1.0000   1.0000

          k = 0.1250 0.0722-0.2310 (  3874 PWs)   bands (ev):

  -115.9172 -70.2760 -70.2757 -70.2719 -65.3314 -32.3161 -32.3087 -32.3053
   -10.2918  -9.6533   1.4987   1.6093   1.6698   2.5329   2.6633   3.2373
     5.1857   5.7357   5.7376   6.4049   6.6168

     occupation numbers 
     1.0000   1.0000   1.0000   1.0000   1.0000   1.0000   1.0000   1.0000
     1.0000   1.0000   1.0000   1.0000   1.0000   1.0000   1.0000   1.0000
     1.0000   1.0000   1.0000   1.0000   1.0000

          k = 0.1250 0.0722-0.1540 (  3880 PWs)   bands (ev):

  -115.9172 -70.2760 -70.2758 -70.2719 -65.3314 -32.3161 -32.3087 -32.3053
   -10.3486  -9.5898   1.5364   1.6707   1.6802   2.5259   2.6682   3.0197
     5.2748   5.7039   5.7967   6.4828   6.6431

     occupation numbers 
     1.0000   1.0000   1.0000   1.0000   1.0000   1.0000   1.0000   1.0000
     1.0000   1.0000   1.0000   1.0000   1.0000   1.0000   1.0000   1.0000
     1.0000   1.0000   1.0000   1.0000   1.0000

          k = 0.1250 0.0722-0.0770 (  3884 PWs)   bands (ev):

  -115.9172 -70.2760 -70.2758 -70.2719 -65.3314 -32.3161 -32.3088 -32.3053
   -10.3972  -9.5346   1.5544   1.6720   1.8174   2.4778   2.6729   2.8096
     5.3015   5.6658   5.9620   6.5232   6.6746

     occupation numbers 
     1.0000   1.0000   1.0000   1.0000   1.0000   1.0000   1.0000   1.0000
     1.0000   1.0000   1.0000   1.0000   1.0000   1.0000   1.0000   1.0000
     1.0000   1.0000   1.0000   1.0000   1.0000

          k = 0.1250 0.2165 0.0000 (  3883 PWs)   bands (ev):

  -115.9172 -70.2766 -70.2759 -70.2718 -65.3308 -32.3178 -32.3136 -32.3076
   -10.2667  -9.4419   1.5207   1.7294   2.0652   2.4245   2.6651   2.9275
     4.7613   5.1452   5.6187   6.2883   6.4692

     occupation numbers 
     1.0000   1.0000   1.0000   1.0000   1.0000   1.0000   1.0000   1.0000
     1.0000   1.0000   1.0000   1.0000   1.0000   1.0000   1.0000   1.0000
     1.0000   1.0000   1.0000   1.0000   1.0000

          k = 0.1250 0.2165 0.0770 (  3878 PWs)   bands (ev):

  -115.9172 -70.2765 -70.2759 -70.2718 -65.3308 -32.3178 -32.3136 -32.3076
   -10.2514  -9.4586   1.5140   1.7217   1.9762   2.4330   2.6640   3.0366
     4.7725   5.1723   5.5902   6.2778   6.4511

     occupation numbers 
     1.0000   1.0000   1.0000   1.0000   1.0000   1.0000   1.0000   1.0000
     1.0000   1.0000   1.0000   1.0000   1.0000   1.0000   1.0000   1.0000
     1.0000   1.0000   1.0000   1.0000   1.0000

          k = 0.1250 0.2165 0.1540 (  3876 PWs)   bands (ev):

  -115.9172 -70.2765 -70.2759 -70.2718 -65.3308 -32.3178 -32.3136 -32.3076
   -10.2114  -9.5018   1.4920   1.6921   1.8495   2.4270   2.6601   3.2596
     4.7609   5.2788   5.5580   6.2231   6.3941

     occupation numbers 
     1.0000   1.0000   1.0000   1.0000   1.0000   1.0000   1.0000   1.0000
     1.0000   1.0000   1.0000   1.0000   1.0000   1.0000   1.0000   1.0000
     1.0000   1.0000   1.0000   1.0000   1.0000

          k = 0.1250 0.2165 0.2310 (  3873 PWs)   bands (ev):

  -115.9172 -70.2765 -70.2759 -70.2718 -65.3308 -32.3178 -32.3136 -32.3076
   -10.1658  -9.5506   1.4575   1.6481   1.7943   2.4125   2.6556   3.4541
     4.6974   5.4520   5.5904   6.0965   6.3203

     occupation numbers 
     1.0000   1.0000   1.0000   1.0000   1.0000   1.0000   1.0000   1.0000
     1.0000   1.0000   1.0000   1.0000   1.0000   1.0000   1.0000   1.0000
     1.0000   1.0000   1.0000   1.0000   1.0000

          k = 0.1250 0.2165-0.3080 (  3872 PWs)   bands (ev):

  -115.9172 -70.2765 -70.2759 -70.2718 -65.3308 -32.3178 -32.3136 -32.3076
   -10.1447  -9.5731   1.4388   1.6306   1.7826   2.4057   2.6538   3.5316
     4.6585   5.5159   5.6950   5.9717   6.2874

     occupation numbers 
     1.0000   1.0000   1.0000   1.0000   1.0000   1.0000   1.0000   1.0000
     1.0000   1.0000   1.0000   1.0000   1.0000   1.0000   1.0000   1.0000
     1.0000   1.0000   1.0000   1.0000   1.0000

          k = 0.1250 0.2165-0.2310 (  3873 PWs)   bands (ev):

  -115.9172 -70.2765 -70.2759 -70.2718 -65.3308 -32.3178 -32.3136 -32.3076
   -10.1658  -9.5506   1.4575   1.6481   1.7943   2.4125   2.6556   3.4541
     4.6974   5.4520   5.5904   6.0965   6.3203

     occupation numbers 
     1.0000   1.0000   1.0000   1.0000   1.0000   1.0000   1.0000   1.0000
     1.0000   1.0000   1.0000   1.0000   1.0000   1.0000   1.0000   1.0000
     1.0000   1.0000   1.0000   1.0000   1.0000

          k = 0.1250 0.2165-0.1540 (  3876 PWs)   bands (ev):

  -115.9172 -70.2765 -70.2759 -70.2718 -65.3308 -32.3178 -32.3136 -32.3076
   -10.2114  -9.5018   1.4920   1.6921   1.8495   2.4270   2.6601   3.2596
     4.7609   5.2788   5.5580   6.2231   6.3941

     occupation numbers 
     1.0000   1.0000   1.0000   1.0000   1.0000   1.0000   1.0000   1.0000
     1.0000   1.0000   1.0000   1.0000   1.0000   1.0000   1.0000   1.0000
     1.0000   1.0000   1.0000   1.0000   1.0000

          k = 0.1250 0.2165-0.0770 (  3878 PWs)   bands (ev):

  -115.9172 -70.2765 -70.2759 -70.2718 -65.3308 -32.3178 -32.3136 -32.3076
   -10.2514  -9.4586   1.5140   1.7217   1.9762   2.4330   2.6640   3.0366
     4.7726   5.1723   5.5902   6.2778   6.4511

     occupation numbers 
     1.0000   1.0000   1.0000   1.0000   1.0000   1.0000   1.0000   1.0000
     1.0000   1.0000   1.0000   1.0000   1.0000   1.0000   1.0000   1.0000
     1.0000   1.0000   1.0000   1.0000   1.0000

          k = 0.1250 0.3608 0.0000 (  3861 PWs)   bands (ev):

  -115.9171 -70.2773 -70.2762 -70.2717 -65.3301 -32.3272 -32.3130 -32.3112
   -10.0424  -9.3444   1.5109   1.8424   2.2016   2.4322   2.6828   3.3278
     4.0365   4.5120   5.1668   5.9177   6.1479

     occupation numbers 
     1.0000   1.0000   1.0000   1.0000   1.0000   1.0000   1.0000   1.0000
     1.0000   1.0000   1.0000   1.0000   1.0000   1.0000   1.0000   1.0000
     1.0000   1.0000   1.0000   1.0000   1.0000

          k = 0.1250 0.3608 0.0770 (  3861 PWs)   bands (ev):

  -115.9171 -70.2773 -70.2762 -70.2717 -65.3301 -32.3272 -32.3130 -32.3112
   -10.0328  -9.3533   1.5049   1.8279   2.1231   2.4047   2.6861   3.4648
     3.9649   4.5910   5.1591   5.9651   6.1255

     occupation numbers 
     1.0000   1.0000   1.0000   1.0000   1.0000   1.0000   1.0000   1.0000
     1.0000   1.0000   1.0000   1.0000   1.0000   1.0000   1.0000   1.0000
     1.0000   1.0000   1.0000   1.0000   1.0000

          k = 0.1250 0.3608 0.1540 (  3871 PWs)   bands (ev):

  -115.9171 -70.2773 -70.2762 -70.2717 -65.3301 -32.3272 -32.3130 -32.3112
   -10.0081  -9.3763   1.4745   1.7971   2.0114   2.3507   2.6876   3.5761
     3.9638   4.8064   5.1794   5.9392   6.1116

     occupation numbers 
     1.0000   1.0000   1.0000   1.0000   1.0000   1.0000   1.0000   1.0000
     1.0000   1.0000   1.0000   1.0000   1.0000   1.0000   1.0000   1.0000
     1.0000   1.0000   1.0000   1.0000   1.0000

          k = 0.1250 0.3608 0.2310 (  3880 PWs)   bands (ev):

  -115.9171 -70.2773 -70.2762 -70.2718 -65.3301 -32.3272 -32.3130 -32.3112
    -9.9814  -9.4013   1.4338   1.7626   1.9402   2.3109   2.6869   3.6086
     3.9842   5.0781   5.2501   5.8710   6.0444

     occupation numbers 
     1.0000   1.0000   1.0000   1.0000   1.0000   1.0000   1.0000   1.0000
     1.0000   1.0000   1.0000   1.0000   1.0000   1.0000   1.0000   1.0000
     1.0000   1.0000   1.0000   1.0000   1.0000

          k = 0.1250 0.3608-0.3080 (  3876 PWs)   bands (ev):

  -115.9171 -70.2773 -70.2762 -70.2718 -65.3301 -32.3272 -32.3130 -32.3112
    -9.9696  -9.4125   1.4148   1.7502   1.9199   2.2968   2.6861   3.5492
     4.0711   5.1729   5.3428   5.8200   5.9708

     occupation numbers 
     1.0000   1.0000   1.0000   1.0000   1.0000   1.0000   1.0000   1.0000
     1.0000   1.0000   1.0000   1.0000   1.0000   1.0000   1.0000   1.0000
     1.0000   1.0000   1.0000   1.0000   1.0000

          k = 0.1250 0.3608-0.2310 (  3880 PWs)   bands (ev):

  -115.9171 -70.2773 -70.2762 -70.2718 -65.3301 -32.3272 -32.3130 -32.3112
    -9.9813  -9.4015   1.4313   1.7753   1.9472   2.3078   2.6861   3.4470
     4.1944   5.0457   5.2814   5.7836   6.0589

     occupation numbers 
     1.0000   1.0000   1.0000   1.0000   1.0000   1.0000   1.0000   1.0000
     1.0000   1.0000   1.0000   1.0000   1.0000   1.0000   1.0000   1.0000
     1.0000   1.0000   1.0000   1.0000   1.0000

          k = 0.1250 0.3608-0.1540 (  3871 PWs)   bands (ev):

  -115.9171 -70.2773 -70.2762 -70.2717 -65.3301 -32.3272 -32.3130 -32.3112
   -10.0080  -9.3765   1.4655   1.8155   2.0410   2.3390   2.6861   3.3459
     4.2891   4.7480   5.1787   5.8456   6.1272

     occupation numbers 
     1.0000   1.0000   1.0000   1.0000   1.0000   1.0000   1.0000   1.0000
     1.0000   1.0000   1.0000   1.0000   1.0000   1.0000   1.0000   1.0000
     1.0000   1.0000   1.0000   1.0000   1.0000

          k = 0.1250 0.3608-0.0770 (  3861 PWs)   bands (ev):

  -115.9171 -70.2773 -70.2762 -70.2717 -65.3301 -32.3272 -32.3130 -32.3112
   -10.0327  -9.3535   1.4956   1.8387   2.1680   2.3885   2.6841   3.2850
     4.2246   4.5264   5.1597   5.8862   6.1495

     occupation numbers 
     1.0000   1.0000   1.0000   1.0000   1.0000   1.0000   1.0000   1.0000
     1.0000   1.0000   1.0000   1.0000   1.0000   1.0000   1.0000   1.0000
     1.0000   1.0000   1.0000   1.0000   1.0000

          k = 0.1250 0.5052 0.0000 (  3863 PWs)   bands (ev):

  -115.9171 -70.2778 -70.2764 -70.2717 -65.3296 -32.3343 -32.3139 -32.3120
    -9.8707  -9.2809   1.5482   1.9798   2.2992   2.4615   2.7182   3.0552
     4.0644   4.3124   4.7782   5.5138   5.9037

     occupation numbers 
     1.0000   1.0000   1.0000   1.0000   1.0000   1.0000   1.0000   1.0000
     1.0000   1.0000   1.0000   1.0000   1.0000   1.0000   1.0000   1.0000
     1.0000   1.0000   1.0000   1.0000   1.0000

          k = 0.1250 0.5052 0.0770 (  3869 PWs)   bands (ev):

  -115.9171 -70.2778 -70.2764 -70.2717 -65.3296 -32.3343 -32.3139 -32.3120
    -9.8666  -9.2828   1.5388   1.9741   2.2281   2.4092   2.7381   3.0968
     3.9992   4.3923   4.8275   5.6192   5.8671

     occupation numbers 
     1.0000   1.0000   1.0000   1.0000   1.0000   1.0000   1.0000   1.0000
     1.0000   1.0000   1.0000   1.0000   1.0000   1.0000   1.0000   1.0000
     1.0000   1.0000   1.0000   1.0000   1.0000

          k = 0.1250 0.5052 0.1540 (  3873 PWs)   bands (ev):

[...]
    -9.8564  -9.2879   1.4799   1.9677   2.1938   2.3502   2.7318   2.9460
     4.0328   4.6573   4.9500   5.6249   5.8724

     occupation numbers 
     1.0000   1.0000   1.0000   1.0000   1.0000   1.0000   1.0000   1.0000
     1.0000   1.0000   1.0000   1.0000   1.0000   1.0000   1.0000   1.0000
     1.0000   1.0000   1.0000   1.0000   1.0000

          k =-0.5000-0.1443-0.0770 (  3869 PWs)   bands (ev):

  -115.9171 -70.2778 -70.2764 -70.2717 -65.3296 -32.3343 -32.3139 -32.3120
    -9.8665  -9.2829   1.5237   1.9770   2.3058   2.4235   2.7066   2.9734
     4.0824   4.4575   4.8003   5.5434   5.8889

     occupation numbers 
     1.0000   1.0000   1.0000   1.0000   1.0000   1.0000   1.0000   1.0000
     1.0000   1.0000   1.0000   1.0000   1.0000   1.0000   1.0000   1.0000
     1.0000   1.0000   1.0000   1.0000   1.0000

          k =-0.5000 0.0000 0.0000 (  3851 PWs)   bands (ev):

  -115.9171 -70.2775 -70.2767 -70.2717 -65.3296 -32.3312 -32.3171 -32.3120
    -9.8740  -9.2800   1.6836   1.9285   2.2250   2.4632   2.7357   3.4414
     3.7307   4.2919   4.7540   5.4882   5.7237

     occupation numbers 
     1.0000   1.0000   1.0000   1.0000   1.0000   1.0000   1.0000   1.0000
     1.0000   1.0000   1.0000   1.0000   1.0000   1.0000   1.0000   1.0000
     1.0000   1.0000   1.0000   1.0000   1.0000

          k =-0.5000 0.0000 0.0770 (  3863 PWs)   bands (ev):

  -115.9171 -70.2775 -70.2767 -70.2717 -65.3296 -32.3312 -32.3171 -32.3120
    -9.8697  -9.2823   1.6713   1.9189   2.1976   2.4118   2.7449   3.3794
     3.7437   4.4601   4.7442   5.4917   5.7485

     occupation numbers 
     1.0000   1.0000   1.0000   1.0000   1.0000   1.0000   1.0000   1.0000
     1.0000   1.0000   1.0000   1.0000   1.0000   1.0000   1.0000   1.0000
     1.0000   1.0000   1.0000   1.0000   1.0000

          k =-0.5000 0.0000 0.1540 (  3870 PWs)   bands (ev):

  -115.9171 -70.2775 -70.2767 -70.2717 -65.3296 -32.3312 -32.3171 -32.3120
    -9.8590  -9.2879   1.6391   1.8937   2.1198   2.3164   2.7613   3.3178
     3.7787   4.5903   4.9310   5.4299   5.8486

     occupation numbers 
     1.0000   1.0000   1.0000   1.0000   1.0000   1.0000   1.0000   1.0000
     1.0000   1.0000   1.0000   1.0000   1.0000   1.0000   1.0000   1.0000
     1.0000   1.0000   1.0000   1.0000   1.0000

          k =-0.5000 0.0000 0.2310 (  3868 PWs)   bands (ev):

  -115.9171 -70.2775 -70.2767 -70.2717 -65.3296 -32.3312 -32.3171 -32.3120
    -9.8481  -9.2938   1.6025   1.8639   2.0308   2.2598   2.7724   3.3065
     3.8048   4.6257   5.0965   5.4506   5.9326

     occupation numbers 
     1.0000   1.0000   1.0000   1.0000   1.0000   1.0000   1.0000   1.0000
     1.0000   1.0000   1.0000   1.0000   1.0000   1.0000   1.0000   1.0000
     1.0000   1.0000   1.0000   1.0000   1.0000

          k =-0.5000-0.0000-0.3080 (  3874 PWs)   bands (ev):

  -115.9171 -70.2775 -70.2767 -70.2717 -65.3296 -32.3312 -32.3171 -32.3121
    -9.8435  -9.2963   1.5857   1.8493   1.9956   2.2437   2.7759   3.3088
     3.8115   4.6630   5.0620   5.5515   5.9499

     occupation numbers 
     1.0000   1.0000   1.0000   1.0000   1.0000   1.0000   1.0000   1.0000
     1.0000   1.0000   1.0000   1.0000   1.0000   1.0000   1.0000   1.0000
     1.0000   1.0000   1.0000   1.0000   1.0000

          k =-0.5000-0.0000-0.2310 (  3868 PWs)   bands (ev):

  -115.9171 -70.2775 -70.2767 -70.2717 -65.3296 -32.3312 -32.3171 -32.3120
    -9.8481  -9.2938   1.6025   1.8639   2.0308   2.2598   2.7724   3.3065
     3.8048   4.6257   5.0965   5.4506   5.9326

     occupation numbers 
     1.0000   1.0000   1.0000   1.0000   1.0000   1.0000   1.0000   1.0000
     1.0000   1.0000   1.0000   1.0000   1.0000   1.0000   1.0000   1.0000
     1.0000   1.0000   1.0000   1.0000   1.0000

          k =-0.5000-0.0000-0.1540 (  3870 PWs)   bands (ev):

  -115.9171 -70.2775 -70.2767 -70.2717 -65.3296 -32.3312 -32.3171 -32.3120
    -9.8590  -9.2879   1.6391   1.8937   2.1198   2.3164   2.7613   3.3178
     3.7787   4.5903   4.9310   5.4299   5.8486

     occupation numbers 
     1.0000   1.0000   1.0000   1.0000   1.0000   1.0000   1.0000   1.0000
     1.0000   1.0000   1.0000   1.0000   1.0000   1.0000   1.0000   1.0000
     1.0000   1.0000   1.0000   1.0000   1.0000

          k =-0.5000-0.0000-0.0770 (  3863 PWs)   bands (ev):

  -115.9171 -70.2775 -70.2767 -70.2717 -65.3296 -32.3312 -32.3171 -32.3120
    -9.8697  -9.2823   1.6713   1.9189   2.1976   2.4118   2.7449   3.3794
     3.7437   4.4601   4.7442   5.4917   5.7485

     occupation numbers 
     1.0000   1.0000   1.0000   1.0000   1.0000   1.0000   1.0000   1.0000
     1.0000   1.0000   1.0000   1.0000   1.0000   1.0000   1.0000   1.0000
     1.0000   1.0000   1.0000   1.0000   1.0000

          k =-0.5000 0.1443 0.0000 (  3863 PWs)   bands (ev):

  -115.9171 -70.2778 -70.2764 -70.2717 -65.3296 -32.3343 -32.3139 -32.3120
    -9.8707  -9.2809   1.5482   1.9798   2.2992   2.4615   2.7182   3.0552
     4.0644   4.3124   4.7782   5.5138   5.9037

     occupation numbers 
     1.0000   1.0000   1.0000   1.0000   1.0000   1.0000   1.0000   1.0000
     1.0000   1.0000   1.0000   1.0000   1.0000   1.0000   1.0000   1.0000
     1.0000   1.0000   1.0000   1.0000   1.0000

          k =-0.5000 0.1443 0.0770 (  3869 PWs)   bands (ev):

  -115.9171 -70.2778 -70.2764 -70.2717 -65.3296 -32.3343 -32.3139 -32.3120
    -9.8665  -9.2829   1.5237   1.9770   2.3058   2.4235   2.7066   2.9734
     4.0824   4.4575   4.8003   5.5434   5.8889

     occupation numbers 
     1.0000   1.0000   1.0000   1.0000   1.0000   1.0000   1.0000   1.0000
     1.0000   1.0000   1.0000   1.0000   1.0000   1.0000   1.0000   1.0000
     1.0000   1.0000   1.0000   1.0000   1.0000

          k =-0.5000 0.1443 0.1540 (  3873 PWs)   bands (ev):

  -115.9171 -70.2778 -70.2764 -70.2717 -65.3296 -32.3343 -32.3139 -32.3120
    -9.8564  -9.2879   1.4799   1.9677   2.1938   2.3502   2.7318   2.9460
     4.0328   4.6573   4.9500   5.6249   5.8724

     occupation numbers 
     1.0000   1.0000   1.0000   1.0000   1.0000   1.0000   1.0000   1.0000
     1.0000   1.0000   1.0000   1.0000   1.0000   1.0000   1.0000   1.0000
     1.0000   1.0000   1.0000   1.0000   1.0000

          k =-0.5000 0.1443 0.2310 (  3875 PWs)   bands (ev):

  -115.9171 -70.2778 -70.2764 -70.2717 -65.3296 -32.3343 -32.3139 -32.3120
    -9.8461  -9.2930   1.4394   1.9546   2.0469   2.3230   2.7550   2.9677
     3.9551   4.8243   5.0922   5.6644   5.9145

     occupation numbers 
     1.0000   1.0000   1.0000   1.0000   1.0000   1.0000   1.0000   1.0000
     1.0000   1.0000   1.0000   1.0000   1.0000   1.0000   1.0000   1.0000
     1.0000   1.0000   1.0000   1.0000   1.0000

          k =-0.5000 0.1443-0.3080 (  3874 PWs)   bands (ev):

  -115.9171 -70.2778 -70.2764 -70.2717 -65.3296 -32.3343 -32.3139 -32.3120
    -9.8418  -9.2951   1.4255   1.9368   1.9928   2.3113   2.7623   3.0091
     3.8976   4.9286   5.0790   5.7078   5.9452

     occupation numbers 
     1.0000   1.0000   1.0000   1.0000   1.0000   1.0000   1.0000   1.0000
     1.0000   1.0000   1.0000   1.0000   1.0000   1.0000   1.0000   1.0000
     1.0000   1.0000   1.0000   1.0000   1.0000

          k =-0.5000 0.1443-0.2310 (  3875 PWs)   bands (ev):

  -115.9171 -70.2778 -70.2764 -70.2717 -65.3296 -32.3343 -32.3139 -32.3120
    -9.8462  -9.2928   1.4495   1.9432   2.0204   2.3178   2.7594   3.0489
     3.8868   4.8088   5.0820   5.6974   5.9326

     occupation numbers 
     1.0000   1.0000   1.0000   1.0000   1.0000   1.0000   1.0000   1.0000
     1.0000   1.0000   1.0000   1.0000   1.0000   1.0000   1.0000   1.0000
     1.0000   1.0000   1.0000   1.0000   1.0000

          k =-0.5000 0.1443-0.1540 (  3873 PWs)   bands (ev):

  -115.9171 -70.2778 -70.2764 -70.2717 -65.3296 -32.3343 -32.3139 -32.3120
    -9.8566  -9.2876   1.4978   1.9610   2.1149   2.3497   2.7508   3.0804
     3.9274   4.6070   4.9593   5.7229   5.8481

     occupation numbers 
     1.0000   1.0000   1.0000   1.0000   1.0000   1.0000   1.0000   1.0000
     1.0000   1.0000   1.0000   1.0000   1.0000   1.0000   1.0000   1.0000
     1.0000   1.0000   1.0000   1.0000   1.0000

          k =-0.5000 0.1443-0.0770 (  3869 PWs)   bands (ev):

  -115.9171 -70.2778 -70.2764 -70.2717 -65.3296 -32.3343 -32.3139 -32.3120
    -9.8666  -9.2828   1.5388   1.9741   2.2281   2.4092   2.7381   3.0968
     3.9992   4.3923   4.8275   5.6192   5.8671

     occupation numbers 
     1.0000   1.0000   1.0000   1.0000   1.0000   1.0000   1.0000   1.0000
     1.0000   1.0000   1.0000   1.0000   1.0000   1.0000   1.0000   1.0000
     1.0000   1.0000   1.0000   1.0000   1.0000

          k =-0.5000-0.8660-0.0000 (  3864 PWs)   bands (ev):

  -115.9171 -70.2779 -70.2763 -70.2717 -65.3296 -32.3367 -32.3120 -32.3115
    -9.8673  -9.2818   1.4521   2.0050   2.3163   2.4836   2.7925   2.8019
     4.1204   4.3049   4.9624   5.4634   6.1114

     occupation numbers 
     1.0000   1.0000   1.0000   1.0000   1.0000   1.0000   1.0000   1.0000
     1.0000   1.0000   1.0000   1.0000   1.0000   1.0000   1.0000   1.0000
     1.0000   1.0000   1.0000   1.0000   1.0000

          k =-0.5000-0.8660 0.0770 (  3868 PWs)   bands (ev):

  -115.9171 -70.2779 -70.2763 -70.2717 -65.3296 -32.3367 -32.3120 -32.3115
    -9.8635  -9.2835   1.4325   2.0021   2.2949   2.4189   2.7918   2.8002
     4.0885   4.4139   4.9906   5.5555   6.0826

     occupation numbers 
     1.0000   1.0000   1.0000   1.0000   1.0000   1.0000   1.0000   1.0000
     1.0000   1.0000   1.0000   1.0000   1.0000   1.0000   1.0000   1.0000
     1.0000   1.0000   1.0000   1.0000   1.0000

          k =-0.5000-0.8660 0.1540 (  3884 PWs)   bands (ev):

  -115.9171 -70.2780 -70.2763 -70.2717 -65.3296 -32.3367 -32.3121 -32.3115
    -9.8540  -9.2876   1.3849   1.9952   2.1716   2.3698   2.7901   2.7959
     3.9953   4.6938   5.0652   5.7429   6.0063

     occupation numbers 
     1.0000   1.0000   1.0000   1.0000   1.0000   1.0000   1.0000   1.0000
     1.0000   1.0000   1.0000   1.0000   1.0000   1.0000   1.0000   1.0000
     1.0000   1.0000   1.0000   1.0000   1.0000

          k =-0.5000-0.8660 0.2310 (  3894 PWs)   bands (ev):

  -115.9171 -70.2780 -70.2763 -70.2717 -65.3296 -32.3367 -32.3121 -32.3115
    -9.8443  -9.2919   1.3366   1.9883   2.0361   2.3649   2.7885   2.7918
     3.9174   4.9683   5.1536   5.8883   5.9161

     occupation numbers 
     1.0000   1.0000   1.0000   1.0000   1.0000   1.0000   1.0000   1.0000
     1.0000   1.0000   1.0000   1.0000   1.0000   1.0000   1.0000   1.0000
     1.0000   1.0000   1.0000   1.0000   1.0000

          k =-0.5000-0.8660-0.3080 (  3868 PWs)   bands (ev):

  -115.9171 -70.2779 -70.2763 -70.2717 -65.3296 -32.3367 -32.3121 -32.3115
    -9.8402  -9.2938   1.3164   1.9845   1.9855   2.3650   2.7879   2.7901
     3.8894   5.0839   5.1969   5.8722   5.9357

     occupation numbers 
     1.0000   1.0000   1.0000   1.0000   1.0000   1.0000   1.0000   1.0000
     1.0000   1.0000   1.0000   1.0000   1.0000   1.0000   1.0000   1.0000
     1.0000   1.0000   1.0000   1.0000   1.0000

     highest occupied level (ev):     6.8109

!    total energy              =    -651.12860270 Ry
     Harris-Foulkes estimate   =    -651.12860268 Ry
     estimated scf accuracy    <       0.00000010 Ry

     The total energy is the sum of the following terms:

     one-electron contribution =    -540.59415918 Ry
     hartree contribution      =     283.48411910 Ry
     xc contribution           =     -73.06551505 Ry
     ewald contribution        =    -320.95304757 Ry

     convergence has been achieved in   8 iterations

     Forces acting on atoms (cartesian axes, Ry/au):

     atom    1 type  3   force =    -0.00000035    0.00000057    0.01809645
     atom    2 type  3   force =    -0.00000011    0.00000082    0.00610255
     atom    3 type  2   force =     0.00000037   -0.00000078    0.00599517
     atom    4 type  1   force =     0.00000010   -0.00000061   -0.03019417
     The non-local contrib.  to forces
     atom    1 type  3   force =    -0.00000037   -0.00000088   -0.11343667
     atom    2 type  3   force =    -0.00000007    0.00000040    0.13067513
     atom    3 type  2   force =     0.00000007   -0.00000489   -0.11649757
     atom    4 type  1   force =     0.00000076   -0.00000004    0.00352852
     The ionic contribution  to forces
     atom    1 type  3   force =    -0.00000490    0.00001962    7.55714620
     atom    2 type  3   force =    -0.00000026    0.00001469   -7.34066256
     atom    3 type  2   force =    -0.00000088   -0.00003128    0.39685311
     atom    4 type  1   force =     0.00000603   -0.00000303   -0.61333675
     The local contribution  to forces
     atom    1 type  3   force =     0.00000496   -0.00001854   -7.42711338
     atom    2 type  3   force =     0.00000026   -0.00001456    7.21775534
     atom    3 type  2   force =     0.00000072    0.00003586   -0.27318539
     atom    4 type  1   force =    -0.00000652    0.00000255    0.57906505
     The core correction contribution to forces
     atom    1 type  3   force =     0.00000001   -0.00000000    0.00131868
     atom    2 type  3   force =    -0.00000000   -0.00000000   -0.00164079
     atom    3 type  2   force =     0.00000000    0.00000000    0.00000000
     atom    4 type  1   force =     0.00000000    0.00000000    0.00000000
     The Hubbard contrib.    to forces
     atom    1 type  3   force =     0.00000000    0.00000000    0.00000000
     atom    2 type  3   force =     0.00000000    0.00000000    0.00000000
     atom    3 type  2   force =     0.00000000    0.00000000    0.00000000
     atom    4 type  1   force =     0.00000000    0.00000000    0.00000000
     The SCF correction term to forces
     atom    1 type  3   force =     0.00000000    0.00000000    0.00000000
     atom    2 type  3   force =     0.00000000    0.00000000    0.00000000
     atom    3 type  2   force =     0.00000000    0.00000000    0.00000000
     atom    4 type  1   force =     0.00000000    0.00000000    0.00000000

     Total force =     0.000000     Total SCF correction =     0.000000


     Computing stress (Cartesian axis) and pressure

          total   stress  (Ry/bohr**3)                   (kbar)     P=   -2.83
  -0.00001931  -0.00000000  -0.00000001         -2.84     -0.00     -0.00
  -0.00000000  -0.00001931   0.00000000         -0.00     -2.84      0.00
  -0.00000001   0.00000000  -0.00001900         -0.00      0.00     -2.79

     kinetic stress (kbar)  26354.22      0.00     -0.00
                                0.00  26354.22     -0.00
                               -0.00     -0.00  26320.85

     local   stress (kbar) -18677.59     -0.02     -0.03
                               -0.02 -18677.56      0.05
                               -0.03      0.05   2211.44

     nonloc. stress (kbar)   1753.71      0.00      0.00
                                0.00   1753.71     -0.00
                                0.00     -0.00   1769.66

     hartree stress (kbar)  46856.44      0.01      0.01
                                0.01  46856.43     -0.02
                                0.01     -0.02  36411.36

     exc-cor stress (kbar) -10409.89      0.00      0.00
                                0.00 -10409.89     -0.00
                                0.00     -0.00 -10408.14

     corecor stress (kbar)   -248.12     -0.00     -0.00
                               -0.00   -248.12      0.00
                               -0.00      0.00   -248.09

     ewald   stress (kbar) -45631.61      0.01      0.02
                                0.01 -45631.63     -0.03
                                0.02     -0.03 -56059.88

     hubbard stress (kbar)      0.00      0.00      0.00
                                0.00      0.00      0.00
                                0.00      0.00      0.00

     london  stress (kbar)      0.00      0.00      0.00
                                0.00      0.00      0.00
                                0.00      0.00      0.00

     DFT-D3  stress (kbar)      0.00      0.00      0.00
                                0.00      0.00      0.00
                                0.00      0.00      0.00

     XDM     stress (kbar)      0.00      0.00      0.00
                                0.00      0.00      0.00
                                0.00      0.00      0.00

     dft-nl  stress (kbar)      0.00      0.00      0.00
                                0.00      0.00      0.00
                                0.00      0.00      0.00

     TS-vdW  stress (kbar)      0.00      0.00      0.00
                                0.00      0.00      0.00
                                0.00      0.00      0.00



     Writing output data file ZnO.save/
 
     init_run     :      0.49s CPU      0.72s WALL (       1 calls)
     electrons    :      6.85s CPU      7.35s WALL (       1 calls)
     forces       :      0.16s CPU      0.17s WALL (       1 calls)
     stress       :      0.30s CPU      0.32s WALL (       1 calls)

     Called by init_run:
     wfcinit      :      0.30s CPU      0.37s WALL (       1 calls)
     wfcinit:atom :      0.00s CPU      0.00s WALL (      65 calls)
     wfcinit:wfcr :      0.28s CPU      0.35s WALL (      65 calls)
     potinit      :      0.07s CPU      0.08s WALL (       1 calls)
     hinit0       :      0.10s CPU      0.21s WALL (       1 calls)

     Called by electrons:
     c_bands      :      5.76s CPU      6.19s WALL (       8 calls)
     sum_band     :      0.81s CPU      0.84s WALL (       8 calls)
     v_of_rho     :      0.23s CPU      0.24s WALL (       9 calls)
     v_h          :      0.00s CPU      0.00s WALL (       9 calls)
     v_xc         :      0.27s CPU      0.28s WALL (      11 calls)
     newd         :      0.06s CPU      0.07s WALL (       9 calls)
     mix_rho      :      0.01s CPU      0.02s WALL (       8 calls)

     Called by c_bands:
     init_us_2    :      0.10s CPU      0.10s WALL (    1235 calls)
     cegterg      :      5.38s CPU      5.68s WALL (     520 calls)

     Called by sum_band:
     sum_band:bec :      0.01s CPU      0.01s WALL (     520 calls)
     addusdens    :      0.06s CPU      0.06s WALL (       8 calls)

     Called by *egterg:
     h_psi        :      3.20s CPU      3.33s WALL (    1861 calls)
     s_psi        :      0.11s CPU      0.12s WALL (    1861 calls)
     g_psi        :      0.01s CPU      0.01s WALL (    1276 calls)
     cdiaghg      :      1.47s CPU      1.62s WALL (    1796 calls)
     cegterg:over :      0.40s CPU      0.47s WALL (    1276 calls)
     cegterg:upda :      0.20s CPU      0.20s WALL (    1276 calls)
     cegterg:last :      0.10s CPU      0.11s WALL (     520 calls)
     cdiaghg:chol :      0.09s CPU      0.12s WALL (    1796 calls)
     cdiaghg:inve :      0.03s CPU      0.03s WALL (    1796 calls)
     cdiaghg:para :      0.15s CPU      0.16s WALL (    3592 calls)

     Called by h_psi:
     h_psi:pot    :      3.19s CPU      3.32s WALL (    1861 calls)
     h_psi:calbec :      0.21s CPU      0.22s WALL (    1861 calls)
     vloc_psi     :      2.87s CPU      2.98s WALL (    1861 calls)
     add_vuspsi   :      0.11s CPU      0.12s WALL (    1861 calls)

     General routines
     calbec       :      0.32s CPU      0.34s WALL (    2706 calls)
     fft          :      0.04s CPU      0.07s WALL (     140 calls)
     ffts         :      0.00s CPU      0.00s WALL (      17 calls)
     fftw         :      3.27s CPU      3.39s WALL (   69800 calls)
     interpolate  :      0.00s CPU      0.01s WALL (       9 calls)
 
     Parallel routines
     fft_scatt_xy :      0.46s CPU      0.47s WALL (   69957 calls)
     fft_scatt_yz :      1.71s CPU      1.78s WALL (   69957 calls)
 
     PWSCF        :      8.10s CPU     10.19s WALL

 
   This run was terminated on:  23:28:41  15Jun2022            

=------------------------------------------------------------------------------=
   JOB DONE.
=------------------------------------------------------------------------------=
