
     Program PWSCF v.6.4.1 starts on 15Jul2022 at  2:11: 2 

     This program is part of the open-source Quantum ESPRESSO suite
     for quantum simulation of materials; please cite
         "P. Giannozzi et al., J. Phys.:Condens. Matter 21 395502 (2009);
         "P. Giannozzi et al., J. Phys.:Condens. Matter 29 465901 (2017);
          URL http://www.quantum-espresso.org", 
     in publications or presentations arising from this work. More details at
     http://www.quantum-espresso.org/quote

     Parallel version (MPI), running on   128 processors

     MPI processes distributed on     2 nodes
     R & G space division:  proc/nbgrp/npool/nimage =     128
     Waiting for input...
     Reading input from standard input
Warning: card &IONS ignored
Warning: card   UPSCALE           = 100.D0, ignored
Warning: card / ignored
Warning: card &CELL ignored
Warning: card   CELL_DYNAMICS     = 'BFGS' ignored
Warning: card   PRESS_CONV_THR    = 0.5D0 ignored
Warning: card   CELL_DOFREE = 'ALL' ignored
Warning: card / ignored

     Current dimensions of program PWSCF are:
     Max number of different atomic species (ntypx) = 10
     Max number of k-points (npk) =  40000
     Max angular momentum in pseudopotentials (lmaxx) =  3

     Atomic positions and unit cell read from directory:
     ./temp/ZnO.save/
 

     Subspace diagonalization in iterative solution of the eigenvalue problem:
     one sub-group per band group will be used
     scalapack distributed-memory algorithm (size of sub-group:  8*  8 procs)

 
     Parallelization info
     --------------------
     sticks:   dense  smooth     PW     G-vecs:    dense   smooth      PW
     Min          90      43     12                 8438     2805     416
     Max          91      44     13                 8449     2813     423
     Sum       11641    5599   1561              1080935   359649   53613
 


     bravais-lattice index     =            0
     lattice parameter (alat)  =      18.3770  a.u.
     unit-cell volume          =    5724.9814 (a.u.)^3
     number of atoms/cell      =           72
     number of atomic types    =            3
     number of electrons       =       876.00
     number of Kohn-Sham states=          438
     kinetic-energy cutoff     =      60.0000  Ry
     charge density cutoff     =     500.0000  Ry
     Exchange-correlation      = SLA  PW   PSX  PSC ( 1  4 10  8 0 0)
     Using LIBXC version       =    4   3   4

     celldm(1)=  18.377017  celldm(2)=   0.000000  celldm(3)=   0.000000
     celldm(4)=   0.000000  celldm(5)=   0.000000  celldm(6)=   0.000000

     crystal axes: (cart. coord. in units of alat)
               a(1) = (   1.000000   0.000006   0.000017 )  
               a(2) = (  -0.499993   0.865992  -0.000022 )  
               a(3) = (   0.000019  -0.000017   1.065207 )  

     reciprocal axes: (cart. coord. in units 2 pi/alat)
               b(1) = (  0.999997  0.577363 -0.000009 )  
               b(2) = ( -0.000007  1.154742  0.000018 )  
               b(3) = ( -0.000016  0.000014  0.938785 )  


     PseudoPot. # 1 for Zn read from file:
     ./GBRV_PBEsol/zn_pbesol_v1.uspp.F.UPF
     MD5 check sum: 7d8615e52efe7c1e2b1899de8658bae2
     Pseudo is Ultrasoft, Zval = 20.0
     Generated by new atomic code, or converted to UPF format
     Using radial grid of  943 points,  6 beta functions with: 
                l(1) =   0
                l(2) =   0
                l(3) =   1
                l(4) =   1
                l(5) =   2
                l(6) =   2
     Q(r) pseudized with  8 coefficients,  rinner =    1.100   1.100   1.100
                                                       1.100   1.100

     PseudoPot. # 2 for O  read from file:
     ./GBRV_PBEsol/o_pbesol_v1.2.uspp.F.UPF
     MD5 check sum: 501638753501ef6325af9037351f7734
     Pseudo is Ultrasoft + core correction, Zval =  6.0
     Generated by new atomic code, or converted to UPF format
     Using radial grid of  737 points,  5 beta functions with: 
                l(1) =   0
                l(2) =   0
                l(3) =   1
                l(4) =   1
                l(5) =   2
     Q(r) pseudized with  8 coefficients,  rinner =    0.900   0.900   0.900
                                                       0.900   0.900

     PseudoPot. # 3 for Mg read from file:
     ./GBRV_PBEsol/mg_pbesol_v1.4.uspp.F.UPF
     MD5 check sum: 4059f37963cf5867752dbf5ab2400678
     Pseudo is Ultrasoft, Zval = 10.0
     Generated by new atomic code, or converted to UPF format
     Using radial grid of  821 points,  7 beta functions with: 
                l(1) =   0
                l(2) =   0
                l(3) =   0
                l(4) =   1
                l(5) =   1
                l(6) =   2
                l(7) =   2
     Q(r) pseudized with  8 coefficients,  rinner =    1.200   1.200   1.200
                                                       1.200   1.200

     atomic species   valence    mass     pseudopotential
        Zn            20.00    65.38000     Zn( 1.00)
        O              6.00    15.99900     O ( 1.00)
        Mg            10.00    24.30500     Mg( 1.00)

     No symmetry found


                                    s                        frac. trans.

      isym =  1     identity                                     

 cryst.   s( 1) = (     1          0          0      )
                  (     0          1          0      )
                  (     0          0          1      )

 cart.    s( 1) = (  1.0000000  0.0000000  0.0000000 )
                  (  0.0000000  1.0000000 -0.0000000 )
                  ( -0.0000000  0.0000000  1.0000000 )


   Cartesian axes

     site n.     atom                  positions (alat units)
         1           Zn  tau(   1) = (   0.1666211   0.0975101   0.2065781  )
         2           Zn  tau(   2) = (   0.4998354   0.0953039   0.2061195  )
         3           Zn  tau(   3) = (   0.8332324   0.0975068   0.2047591  )
         4           Zn  tau(   4) = (   0.0000110   0.3848052   0.2056042  )
         5           Zn  tau(   5) = (   0.3333155   0.3847910   0.2072028  )
         6           Zn  tau(   6) = (   0.6668835   0.3848901   0.2070533  )
         7           Zn  tau(   7) = (  -0.1646734   0.6732795   0.2062746  )
         8           Zn  tau(   8) = (   0.1646922   0.6732711   0.2064695  )
         9           Zn  tau(   9) = (   0.5002306   0.6726308   0.2040580  )
        10           Zn  tau(  10) = (   0.1657781   0.0950343   0.7395197  )
        11           Zn  tau(  11) = (   0.4994359   0.0978710   0.7395393  )
        12           Zn  tau(  12) = (   0.3340086   0.3847574   0.7401257  )
        13           Zn  tau(  13) = (   0.6660095   0.3846966   0.7401880  )
        14           Zn  tau(  14) = (  -0.1689450   0.6739212   0.7389458  )
        15           Zn  tau(  15) = (   0.1702943   0.6739994   0.7392790  )
        16           Zn  tau(  16) = (  -0.0008067   0.1929200   0.4727452  )
        17           Zn  tau(  17) = (   0.3335717   0.1926441   0.4738124  )
        18           Zn  tau(  18) = (   0.6666706   0.1924103   0.4728788  )
        19           Zn  tau(  19) = (  -0.1664665   0.4809136   0.4733873  )
        20           Zn  tau(  20) = (   0.1666749   0.4810601   0.4733044  )
        21           Zn  tau(  21) = (   0.5000977   0.4816374   0.4726421  )
        22           Zn  tau(  22) = (  -0.3339304   0.7689325   0.4710169  )
        23           Zn  tau(  23) = (   0.3341076   0.7697306   0.4702341  )
        24           Zn  tau(  24) = (   0.0005656   0.1921145   1.0040899  )
        25           Zn  tau(  25) = (   0.3328268   0.1929841   1.0061411  )
        26           Zn  tau(  26) = (   0.6660277   0.1932903   1.0054870  )
        27           Zn  tau(  27) = (  -0.1668202   0.4815796   1.0050813  )
        28           Zn  tau(  28) = (   0.1670516   0.4814386   1.0055886  )
        29           Zn  tau(  29) = (   0.5002050   0.4811472   1.0057178  )
        30           Zn  tau(  30) = (   0.0000976   0.7686103   1.0037727  )
        31           Mg  tau(  31) = (   0.8325275   0.0950667   0.7397799  )
        32           Mg  tau(  32) = (   0.0011519   0.3854853   0.7404383  )
        33           Mg  tau(  33) = (   0.4998268   0.6730504   0.7389217  )
        34           Mg  tau(  34) = (   0.0000947   0.7698350   0.4750965  )
        35           Mg  tau(  35) = (  -0.3314784   0.7699429   1.0069324  )
        36           Mg  tau(  36) = (   0.3318481   0.7685110   1.0069781  )
        37           O   tau(  37) = (   0.1666057   0.0962426   0.0033607  )
        38           O   tau(  38) = (   0.4996800   0.0955150   0.0027600  )
        39           O   tau(  39) = (   0.8330989   0.0958804   0.0012395  )
        40           O   tau(  40) = (   0.0000262   0.3846218   0.0019546  )
        41           O   tau(  41) = (   0.3335883   0.3851715   0.0038644  )
        42           O   tau(  42) = (   0.6667638   0.3852130   0.0037711  )
        43           O   tau(  43) = (  -0.1658674   0.6734628   0.0032615  )
        44           O   tau(  44) = (   0.1657713   0.6732814   0.0035355  )
        45           O   tau(  45) = (   0.5004545   0.6744689   0.0006484  )
        46           O   tau(  46) = (   0.1663023   0.0957045   0.5354089  )
        47           O   tau(  47) = (   0.5000643   0.0962854   0.5361433  )
        48           O   tau(  48) = (   0.8331111   0.0956605   0.5366738  )
        49           O   tau(  49) = (   0.0001522   0.3850161   0.5375472  )
        50           O   tau(  50) = (   0.3335271   0.3850768   0.5363164  )
        51           O   tau(  51) = (   0.6666199   0.3848795   0.5360938  )
        52           O   tau(  52) = (  -0.1670554   0.6737331   0.5353963  )
        53           O   tau(  53) = (   0.1674419   0.6739147   0.5354155  )
        54           O   tau(  54) = (   0.4998517   0.6738473   0.5362290  )
        55           O   tau(  55) = (  -0.0003985   0.1927214   0.2694726  )
        56           O   tau(  56) = (   0.3336560   0.1924027   0.2700640  )
        57           O   tau(  57) = (   0.6664398   0.1922514   0.2693176  )
        58           O   tau(  58) = (  -0.1662836   0.4809197   0.2697721  )
        59           O   tau(  59) = (   0.1663913   0.4808548   0.2697472  )
        60           O   tau(  60) = (   0.5000848   0.4812467   0.2694733  )
        61           O   tau(  61) = (  -0.3330811   0.7696296   0.2672027  )
        62           O   tau(  62) = (   0.0000170   0.7700506   0.2723390  )
        63           O   tau(  63) = (   0.3332988   0.7698702   0.2665254  )
        64           O   tau(  64) = (  -0.0010579   0.1926917   0.8006079  )
        65           O   tau(  65) = (   0.3322284   0.1922127   0.8026177  )
        66           O   tau(  66) = (   0.6667868   0.1922849   0.8021686  )
        67           O   tau(  67) = (  -0.1664093   0.4809894   0.8017347  )
        68           O   tau(  68) = (   0.1673597   0.4815314   0.8023127  )
        69           O   tau(  69) = (   0.5001131   0.4812927   0.8021885  )
        70           O   tau(  70) = (  -0.3345236   0.7692898   0.8041638  )
        71           O   tau(  71) = (   0.0003820   0.7694169   0.7997171  )
        72           O   tau(  72) = (   0.3351631   0.7701335   0.8043013  )

   Crystallographic axes

     site n.     atom                  positions (cryst. coord.)
         1           Zn  tau(   1) = (  0.2229176  0.1126016  0.1939311  )
         2           Zn  tau(   2) = (  0.5548570  0.1100518  0.1934951  )
         3           Zn  tau(   3) = (  0.8895246  0.1125933  0.1922125  )
         4           Zn  tau(   4) = (  0.2221817  0.4443544  0.1930237  )
         5           Zn  tau(   5) = (  0.5554768  0.4443358  0.1945189  )
         6           Zn  tau(   6) = (  0.8891009  0.4444479  0.1943732  )
         7           Zn  tau(   7) = (  0.2240523  0.7774689  0.1936599  )
         8           Zn  tau(   8) = (  0.5534119  0.7774569  0.1938375  )
         9           Zn  tau(   9) = (  0.8885795  0.7767152  0.1915682  )
        10           Zn  tau(  10) = (  0.2206405  0.1097522  0.6942485  )
        11           Zn  tau(  11) = (  0.5559350  0.1130256  0.6942615  )
        12           Zn  tau(  12) = (  0.5561459  0.4443065  0.6948189  )
        13           Zn  tau(  13) = (  0.8881106  0.4442342  0.6948720  )
        14           Zn  tau(  14) = (  0.2201465  0.7782194  0.6937237  )
        15           Zn  tau(  15) = (  0.5594299  0.7783075  0.6940309  )
        16           Zn  tau(  16) = (  0.1105742  0.2227813  0.4438089  )
        17           Zn  tau(  17) = (  0.4447921  0.2224604  0.4448053  )
        18           Zn  tau(  18) = (  0.7777549  0.2221883  0.4439234  )
        19           Zn  tau(  19) = (  0.1111919  0.5553407  0.4444186  )
        20           Zn  tau(  20) = (  0.4444167  0.5555077  0.4443353  )
        21           Zn  tau(  21) = (  0.7781718  0.5561720  0.4437081  )
        22           Zn  tau(  22) = (  0.1100201  0.8879293  0.4422001  )
        23           Zn  tau(  23) = (  0.7785167  0.8888463  0.4414543  )
        24           Zn  tau(  24) = (  0.1114768  0.2218607  0.9426272  )
        25           Zn  tau(  25) = (  0.4442389  0.2228627  0.9445474  )
        26           Zn  tau(  26) = (  0.7776155  0.2232140  0.9439279  )
        27           Zn  tau(  27) = (  0.1112181  0.5561193  0.9435649  )
        28           Zn  tau(  28) = (  0.4450074  0.5559542  0.9440356  )
        29           Zn  tau(  29) = (  0.7779914  0.5556156  0.9441515  )
        30           Zn  tau(  30) = (  0.4438563  0.8875646  0.9423378  )
        31           Mg  tau(  31) = (  0.8874063  0.1097852  0.6944819  )
        32           Mg  tau(  32) = (  0.2237106  0.4451493  0.6951179  )
        33           Mg  tau(  33) = (  0.8884134  0.7772094  0.6936901  )
        34           Mg  tau(  34) = (  0.4445651  0.8889693  0.4460246  )
        35           Mg  tau(  35) = (  0.1130508  0.8891056  0.9453095  )
        36           Mg  tau(  36) = (  0.7755484  0.8874477  0.9453415  )
        37           O   tau(  37) = (  0.2221721  0.1111344  0.0031536  )
        38           O   tau(  38) = (  0.5548252  0.1102919  0.0025842  )
        39           O   tau(  39) = (  0.8884540  0.1107115  0.0011514  )
        40           O   tau(  40) = (  0.2220927  0.4441389  0.0018405  )
        41           O   tau(  41) = (  0.5559711  0.4447715  0.0036280  )
        42           O   tau(  42) = (  0.8891694  0.4448171  0.0035350  )
        43           O   tau(  43) = (  0.2229659  0.7776769  0.0030743  )
        44           O   tau(  44) = (  0.5544987  0.7774651  0.0033261  )
        45           O   tau(  45) = (  0.8898665  0.7788342  0.0006103  )
        46           O   tau(  46) = (  0.2215534  0.1105225  0.5026324  )
        47           O   tau(  47) = (  0.5556497  0.1111910  0.5033165  )
        48           O   tau(  48) = (  0.8883345  0.1104672  0.5038090  )
        49           O   tau(  49) = (  0.2224418  0.4446039  0.5046467  )
        50           O   tau(  50) = (  0.5558506  0.4446717  0.5034859  )
        51           O   tau(  51) = (  0.8888283  0.4444417  0.5032714  )
        52           O   tau(  52) = (  0.2219293  0.7779985  0.5026345  )
        53           O   tau(  53) = (  0.5565303  0.7782060  0.5026470  )
        54           O   tau(  54) = (  0.8889001  0.7781260  0.5034053  )
        55           O   tau(  55) = (  0.1108695  0.2225484  0.2529796  )
        56           O   tau(  56) = (  0.4447388  0.2221780  0.2535293  )
        57           O   tau(  57) = (  0.7774341  0.2220011  0.2528232  )
        58           O   tau(  58) = (  0.1113800  0.5553441  0.2532676  )
        59           O   tau(  59) = (  0.4440163  0.5552669  0.2532388  )
        60           O   tau(  60) = (  0.7779351  0.5557173  0.2529762  )
        61           O   tau(  61) = (  0.1112736  0.8887306  0.2508624  )
        62           O   tau(  62) = (  0.4446136  0.8892145  0.2556789  )
        63           O   tau(  63) = (  0.7777902  0.8890039  0.2502157  )
        64           O   tau(  64) = (  0.1101882  0.2225235  0.7516014  )
        65           O   tau(  65) = (  0.4431969  0.2219683  0.7534827  )
        66           O   tau(  66) = (  0.7777959  0.2220493  0.7530557  )
        67           O   tau(  67) = (  0.1112900  0.5554342  0.7526661  )
        68           O   tau(  68) = (  0.4453708  0.5560578  0.7532033  )
        69           O   tau(  69) = (  0.7779852  0.5557799  0.7530812  )
        70           O   tau(  70) = (  0.1096303  0.8883478  0.7549534  )
        71           O   tau(  71) = (  0.4446082  0.8884922  0.7507735  )
        72           O   tau(  72) = (  0.7798019  0.8893176  0.7550716  )

     number of k points=    80
                       cart. coord. in units 2pi/alat
        k(    1) = (   0.0000000   0.0000000   0.0000000), wk =   0.0156250
        k(    2) = (  -0.0000023   0.0000021   0.1341121), wk =   0.0156250
        k(    3) = (  -0.0000047   0.0000041   0.2682243), wk =   0.0156250
        k(    4) = (  -0.0000070   0.0000062   0.4023364), wk =   0.0156250
        k(    5) = (  -0.0000093   0.0000083   0.5364485), wk =   0.0156250
        k(    6) = (  -0.0000117   0.0000103   0.6705606), wk =   0.0156250
        k(    7) = (  -0.0000140   0.0000124   0.8046728), wk =   0.0156250
        k(    8) = (  -0.0000163   0.0000145   0.9387849), wk =   0.0156250
        k(    9) = (  -0.0000017   0.2886855   0.0000045), wk =   0.0312500
        k(   10) = (  -0.0000040   0.2886875   0.1341166), wk =   0.0312500
        k(   11) = (  -0.0000063   0.2886896   0.2682287), wk =   0.0312500
        k(   12) = (  -0.0000087   0.2886917   0.4023409), wk =   0.0312500
        k(   13) = (  -0.0000110   0.2886937   0.5364530), wk =   0.0312500
        k(   14) = (  -0.0000134   0.2886958   0.6705651), wk =   0.0312500
        k(   15) = (  -0.0000157   0.2886979   0.8046772), wk =   0.0312500
        k(   16) = (  -0.0000180   0.2887000   0.9387894), wk =   0.0312500
        k(   17) = (   0.0000034  -0.5773709  -0.0000090), wk =   0.0156250
        k(   18) = (   0.0000010  -0.5773689   0.1341031), wk =   0.0156250
        k(   19) = (  -0.0000013  -0.5773668   0.2682153), wk =   0.0156250
        k(   20) = (  -0.0000037  -0.5773647   0.4023274), wk =   0.0156250
        k(   21) = (  -0.0000060  -0.5773627   0.5364395), wk =   0.0156250
        k(   22) = (  -0.0000083  -0.5773606   0.6705516), wk =   0.0156250
        k(   23) = (  -0.0000107  -0.5773585   0.8046638), wk =   0.0156250
        k(   24) = (  -0.0000130  -0.5773564   0.9387759), wk =   0.0156250
        k(   25) = (   0.2499992   0.1443408  -0.0000022), wk =   0.0312500
        k(   26) = (   0.2499968   0.1443429   0.1341100), wk =   0.0312500
        k(   27) = (   0.2499945   0.1443450   0.2682221), wk =   0.0312500
        k(   28) = (   0.2499922   0.1443470   0.4023342), wk =   0.0312500
        k(   29) = (   0.2499898   0.1443491   0.5364463), wk =   0.0312500
        k(   30) = (   0.2499875   0.1443512   0.6705585), wk =   0.0312500
        k(   31) = (   0.2499852   0.1443533   0.8046706), wk =   0.0312500
        k(   32) = (   0.2499828   0.1443553   0.9387827), wk =   0.0312500
        k(   33) = (   0.2499975   0.4330263   0.0000023), wk =   0.0312500
        k(   34) = (   0.2499952   0.4330284   0.1341145), wk =   0.0312500
        k(   35) = (   0.2499928   0.4330304   0.2682266), wk =   0.0312500
        k(   36) = (   0.2499905   0.4330325   0.4023387), wk =   0.0312500
        k(   37) = (   0.2499881   0.4330346   0.5364508), wk =   0.0312500
        k(   38) = (   0.2499858   0.4330367   0.6705630), wk =   0.0312500
        k(   39) = (   0.2499835   0.4330387   0.8046751), wk =   0.0312500
        k(   40) = (   0.2499811   0.4330408   0.9387872), wk =   0.0312500
        k(   41) = (   0.2500025  -0.4330301  -0.0000111), wk =   0.0312500
        k(   42) = (   0.2500002  -0.4330280   0.1341010), wk =   0.0312500
        k(   43) = (   0.2499978  -0.4330260   0.2682131), wk =   0.0312500
        k(   44) = (   0.2499955  -0.4330239   0.4023252), wk =   0.0312500
        k(   45) = (   0.2499932  -0.4330218   0.5364374), wk =   0.0312500
        k(   46) = (   0.2499908  -0.4330198   0.6705495), wk =   0.0312500
        k(   47) = (   0.2499885  -0.4330177   0.8046616), wk =   0.0312500
        k(   48) = (   0.2499862  -0.4330156   0.9387737), wk =   0.0312500
        k(   49) = (   0.2500008  -0.1443446  -0.0000067), wk =   0.0312500
        k(   50) = (   0.2499985  -0.1443426   0.1341055), wk =   0.0312500
        k(   51) = (   0.2499962  -0.1443405   0.2682176), wk =   0.0312500
        k(   52) = (   0.2499938  -0.1443384   0.4023297), wk =   0.0312500
        k(   53) = (   0.2499915  -0.1443364   0.5364419), wk =   0.0312500
        k(   54) = (   0.2499892  -0.1443343   0.6705540), wk =   0.0312500
        k(   55) = (   0.2499868  -0.1443322   0.8046661), wk =   0.0312500
        k(   56) = (   0.2499845  -0.1443301   0.9387782), wk =   0.0312500
        k(   57) = (  -0.4999983  -0.2886817   0.0000043), wk =   0.0156250
        k(   58) = (  -0.5000007  -0.2886796   0.1341164), wk =   0.0156250
        k(   59) = (  -0.5000030  -0.2886775   0.2682286), wk =   0.0156250
        k(   60) = (  -0.5000053  -0.2886755   0.4023407), wk =   0.0156250
        k(   61) = (  -0.5000077  -0.2886734   0.5364528), wk =   0.0156250
        k(   62) = (  -0.5000100  -0.2886713   0.6705650), wk =   0.0156250
        k(   63) = (  -0.5000123  -0.2886693   0.8046771), wk =   0.0156250
        k(   64) = (  -0.5000147  -0.2886672   0.9387892), wk =   0.0156250
        k(   65) = (  -0.5000000   0.0000038   0.0000088), wk =   0.0312500
        k(   66) = (  -0.5000023   0.0000059   0.1341209), wk =   0.0312500
        k(   67) = (  -0.5000047   0.0000079   0.2682331), wk =   0.0312500
        k(   68) = (  -0.5000070   0.0000100   0.4023452), wk =   0.0312500
        k(   69) = (  -0.5000093   0.0000121   0.5364573), wk =   0.0312500
        k(   70) = (  -0.5000117   0.0000141   0.6705694), wk =   0.0312500
        k(   71) = (  -0.5000140   0.0000162   0.8046816), wk =   0.0312500
        k(   72) = (  -0.5000163   0.0000183   0.9387937), wk =   0.0312500
        k(   73) = (  -0.4999950  -0.8660526  -0.0000047), wk =   0.0156250
        k(   74) = (  -0.4999973  -0.8660505   0.1341075), wk =   0.0156250
        k(   75) = (  -0.4999996  -0.8660485   0.2682196), wk =   0.0156250
        k(   76) = (  -0.5000020  -0.8660464   0.4023317), wk =   0.0156250
        k(   77) = (  -0.5000043  -0.8660443   0.5364438), wk =   0.0156250
        k(   78) = (  -0.5000066  -0.8660423   0.6705560), wk =   0.0156250
        k(   79) = (  -0.5000090  -0.8660402   0.8046681), wk =   0.0156250
        k(   80) = (  -0.5000113  -0.8660381   0.9387802), wk =   0.0156250

                       cryst. coord.
        k(    1) = (   0.0000000   0.0000000   0.0000000), wk =   0.0156250
        k(    2) = (  -0.0000000   0.0000000   0.1428571), wk =   0.0156250
        k(    3) = (  -0.0000000   0.0000000   0.2857143), wk =   0.0156250
        k(    4) = (  -0.0000000  -0.0000000   0.4285714), wk =   0.0156250
        k(    5) = (  -0.0000000   0.0000000   0.5714286), wk =   0.0156250
        k(    6) = (  -0.0000000   0.0000000   0.7142857), wk =   0.0156250
        k(    7) = (  -0.0000000  -0.0000000   0.8571429), wk =   0.0156250
        k(    8) = (  -0.0000000   0.0000000   1.0000000), wk =   0.0156250
        k(    9) = (  -0.0000000   0.2500000   0.0000000), wk =   0.0312500
        k(   10) = (  -0.0000000   0.2500000   0.1428571), wk =   0.0312500
        k(   11) = (  -0.0000000   0.2500000   0.2857143), wk =   0.0312500
        k(   12) = (  -0.0000000   0.2500000   0.4285714), wk =   0.0312500
        k(   13) = (  -0.0000000   0.2500000   0.5714286), wk =   0.0312500
        k(   14) = (  -0.0000000   0.2500000   0.7142857), wk =   0.0312500
        k(   15) = (  -0.0000000   0.2500000   0.8571429), wk =   0.0312500
        k(   16) = (  -0.0000000   0.2500000   1.0000000), wk =   0.0312500
        k(   17) = (   0.0000000  -0.5000000  -0.0000000), wk =   0.0156250
        k(   18) = (  -0.0000000  -0.5000000   0.1428571), wk =   0.0156250
        k(   19) = (  -0.0000000  -0.5000000   0.2857143), wk =   0.0156250
        k(   20) = (  -0.0000000  -0.5000000   0.4285714), wk =   0.0156250
        k(   21) = (  -0.0000000  -0.5000000   0.5714286), wk =   0.0156250
        k(   22) = (  -0.0000000  -0.5000000   0.7142857), wk =   0.0156250
        k(   23) = (  -0.0000000  -0.5000000   0.8571429), wk =   0.0156250
        k(   24) = (  -0.0000000  -0.5000000   1.0000000), wk =   0.0156250
        k(   25) = (   0.2500000   0.0000000  -0.0000000), wk =   0.0312500
        k(   26) = (   0.2500000   0.0000000   0.1428571), wk =   0.0312500
        k(   27) = (   0.2500000   0.0000000   0.2857143), wk =   0.0312500
        k(   28) = (   0.2500000   0.0000000   0.4285714), wk =   0.0312500
        k(   29) = (   0.2500000   0.0000000   0.5714286), wk =   0.0312500
        k(   30) = (   0.2500000   0.0000000   0.7142857), wk =   0.0312500
        k(   31) = (   0.2500000   0.0000000   0.8571429), wk =   0.0312500
        k(   32) = (   0.2500000   0.0000000   1.0000000), wk =   0.0312500
        k(   33) = (   0.2500000   0.2500000  -0.0000000), wk =   0.0312500
        k(   34) = (   0.2500000   0.2500000   0.1428571), wk =   0.0312500
        k(   35) = (   0.2500000   0.2500000   0.2857143), wk =   0.0312500
        k(   36) = (   0.2500000   0.2500000   0.4285714), wk =   0.0312500
        k(   37) = (   0.2500000   0.2500000   0.5714286), wk =   0.0312500
        k(   38) = (   0.2500000   0.2500000   0.7142857), wk =   0.0312500
        k(   39) = (   0.2500000   0.2500000   0.8571429), wk =   0.0312500
        k(   40) = (   0.2500000   0.2500000   1.0000000), wk =   0.0312500
        k(   41) = (   0.2500000  -0.5000000  -0.0000000), wk =   0.0312500
        k(   42) = (   0.2500000  -0.5000000   0.1428571), wk =   0.0312500
        k(   43) = (   0.2500000  -0.5000000   0.2857143), wk =   0.0312500
        k(   44) = (   0.2500000  -0.5000000   0.4285714), wk =   0.0312500
        k(   45) = (   0.2500000  -0.5000000   0.5714286), wk =   0.0312500
        k(   46) = (   0.2500000  -0.5000000   0.7142857), wk =   0.0312500
        k(   47) = (   0.2500000  -0.5000000   0.8571429), wk =   0.0312500
        k(   48) = (   0.2500000  -0.5000000   1.0000000), wk =   0.0312500
        k(   49) = (   0.2500000  -0.2500000   0.0000000), wk =   0.0312500
        k(   50) = (   0.2500000  -0.2500000   0.1428571), wk =   0.0312500
        k(   51) = (   0.2500000  -0.2500000   0.2857143), wk =   0.0312500
        k(   52) = (   0.2500000  -0.2500000   0.4285714), wk =   0.0312500
        k(   53) = (   0.2500000  -0.2500000   0.5714286), wk =   0.0312500
        k(   54) = (   0.2500000  -0.2500000   0.7142857), wk =   0.0312500
        k(   55) = (   0.2500000  -0.2500000   0.8571429), wk =   0.0312500
        k(   56) = (   0.2500000  -0.2500000   1.0000000), wk =   0.0312500
        k(   57) = (  -0.5000000  -0.0000000   0.0000000), wk =   0.0156250
        k(   58) = (  -0.5000000  -0.0000000   0.1428571), wk =   0.0156250
        k(   59) = (  -0.5000000  -0.0000000   0.2857143), wk =   0.0156250
        k(   60) = (  -0.5000000  -0.0000000   0.4285714), wk =   0.0156250
        k(   61) = (  -0.5000000  -0.0000000   0.5714286), wk =   0.0156250
        k(   62) = (  -0.5000000  -0.0000000   0.7142857), wk =   0.0156250
        k(   63) = (  -0.5000000  -0.0000000   0.8571429), wk =   0.0156250
        k(   64) = (  -0.5000000  -0.0000000   1.0000000), wk =   0.0156250
        k(   65) = (  -0.5000000   0.2500000   0.0000000), wk =   0.0312500
        k(   66) = (  -0.5000000   0.2500000   0.1428571), wk =   0.0312500
        k(   67) = (  -0.5000000   0.2500000   0.2857143), wk =   0.0312500
        k(   68) = (  -0.5000000   0.2500000   0.4285714), wk =   0.0312500
        k(   69) = (  -0.5000000   0.2500000   0.5714286), wk =   0.0312500
        k(   70) = (  -0.5000000   0.2500000   0.7142857), wk =   0.0312500
        k(   71) = (  -0.5000000   0.2500000   0.8571429), wk =   0.0312500
        k(   72) = (  -0.5000000   0.2500000   1.0000000), wk =   0.0312500
        k(   73) = (  -0.5000000  -0.5000000   0.0000000), wk =   0.0156250
        k(   74) = (  -0.5000000  -0.5000000   0.1428571), wk =   0.0156250
        k(   75) = (  -0.5000000  -0.5000000   0.2857143), wk =   0.0156250
        k(   76) = (  -0.5000000  -0.5000000   0.4285714), wk =   0.0156250
        k(   77) = (  -0.5000000  -0.5000000   0.5714286), wk =   0.0156250
        k(   78) = (  -0.5000000  -0.5000000   0.7142857), wk =   0.0156250
        k(   79) = (  -0.5000000  -0.5000000   0.8571429), wk =   0.0156250
        k(   80) = (  -0.5000000  -0.5000000   1.0000000), wk =   0.0156250

     Dense  grid:  1080935 G-vectors     FFT dimensions: ( 135, 135, 144)

     Smooth grid:   359649 G-vectors     FFT dimensions: (  96,  96, 100)

     Dynamical RAM for                 wfc:       2.35 MB

     Dynamical RAM for     wfc (w. buffer):     190.01 MB

     Dynamical RAM for           str. fact:       0.39 MB

     Dynamical RAM for           local pot:       0.00 MB

     Dynamical RAM for          nlocal pot:       6.01 MB

     Dynamical RAM for                qrad:      20.97 MB

     Dynamical RAM for          rho,v,vnew:       1.22 MB

     Dynamical RAM for           G-vectors:       0.50 MB

     Dynamical RAM for          h,s,v(r/c):       2.20 MB

     Dynamical RAM for          <psi|beta>:       7.50 MB

     Dynamical RAM for                 psi:       9.38 MB

     Dynamical RAM for                hpsi:       9.38 MB

     Dynamical RAM for                spsi:       9.38 MB

     Dynamical RAM for      wfcinit/wfcrot:      13.33 MB

     Dynamical RAM for           addusdens:      31.06 MB

     Estimated static dynamical RAM per process >     221.01 MB

     Estimated max dynamical RAM per process >     258.86 MB

     Estimated total dynamical RAM >      32.36 GB

     Check: negative core charge=   -0.000002

     The potential is recalculated from file :
     ./temp/ZnO.save/charge-density

     Starting wfcs are  564 randomized atomic wfcs

     Band Structure Calculation
     Davidson diagonalization with overlap

     Computing kpt #:     1
     total cpu time spent up to now is       22.2 secs

     Computing kpt #:     2
     total cpu time spent up to now is       37.5 secs

     Computing kpt #:     3
     total cpu time spent up to now is       52.5 secs

     Computing kpt #:     4
     total cpu time spent up to now is       67.3 secs

     Computing kpt #:     5
     total cpu time spent up to now is       82.3 secs

     Computing kpt #:     6
     total cpu time spent up to now is       97.4 secs

     Computing kpt #:     7
     total cpu time spent up to now is      112.6 secs

     Computing kpt #:     8
     total cpu time spent up to now is      127.8 secs

     Computing kpt #:     9
     total cpu time spent up to now is      143.0 secs

     Computing kpt #:    10
     total cpu time spent up to now is      158.1 secs

     Computing kpt #:    11
     total cpu time spent up to now is      172.9 secs

     Computing kpt #:    12
     total cpu time spent up to now is      187.8 secs

     Computing kpt #:    13
     total cpu time spent up to now is      202.7 secs

     Computing kpt #:    14
     total cpu time spent up to now is      217.7 secs

     Computing kpt #:    15
     total cpu time spent up to now is      232.7 secs

     Computing kpt #:    16
     total cpu time spent up to now is      247.9 secs

     Computing kpt #:    17
     total cpu time spent up to now is      262.8 secs

     Computing kpt #:    18
     total cpu time spent up to now is      277.7 secs

     Computing kpt #:    19
     total cpu time spent up to now is      292.4 secs

     Computing kpt #:    20
     total cpu time spent up to now is      307.2 secs

     Computing kpt #:    21
     total cpu time spent up to now is      322.0 secs

     Computing kpt #:    22
     total cpu time spent up to now is      336.9 secs

     Computing kpt #:    23
     total cpu time spent up to now is      351.7 secs

     Computing kpt #:    24
     total cpu time spent up to now is      366.5 secs

     Computing kpt #:    25
     total cpu time spent up to now is      381.8 secs

     Computing kpt #:    26
     total cpu time spent up to now is      396.9 secs

     Computing kpt #:    27
     total cpu time spent up to now is      411.8 secs

     Computing kpt #:    28
     total cpu time spent up to now is      426.7 secs

     Computing kpt #:    29
     total cpu time spent up to now is      441.7 secs

     Computing kpt #:    30
     total cpu time spent up to now is      456.7 secs

     Computing kpt #:    31
     total cpu time spent up to now is      471.6 secs

     Computing kpt #:    32
     total cpu time spent up to now is      486.8 secs

     Computing kpt #:    33
     total cpu time spent up to now is      501.8 secs

     Computing kpt #:    34
     total cpu time spent up to now is      516.7 secs

     Computing kpt #:    35
     total cpu time spent up to now is      531.5 secs

     Computing kpt #:    36
     total cpu time spent up to now is      546.3 secs

     Computing kpt #:    37
     total cpu time spent up to now is      561.1 secs

     Computing kpt #:    38
     total cpu time spent up to now is      576.0 secs

     Computing kpt #:    39
     total cpu time spent up to now is      590.8 secs

     Computing kpt #:    40
     total cpu time spent up to now is      605.7 secs

     Computing kpt #:    41
     total cpu time spent up to now is      620.6 secs

     Computing kpt #:    42
     total cpu time spent up to now is      635.5 secs

     Computing kpt #:    43
     total cpu time spent up to now is      650.2 secs

     Computing kpt #:    44
     total cpu time spent up to now is      665.0 secs

     Computing kpt #:    45
     total cpu time spent up to now is      679.9 secs

     Computing kpt #:    46
     total cpu time spent up to now is      694.8 secs

     Computing kpt #:    47
     total cpu time spent up to now is      709.6 secs

     Computing kpt #:    48
     total cpu time spent up to now is      724.4 secs

     Computing kpt #:    49
     total cpu time spent up to now is      739.6 secs

     Computing kpt #:    50
     total cpu time spent up to now is      754.7 secs

     Computing kpt #:    51
     total cpu time spent up to now is      769.5 secs

     Computing kpt #:    52
     total cpu time spent up to now is      784.3 secs

     Computing kpt #:    53
     total cpu time spent up to now is      799.3 secs

     Computing kpt #:    54
     total cpu time spent up to now is      814.3 secs

     Computing kpt #:    55
     total cpu time spent up to now is      829.2 secs

     Computing kpt #:    56
     total cpu time spent up to now is      844.4 secs

     Computing kpt #:    57
     total cpu time spent up to now is      859.4 secs

     Computing kpt #:    58
     total cpu time spent up to now is      874.2 secs

     Computing kpt #:    59
     total cpu time spent up to now is      889.0 secs

     Computing kpt #:    60
     total cpu time spent up to now is      903.7 secs

     Computing kpt #:    61
     total cpu time spent up to now is      918.5 secs

     Computing kpt #:    62
     total cpu time spent up to now is      933.3 secs

     Computing kpt #:    63
     total cpu time spent up to now is      948.2 secs

     Computing kpt #:    64
     total cpu time spent up to now is      962.9 secs

     Computing kpt #:    65
     total cpu time spent up to now is      977.9 secs

     Computing kpt #:    66
     total cpu time spent up to now is      992.7 secs

     Computing kpt #:    67
     total cpu time spent up to now is     1007.4 secs

     Computing kpt #:    68
     total cpu time spent up to now is     1022.1 secs

     Computing kpt #:    69
     total cpu time spent up to now is     1036.9 secs

     Computing kpt #:    70
     total cpu time spent up to now is     1051.8 secs

     Computing kpt #:    71
     total cpu time spent up to now is     1066.5 secs

     Computing kpt #:    72
     total cpu time spent up to now is     1081.3 secs

     Computing kpt #:    73
     total cpu time spent up to now is     1096.3 secs

     Computing kpt #:    74
     total cpu time spent up to now is     1111.2 secs

     Computing kpt #:    75
     total cpu time spent up to now is     1126.0 secs

     Computing kpt #:    76
     total cpu time spent up to now is     1140.7 secs

     Computing kpt #:    77
     total cpu time spent up to now is     1155.6 secs

     Computing kpt #:    78
     total cpu time spent up to now is     1170.5 secs

     Computing kpt #:    79
     total cpu time spent up to now is     1185.4 secs

     Computing kpt #:    80
     total cpu time spent up to now is     1200.2 secs

     ethr =  1.14E-12,  avg # of iterations = 13.2

     total cpu time spent up to now is     1200.2 secs

     End of band structure calculation

          k = 0.0000 0.0000 0.0000 ( 44897 PWs)   bands (ev):

  -114.8070-114.8060-114.8045-114.8011-114.8000-114.8000-114.7996-114.7991
  -114.7976-114.7975-114.7967-114.7966-114.7952-114.7932-114.7925-114.7917
  -114.7916-114.7903-114.7886-114.7885-114.7856-114.7853-114.7851-114.7846
  -114.7843-114.7836-114.7831-114.7825-114.7825-114.7730 -69.1687 -69.1655
   -69.1647 -69.1639 -69.1638 -69.1617 -69.1617 -69.1604 -69.1602 -69.1602
   -69.1600 -69.1599 -69.1592 -69.1583 -69.1582 -69.1582 -69.1579 -69.1577
   -69.1575 -69.1574 -69.1569 -69.1566 -69.1564 -69.1559 -69.1555 -69.1548
   -69.1548 -69.1547 -69.1542 -69.1541 -69.1539 -69.1537 -69.1528 -69.1526
   -69.1524 -69.1519 -69.1514 -69.1511 -69.1510 -69.1507 -69.1506 -69.1503
   -69.1500 -69.1499 -69.1497 -69.1496 -69.1490 -69.1485 -69.1483 -69.1479
   -69.1477 -69.1474 -69.1473 -69.1471 -69.1465 -69.1463 -69.1462 -69.1460
   -69.1459 -69.1457 -69.1454 -69.1451 -69.1449 -69.1444 -69.1443 -69.1443
   -69.1440 -69.1432 -69.1426 -69.1426 -69.1418 -69.1411 -69.1408 -69.1405
   -69.1404 -69.1398 -69.1395 -69.1395 -69.1394 -69.1391 -69.1386 -69.1384
   -69.1383 -69.1370 -69.1356 -69.1353 -69.1351 -69.1348 -69.1295 -69.1259
   -64.2594 -64.2520 -64.2456 -64.2450 -64.2337 -64.2325 -31.2512 -31.2449
   -31.2440 -31.2438 -31.2417 -31.2391 -31.2370 -31.2366 -31.2354 -31.2337
   -31.2309 -31.2280 -31.2265 -31.2207 -31.2197 -31.2190 -31.2164 -31.2132
    -9.6461  -9.2823  -9.2657  -9.1951  -9.1794  -9.1719  -9.1319  -9.1176
    -9.0976  -8.9815  -8.9764  -8.9562  -8.9450  -8.9410  -8.9155  -8.9062
    -8.8679  -8.8592  -8.8496  -8.8335  -8.8303  -8.8253  -8.8175  -8.7865
    -8.7663  -8.7225  -8.7012  -8.6872  -8.6798  -8.6544  -8.6512  -8.6426
    -8.6047  -8.5486  -8.5006  -8.3693   2.1592   2.1691   2.1782   2.1903
     2.2030   2.2186   2.2257   2.2346   2.2587   2.2832   2.3050   2.3154
     2.3253   2.3613   2.3696   2.3986   2.4286   2.4412   2.4551   2.5218
     2.5809   2.5891   2.5933   2.5983   2.6155   2.6215   2.6404   2.6530
     2.6604   2.6864   2.6948   2.7017   2.7122   2.7149   2.7260   2.7411
     2.7612   2.7696   2.7843   2.7946   2.7967   2.8186   2.8236   2.8295
     2.8505   2.8593   2.8632   2.8752   2.8893   2.8941   2.9077   2.9175
     2.9387   2.9418   2.9503   2.9519   2.9570   2.9605   2.9648   2.9717
     2.9752   2.9781   2.9876   2.9969   3.0051   3.0229   3.0289   3.0430
     3.0455   3.0742   3.0755   3.0843   3.1038   3.1233   3.1364   3.1492
     3.1943   3.2252   3.2477   3.2631   3.2775   3.2987   3.3066   3.3238
     3.3500   3.3659   3.3773   3.4058   3.4199   3.4278   3.4394   3.4824
     3.4893   3.5062   3.5362   3.5630   3.5902   3.5941   3.6141   3.6292
     3.6435   3.6875   3.7031   3.7137   3.7231   3.7310   3.7450   3.7541
     3.7577   3.7802   3.7860   3.7992   3.8050   3.8169   3.8269   3.8340
     3.8354   3.8424   3.8531   3.8606   3.8674   3.8696   3.8770   3.8882
     3.8941   3.8993   3.9031   3.9069   3.9152   3.9171   3.9206   3.9213
     3.9247   3.9435   3.9482   3.9587   3.9643   3.9731   3.9810   3.9850
     3.9897   3.9924   4.0113   4.0277   4.0856   4.1097   4.1297   4.1378
     4.1475   4.1683   4.1897   4.2754   4.2819   4.3072   4.3648   4.3703
     4.4088   4.4571   4.4847   4.5146   4.5323   4.5565   4.5818   4.5958
     4.6432   4.7497   4.7785   4.8049   4.8290   4.8881   4.9386   4.9774
     5.0155   5.0342   5.0569   5.0712   5.0991   5.1184   5.1654   5.1823
     5.2406   5.2673   5.3043   5.3542   5.3951   5.4818   5.5031   5.5163
     5.5349   5.7659   5.8015   5.8192   5.8844   5.9373   5.9689   6.0430
     6.0703   6.2313   6.2514   6.2829   6.2911   6.3131   6.3235   6.3440
     6.3618   6.4105   6.4215   6.4612   6.4746   6.5732   6.6325   6.6597
     6.6988   6.7528   6.7930   6.8073   6.8332   6.8460   6.8866   6.9015
     6.9309   6.9360   6.9413   6.9683   6.9805   6.9860   6.9924   7.0085
     7.0170   7.0435   7.0533   7.0619   7.0744   7.0877   7.0891   7.1059
     7.1142   7.3321   7.3599   7.3696   7.3881   7.4017   7.4251   7.4358
     7.4669   7.4969   7.5191   7.5649   7.5922   7.6391   7.6484   7.7903
     7.8063   7.8171   7.8245   8.1055   8.1836   8.1899

     occupation numbers 
     1.0000   1.0000   1.0000   1.0000   1.0000   1.0000   1.0000   1.0000
     1.0000   1.0000   1.0000   1.0000   1.0000   1.0000   1.0000   1.0000
     1.0000   1.0000   1.0000   1.0000   1.0000   1.0000   1.0000   1.0000
     1.0000   1.0000   1.0000   1.0000   1.0000   1.0000   1.0000   1.0000
     1.0000   1.0000   1.0000   1.0000   1.0000   1.0000   1.0000   1.0000
     1.0000   1.0000   1.0000   1.0000   1.0000   1.0000   1.0000   1.0000
     1.0000   1.0000   1.0000   1.0000   1.0000   1.0000   1.0000   1.0000
     1.0000   1.0000   1.0000   1.0000   1.0000   1.0000   1.0000   1.0000
     1.0000   1.0000   1.0000   1.0000   1.0000   1.0000   1.0000   1.0000
     1.0000   1.0000   1.0000   1.0000   1.0000   1.0000   1.0000   1.0000
     1.0000   1.0000   1.0000   1.0000   1.0000   1.0000   1.0000   1.0000
     1.0000   1.0000   1.0000   1.0000   1.0000   1.0000   1.0000   1.0000
     1.0000   1.0000   1.0000   1.0000   1.0000   1.0000   1.0000   1.0000
     1.0000   1.0000   1.0000   1.0000   1.0000   1.0000   1.0000   1.0000
     1.0000   1.0000   1.0000   1.0000   1.0000   1.0000   1.0000   1.0000
     1.0000   1.0000   1.0000   1.0000   1.0000   1.0000   1.0000   1.0000
     1.0000   1.0000   1.0000   1.0000   1.0000   1.0000   1.0000   1.0000
     1.0000   1.0000   1.0000   1.0000   1.0000   1.0000   1.0000   1.0000
     1.0000   1.0000   1.0000   1.0000   1.0000   1.0000   1.0000   1.0000
     1.0000   1.0000   1.0000   1.0000   1.0000   1.0000   1.0000   1.0000
     1.0000   1.0000   1.0000   1.0000   1.0000   1.0000   1.0000   1.0000
     1.0000   1.0000   1.0000   1.0000   1.0000   1.0000   1.0000   1.0000
     1.0000   1.0000   1.0000   1.0000   1.0000   1.0000   1.0000   1.0000
     1.0000   1.0000   1.0000   1.0000   1.0000   1.0000   1.0000   1.0000
     1.0000   1.0000   1.0000   1.0000   1.0000   1.0000   1.0000   1.0000
     1.0000   1.0000   1.0000   1.0000   1.0000   1.0000   1.0000   1.0000
     1.0000   1.0000   1.0000   1.0000   1.0000   1.0000   1.0000   1.0000
     1.0000   1.0000   1.0000   1.0000   1.0000   1.0000   1.0000   1.0000
     1.0000   1.0000   1.0000   1.0000   1.0000   1.0000   1.0000   1.0000
     1.0000   1.0000   1.0000   1.0000   1.0000   1.0000   1.0000   1.0000
     1.0000   1.0000   1.0000   1.0000   1.0000   1.0000   1.0000   1.0000
     1.0000   1.0000   1.0000   1.0000   1.0000   1.0000   1.0000   1.0000
     1.0000   1.0000   1.0000   1.0000   1.0000   1.0000   1.0000   1.0000
     1.0000   1.0000   1.0000   1.0000   1.0000   1.0000   1.0000   1.0000
     1.0000   1.0000   1.0000   1.0000   1.0000   1.0000   1.0000   1.0000
     1.0000   1.0000   1.0000   1.0000   1.0000   1.0000   1.0000   1.0000
     1.0000   1.0000   1.0000   1.0000   1.0000   1.0000   1.0000   1.0000
     1.0000   1.0000   1.0000   1.0000   1.0000   1.0000   1.0000   1.0000
     1.0000   1.0000   1.0000   1.0000   1.0000   1.0000   1.0000   1.0000
     1.0000   1.0000   1.0000   1.0000   1.0000   1.0000   1.0000   1.0000
     1.0000   1.0000   1.0000   1.0000   1.0000   1.0000   1.0000   1.0000
     1.0000   1.0000   1.0000   1.0000   1.0000   1.0000   1.0000   1.0000
     1.0000   1.0000   1.0000   1.0000   1.0000   1.0000   1.0000   1.0000
     1.0000   1.0000   1.0000   1.0000   1.0000   1.0000   1.0000   1.0000
     1.0000   1.0000   1.0000   1.0000   1.0000   1.0000   1.0000   1.0000
     1.0000   1.0000   1.0000   1.0000   1.0000   1.0000   1.0000   1.0000
     1.0000   1.0000   1.0000   1.0000   1.0000   1.0000   1.0000   1.0000
     1.0000   1.0000   1.0000   1.0000   1.0000   1.0000   1.0000   1.0000
     1.0000   1.0000   1.0000   1.0000   1.0000   1.0000   1.0000   1.0000
     1.0000   1.0000   1.0000   1.0000   1.0000   1.0000   1.0000   1.0000
     1.0000   1.0000   1.0000   1.0000   1.0000   1.0000   1.0000   1.0000
     1.0000   1.0000   1.0000   1.0000   1.0000   1.0000   1.0000   1.0000
     1.0000   1.0000   1.0000   1.0000   1.0000   1.0000   1.0000   1.0000
     1.0000   1.0000   1.0000   1.0000   1.0000   1.0000   1.0000   1.0000
     1.0000   1.0000   1.0000   1.0000   1.0000   1.0000

          k =-0.0000 0.0000 0.1341 ( 44936 PWs)   bands (ev):

  -114.8070-114.8060-114.8045-114.8011-114.8000-114.8000-114.7996-114.7991
  -114.7976-114.7975-114.7967-114.7966-114.7952-114.7932-114.7925-114.7917
  -114.7916-114.7903-114.7886-114.7885-114.7856-114.7853-114.7851-114.7846
  -114.7843-114.7836-114.7831-114.7825-114.7825-114.7730 -69.1687 -69.1655
   -69.1647 -69.1639 -69.1638 -69.1617 -69.1617 -69.1604 -69.1602 -69.1602
   -69.1600 -69.1599 -69.1592 -69.1583 -69.1582 -69.1582 -69.1579 -69.1577
   -69.1575 -69.1574 -69.1569 -69.1566 -69.1564 -69.1559 -69.1555 -69.1548
   -69.1548 -69.1547 -69.1542 -69.1541 -69.1539 -69.1537 -69.1528 -69.1526
   -69.1524 -69.1519 -69.1514 -69.1511 -69.1510 -69.1507 -69.1506 -69.1503
   -69.1500 -69.1499 -69.1497 -69.1496 -69.1490 -69.1485 -69.1483 -69.1479
   -69.1477 -69.1474 -69.1473 -69.1471 -69.1465 -69.1463 -69.1462 -69.1460
   -69.1459 -69.1457 -69.1454 -69.1451 -69.1449 -69.1444 -69.1443 -69.1443
   -69.1440 -69.1432 -69.1426 -69.1426 -69.1418 -69.1411 -69.1408 -69.1405
   -69.1404 -69.1398 -69.1395 -69.1395 -69.1394 -69.1391 -69.1386 -69.1384
   -69.1383 -69.1370 -69.1356 -69.1353 -69.1351 -69.1348 -69.1295 -69.1259
   -64.2594 -64.2520 -64.2456 -64.2450 -64.2337 -64.2325 -31.2512 -31.2449
   -31.2440 -31.2438 -31.2417 -31.2391 -31.2370 -31.2366 -31.2354 -31.2337
   -31.2309 -31.2280 -31.2265 -31.2207 -31.2197 -31.2190 -31.2164 -31.2132
    -9.6380  -9.3510  -9.2077  -9.1875  -9.1738  -9.1638  -9.1281  -9.1145
    -9.0918  -9.0188  -8.9864  -8.9805  -8.9537  -8.9294  -8.9093  -8.8969
    -8.8768  -8.8586  -8.8434  -8.8334  -8.8256  -8.8118  -8.8005  -8.7827
    -8.7673  -8.7230  -8.7011  -8.6882  -8.6821  -8.6554  -8.6536  -8.6451
    -8.6055  -8.5505  -8.5017  -8.3699   2.1654   2.1722   2.1819   2.1973
     2.2073   2.2205   2.2388   2.2470   2.2681   2.2939   2.3128   2.3220
     2.3328   2.3608   2.3709   2.3997   2.4284   2.4369   2.4709   2.5268
     2.5825   2.5885   2.5939   2.5977   2.6175   2.6216   2.6311   2.6472
     2.6597   2.6772   2.6899   2.6976   2.7043   2.7139   2.7224   2.7356
     2.7503   2.7576   2.7811   2.7886   2.7965   2.8136   2.8209   2.8308
     2.8479   2.8582   2.8663   2.8751   2.8936   2.8951   2.9073   2.9232
     2.9361   2.9428   2.9469   2.9539   2.9558   2.9625   2.9676   2.9718
     2.9756   2.9807   2.9887   2.9928   3.0075   3.0219   3.0267   3.0414
     3.0488   3.0722   3.0744   3.0848   3.1037   3.1201   3.1334   3.1423
     3.1883   3.2155   3.2364   3.2477   3.2640   3.2803   3.2921   3.3082
     3.3223   3.3454   3.3594   3.3808   3.3929   3.4190   3.4333   3.4640
     3.4834   3.5070   3.5369   3.5588   3.5817   3.6043   3.6260   3.6292
     3.6530   3.6687   3.6799   3.7021   3.7207   3.7331   3.7386   3.7521
     3.7661   3.7798   3.7995   3.8075   3.8148   3.8220   3.8269   3.8357
     3.8438   3.8493   3.8539   3.8606   3.8650   3.8716   3.8779   3.8846
     3.8883   3.8929   3.8959   3.9044   3.9184   3.9222   3.9297   3.9386
     3.9453   3.9509   3.9532   3.9637   3.9660   3.9700   3.9786   3.9855
     3.9894   4.0007   4.0165   4.0377   4.0798   4.0901   4.1068   4.1299
     4.1386   4.1674   4.2150   4.3241   4.3493   4.3629   4.3875   4.4064
     4.4324   4.4807   4.5051   4.5206   4.5390   4.5630   4.5838   4.6087
     4.6432   4.7462   4.7791   4.8087   4.8352   4.8946   4.9522   4.9770
     5.0215   5.0377   5.0553   5.0737   5.1007   5.1323   5.1568   5.1919
     5.2331   5.2582   5.3147   5.3369   5.3477   5.3831   5.4257   5.5995
     5.6802   5.6953   5.7814   5.8363   5.9213   5.9359   5.9868   6.0330
     6.1291   6.2234   6.2738   6.2990   6.3098   6.3259   6.3538   6.3596
     6.3895   6.4094   6.4361   6.4462   6.4544   6.4817   6.5425   6.5698
     6.5855   6.6220   6.6467   6.7419   6.7697   6.7929   6.8396   6.8707
     6.8775   6.8899   6.9030   6.9602   6.9892   7.0070   7.0240   7.0601
     7.0981   7.1030   7.1207   7.1471   7.1509   7.1590   7.1692   7.1748
     7.1900   7.3495   7.3706   7.3819   7.3968   7.4169   7.4368   7.4451
     7.4754   7.4960   7.5150   7.5565   7.5818   7.6270   7.6351   7.7341
     7.7422   7.8758   7.8842   7.9909   8.1772   8.1832

     occupation numbers 
     1.0000   1.0000   1.0000   1.0000   1.0000   1.0000   1.0000   1.0000
     1.0000   1.0000   1.0000   1.0000   1.0000   1.0000   1.0000   1.0000
     1.0000   1.0000   1.0000   1.0000   1.0000   1.0000   1.0000   1.0000
     1.0000   1.0000   1.0000   1.0000   1.0000   1.0000   1.0000   1.0000
     1.0000   1.0000   1.0000   1.0000   1.0000   1.0000   1.0000   1.0000
     1.0000   1.0000   1.0000   1.0000   1.0000   1.0000   1.0000   1.0000
     1.0000   1.0000   1.0000   1.0000   1.0000   1.0000   1.0000   1.0000
     1.0000   1.0000   1.0000   1.0000   1.0000   1.0000   1.0000   1.0000
     1.0000   1.0000   1.0000   1.0000   1.0000   1.0000   1.0000   1.0000
     1.0000   1.0000   1.0000   1.0000   1.0000   1.0000   1.0000   1.0000
     1.0000   1.0000   1.0000   1.0000   1.0000   1.0000   1.0000   1.0000
     1.0000   1.0000   1.0000   1.0000   1.0000   1.0000   1.0000   1.0000
     1.0000   1.0000   1.0000   1.0000   1.0000   1.0000   1.0000   1.0000
     1.0000   1.0000   1.0000   1.0000   1.0000   1.0000   1.0000   1.0000
     1.0000   1.0000   1.0000   1.0000   1.0000   1.0000   1.0000   1.0000
     1.0000   1.0000   1.0000   1.0000   1.0000   1.0000   1.0000   1.0000
     1.0000   1.0000   1.0000   1.0000   1.0000   1.0000   1.0000   1.0000
     1.0000   1.0000   1.0000   1.0000   1.0000   1.0000   1.0000   1.0000
     1.0000   1.0000   1.0000   1.0000   1.0000   1.0000   1.0000   1.0000
     1.0000   1.0000   1.0000   1.0000   1.0000   1.0000   1.0000   1.0000
     1.0000   1.0000   1.0000   1.0000   1.0000   1.0000   1.0000   1.0000
     1.0000   1.0000   1.0000   1.0000   1.0000   1.0000   1.0000   1.0000
     1.0000   1.0000   1.0000   1.0000   1.0000   1.0000   1.0000   1.0000
     1.0000   1.0000   1.0000   1.0000   1.0000   1.0000   1.0000   1.0000
     1.0000   1.0000   1.0000   1.0000   1.0000   1.0000   1.0000   1.0000
     1.0000   1.0000   1.0000   1.0000   1.0000   1.0000   1.0000   1.0000
     1.0000   1.0000   1.0000   1.0000   1.0000   1.0000   1.0000   1.0000
     1.0000   1.0000   1.0000   1.0000   1.0000   1.0000   1.0000   1.0000
     1.0000   1.0000   1.0000   1.0000   1.0000   1.0000   1.0000   1.0000
     1.0000   1.0000   1.0000   1.0000   1.0000   1.0000   1.0000   1.0000
     1.0000   1.0000   1.0000   1.0000   1.0000   1.0000   1.0000   1.0000
     1.0000   1.0000   1.0000   1.0000   1.0000   1.0000   1.0000   1.0000
     1.0000   1.0000   1.0000   1.0000   1.0000   1.0000   1.0000   1.0000
     1.0000   1.0000   1.0000   1.0000   1.0000   1.0000   1.0000   1.0000
     1.0000   1.0000   1.0000   1.0000   1.0000   1.0000   1.0000   1.0000
     1.0000   1.0000   1.0000   1.0000   1.0000   1.0000   1.0000   1.0000
     1.0000   1.0000   1.0000   1.0000   1.0000   1.0000   1.0000   1.0000
     1.0000   1.0000   1.0000   1.0000   1.0000   1.0000   1.0000   1.0000
     1.0000   1.0000   1.0000   1.0000   1.0000   1.0000   1.0000   1.0000
     1.0000   1.0000   1.0000   1.0000   1.0000   1.0000   1.0000   1.0000
     1.0000   1.0000   1.0000   1.0000   1.0000   1.0000   1.0000   1.0000
     1.0000   1.0000   1.0000   1.0000   1.0000   1.0000   1.0000   1.0000
     1.0000   1.0000   1.0000   1.0000   1.0000   1.0000   1.0000   1.0000
     1.0000   1.0000   1.0000   1.0000   1.0000   1.0000   1.0000   1.0000
     1.0000   1.0000   1.0000   1.0000   1.0000   1.0000   1.0000   1.0000
     1.0000   1.0000   1.0000   1.0000   1.0000   1.0000   1.0000   1.0000
     1.0000   1.0000   1.0000   1.0000   1.0000   1.0000   1.0000   1.0000
     1.0000   1.0000   1.0000   1.0000   1.0000   1.0000   1.0000   1.0000
     1.0000   1.0000   1.0000   1.0000   1.0000   1.0000   1.0000   1.0000
     1.0000   1.0000   1.0000   1.0000   1.0000   1.0000   1.0000   1.0000
     1.0000   1.0000   1.0000   1.0000   1.0000   1.0000   1.0000   1.0000
     1.0000   1.0000   1.0000   1.0000   1.0000   1.0000   1.0000   1.0000
     1.0000   1.0000   1.0000   1.0000   1.0000   1.0000   1.0000   1.0000
     1.0000   1.0000   1.0000   1.0000   1.0000   1.0000   1.0000   1.0000
     1.0000   1.0000   1.0000   1.0000   1.0000   1.0000

          k =-0.0000 0.0000 0.2682 ( 44982 PWs)   bands (ev):

  -114.8070-114.8060-114.8045-114.8011-114.8000-114.8000-114.7996-114.7991
  -114.7976-114.7975-114.7967-114.7966-114.7952-114.7932-114.7925-114.7917
  -114.7916-114.7903-114.7886-114.7885-114.7856-114.7853-114.7851-114.7846
  -114.7843-114.7836-114.7831-114.7825-114.7825-114.7730 -69.1687 -69.1655
   -69.1647 -69.1639 -69.1638 -69.1617 -69.1617 -69.1604 -69.1602 -69.1602
   -69.1600 -69.1599 -69.1592 -69.1583 -69.1582 -69.1582 -69.1579 -69.1577
   -69.1575 -69.1574 -69.1569 -69.1566 -69.1564 -69.1559 -69.1555 -69.1548
   -69.1548 -69.1547 -69.1542 -69.1541 -69.1539 -69.1537 -69.1528 -69.1526
   -69.1524 -69.1519 -69.1514 -69.1511 -69.1510 -69.1507 -69.1506 -69.1503
   -69.1500 -69.1499 -69.1497 -69.1496 -69.1490 -69.1485 -69.1483 -69.1479
   -69.1477 -69.1474 -69.1473 -69.1471 -69.1465 -69.1463 -69.1462 -69.1460
   -69.1459 -69.1457 -69.1454 -69.1451 -69.1449 -69.1444 -69.1443 -69.1443
   -69.1440 -69.1432 -69.1426 -69.1426 -69.1418 -69.1411 -69.1408 -69.1405
   -69.1404 -69.1398 -69.1395 -69.1395 -69.1394 -69.1391 -69.1386 -69.1384
   -69.1383 -69.1370 -69.1356 -69.1353 -69.1351 -69.1348 -69.1295 -69.1259
   -64.2594 -64.2520 -64.2456 -64.2450 -64.2337 -64.2325 -31.2512 -31.2449
   -31.2440 -31.2438 -31.2417 -31.2391 -31.2370 -31.2366 -31.2354 -31.2337
   -31.2309 -31.2280 -31.2265 -31.2207 -31.2197 -31.2190 -31.2164 -31.2132
    -9.6149  -9.4231  -9.1794  -9.1703  -9.1602  -9.1292  -9.1182  -9.1063
    -9.0748  -9.0581  -9.0228  -9.0119  -8.9849  -8.9364  -8.9216  -8.8853
    -8.8718  -8.8509  -8.8258  -8.8249  -8.8157  -8.7927  -8.7851  -8.7687
    -8.7633  -8.7251  -8.7013  -8.6902  -8.6878  -8.6625  -8.6564  -8.6506
    -8.6071  -8.5551  -8.5042  -8.3711   2.1784   2.1846   2.1932   2.2115
     2.2171   2.2277   2.2660   2.2678   2.2857   2.3129   2.3279   2.3369
     2.3588   2.3769   2.3853   2.4138   2.4351   2.4388   2.4904   2.5401
     2.5714   2.5818   2.5866   2.5949   2.5996   2.6061   2.6208   2.6347
     2.6455   2.6549   2.6748   2.6913   2.6999   2.7076   2.7157   2.7291
     2.7357   2.7502   2.7666   2.7808   2.7958   2.8065   2.8208   2.8330
     2.8465   2.8519   2.8590   2.8727   2.8933   2.9023   2.9119   2.9158
     2.9240   2.9375   2.9457   2.9530   2.9576   2.9621   2.9657   2.9730
     2.9835   2.9868   2.9921   3.0066   3.0141   3.0250   3.0279   3.0410
     3.0571   3.0704   3.0744   3.0838   3.1004   3.1122   3.1193   3.1298
     3.1663   3.1807   3.1950   3.2083   3.2162   3.2300   3.2442   3.2720
     3.3020   3.3120   3.3375   3.3475   3.3698   3.3988   3.4261   3.4382
     3.4727   3.5012   3.5074   3.5622   3.5670   3.5834   3.6231   3.6440
     3.6499   3.6714   3.6926   3.7008   3.7206   3.7310   3.7464   3.7570
     3.7659   3.7810   3.8056   3.8100   3.8121   3.8235   3.8251   3.8359
     3.8425   3.8452   3.8517   3.8585   3.8623   3.8683   3.8733   3.8801
     3.8879   3.8945   3.9085   3.9150   3.9300   3.9361   3.9427   3.9525
     3.9560   3.9601   3.9655   3.9733   3.9757   3.9815   3.9859   3.9896
     4.0064   4.0160   4.0243   4.0431   4.0656   4.0721   4.0954   4.1165
     4.1239   4.1567   4.2934   4.3978   4.4112   4.4238   4.4485   4.4874
     4.5025   4.5240   4.5330   4.5677   4.5833   4.5940   4.6135   4.6384
     4.6566   4.7321   4.7636   4.8154   4.8457   4.8838   4.9618   4.9763
     5.0222   5.0387   5.0584   5.0737   5.0934   5.1178   5.1458   5.1820
     5.2294   5.2517   5.2985   5.3165   5.3776   5.4009   5.4288   5.5097
     5.7554   5.8048   5.8359   5.8790   5.9214   5.9399   5.9782   6.0145
     6.1352   6.1742   6.2281   6.2498   6.2923   6.3008   6.3413   6.3460
     6.3617   6.3908   6.4127   6.4258   6.4392   6.4560   6.4747   6.4878
     6.5024   6.5171   6.6413   6.6529   6.6735   6.6982   6.7511   6.7662
     6.7790   6.8416   6.8472   6.8826   6.9440   7.0487   7.0619   7.1375
     7.1538   7.1723   7.2119   7.2400   7.2610   7.2904   7.2980   7.3022
     7.3201   7.3877   7.4021   7.4101   7.4210   7.4486   7.4632   7.4726
     7.4880   7.5000   7.5147   7.5369   7.5546   7.5949   7.5985   7.6692
     7.6729   7.7475   7.9380   7.9454   8.1602   8.1656

     occupation numbers 
     1.0000   1.0000   1.0000   1.0000   1.0000   1.0000   1.0000   1.0000
     1.0000   1.0000   1.0000   1.0000   1.0000   1.0000   1.0000   1.0000
     1.0000   1.0000   1.0000   1.0000   1.0000   1.0000   1.0000   1.0000
     1.0000   1.0000   1.0000   1.0000   1.0000   1.0000   1.0000   1.0000
     1.0000   1.0000   1.0000   1.0000   1.0000   1.0000   1.0000   1.0000
     1.0000   1.0000   1.0000   1.0000   1.0000   1.0000   1.0000   1.0000
     1.0000   1.0000   1.0000   1.0000   1.0000   1.0000   1.0000   1.0000
     1.0000   1.0000   1.0000   1.0000   1.0000   1.0000   1.0000   1.0000
     1.0000   1.0000   1.0000   1.0000   1.0000   1.0000   1.0000   1.0000
     1.0000   1.0000   1.0000   1.0000   1.0000   1.0000   1.0000   1.0000
     1.0000   1.0000   1.0000   1.0000   1.0000   1.0000   1.0000   1.0000
     1.0000   1.0000   1.0000   1.0000   1.0000   1.0000   1.0000   1.0000
     1.0000   1.0000   1.0000   1.0000   1.0000   1.0000   1.0000   1.0000
     1.0000   1.0000   1.0000   1.0000   1.0000   1.0000   1.0000   1.0000
     1.0000   1.0000   1.0000   1.0000   1.0000   1.0000   1.0000   1.0000
     1.0000   1.0000   1.0000   1.0000   1.0000   1.0000   1.0000   1.0000
     1.0000   1.0000   1.0000   1.0000   1.0000   1.0000   1.0000   1.0000
     1.0000   1.0000   1.0000   1.0000   1.0000   1.0000   1.0000   1.0000
     1.0000   1.0000   1.0000   1.0000   1.0000   1.0000   1.0000   1.0000
     1.0000   1.0000   1.0000   1.0000   1.0000   1.0000   1.0000   1.0000
     1.0000   1.0000   1.0000   1.0000   1.0000   1.0000   1.0000   1.0000
     1.0000   1.0000   1.0000   1.0000   1.0000   1.0000   1.0000   1.0000
     1.0000   1.0000   1.0000   1.0000   1.0000   1.0000   1.0000   1.0000
     1.0000   1.0000   1.0000   1.0000   1.0000   1.0000   1.0000   1.0000
     1.0000   1.0000   1.0000   1.0000   1.0000   1.0000   1.0000   1.0000
     1.0000   1.0000   1.0000   1.0000   1.0000   1.0000   1.0000   1.0000
     1.0000   1.0000   1.0000   1.0000   1.0000   1.0000   1.0000   1.0000
     1.0000   1.0000   1.0000   1.0000   1.0000   1.0000   1.0000   1.0000
     1.0000   1.0000   1.0000   1.0000   1.0000   1.0000   1.0000   1.0000
     1.0000   1.0000   1.0000   1.0000   1.0000   1.0000   1.0000   1.0000
     1.0000   1.0000   1.0000   1.0000   1.0000   1.0000   1.0000   1.0000
     1.0000   1.0000   1.0000   1.0000   1.0000   1.0000   1.0000   1.0000
     1.0000   1.0000   1.0000   1.0000   1.0000   1.0000   1.0000   1.0000
     1.0000   1.0000   1.0000   1.0000   1.0000   1.0000   1.0000   1.0000
     1.0000   1.0000   1.0000   1.0000   1.0000   1.0000   1.0000   1.0000
     1.0000   1.0000   1.0000   1.0000   1.0000   1.0000   1.0000   1.0000
     1.0000   1.0000   1.0000   1.0000   1.0000   1.0000   1.0000   1.0000
     1.0000   1.0000   1.0000   1.0000   1.0000   1.0000   1.0000   1.0000
     1.0000   1.0000   1.0000   1.0000   1.0000   1.0000   1.0000   1.0000
     1.0000   1.0000   1.0000   1.0000   1.0000   1.0000   1.0000   1.0000
     1.0000   1.0000   1.0000   1.0000   1.0000   1.0000   1.0000   1.0000
     1.0000   1.0000   1.0000   1.0000   1.0000   1.0000   1.0000   1.0000
     1.0000   1.0000   1.0000   1.0000   1.0000   1.0000   1.0000   1.0000
     1.0000   1.0000   1.0000   1.0000   1.0000   1.0000   1.0000   1.0000
     1.0000   1.0000   1.0000   1.0000   1.0000   1.0000   1.0000   1.0000
     1.0000   1.0000   1.0000   1.0000   1.0000   1.0000   1.0000   1.0000
     1.0000   1.0000   1.0000   1.0000   1.0000   1.0000   1.0000   1.0000
     1.0000   1.0000   1.0000   1.0000   1.0000   1.0000   1.0000   1.0000
     1.0000   1.0000   1.0000   1.0000   1.0000   1.0000   1.0000   1.0000
     1.0000   1.0000   1.0000   1.0000   1.0000   1.0000   1.0000   1.0000
     1.0000   1.0000   1.0000   1.0000   1.0000   1.0000   1.0000   1.0000
     1.0000   1.0000   1.0000   1.0000   1.0000   1.0000   1.0000   1.0000
     1.0000   1.0000   1.0000   1.0000   1.0000   1.0000   1.0000   1.0000
     1.0000   1.0000   1.0000   1.0000   1.0000   1.0000   1.0000   1.0000
     1.0000   1.0000   1.0000   1.0000   1.0000   1.0000

          k =-0.0000 0.0000 0.4023 ( 44976 PWs)   bands (ev):

  -114.8070-114.8060-114.8045-114.8011-114.8000-114.8000-114.7996-114.7991
  -114.7976-114.7975-114.7967-114.7966-114.7952-114.7932-114.7925-114.7917
  -114.7916-114.7903-114.7886-114.7885-114.7856-114.7853-114.7851-114.7846
  -114.7843-114.7836-114.7831-114.7825-114.7825-114.7730 -69.1687 -69.1655
   -69.1647 -69.1639 -69.1638 -69.1617 -69.1617 -69.1604 -69.1602 -69.1602
   -69.1600 -69.1599 -69.1592 -69.1583 -69.1582 -69.1582 -69.1579 -69.1577
   -69.1575 -69.1574 -69.1569 -69.1566 -69.1564 -69.1559 -69.1555 -69.1548
   -69.1548 -69.1547 -69.1542 -69.1541 -69.1539 -69.1537 -69.1528 -69.1526
   -69.1524 -69.1519 -69.1514 -69.1511 -69.1510 -69.1507 -69.1506 -69.1503
   -69.1500 -69.1499 -69.1497 -69.1496 -69.1490 -69.1485 -69.1483 -69.1479
   -69.1477 -69.1474 -69.1473 -69.1471 -69.1465 -69.1463 -69.1462 -69.1460
   -69.1459 -69.1457 -69.1454 -69.1451 -69.1449 -69.1444 -69.1443 -69.1443
   -69.1440 -69.1432 -69.1426 -69.1426 -69.1418 -69.1411 -69.1408 -69.1405
   -69.1404 -69.1398 -69.1395 -69.1395 -69.1394 -69.1391 -69.1386 -69.1384
   -69.1383 -69.1370 -69.1356 -69.1353 -69.1351 -69.1348 -69.1295 -69.1259
   -64.2594 -64.2520 -64.2456 -64.2450 -64.2337 -64.2325 -31.2512 -31.2449
   -31.2440 -31.2438 -31.2417 -31.2391 -31.2370 -31.2366 -31.2354 -31.2337
   -31.2309 -31.2280 -31.2265 -31.2207 -31.2197 -31.2190 -31.2164 -31.2132
    -9.5851  -9.4785  -9.1596  -9.1569  -9.1471  -9.1139  -9.1046  -9.0960
    -9.0948  -9.0564  -9.0417  -9.0269  -9.0088  -8.9512  -8.9349  -8.9060
    -8.8500  -8.8373  -8.8255  -8.8142  -8.7986  -8.7876  -8.7804  -8.7592
    -8.7481  -8.7277  -8.7024  -8.6933  -8.6901  -8.6713  -8.6604  -8.6535
    -8.6081  -8.5592  -8.5062  -8.3721   2.1887   2.1987   2.2055   2.2180
     2.2315   2.2374   2.2656   2.2784   2.2979   2.3189   2.3337   2.3620
     2.4028   2.4156   2.4262   2.4413   2.4530   2.4615   2.4880   2.5163
     2.5245   2.5481   2.5704   2.5856   2.5910   2.5974   2.6141   2.6171
     2.6275   2.6379   2.6523   2.6854   2.6985   2.7059   2.7225   2.7278
     2.7457   2.7477   2.7662   2.7817   2.7834   2.8104   2.8220   2.8382
     2.8433   2.8473   2.8544   2.8699   2.8789   2.8956   2.9018   2.9076
     2.9178   2.9306   2.9347   2.9516   2.9558   2.9614   2.9693   2.9759
     2.9864   2.9979   3.0052   3.0141   3.0264   3.0329   3.0396   3.0578
     3.0663   3.0715   3.0758   3.0834   3.0939   3.1025   3.1119   3.1181
     3.1307   3.1388   3.1529   3.1606   3.1730   3.1872   3.1990   3.2679
     3.2954   3.2987   3.3285   3.3371   3.3527   3.3873   3.4215   3.4261
     3.4615   3.4819   3.5004   3.5447   3.5490   3.5888   3.6057   3.6510
     3.6692   3.6860   3.6905   3.7122   3.7237   3.7342   3.7458   3.7653
     3.7782   3.7912   3.7973   3.8036   3.8090   3.8134   3.8208   3.8289
     3.8357   3.8376   3.8430   3.8554   3.8584   3.8659   3.8719   3.8809
     3.8963   3.8985   3.9095   3.9215   3.9356   3.9433   3.9517   3.9540
     3.9628   3.9689   3.9713   3.9782   3.9857   3.9956   3.9987   4.0034
     4.0227   4.0296   4.0340   4.0450   4.0569   4.0700   4.0884   4.1020
     4.1199   4.1356   4.3731   4.4281   4.4435   4.4580   4.4891   4.5192
     4.5342   4.5516   4.5632   4.5940   4.6388   4.6658   4.6832   4.6885
     4.7221   4.7339   4.7669   4.7888   4.8400   4.8634   4.9049   4.9157
     4.9230   4.9765   4.9904   5.0569   5.1049   5.1428   5.1630   5.2477
     5.2762   5.3219   5.3386   5.3653   5.4191   5.4401   5.4751   5.5151
     5.7668   5.8089   5.8673   5.9106   5.9232   5.9527   5.9950   6.0129
     6.0556   6.0678   6.0850   6.0962   6.1407   6.1815   6.2496   6.2616
     6.3734   6.4195   6.4487   6.4610   6.4935   6.5213   6.5428   6.5574
     6.5741   6.5865   6.6029   6.6063   6.6257   6.6613   6.6700   6.6860
     6.7167   6.7537   6.7640   6.7768   6.9295   7.0879   7.1175   7.1893
     7.1985   7.2174   7.2530   7.3062   7.3185   7.3515   7.3673   7.3795
     7.3897   7.4112   7.4298   7.4558   7.4625   7.4719   7.4836   7.4938
     7.5011   7.5072   7.5150   7.5227   7.5274   7.5339   7.5466   7.5655
     7.6133   7.6189   7.9802   7.9869   8.1418   8.1468

     occupation numbers 
     1.0000   1.0000   1.0000   1.0000   1.0000   1.0000   1.0000   1.0000
     1.0000   1.0000   1.0000   1.0000   1.0000   1.0000   1.0000   1.0000
     1.0000   1.0000   1.0000   1.0000   1.0000   1.0000   1.0000   1.0000
     1.0000   1.0000   1.0000   1.0000   1.0000   1.0000   1.0000   1.0000
     1.0000   1.0000   1.0000   1.0000   1.0000   1.0000   1.0000   1.0000
     1.0000   1.0000   1.0000   1.0000   1.0000   1.0000   1.0000   1.0000
     1.0000   1.0000   1.0000   1.0000   1.0000   1.0000   1.0000   1.0000
     1.0000   1.0000   1.0000   1.0000   1.0000   1.0000   1.0000   1.0000
     1.0000   1.0000   1.0000   1.0000   1.0000   1.0000   1.0000   1.0000
     1.0000   1.0000   1.0000   1.0000   1.0000   1.0000   1.0000   1.0000
     1.0000   1.0000   1.0000   1.0000   1.0000   1.0000   1.0000   1.0000
     1.0000   1.0000   1.0000   1.0000   1.0000   1.0000   1.0000   1.0000
     1.0000   1.0000   1.0000   1.0000   1.0000   1.0000   1.0000   1.0000
     1.0000   1.0000   1.0000   1.0000   1.0000   1.0000   1.0000   1.0000
     1.0000   1.0000   1.0000   1.0000   1.0000   1.0000   1.0000   1.0000
     1.0000   1.0000   1.0000   1.0000   1.0000   1.0000   1.0000   1.0000
     1.0000   1.0000   1.0000   1.0000   1.0000   1.0000   1.0000   1.0000
     1.0000   1.0000   1.0000   1.0000   1.0000   1.0000   1.0000   1.0000
     1.0000   1.0000   1.0000   1.0000   1.0000   1.0000   1.0000   1.0000
     1.0000   1.0000   1.0000   1.0000   1.0000   1.0000   1.0000   1.0000
     1.0000   1.0000   1.0000   1.0000   1.0000   1.0000   1.0000   1.0000
     1.0000   1.0000   1.0000   1.0000   1.0000   1.0000   1.0000   1.0000
     1.0000   1.0000   1.0000   1.0000   1.0000   1.0000   1.0000   1.0000
     1.0000   1.0000   1.0000   1.0000   1.0000   1.0000   1.0000   1.0000
     1.0000   1.0000   1.0000   1.0000   1.0000   1.0000   1.0000   1.0000
     1.0000   1.0000   1.0000   1.0000   1.0000   1.0000   1.0000   1.0000
     1.0000   1.0000   1.0000   1.0000   1.0000   1.0000   1.0000   1.0000
     1.0000   1.0000   1.0000   1.0000   1.0000   1.0000   1.0000   1.0000
     1.0000   1.0000   1.0000   1.0000   1.0000   1.0000   1.0000   1.0000
     1.0000   1.0000   1.0000   1.0000   1.0000   1.0000   1.0000   1.0000
     1.0000   1.0000   1.0000   1.0000   1.0000   1.0000   1.0000   1.0000
     1.0000   1.0000   1.0000   1.0000   1.0000   1.0000   1.0000   1.0000
     1.0000   1.0000   1.0000   1.0000   1.0000   1.0000   1.0000   1.0000
     1.0000   1.0000   1.0000   1.0000   1.0000   1.0000   1.0000   1.0000
     1.0000   1.0000   1.0000   1.0000   1.0000   1.0000   1.0000   1.0000
     1.0000   1.0000   1.0000   1.0000   1.0000   1.0000   1.0000   1.0000
     1.0000   1.0000   1.0000   1.0000   1.0000   1.0000   1.0000   1.0000
     1.0000   1.0000   1.0000   1.0000   1.0000   1.0000   1.0000   1.0000
     1.0000   1.0000   1.0000   1.0000   1.0000   1.0000   1.0000   1.0000
     1.0000   1.0000   1.0000   1.0000   1.0000   1.0000   1.0000   1.0000
     1.0000   1.0000   1.0000   1.0000   1.0000   1.0000   1.0000   1.0000
     1.0000   1.0000   1.0000   1.0000   1.0000   1.0000   1.0000   1.0000
     1.0000   1.0000   1.0000   1.0000   1.0000   1.0000   1.0000   1.0000
     1.0000   1.0000   1.0000   1.0000   1.0000   1.0000   1.0000   1.0000
     1.0000   1.0000   1.0000   1.0000   1.0000   1.0000   1.0000   1.0000
     1.0000   1.0000   1.0000   1.0000   1.0000   1.0000   1.0000   1.0000
     1.0000   1.0000   1.0000   1.0000   1.0000   1.0000   1.0000   1.0000
     1.0000   1.0000   1.0000   1.0000   1.0000   1.0000   1.0000   1.0000
     1.0000   1.0000   1.0000   1.0000   1.0000   1.0000   1.0000   1.0000
     1.0000   1.0000   1.0000   1.0000   1.0000   1.0000   1.0000   1.0000
     1.0000   1.0000   1.0000   1.0000   1.0000   1.0000   1.0000   1.0000
     1.0000   1.0000   1.0000   1.0000   1.0000   1.0000   1.0000   1.0000
     1.0000   1.0000   1.0000   1.0000   1.0000   1.0000   1.0000   1.0000
     1.0000   1.0000   1.0000   1.0000   1.0000   1.0000   1.0000   1.0000
     1.0000   1.0000   1.0000   1.0000   1.0000   1.0000

          k =-0.0000 0.0000 0.5364 ( 44976 PWs)   bands (ev):

  -114.8070-114.8060-114.8045-114.8011-114.8000-114.8000-114.7996-114.7991
  -114.7976-114.7975-114.7967-114.7966-114.7952-114.7932-114.7925-114.7917
  -114.7916-114.7903-114.7886-114.7885-114.7856-114.7853-114.7851-114.7846
  -114.7843-114.7836-114.7831-114.7825-114.7825-114.7730 -69.1687 -69.1655
   -69.1647 -69.1639 -69.1638 -69.1617 -69.1617 -69.1604 -69.1602 -69.1602
   -69.1600 -69.1599 -69.1592 -69.1583 -69.1582 -69.1582 -69.1579 -69.1577
   -69.1575 -69.1574 -69.1569 -69.1566 -69.1564 -69.1559 -69.1555 -69.1548
   -69.1548 -69.1547 -69.1542 -69.1541 -69.1539 -69.1537 -69.1528 -69.1526
   -69.1524 -69.1519 -69.1514 -69.1511 -69.1510 -69.1507 -69.1506 -69.1503
   -69.1500 -69.1499 -69.1497 -69.1496 -69.1490 -69.1485 -69.1483 -69.1479
   -69.1477 -69.1474 -69.1473 -69.1471 -69.1465 -69.1463 -69.1462 -69.1460
   -69.1459 -69.1457 -69.1454 -69.1451 -69.1449 -69.1444 -69.1443 -69.1443
   -69.1440 -69.1432 -69.1426 -69.1426 -69.1418 -69.1411 -69.1408 -69.1405
   -69.1404 -69.1398 -69.1395 -69.1395 -69.1394 -69.1391 -69.1386 -69.1384
   -69.1383 -69.1370 -69.1356 -69.1353 -69.1351 -69.1348 -69.1295 -69.1259
   -64.2594 -64.2520 -64.2456 -64.2450 -64.2337 -64.2325 -31.2512 -31.2449
   -31.2440 -31.2438 -31.2417 -31.2391 -31.2370 -31.2366 -31.2354 -31.2337
   -31.2309 -31.2280 -31.2265 -31.2207 -31.2197 -31.2190 -31.2164 -31.2132
    -9.5851  -9.4785  -9.1596  -9.1569  -9.1471  -9.1139  -9.1046  -9.0960
    -9.0948  -9.0564  -9.0417  -9.0269  -9.0088  -8.9512  -8.9349  -8.9060
    -8.8500  -8.8373  -8.8255  -8.8142  -8.7986  -8.7876  -8.7804  -8.7592
    -8.7481  -8.7277  -8.7024  -8.6933  -8.6901  -8.6713  -8.6604  -8.6535
    -8.6081  -8.5592  -8.5062  -8.3721   2.1887   2.1987   2.2055   2.2180
     2.2315   2.2374   2.2656   2.2784   2.2979   2.3189   2.3337   2.3620
     2.4028   2.4156   2.4262   2.4413   2.4530   2.4615   2.4880   2.5163
     2.5245   2.5481   2.5704   2.5856   2.5910   2.5974   2.6141   2.6171
     2.6275   2.6379   2.6523   2.6854   2.6985   2.7059   2.7225   2.7278
     2.7457   2.7477   2.7662   2.7817   2.7834   2.8104   2.8220   2.8382
     2.8433   2.8473   2.8544   2.8699   2.8789   2.8956   2.9018   2.9076
     2.9178   2.9306   2.9347   2.9516   2.9558   2.9614   2.9693   2.9759
     2.9864   2.9979   3.0052   3.0141   3.0264   3.0329   3.0396   3.0578
     3.0663   3.0715   3.0758   3.0834   3.0939   3.1025   3.1119   3.1181
     3.1307   3.1388   3.1529   3.1606   3.1730   3.1872   3.1990   3.2679
     3.2954   3.2987   3.3285   3.3371   3.3527   3.3873   3.4215   3.4261
     3.4615   3.4819   3.5004   3.5447   3.5490   3.5888   3.6057   3.6510
     3.6692   3.6860   3.6905   3.7122   3.7237   3.7342   3.7458   3.7653
     3.7782   3.7912   3.7973   3.8036   3.8090   3.8134   3.8208   3.8289
     3.8357   3.8376   3.8430   3.8554   3.8584   3.8659   3.8719   3.8809
     3.8963   3.8985   3.9095   3.9215   3.9356   3.9433   3.9517   3.9540
     3.9628   3.9689   3.9713   3.9782   3.9857   3.9956   3.9987   4.0034
     4.0227   4.0296   4.0340   4.0450   4.0569   4.0700   4.0884   4.1020
     4.1199   4.1356   4.3731   4.4281   4.4435   4.4580   4.4891   4.5192
     4.5342   4.5516   4.5632   4.5940   4.6388   4.6658   4.6832   4.6885
     4.7221   4.7339   4.7669   4.7888   4.8400   4.8634   4.9049   4.9157
     4.9230   4.9765   4.9904   5.0569   5.1049   5.1428   5.1630   5.2477
     5.2762   5.3219   5.3386   5.3653   5.4191   5.4401   5.4751   5.5151
     5.7668   5.8089   5.8673   5.9106   5.9232   5.9527   5.9950   6.0129
     6.0556   6.0678   6.0850   6.0962   6.1407   6.1815   6.2496   6.2616
     6.3734   6.4195   6.4487   6.4610   6.4935   6.5213   6.5428   6.5574
     6.5741   6.5865   6.6029   6.6063   6.6257   6.6613   6.6700   6.6860
     6.7167   6.7537   6.7640   6.7768   6.9295   7.0879   7.1175   7.1893
     7.1985   7.2174   7.2530   7.3062   7.3185   7.3515   7.3673   7.3795
     7.3897   7.4112   7.4298   7.4558   7.4625   7.4719   7.4836   7.4938
     7.5011   7.5072   7.5150   7.5227   7.5274   7.5339   7.5466   7.5655
     7.6133   7.6189   7.9802   7.9869   8.1418   8.1468

     occupation numbers 
     1.0000   1.0000   1.0000   1.0000   1.0000   1.0000   1.0000   1.0000
     1.0000   1.0000   1.0000   1.0000   1.0000   1.0000   1.0000   1.0000
     1.0000   1.0000   1.0000   1.0000   1.0000   1.0000   1.0000   1.0000
     1.0000   1.0000   1.0000   1.0000   1.0000   1.0000   1.0000   1.0000
     1.0000   1.0000   1.0000   1.0000   1.0000   1.0000   1.0000   1.0000
     1.0000   1.0000   1.0000   1.0000   1.0000   1.0000   1.0000   1.0000
     1.0000   1.0000   1.0000   1.0000   1.0000   1.0000   1.0000   1.0000
     1.0000   1.0000   1.0000   1.0000   1.0000   1.0000   1.0000   1.0000
     1.0000   1.0000   1.0000   1.0000   1.0000   1.0000   1.0000   1.0000
     1.0000   1.0000   1.0000   1.0000   1.0000   1.0000   1.0000   1.0000
     1.0000   1.0000   1.0000   1.0000   1.0000   1.0000   1.0000   1.0000
     1.0000   1.0000   1.0000   1.0000   1.0000   1.0000   1.0000   1.0000
     1.0000   1.0000   1.0000   1.0000   1.0000   1.0000   1.0000   1.0000
     1.0000   1.0000   1.0000   1.0000   1.0000   1.0000   1.0000   1.0000
     1.0000   1.0000   1.0000   1.0000   1.0000   1.0000   1.0000   1.0000
     1.0000   1.0000   1.0000   1.0000   1.0000   1.0000   1.0000   1.0000
     1.0000   1.0000   1.0000   1.0000   1.0000   1.0000   1.0000   1.0000
     1.0000   1.0000   1.0000   1.0000   1.0000   1.0000   1.0000   1.0000
     1.0000   1.0000   1.0000   1.0000   1.0000   1.0000   1.0000   1.0000
     1.0000   1.0000   1.0000   1.0000   1.0000   1.0000   1.0000   1.0000
     1.0000   1.0000   1.0000   1.0000   1.0000   1.0000   1.0000   1.0000
     1.0000   1.0000   1.0000   1.0000   1.0000   1.0000   1.0000   1.0000
     1.0000   1.0000   1.0000   1.0000   1.0000   1.0000   1.0000   1.0000
     1.0000   1.0000   1.0000   1.0000   1.0000   1.0000   1.0000   1.0000
     1.0000   1.0000   1.0000   1.0000   1.0000   1.0000   1.0000   1.0000
     1.0000   1.0000   1.0000   1.0000   1.0000   1.0000   1.0000   1.0000
     1.0000   1.0000   1.0000   1.0000   1.0000   1.0000   1.0000   1.0000
     1.0000   1.0000   1.0000   1.0000   1.0000   1.0000   1.0000   1.0000
     1.0000   1.0000   1.0000   1.0000   1.0000   1.0000   1.0000   1.0000
     1.0000   1.0000   1.0000   1.0000   1.0000   1.0000   1.0000   1.0000
     1.0000   1.0000   1.0000   1.0000   1.0000   1.0000   1.0000   1.0000
     1.0000   1.0000   1.0000   1.0000   1.0000   1.0000   1.0000   1.0000
     1.0000   1.0000   1.0000   1.0000   1.0000   1.0000   1.0000   1.0000
     1.0000   1.0000   1.0000   1.0000   1.0000   1.0000   1.0000   1.0000
     1.0000   1.0000   1.0000   1.0000   1.0000   1.0000   1.0000   1.0000
     1.0000   1.0000   1.0000   1.0000   1.0000   1.0000   1.0000   1.0000
     1.0000   1.0000   1.0000   1.0000   1.0000   1.0000   1.0000   1.0000
     1.0000   1.0000   1.0000   1.0000   1.0000   1.0000   1.0000   1.0000
     1.0000   1.0000   1.0000   1.0000   1.0000   1.0000   1.0000   1.0000
     1.0000   1.0000   1.0000   1.0000   1.0000   1.0000   1.0000   1.0000
     1.0000   1.0000   1.0000   1.0000   1.0000   1.0000   1.0000   1.0000
     1.0000   1.0000   1.0000   1.0000   1.0000   1.0000   1.0000   1.0000
     1.0000   1.0000   1.0000   1.0000   1.0000   1.0000   1.0000   1.0000
     1.0000   1.0000   1.0000   1.0000   1.0000   1.0000   1.0000   1.0000
     1.0000   1.0000   1.0000   1.0000   1.0000   1.0000   1.0000   1.0000
     1.0000   1.0000   1.0000   1.0000   1.0000   1.0000   1.0000   1.0000
     1.0000   1.0000   1.0000   1.0000   1.0000   1.0000   1.0000   1.0000
     1.0000   1.0000   1.0000   1.0000   1.0000   1.0000   1.0000   1.0000
     1.0000   1.0000   1.0000   1.0000   1.0000   1.0000   1.0000   1.0000
     1.0000   1.0000   1.0000   1.0000   1.0000   1.0000   1.0000   1.0000
     1.0000   1.0000   1.0000   1.0000   1.0000   1.0000   1.0000   1.0000
     1.0000   1.0000   1.0000   1.0000   1.0000   1.0000   1.0000   1.0000
     1.0000   1.0000   1.0000   1.0000   1.0000   1.0000   1.0000   1.0000
     1.0000   1.0000   1.0000   1.0000   1.0000   1.0000   1.0000   1.0000
     1.0000   1.0000   1.0000   1.0000   1.0000   1.0000

          k =-0.0000 0.0000 0.6706 ( 44982 PWs)   bands (ev):

  -114.8070-114.8060-114.8045-114.8011-114.8000-114.8000-114.7996-114.7991
  -114.7976-114.7975-114.7967-114.7966-114.7952-114.7932-114.7925-114.7917
  -114.7916-114.7903-114.7886-114.7885-114.7856-114.7853-114.7851-114.7846
  -114.7843-114.7836-114.7831-114.7825-114.7825-114.7730 -69.1687 -69.1655
   -69.1647 -69.1639 -69.1638 -69.1617 -69.1617 -69.1604 -69.1602 -69.1602
   -69.1600 -69.1599 -69.1592 -69.1583 -69.1582 -69.1582 -69.1579 -69.1577
   -69.1575 -69.1574 -69.1569 -69.1566 -69.1564 -69.1559 -69.1555 -69.1548
   -69.1548 -69.1547 -69.1542 -69.1541 -69.1539 -69.1537 -69.1528 -69.1526
   -69.1524 -69.1519 -69.1514 -69.1511 -69.1510 -69.1507 -69.1506 -69.1503
   -69.1500 -69.1499 -69.1497 -69.1496 -69.1490 -69.1485 -69.1483 -69.1479
   -69.1477 -69.1474 -69.1473 -69.1471 -69.1465 -69.1463 -69.1462 -69.1460
   -69.1459 -69.1457 -69.1454 -69.1451 -69.1449 -69.1444 -69.1443 -69.1443
[...]
     2.2715   2.2874   2.2955   2.3036   2.3125   2.3325   2.3411   2.3567
     2.3819   2.3943   2.3999   2.4164   2.4270   2.4346   2.4553   2.4716
     2.4975   2.5114   2.5206   2.5329   2.5550   2.6055   2.6184   2.6512
     2.6579   2.6731   2.6861   2.7000   2.7132   2.7245   2.7390   2.7445
     2.7503   2.7608   2.7712   2.7729   2.7802   2.7929   2.7969   2.8140
     2.8277   2.8363   2.8425   2.8469   2.8524   2.8577   2.8641   2.8822
     2.8901   2.9057   2.9115   2.9259   2.9358   2.9378   2.9494   2.9567
     2.9697   2.9831   2.9853   2.9939   3.0061   3.0189   3.0332   3.0530
     3.0569   3.0761   3.0858   3.0943   3.0972   3.1042   3.1096   3.1273
     3.1478   3.1563   3.1747   3.2053   3.2252   3.2463   3.2575   3.2728
     3.2871   3.3253   3.3337   3.3564   3.3788   3.4070   3.4240   3.4557
     3.4715   3.4901   3.5072   3.5455   3.5561   3.5899   3.6079   3.6413
     3.6485   3.6703   3.6901   3.7106   3.7156   3.7430   3.7521   3.7627
     3.7762   3.7898   3.8018   3.8087   3.8127   3.8342   3.8428   3.8452
     3.8547   3.8596   3.8716   3.8746   3.8920   3.8983   3.9070   3.9105
     3.9175   3.9247   3.9311   3.9392   3.9431   3.9520   3.9587   3.9597
     3.9626   3.9704   3.9833   3.9930   3.9965   4.0056   4.0092   4.0218
     4.0232   4.0488   4.0558   4.0622   4.0754   4.0827   4.1063   4.1147
     4.1238   4.1504   4.1675   4.1965   4.2623   4.2912   4.3361   4.3549
     4.3711   4.3929   4.4436   4.4605   4.4918   4.5465   4.5871   4.6233
     4.6833   4.6906   4.7180   4.7858   4.7906   4.8421   4.8490   4.9384
     4.9700   5.0638   5.2466   5.2772   5.3168   5.3725   5.3834   5.4254
     5.4809   5.5202   5.5496   5.5878   5.6165   5.6422   5.6644   5.6936
     5.7224   5.7484   5.8035   5.8588   5.8848   5.9182   5.9928   6.0188
     6.0765   6.0959   6.1421   6.1519   6.1623   6.2020   6.2294   6.2686
     6.3741   6.4807   6.5184   6.5593   6.5918   6.6567   6.6762   6.6888
     6.7133   6.7444   6.7546   6.7785   6.7897   6.8491   6.8683   6.9208
     6.9288   6.9369   6.9447   6.9473   6.9743   6.9930   7.0010   7.0177
     7.0221   7.0305   7.0502   7.0634   7.0699   7.0782   7.0849   7.0950
     7.1064   7.1098   7.1223   7.1628   7.2012   7.2477   7.2742   7.3036
     7.3071   7.3332   7.4289   7.5285   7.5429   7.5497   7.5674   7.5733
     7.6104   7.6262   7.8997   7.9641   7.9773   8.0262

     occupation numbers 
     1.0000   1.0000   1.0000   1.0000   1.0000   1.0000   1.0000   1.0000
     1.0000   1.0000   1.0000   1.0000   1.0000   1.0000   1.0000   1.0000
     1.0000   1.0000   1.0000   1.0000   1.0000   1.0000   1.0000   1.0000
     1.0000   1.0000   1.0000   1.0000   1.0000   1.0000   1.0000   1.0000
     1.0000   1.0000   1.0000   1.0000   1.0000   1.0000   1.0000   1.0000
     1.0000   1.0000   1.0000   1.0000   1.0000   1.0000   1.0000   1.0000
     1.0000   1.0000   1.0000   1.0000   1.0000   1.0000   1.0000   1.0000
     1.0000   1.0000   1.0000   1.0000   1.0000   1.0000   1.0000   1.0000
     1.0000   1.0000   1.0000   1.0000   1.0000   1.0000   1.0000   1.0000
     1.0000   1.0000   1.0000   1.0000   1.0000   1.0000   1.0000   1.0000
     1.0000   1.0000   1.0000   1.0000   1.0000   1.0000   1.0000   1.0000
     1.0000   1.0000   1.0000   1.0000   1.0000   1.0000   1.0000   1.0000
     1.0000   1.0000   1.0000   1.0000   1.0000   1.0000   1.0000   1.0000
     1.0000   1.0000   1.0000   1.0000   1.0000   1.0000   1.0000   1.0000
     1.0000   1.0000   1.0000   1.0000   1.0000   1.0000   1.0000   1.0000
     1.0000   1.0000   1.0000   1.0000   1.0000   1.0000   1.0000   1.0000
     1.0000   1.0000   1.0000   1.0000   1.0000   1.0000   1.0000   1.0000
     1.0000   1.0000   1.0000   1.0000   1.0000   1.0000   1.0000   1.0000
     1.0000   1.0000   1.0000   1.0000   1.0000   1.0000   1.0000   1.0000
     1.0000   1.0000   1.0000   1.0000   1.0000   1.0000   1.0000   1.0000
     1.0000   1.0000   1.0000   1.0000   1.0000   1.0000   1.0000   1.0000
     1.0000   1.0000   1.0000   1.0000   1.0000   1.0000   1.0000   1.0000
     1.0000   1.0000   1.0000   1.0000   1.0000   1.0000   1.0000   1.0000
     1.0000   1.0000   1.0000   1.0000   1.0000   1.0000   1.0000   1.0000
     1.0000   1.0000   1.0000   1.0000   1.0000   1.0000   1.0000   1.0000
     1.0000   1.0000   1.0000   1.0000   1.0000   1.0000   1.0000   1.0000
     1.0000   1.0000   1.0000   1.0000   1.0000   1.0000   1.0000   1.0000
     1.0000   1.0000   1.0000   1.0000   1.0000   1.0000   1.0000   1.0000
     1.0000   1.0000   1.0000   1.0000   1.0000   1.0000   1.0000   1.0000
     1.0000   1.0000   1.0000   1.0000   1.0000   1.0000   1.0000   1.0000
     1.0000   1.0000   1.0000   1.0000   1.0000   1.0000   1.0000   1.0000
     1.0000   1.0000   1.0000   1.0000   1.0000   1.0000   1.0000   1.0000
     1.0000   1.0000   1.0000   1.0000   1.0000   1.0000   1.0000   1.0000
     1.0000   1.0000   1.0000   1.0000   1.0000   1.0000   1.0000   1.0000
     1.0000   1.0000   1.0000   1.0000   1.0000   1.0000   1.0000   1.0000
     1.0000   1.0000   1.0000   1.0000   1.0000   1.0000   1.0000   1.0000
     1.0000   1.0000   1.0000   1.0000   1.0000   1.0000   1.0000   1.0000
     1.0000   1.0000   1.0000   1.0000   1.0000   1.0000   1.0000   1.0000
     1.0000   1.0000   1.0000   1.0000   1.0000   1.0000   1.0000   1.0000
     1.0000   1.0000   1.0000   1.0000   1.0000   1.0000   1.0000   1.0000
     1.0000   1.0000   1.0000   1.0000   1.0000   1.0000   1.0000   1.0000
     1.0000   1.0000   1.0000   1.0000   1.0000   1.0000   1.0000   1.0000
     1.0000   1.0000   1.0000   1.0000   1.0000   1.0000   1.0000   1.0000
     1.0000   1.0000   1.0000   1.0000   1.0000   1.0000   1.0000   1.0000
     1.0000   1.0000   1.0000   1.0000   1.0000   1.0000   1.0000   1.0000
     1.0000   1.0000   1.0000   1.0000   1.0000   1.0000   1.0000   1.0000
     1.0000   1.0000   1.0000   1.0000   1.0000   1.0000   1.0000   1.0000
     1.0000   1.0000   1.0000   1.0000   1.0000   1.0000   1.0000   1.0000
     1.0000   1.0000   1.0000   1.0000   1.0000   1.0000   1.0000   1.0000
     1.0000   1.0000   1.0000   1.0000   1.0000   1.0000   1.0000   1.0000
     1.0000   1.0000   1.0000   1.0000   1.0000   1.0000   1.0000   1.0000
     1.0000   1.0000   1.0000   1.0000   1.0000   1.0000   1.0000   1.0000
     1.0000   1.0000   1.0000   1.0000   1.0000   1.0000   1.0000   1.0000
     1.0000   1.0000   1.0000   1.0000   1.0000   1.0000   1.0000   1.0000
     1.0000   1.0000   1.0000   1.0000   1.0000   1.0000

     highest occupied level (ev):     8.1899



               ==================================================
                            POLARIZATION CALCULATION
                         !!! NOT THOROUGHLY TESTED !!!
               --------------------------------------------------


                     K-POINTS STRINGS USED IN CALCULATIONS
                     ~~~~~~~~~~~~~~~~~~~~~~~~~~~~~~~~~~~~~

       G-vector along string (2 pi/a): -0.00002  0.00001  0.93878
       Modulus of the vector (1/bohr):  0.32097
       Number of k-points per string:   8
       Number of different strings  :  10


                               IONIC POLARIZATION
                               ~~~~~~~~~~~~~~~~~~

        Note: (mod 1) means that the phases (angles ranging from
        -pi to pi) have been mapped to the interval [-1/2,+1/2) by
        dividing by 2*pi; (mod 2) refers to the interval [-1,+1)

  ============================================================================
    Ion    Species    Charge              Position                Phase
  ----------------------------------------------------------------------------
     1        Zn      20.000       0.1666  0.0975  0.2066    -0.12138 (mod 2)
     2        Zn      20.000       0.4998  0.0953  0.2061    -0.13010 (mod 2)
     3        Zn      20.000       0.8332  0.0975  0.2048    -0.15575 (mod 2)
     4        Zn      20.000       0.0000  0.3848  0.2056    -0.13953 (mod 2)
     5        Zn      20.000       0.3333  0.3848  0.2072    -0.10962 (mod 2)
     6        Zn      20.000       0.6669  0.3849  0.2071    -0.11254 (mod 2)
     7        Zn      20.000      -0.1647  0.6733  0.2063    -0.12680 (mod 2)
     8        Zn      20.000       0.1647  0.6733  0.2065    -0.12325 (mod 2)
     9        Zn      20.000       0.5002  0.6726  0.2041    -0.16864 (mod 2)
    10        Zn      20.000       0.1658  0.0950  0.7395    -0.11503 (mod 2)
    11        Zn      20.000       0.4994  0.0979  0.7395    -0.11477 (mod 2)
    12        Zn      20.000       0.3340  0.3848  0.7401    -0.10362 (mod 2)
    13        Zn      20.000       0.6660  0.3847  0.7402    -0.10256 (mod 2)
    14        Zn      20.000      -0.1689  0.6739  0.7389    -0.12553 (mod 2)
    15        Zn      20.000       0.1703  0.6740  0.7393    -0.11938 (mod 2)
    16        Zn      20.000      -0.0008  0.1929  0.4727     0.87618 (mod 2)
    17        Zn      20.000       0.3336  0.1926  0.4738     0.89611 (mod 2)
    18        Zn      20.000       0.6667  0.1924  0.4729     0.87847 (mod 2)
    19        Zn      20.000      -0.1665  0.4809  0.4734     0.88837 (mod 2)
    20        Zn      20.000       0.1667  0.4811  0.4733     0.88671 (mod 2)
    21        Zn      20.000       0.5001  0.4816  0.4726     0.87416 (mod 2)
    22        Zn      20.000      -0.3339  0.7689  0.4710     0.84400 (mod 2)
    23        Zn      20.000       0.3341  0.7697  0.4702     0.82909 (mod 2)
    24        Zn      20.000       0.0006  0.1921  1.0041     0.85254 (mod 2)
    25        Zn      20.000       0.3328  0.1930  1.0061     0.89095 (mod 2)
    26        Zn      20.000       0.6660  0.1933  1.0055     0.87856 (mod 2)
    27        Zn      20.000      -0.1668  0.4816  1.0051     0.87130 (mod 2)
    28        Zn      20.000       0.1671  0.4814  1.0056     0.88071 (mod 2)
    29        Zn      20.000       0.5002  0.4811  1.0057     0.88303 (mod 2)
    30        Zn      20.000       0.0001  0.7686  1.0038     0.84676 (mod 2)
    31        Mg      10.000       0.8325  0.0951  0.7398     0.94482 (mod 2)
    32        Mg      10.000       0.0012  0.3855  0.7404     0.95118 (mod 2)
    33        Mg      10.000       0.4998  0.6731  0.7389     0.93690 (mod 2)
    34        Mg      10.000       0.0001  0.7698  0.4751     0.46025 (mod 2)
    35        Mg      10.000      -0.3315  0.7699  1.0069    -0.54691 (mod 2)
    36        Mg      10.000       0.3318  0.7685  1.0070    -0.54658 (mod 2)
    37        O        6.000       0.1666  0.0962  0.0034     0.01892 (mod 2)
    38        O        6.000       0.4997  0.0955  0.0028     0.01551 (mod 2)
    39        O        6.000       0.8331  0.0959  0.0012     0.00691 (mod 2)
    40        O        6.000       0.0000  0.3846  0.0020     0.01104 (mod 2)
    41        O        6.000       0.3336  0.3852  0.0039     0.02177 (mod 2)
    42        O        6.000       0.6668  0.3852  0.0038     0.02121 (mod 2)
    43        O        6.000      -0.1659  0.6735  0.0033     0.01845 (mod 2)
    44        O        6.000       0.1658  0.6733  0.0035     0.01996 (mod 2)
    45        O        6.000       0.5005  0.6745  0.0006     0.00366 (mod 2)
    46        O        6.000       0.1663  0.0957  0.5354    -0.98421 (mod 2)
    47        O        6.000       0.5001  0.0963  0.5361    -0.98010 (mod 2)
    48        O        6.000       0.8331  0.0957  0.5367    -0.97715 (mod 2)
    49        O        6.000       0.0002  0.3850  0.5375    -0.97212 (mod 2)
    50        O        6.000       0.3335  0.3851  0.5363    -0.97908 (mod 2)
    51        O        6.000       0.6666  0.3849  0.5361    -0.98037 (mod 2)
    52        O        6.000      -0.1671  0.6737  0.5354    -0.98419 (mod 2)
    53        O        6.000       0.1674  0.6739  0.5354    -0.98412 (mod 2)
    54        O        6.000       0.4999  0.6738  0.5362    -0.97957 (mod 2)
    55        O        6.000      -0.0004  0.1927  0.2695    -0.48212 (mod 2)
    56        O        6.000       0.3337  0.1924  0.2701    -0.47882 (mod 2)
    57        O        6.000       0.6664  0.1923  0.2693    -0.48306 (mod 2)
    58        O        6.000      -0.1663  0.4809  0.2698    -0.48039 (mod 2)
    59        O        6.000       0.1664  0.4809  0.2697    -0.48057 (mod 2)
    60        O        6.000       0.5001  0.4812  0.2695    -0.48214 (mod 2)
    61        O        6.000      -0.3331  0.7696  0.2672    -0.49483 (mod 2)
    62        O        6.000       0.0000  0.7701  0.2723    -0.46593 (mod 2)
    63        O        6.000       0.3333  0.7699  0.2665    -0.49871 (mod 2)
    64        O        6.000      -0.0011  0.1927  0.8006     0.50961 (mod 2)
    65        O        6.000       0.3322  0.1922  0.8026     0.52090 (mod 2)
    66        O        6.000       0.6668  0.1923  0.8022     0.51833 (mod 2)
    67        O        6.000      -0.1664  0.4810  0.8017     0.51600 (mod 2)
    68        O        6.000       0.1674  0.4815  0.8023     0.51922 (mod 2)
    69        O        6.000       0.5001  0.4813  0.8022     0.51849 (mod 2)
    70        O        6.000      -0.3345  0.7693  0.8042     0.52972 (mod 2)
    71        O        6.000       0.0004  0.7694  0.7997     0.50464 (mod 2)
    72        O        6.000       0.3352  0.7701  0.8043     0.53043 (mod 2)
  ----------------------------------------------------------------------------
                                               IONIC PHASE:  -0.95463 (mod 2)
  ============================================================================


                            ELECTRONIC POLARIZATION
                            ~~~~~~~~~~~~~~~~~~~~~~~

        Note: (mod 1) means that the phases (angles ranging from
        -pi to pi) have been mapped to the interval [-1/2,+1/2) by
        dividing by 2*pi; (mod 2) refers to the interval [-1,+1)

  ============================================================================
   Spin    String     Weight      First k-point in string         Phase
  ----------------------------------------------------------------------------
    up        1      0.062500      0.0000  0.0000  0.0000     0.36308 (mod 1)
    up        2      0.125000     -0.0000  0.2887  0.0000     0.35663 (mod 1)
    up        3      0.062500      0.0000 -0.5774 -0.0000     0.35302 (mod 1)
    up        4      0.125000      0.2500  0.1443 -0.0000     0.35656 (mod 1)
    up        5      0.125000      0.2500  0.4330  0.0000     0.35294 (mod 1)
    up        6      0.125000      0.2500 -0.4330 -0.0000     0.35293 (mod 1)
    up        7      0.125000      0.2500 -0.1443 -0.0000     0.35654 (mod 1)
    up        8      0.062500     -0.5000 -0.2887  0.0000     0.35292 (mod 1)
    up        9      0.125000     -0.5000  0.0000  0.0000     0.35288 (mod 1)
    up       10      0.062500     -0.5000 -0.8661 -0.0000     0.35290 (mod 1)
  ----------------------------------------------------------------------------
   down       1      0.062500      0.0000  0.0000  0.0000     0.36308 (mod 1)
   down       2      0.125000     -0.0000  0.2887  0.0000     0.35663 (mod 1)
   down       3      0.062500      0.0000 -0.5774 -0.0000     0.35302 (mod 1)
   down       4      0.125000      0.2500  0.1443 -0.0000     0.35656 (mod 1)
   down       5      0.125000      0.2500  0.4330  0.0000     0.35294 (mod 1)
   down       6      0.125000      0.2500 -0.4330 -0.0000     0.35293 (mod 1)
   down       7      0.125000      0.2500 -0.1443 -0.0000     0.35654 (mod 1)
   down       8      0.062500     -0.5000 -0.2887  0.0000     0.35292 (mod 1)
   down       9      0.125000     -0.5000  0.0000  0.0000     0.35288 (mod 1)
   down      10      0.062500     -0.5000 -0.8661 -0.0000     0.35290 (mod 1)
  ----------------------------------------------------------------------------
                                        Average phase (up):   0.35493 (mod 1)
                                      Average phase (down):   0.35493 (mod 1)
                                          ELECTRONIC PHASE:   0.70986 (mod 2)
  ============================================================================


                               SUMMARY OF PHASES
                               ~~~~~~~~~~~~~~~~~

                          Ionic Phase: -0.95463 (mod 2)
                     Electronic Phase:  0.70986 (mod 2)
                          TOTAL PHASE: -0.24477 (mod 2)


                             VALUES OF POLARIZATION
                             ~~~~~~~~~~~~~~~~~~~~~~

        The calculation of phases done along the direction of vector 3
        of the reciprocal lattice gives the following contribution to
        the polarization vector (in different units, and being Omega
        the volume of the unit cell):

           P =  -4.7915238  (mod  39.1506463)  (e/Omega).bohr

           P =  -0.0008370  (mod   0.0068386)  e/bohr^2

           P =  -0.0478499  (mod   0.3909724)  C/m^2

        The polarization direction is:  ( 0.00002 ,-0.00002 , 1.00000 )


               ==================================================



     Writing output data file ZnO.save/
 
     init_run     :      2.23s CPU      5.46s WALL (       1 calls)
     electrons    :   1644.85s CPU   1681.08s WALL (       1 calls)

     Called by init_run:
     wfcinit      :      0.00s CPU      0.01s WALL (       1 calls)
     wfcinit:atom :      0.06s CPU      0.18s WALL (      80 calls)
     wfcinit:wfcr :     72.63s CPU     74.83s WALL (      80 calls)
     potinit      :      0.19s CPU      0.34s WALL (       1 calls)
     hinit0       :      1.23s CPU      4.11s WALL (       1 calls)

     Called by electrons:
     c_bands      :   1159.01s CPU   1193.53s WALL (       1 calls)
     v_of_rho     :      0.14s CPU      0.16s WALL (       1 calls)
     v_h          :      0.01s CPU      0.01s WALL (       1 calls)
     v_xc         :      0.13s CPU      0.15s WALL (       1 calls)
     newd         :      0.08s CPU      0.12s WALL (       1 calls)

     Called by c_bands:
     init_us_2    :      0.67s CPU      0.71s WALL (     220 calls)
     cegterg      :   1084.00s CPU   1114.21s WALL (      80 calls)

     Called by sum_band:

     Called by *egterg:
     h_psi        :    459.00s CPU    470.85s WALL (    1217 calls)
     s_psi        :     40.29s CPU     40.33s WALL (    1217 calls)
     g_psi        :      0.40s CPU      0.40s WALL (    1057 calls)
     cdiaghg      :    359.58s CPU    366.55s WALL (    1137 calls)
     cegterg:over :     83.92s CPU     96.58s WALL (    1057 calls)
     cegterg:upda :    100.79s CPU    101.02s WALL (    1057 calls)
     cegterg:last :     95.62s CPU     95.77s WALL (     320 calls)
     cdiaghg:chol :     20.46s CPU     20.82s WALL (    1137 calls)
     cdiaghg:inve :     15.98s CPU     16.06s WALL (    1137 calls)
     cdiaghg:para :     57.76s CPU     61.89s WALL (    2274 calls)

     Called by h_psi:
     h_psi:pot    :    457.95s CPU    469.74s WALL (    1217 calls)
     h_psi:calbec :     56.17s CPU     64.57s WALL (    1217 calls)
     vloc_psi     :    361.09s CPU    363.93s WALL (    1217 calls)
     add_vuspsi   :     40.67s CPU     41.22s WALL (    1217 calls)

     General routines
     calbec       :     68.83s CPU     78.48s WALL (    1357 calls)
     fft          :      1.17s CPU      3.98s WALL (      13 calls)
     ffts         :      0.01s CPU      0.01s WALL (       1 calls)
     fftw         :    357.07s CPU    359.88s WALL (  796498 calls)
     interpolate  :      0.01s CPU      0.02s WALL (       1 calls)
 
     Parallel routines
     fft_scatt_xy :     10.48s CPU     10.54s WALL (  796512 calls)
     fft_scatt_yz :    306.11s CPU    311.37s WALL (  796512 calls)
 
     PWSCF        :  28m39.61s CPU  29m42.23s WALL

 
   This run was terminated on:   2:40:44  15Jul2022            

=------------------------------------------------------------------------------=
   JOB DONE.
=------------------------------------------------------------------------------=
