
     Program PWSCF v.6.4.1 starts on 15Jul2022 at  2:10:27 

     This program is part of the open-source Quantum ESPRESSO suite
     for quantum simulation of materials; please cite
         "P. Giannozzi et al., J. Phys.:Condens. Matter 21 395502 (2009);
         "P. Giannozzi et al., J. Phys.:Condens. Matter 29 465901 (2017);
          URL http://www.quantum-espresso.org", 
     in publications or presentations arising from this work. More details at
     http://www.quantum-espresso.org/quote

     Parallel version (MPI), running on   128 processors

     MPI processes distributed on     2 nodes
     R & G space division:  proc/nbgrp/npool/nimage =     128
     Waiting for input...
     Reading input from standard input
Warning: card &IONS ignored
Warning: card   UPSCALE           = 100.D0, ignored
Warning: card / ignored
Warning: card &CELL ignored
Warning: card   CELL_DYNAMICS     = 'BFGS' ignored
Warning: card   PRESS_CONV_THR    = 0.5D0 ignored
Warning: card   CELL_DOFREE = 'ALL' ignored
Warning: card / ignored

     Current dimensions of program PWSCF are:
     Max number of different atomic species (ntypx) = 10
     Max number of k-points (npk) =  40000
     Max angular momentum in pseudopotentials (lmaxx) =  3

     Atomic positions and unit cell read from directory:
     ./temp/ZnO.save/
 

     Subspace diagonalization in iterative solution of the eigenvalue problem:
     one sub-group per band group will be used
     scalapack distributed-memory algorithm (size of sub-group:  8*  8 procs)

 
     Parallelization info
     --------------------
     sticks:   dense  smooth     PW     G-vecs:    dense   smooth      PW
     Min          91      43     12                 8451     2804     416
     Max          92      44     13                 8458     2814     423
     Sum       11705    5623   1573              1082085   359791   53639
 


     bravais-lattice index     =            0
     lattice parameter (alat)  =      18.4233  a.u.
     unit-cell volume          =    5730.1457 (a.u.)^3
     number of atoms/cell      =           72
     number of atomic types    =            3
     number of electrons       =       796.00
     number of Kohn-Sham states=          398
     kinetic-energy cutoff     =      60.0000  Ry
     charge density cutoff     =     500.0000  Ry
     Exchange-correlation      = SLA  PW   PSX  PSC ( 1  4 10  8 0 0)
     Using LIBXC version       =    4   3   4

     celldm(1)=  18.423338  celldm(2)=   0.000000  celldm(3)=   0.000000
     celldm(4)=   0.000000  celldm(5)=   0.000000  celldm(6)=   0.000000

     crystal axes: (cart. coord. in units of alat)
               a(1) = (   1.000000   0.000410  -0.000414 )  
               a(2) = (  -0.499644   0.866141   0.000428 )  
               a(3) = (  -0.000442   0.000273   1.057717 )  

     reciprocal axes: (cart. coord. in units 2 pi/alat)
               b(1) = (  0.999764  0.576725  0.000269 )  
               b(2) = ( -0.000473  1.154273 -0.000298 )  
               b(3) = (  0.000391 -0.000241  0.945433 )  


     PseudoPot. # 1 for Zn read from file:
     ./GBRV_PBEsol/zn_pbesol_v1.uspp.F.UPF
     MD5 check sum: 7d8615e52efe7c1e2b1899de8658bae2
     Pseudo is Ultrasoft, Zval = 20.0
     Generated by new atomic code, or converted to UPF format
     Using radial grid of  943 points,  6 beta functions with: 
                l(1) =   0
                l(2) =   0
                l(3) =   1
                l(4) =   1
                l(5) =   2
                l(6) =   2
     Q(r) pseudized with  8 coefficients,  rinner =    1.100   1.100   1.100
                                                       1.100   1.100

     PseudoPot. # 2 for O  read from file:
     ./GBRV_PBEsol/o_pbesol_v1.2.uspp.F.UPF
     MD5 check sum: 501638753501ef6325af9037351f7734
     Pseudo is Ultrasoft + core correction, Zval =  6.0
     Generated by new atomic code, or converted to UPF format
     Using radial grid of  737 points,  5 beta functions with: 
                l(1) =   0
                l(2) =   0
                l(3) =   1
                l(4) =   1
                l(5) =   2
     Q(r) pseudized with  8 coefficients,  rinner =    0.900   0.900   0.900
                                                       0.900   0.900

     PseudoPot. # 3 for Mg read from file:
     ./GBRV_PBEsol/mg_pbesol_v1.4.uspp.F.UPF
     MD5 check sum: 4059f37963cf5867752dbf5ab2400678
     Pseudo is Ultrasoft, Zval = 10.0
     Generated by new atomic code, or converted to UPF format
     Using radial grid of  821 points,  7 beta functions with: 
                l(1) =   0
                l(2) =   0
                l(3) =   0
                l(4) =   1
                l(5) =   1
                l(6) =   2
                l(7) =   2
     Q(r) pseudized with  8 coefficients,  rinner =    1.200   1.200   1.200
                                                       1.200   1.200

     atomic species   valence    mass     pseudopotential
        Zn            20.00    65.38000     Zn( 1.00)
        O              6.00    15.99900     O ( 1.00)
        Mg            10.00    24.30500     Mg( 1.00)

     No symmetry found


                                    s                        frac. trans.

      isym =  1     identity                                     

 cryst.   s( 1) = (     1          0          0      )
                  (     0          1          0      )
                  (     0          0          1      )

 cart.    s( 1) = (  1.0000000  0.0000000 -0.0000000 )
                  (  0.0000000  1.0000000  0.0000000 )
                  ( -0.0000000 -0.0000000  1.0000000 )


   Cartesian axes

     site n.     atom                  positions (alat units)
         1           Zn  tau(   1) = (   0.1663279   0.0972265   0.2061373  )
         2           Zn  tau(   2) = (   0.1676301   0.0960941   0.7354334  )
         3           Zn  tau(   3) = (   0.0018706   0.3862695   0.2067346  )
         4           Zn  tau(   4) = (  -0.0009713   0.3853574   0.7347211  )
         5           Zn  tau(   5) = (  -0.1662622   0.6732004   0.2042986  )
         6           Mg  tau(   6) = (  -0.1656209   0.6765076   0.7361646  )
         7           Zn  tau(   7) = (   0.5010081   0.0965522   0.2059626  )
         8           Zn  tau(   8) = (   0.4994138   0.0973209   0.7351377  )
         9           Mg  tau(   9) = (   0.3329549   0.3860486   0.2058433  )
        10           Mg  tau(  10) = (   0.3334717   0.3849856   0.7341627  )
        11           Mg  tau(  11) = (   0.1651141   0.6727985   0.2071171  )
        12           Zn  tau(  12) = (   0.1670724   0.6754398   0.7315201  )
        13           Mg  tau(  13) = (   0.8337954   0.0980656   0.2035847  )
        14           Mg  tau(  14) = (   0.8343919   0.0966080   0.7333240  )
        15           Zn  tau(  15) = (   0.6668744   0.3854797   0.2034702  )
        16           Mg  tau(  16) = (   0.6658336   0.3867894   0.7373199  )
        17           Zn  tau(  17) = (   0.4978591   0.6739279   0.2063521  )
        18           Zn  tau(  18) = (   0.5015103   0.6742677   0.7345463  )
        19           Zn  tau(  19) = (  -0.0017980   0.1928741   0.4711629  )
        20           Zn  tau(  20) = (   0.0004002   0.1922625   0.9992084  )
        21           Mg  tau(  21) = (  -0.1688447   0.4818487   0.4704308  )
        22           Zn  tau(  22) = (  -0.1650714   0.4811746   0.9977898  )
        23           Zn  tau(  23) = (  -0.3317097   0.7695807   0.4698168  )
        24           Mg  tau(  24) = (  -0.3351219   0.7694893   1.0021035  )
        25           Zn  tau(  25) = (   0.3327703   0.1921084   0.4691607  )
        26           Mg  tau(  26) = (   0.3330164   0.1922747   1.0000887  )
        27           Mg  tau(  27) = (   0.1652510   0.4794740   0.4715289  )
        28           Zn  tau(  28) = (   0.1662001   0.4824490   0.9969618  )
        29           Zn  tau(  29) = (  -0.0018226   0.7704486   0.4709123  )
        30           Zn  tau(  30) = (   0.0021747   0.7695233   0.9996835  )
        31           Mg  tau(  31) = (   0.6647468   0.1943937   0.4703054  )
        32           Zn  tau(  32) = (   0.6672226   0.1913303   0.9966784  )
        33           Zn  tau(  33) = (   0.5019100   0.4802833   0.4708532  )
        34           Zn  tau(  34) = (   0.4980657   0.4827477   0.9991094  )
        35           Mg  tau(  35) = (   0.3351292   0.7707912   0.4694972  )
        36           Mg  tau(  36) = (   0.3318375   0.7679528   0.9972652  )
        37           O   tau(  37) = (   0.1673212   0.0955689   0.0028780  )
        38           O   tau(  38) = (   0.1658821   0.0962060   0.5316506  )
        39           O   tau(  39) = (   0.0009281   0.3846316   0.0030238  )
        40           O   tau(  40) = (  -0.0020263   0.3855968   0.5311610  )
        41           O   tau(  41) = (  -0.1661234   0.6738036   0.0008529  )
        42           O   tau(  42) = (  -0.1667167   0.6732518   0.5339963  )
        43           O   tau(  43) = (   0.5007594   0.0962239   0.0024245  )
        44           O   tau(  44) = (   0.4992191   0.0966590   0.5314797  )
        45           O   tau(  45) = (   0.3327411   0.3843898   0.0029959  )
        46           O   tau(  46) = (   0.3330390   0.3850429   0.5315243  )
        47           O   tau(  47) = (   0.1674948   0.6728738   0.0048901  )
        48           O   tau(  48) = (   0.1675207   0.6736047   0.5278411  )
        49           O   tau(  49) = (   0.8339202   0.0943296   0.0008542  )
        50           O   tau(  50) = (   0.8311935   0.0964328   0.5307204  )
        51           O   tau(  51) = (   0.6670926   0.3848557  -0.0002734  )
        52           O   tau(  52) = (   0.6672604   0.3850262   0.5346365  )
        53           O   tau(  53) = (   0.4988719   0.6741108   0.0029323  )
        54           O   tau(  54) = (   0.5009371   0.6739144   0.5309305  )
        55           O   tau(  55) = (  -0.0003236   0.1931468   0.2673062  )
        56           O   tau(  56) = (   0.0002237   0.1928480   0.7957682  )
        57           O   tau(  57) = (  -0.1666795   0.4811864   0.2678455  )
        58           O   tau(  58) = (  -0.1671378   0.4832892   0.7944221  )
        59           O   tau(  59) = (  -0.3335849   0.7696168   0.2659659  )
        60           O   tau(  60) = (  -0.3326742   0.7702610   0.7994294  )
        61           O   tau(  61) = (   0.3337174   0.1933727   0.2654184  )
        62           O   tau(  62) = (   0.3333635   0.1936668   0.7979267  )
        63           O   tau(  63) = (   0.1678252   0.4817380   0.2695161  )
        64           O   tau(  64) = (   0.1667626   0.4822087   0.7932494  )
        65           O   tau(  65) = (  -0.0007279   0.7701374   0.2673271  )
        66           O   tau(  66) = (   0.0014534   0.7710589   0.7963426  )
        67           O   tau(  67) = (   0.6675600   0.1933534   0.2677879  )
        68           O   tau(  68) = (   0.6677655   0.1933536   0.7931330  )
        69           O   tau(  69) = (   0.5002019   0.4811640   0.2669820  )
        70           O   tau(  70) = (   0.4988576   0.4817246   0.7958740  )
        71           O   tau(  71) = (   0.3313399   0.7717780   0.2665513  )
        72           O   tau(  72) = (   0.3338845   0.7707644   0.7948214  )

   Crystallographic axes

     site n.     atom                  positions (cryst. coord.)
         1           Zn  tau(   1) = (  0.2224170  0.1120859  0.1949306  )
         2           Zn  tau(   2) = (  0.2232081  0.1106205  0.6953452  )
         3           Zn  tau(   3) = (  0.2246970  0.4457981  0.1953612  )
         4           Zn  tau(   4) = (  0.2214717  0.4445894  0.6945361  )
         5           Zn  tau(   5) = (  0.2220835  0.7770749  0.1929231  )
         6           Mg  tau(   6) = (  0.2247749  0.7807337  0.6957661  )
         7           Zn  tau(   7) = (  0.5566294  0.1111493  0.1948966  )
         8           Zn  tau(   8) = (  0.5556210  0.1118798  0.6951953  )
         9           Mg  tau(   9) = (  0.5555755  0.4453867  0.1946481  )
        10           Mg  tau(  10) = (  0.5556211  0.4440021  0.6941391  )
        11           Mg  tau(  11) = (  0.5531506  0.7764534  0.1957176  )
        12           Zn  tau(  12) = (  0.5567726  0.7793452  0.6915055  )
        13           Mg  tau(  13) = (  0.8902103  0.1127394  0.1927783  )
        14           Mg  tau(  14) = (  0.8901084  0.1108990  0.6936118  )
        15           Zn  tau(  15) = (  0.8890875  0.4445728  0.1925353  )
        16           Mg  tau(  16) = (  0.8889458  0.4459260  0.6972536  )
        17           Zn  tau(  17) = (  0.8864681  0.7775999  0.1951243  )
        18           Zn  tau(  18) = (  0.8904564  0.7778331  0.6944977  )
        19           Zn  tau(  19) = (  0.1095644  0.2224899  0.4454057  )
        20           Zn  tau(  20) = (  0.1115513  0.2216257  0.9446382  )
        21           Mg  tau(  21) = (  0.1092158  0.5561248  0.4445784  )
        22           Zn  tau(  22) = (  0.1127412  0.5551879  0.9431625  )
        23           Zn  tau(  23) = (  0.1123313  0.8883233  0.4438647  )
        24           Mg  tau(  24) = (  0.1090103  0.8880609  0.9471047  )
        25           Zn  tau(  25) = (  0.4436116  0.2214484  0.4436438  )
        26           Mg  tau(  26) = (  0.4440963  0.2214822  0.9456006  )
        27           Mg  tau(  27) = (  0.4418634  0.5532253  0.4457479  )
        28           Zn  tau(  28) = (  0.4446693  0.5565024  0.9425091  )
        29           Zn  tau(  29) = (  0.4426413  0.8891687  0.4450293  )
        30           Zn  tau(  30) = (  0.4462463  0.8879413  0.9449487  )
        31           Mg  tau(  31) = (  0.7768280  0.2239289  0.4448553  )
        32           Zn  tau(  32) = (  0.7776780  0.2202350  0.9425074  )
        33           Zn  tau(  33) = (  0.7789095  0.5540005  0.4452406  )
        34           Zn  tau(  34) = (  0.7766294  0.5566896  0.9446692  )
        35           Mg  tau(  35) = (  0.7797109  0.8894052  0.4438232  )
        36           Mg  tau(  36) = (  0.7749248  0.8859734  0.9427918  )
        37           O   tau(  37) = (  0.2223995  0.1102326  0.0027634  )
        38           O   tau(  38) = (  0.2214702  0.1108112  0.5026816  )
        39           O   tau(  39) = (  0.2227554  0.4439686  0.0027664  )
        40           O   tau(  40) = (  0.2205003  0.4449268  0.5020832  )
        41           O   tau(  41) = (  0.2225154  0.7778316  0.0005787  )
        42           O   tau(  42) = (  0.2217474  0.7770363  0.5046300  )
        43           O   tau(  43) = (  0.5561366  0.1108310  0.0024649  )
        44           O   tau(  44) = (  0.5549898  0.1111765  0.5026504  )
        45           O   tau(  45) = (  0.5543506  0.4435325  0.0028699  )
        46           O   tau(  46) = (  0.5551671  0.4441288  0.5025579  )
        47           O   tau(  47) = (  0.5555198  0.7765994  0.0045265  )
        48           O   tau(  48) = (  0.5561077  0.7772873  0.4989413  )
        49           O   tau(  49) = (  0.8881258  0.1084873  0.0011112  )
        50           O   tau(  50) = (  0.8867553  0.1107586  0.5020624  )
        51           O   tau(  51) = (  0.8888910  0.4439130 -0.0000903  )
        52           O   tau(  52) = (  0.8893009  0.4439505  0.5056311  )
        53           O   tau(  53) = (  0.8875315  0.7778710  0.0028048  )
        54           O   tau(  54) = (  0.8896249  0.7774862  0.5019926  )
        55           O   tau(  55) = (  0.1111409  0.2228647  0.2526733  )
        56           O   tau(  56) = (  0.1116579  0.2223622  0.7522989  )
        57           O   tau(  57) = (  0.1109441  0.5554196  0.2530486  )
        58           O   tau(  58) = (  0.1118402  0.5576903  0.7508907  )
        59           O   tau(  59) = (  0.1104226  0.8884265  0.2511367  )
        60           O   tau(  60) = (  0.1118480  0.8890108  0.7554907  )
        61           O   tau(  61) = (  0.4452329  0.2229680  0.2510192  )
        62           O   tau(  62) = (  0.4451918  0.2231491  0.7544698  )
        63           O   tau(  63) = (  0.4456884  0.5558976  0.2547588  )
        64           O   tau(  64) = (  0.4450382  0.5562854  0.7499130  )
        65           O   tau(  65) = (  0.4435017  0.8888696  0.2525537  )
        66           O   tau(  66) = (  0.4463561  0.8897747  0.7527030  )
        67           O   tau(  67) = (  0.7789862  0.2227871  0.2533900  )
        68           O   tau(  68) = (  0.7793329  0.2226308  0.7500686  )
        69           O   tau(  69) = (  0.7776549  0.5550785  0.2524932  )
        70           O   tau(  70) = (  0.7767764  0.5555687  0.7525244  )
        71           O   tau(  71) = (  0.7764371  0.8906064  0.2519498  )
        72           O   tau(  72) = (  0.7785385  0.8892780  0.7513949  )

     number of k points=    80
                       cart. coord. in units 2pi/alat
        k(    1) = (   0.0000000   0.0000000   0.0000000), wk =   0.0156250
        k(    2) = (   0.0000559  -0.0000345   0.1350618), wk =   0.0156250
        k(    3) = (   0.0001118  -0.0000689   0.2701237), wk =   0.0156250
        k(    4) = (   0.0001677  -0.0001034   0.4051855), wk =   0.0156250
        k(    5) = (   0.0002236  -0.0001379   0.5402473), wk =   0.0156250
        k(    6) = (   0.0002795  -0.0001724   0.6753092), wk =   0.0156250
        k(    7) = (   0.0003354  -0.0002068   0.8103710), wk =   0.0156250
        k(    8) = (   0.0003913  -0.0002413   0.9454328), wk =   0.0156250
        k(    9) = (  -0.0001183   0.2885683  -0.0000744), wk =   0.0312500
        k(   10) = (  -0.0000624   0.2885338   0.1349874), wk =   0.0312500
        k(   11) = (  -0.0000065   0.2884993   0.2700492), wk =   0.0312500
        k(   12) = (   0.0000494   0.2884648   0.4051111), wk =   0.0312500
        k(   13) = (   0.0001054   0.2884304   0.5401729), wk =   0.0312500
        k(   14) = (   0.0001613   0.2883959   0.6752347), wk =   0.0312500
        k(   15) = (   0.0002172   0.2883614   0.8102966), wk =   0.0312500
        k(   16) = (   0.0002731   0.2883270   0.9453584), wk =   0.0312500
        k(   17) = (   0.0002365  -0.5771365   0.0001489), wk =   0.0156250
        k(   18) = (   0.0002924  -0.5771710   0.1352107), wk =   0.0156250
        k(   19) = (   0.0003483  -0.5772055   0.2702725), wk =   0.0156250
        k(   20) = (   0.0004042  -0.5772399   0.4053344), wk =   0.0156250
        k(   21) = (   0.0004601  -0.5772744   0.5403962), wk =   0.0156250
        k(   22) = (   0.0005160  -0.5773089   0.6754580), wk =   0.0156250
        k(   23) = (   0.0005719  -0.5773433   0.8105199), wk =   0.0156250
        k(   24) = (   0.0006278  -0.5773778   0.9455817), wk =   0.0156250
        k(   25) = (   0.2499410   0.1441813   0.0000672), wk =   0.0312500
        k(   26) = (   0.2499969   0.1441468   0.1351290), wk =   0.0312500
        k(   27) = (   0.2500528   0.1441123   0.2701909), wk =   0.0312500
        k(   28) = (   0.2501087   0.1440778   0.4052527), wk =   0.0312500
        k(   29) = (   0.2501646   0.1440434   0.5403145), wk =   0.0312500
        k(   30) = (   0.2502205   0.1440089   0.6753764), wk =   0.0312500
        k(   31) = (   0.2502764   0.1439744   0.8104382), wk =   0.0312500
        k(   32) = (   0.2503323   0.1439400   0.9455000), wk =   0.0312500
        k(   33) = (   0.2498227   0.4327495  -0.0000072), wk =   0.0312500
        k(   34) = (   0.2498786   0.4327150   0.1350546), wk =   0.0312500
        k(   35) = (   0.2499345   0.4326806   0.2701164), wk =   0.0312500
        k(   36) = (   0.2499904   0.4326461   0.4051783), wk =   0.0312500
        k(   37) = (   0.2500463   0.4326116   0.5402401), wk =   0.0312500
        k(   38) = (   0.2501023   0.4325772   0.6753019), wk =   0.0312500
        k(   39) = (   0.2501582   0.4325427   0.8103638), wk =   0.0312500
        k(   40) = (   0.2502141   0.4325082   0.9454256), wk =   0.0312500
        k(   41) = (   0.2501775  -0.4329553   0.0002161), wk =   0.0312500
        k(   42) = (   0.2502334  -0.4329897   0.1352779), wk =   0.0312500
        k(   43) = (   0.2502893  -0.4330242   0.2703397), wk =   0.0312500
        k(   44) = (   0.2503452  -0.4330587   0.4054016), wk =   0.0312500
        k(   45) = (   0.2504011  -0.4330931   0.5404634), wk =   0.0312500
        k(   46) = (   0.2504570  -0.4331276   0.6755252), wk =   0.0312500
        k(   47) = (   0.2505129  -0.4331621   0.8105871), wk =   0.0312500
        k(   48) = (   0.2505688  -0.4331966   0.9456489), wk =   0.0312500
        k(   49) = (   0.2500593  -0.1443870   0.0001416), wk =   0.0312500
        k(   50) = (   0.2501152  -0.1444215   0.1352035), wk =   0.0312500
        k(   51) = (   0.2501711  -0.1444559   0.2702653), wk =   0.0312500
        k(   52) = (   0.2502270  -0.1444904   0.4053271), wk =   0.0312500
        k(   53) = (   0.2502829  -0.1445249   0.5403890), wk =   0.0312500
        k(   54) = (   0.2503388  -0.1445594   0.6754508), wk =   0.0312500
        k(   55) = (   0.2503947  -0.1445938   0.8105126), wk =   0.0312500
        k(   56) = (   0.2504506  -0.1446283   0.9455745), wk =   0.0312500
        k(   57) = (  -0.4998820  -0.2883625  -0.0001344), wk =   0.0156250
        k(   58) = (  -0.4998261  -0.2883970   0.1349274), wk =   0.0156250
        k(   59) = (  -0.4997702  -0.2884315   0.2699893), wk =   0.0156250
        k(   60) = (  -0.4997143  -0.2884659   0.4050511), wk =   0.0156250
        k(   61) = (  -0.4996584  -0.2885004   0.5401129), wk =   0.0156250
        k(   62) = (  -0.4996025  -0.2885349   0.6751748), wk =   0.0156250
        k(   63) = (  -0.4995466  -0.2885693   0.8102366), wk =   0.0156250
        k(   64) = (  -0.4994907  -0.2886038   0.9452984), wk =   0.0156250
        k(   65) = (  -0.5000003   0.0002057  -0.0002088), wk =   0.0312500
        k(   66) = (  -0.4999444   0.0001713   0.1348530), wk =   0.0312500
        k(   67) = (  -0.4998885   0.0001368   0.2699148), wk =   0.0312500
        k(   68) = (  -0.4998325   0.0001023   0.4049767), wk =   0.0312500
        k(   69) = (  -0.4997766   0.0000679   0.5400385), wk =   0.0312500
        k(   70) = (  -0.4997207   0.0000334   0.6751003), wk =   0.0312500
        k(   71) = (  -0.4996648  -0.0000011   0.8101621), wk =   0.0312500
        k(   72) = (  -0.4996089  -0.0000355   0.9452240), wk =   0.0312500
        k(   73) = (  -0.4996455  -0.8654990   0.0000145), wk =   0.0156250
        k(   74) = (  -0.4995896  -0.8655335   0.1350763), wk =   0.0156250
        k(   75) = (  -0.4995337  -0.8655680   0.2701381), wk =   0.0156250
        k(   76) = (  -0.4994778  -0.8656024   0.4052000), wk =   0.0156250
        k(   77) = (  -0.4994219  -0.8656369   0.5402618), wk =   0.0156250
        k(   78) = (  -0.4993660  -0.8656714   0.6753236), wk =   0.0156250
        k(   79) = (  -0.4993101  -0.8657059   0.8103855), wk =   0.0156250
        k(   80) = (  -0.4992542  -0.8657403   0.9454473), wk =   0.0156250

                       cryst. coord.
        k(    1) = (   0.0000000   0.0000000   0.0000000), wk =   0.0156250
        k(    2) = (  -0.0000000   0.0000000   0.1428571), wk =   0.0156250
        k(    3) = (  -0.0000000   0.0000000   0.2857143), wk =   0.0156250
        k(    4) = (  -0.0000000   0.0000000   0.4285714), wk =   0.0156250
        k(    5) = (  -0.0000000   0.0000000   0.5714286), wk =   0.0156250
        k(    6) = (  -0.0000000   0.0000000   0.7142857), wk =   0.0156250
        k(    7) = (  -0.0000000   0.0000000   0.8571429), wk =   0.0156250
        k(    8) = (  -0.0000000   0.0000000   1.0000000), wk =   0.0156250
        k(    9) = (  -0.0000000   0.2500000   0.0000000), wk =   0.0312500
        k(   10) = (   0.0000000   0.2500000   0.1428571), wk =   0.0312500
        k(   11) = (  -0.0000000   0.2500000   0.2857143), wk =   0.0312500
        k(   12) = (  -0.0000000   0.2500000   0.4285714), wk =   0.0312500
        k(   13) = (  -0.0000000   0.2500000   0.5714286), wk =   0.0312500
        k(   14) = (  -0.0000000   0.2500000   0.7142857), wk =   0.0312500
        k(   15) = (  -0.0000000   0.2500000   0.8571429), wk =   0.0312500
        k(   16) = (  -0.0000000   0.2500000   1.0000000), wk =   0.0312500
        k(   17) = (   0.0000000  -0.5000000  -0.0000000), wk =   0.0156250
        k(   18) = (  -0.0000000  -0.5000000   0.1428571), wk =   0.0156250
        k(   19) = (   0.0000000  -0.5000000   0.2857143), wk =   0.0156250
        k(   20) = (   0.0000000  -0.5000000   0.4285714), wk =   0.0156250
        k(   21) = (   0.0000000  -0.5000000   0.5714286), wk =   0.0156250
        k(   22) = (   0.0000000  -0.5000000   0.7142857), wk =   0.0156250
        k(   23) = (   0.0000000  -0.5000000   0.8571429), wk =   0.0156250
        k(   24) = (  -0.0000000  -0.5000000   1.0000000), wk =   0.0156250
        k(   25) = (   0.2500000  -0.0000000  -0.0000000), wk =   0.0312500
        k(   26) = (   0.2500000   0.0000000   0.1428571), wk =   0.0312500
        k(   27) = (   0.2500000  -0.0000000   0.2857143), wk =   0.0312500
        k(   28) = (   0.2500000  -0.0000000   0.4285714), wk =   0.0312500
        k(   29) = (   0.2500000   0.0000000   0.5714286), wk =   0.0312500
        k(   30) = (   0.2500000   0.0000000   0.7142857), wk =   0.0312500
        k(   31) = (   0.2500000  -0.0000000   0.8571429), wk =   0.0312500
        k(   32) = (   0.2500000  -0.0000000   1.0000000), wk =   0.0312500
        k(   33) = (   0.2500000   0.2500000  -0.0000000), wk =   0.0312500
        k(   34) = (   0.2500000   0.2500000   0.1428571), wk =   0.0312500
        k(   35) = (   0.2500000   0.2500000   0.2857143), wk =   0.0312500
        k(   36) = (   0.2500000   0.2500000   0.4285714), wk =   0.0312500
        k(   37) = (   0.2500000   0.2500000   0.5714286), wk =   0.0312500
        k(   38) = (   0.2500000   0.2500000   0.7142857), wk =   0.0312500
        k(   39) = (   0.2500000   0.2500000   0.8571429), wk =   0.0312500
        k(   40) = (   0.2500000   0.2500000   1.0000000), wk =   0.0312500
        k(   41) = (   0.2500000  -0.5000000  -0.0000000), wk =   0.0312500
        k(   42) = (   0.2500000  -0.5000000   0.1428571), wk =   0.0312500
        k(   43) = (   0.2500000  -0.5000000   0.2857143), wk =   0.0312500
        k(   44) = (   0.2500000  -0.5000000   0.4285714), wk =   0.0312500
        k(   45) = (   0.2500000  -0.5000000   0.5714286), wk =   0.0312500
        k(   46) = (   0.2500000  -0.5000000   0.7142857), wk =   0.0312500
        k(   47) = (   0.2500000  -0.5000000   0.8571429), wk =   0.0312500
        k(   48) = (   0.2500000  -0.5000000   1.0000000), wk =   0.0312500
        k(   49) = (   0.2500000  -0.2500000  -0.0000000), wk =   0.0312500
        k(   50) = (   0.2500000  -0.2500000   0.1428571), wk =   0.0312500
        k(   51) = (   0.2500000  -0.2500000   0.2857143), wk =   0.0312500
        k(   52) = (   0.2500000  -0.2500000   0.4285714), wk =   0.0312500
        k(   53) = (   0.2500000  -0.2500000   0.5714286), wk =   0.0312500
        k(   54) = (   0.2500000  -0.2500000   0.7142857), wk =   0.0312500
        k(   55) = (   0.2500000  -0.2500000   0.8571429), wk =   0.0312500
        k(   56) = (   0.2500000  -0.2500000   1.0000000), wk =   0.0312500
        k(   57) = (  -0.5000000   0.0000000   0.0000000), wk =   0.0156250
        k(   58) = (  -0.5000000   0.0000000   0.1428571), wk =   0.0156250
        k(   59) = (  -0.5000000   0.0000000   0.2857143), wk =   0.0156250
        k(   60) = (  -0.5000000  -0.0000000   0.4285714), wk =   0.0156250
        k(   61) = (  -0.5000000  -0.0000000   0.5714286), wk =   0.0156250
        k(   62) = (  -0.5000000   0.0000000   0.7142857), wk =   0.0156250
        k(   63) = (  -0.5000000   0.0000000   0.8571429), wk =   0.0156250
        k(   64) = (  -0.5000000   0.0000000   1.0000000), wk =   0.0156250
        k(   65) = (  -0.5000000   0.2500000   0.0000000), wk =   0.0312500
        k(   66) = (  -0.5000000   0.2500000   0.1428571), wk =   0.0312500
        k(   67) = (  -0.5000000   0.2500000   0.2857143), wk =   0.0312500
        k(   68) = (  -0.5000000   0.2500000   0.4285714), wk =   0.0312500
        k(   69) = (  -0.5000000   0.2500000   0.5714286), wk =   0.0312500
        k(   70) = (  -0.5000000   0.2500000   0.7142857), wk =   0.0312500
        k(   71) = (  -0.5000000   0.2500000   0.8571429), wk =   0.0312500
        k(   72) = (  -0.5000000   0.2500000   1.0000000), wk =   0.0312500
        k(   73) = (  -0.5000000  -0.5000000   0.0000000), wk =   0.0156250
        k(   74) = (  -0.5000000  -0.5000000   0.1428571), wk =   0.0156250
        k(   75) = (  -0.5000000  -0.5000000   0.2857143), wk =   0.0156250
        k(   76) = (  -0.5000000  -0.5000000   0.4285714), wk =   0.0156250
        k(   77) = (  -0.5000000  -0.5000000   0.5714286), wk =   0.0156250
        k(   78) = (  -0.5000000  -0.5000000   0.7142857), wk =   0.0156250
        k(   79) = (  -0.5000000  -0.5000000   0.8571429), wk =   0.0156250
        k(   80) = (  -0.5000000  -0.5000000   1.0000000), wk =   0.0156250

     Dense  grid:  1082085 G-vectors     FFT dimensions: ( 135, 135, 144)

     Smooth grid:   359791 G-vectors     FFT dimensions: (  96,  96, 100)

     Dynamical RAM for                 wfc:       2.13 MB

     Dynamical RAM for     wfc (w. buffer):     172.66 MB

     Dynamical RAM for           str. fact:       0.39 MB

     Dynamical RAM for           local pot:       0.00 MB

     Dynamical RAM for          nlocal pot:       6.05 MB

     Dynamical RAM for                qrad:      21.02 MB

     Dynamical RAM for          rho,v,vnew:       1.22 MB

     Dynamical RAM for           G-vectors:       0.51 MB

     Dynamical RAM for          h,s,v(r/c):       1.81 MB

     Dynamical RAM for          <psi|beta>:       6.86 MB

     Dynamical RAM for                 psi:       8.53 MB

     Dynamical RAM for                hpsi:       8.53 MB

     Dynamical RAM for                spsi:       8.53 MB

     Dynamical RAM for      wfcinit/wfcrot:      11.08 MB

     Dynamical RAM for           addusdens:      31.10 MB

     Estimated static dynamical RAM per process >     203.75 MB

     Estimated max dynamical RAM per process >     238.01 MB

     Estimated total dynamical RAM >      29.75 GB

     Check: negative core charge=   -0.000002

     The potential is recalculated from file :
     ./temp/ZnO.save/charge-density

     Starting wfcs are  500 randomized atomic wfcs

     Band Structure Calculation
     Davidson diagonalization with overlap

     Computing kpt #:     1
     total cpu time spent up to now is       20.9 secs

     Computing kpt #:     2
     total cpu time spent up to now is       33.7 secs

     Computing kpt #:     3
     total cpu time spent up to now is       46.6 secs

     Computing kpt #:     4
     total cpu time spent up to now is       59.6 secs

     Computing kpt #:     5
     total cpu time spent up to now is       72.5 secs

     Computing kpt #:     6
     total cpu time spent up to now is       85.3 secs

     Computing kpt #:     7
     total cpu time spent up to now is       98.2 secs

     Computing kpt #:     8
     total cpu time spent up to now is      111.0 secs

     Computing kpt #:     9
     total cpu time spent up to now is      124.1 secs

     Computing kpt #:    10
     total cpu time spent up to now is      136.8 secs

     Computing kpt #:    11
     total cpu time spent up to now is      149.6 secs

     Computing kpt #:    12
     total cpu time spent up to now is      162.4 secs

     Computing kpt #:    13
     total cpu time spent up to now is      175.3 secs

     Computing kpt #:    14
     total cpu time spent up to now is      188.1 secs

     Computing kpt #:    15
     total cpu time spent up to now is      200.9 secs

     Computing kpt #:    16
     total cpu time spent up to now is      213.7 secs

     Computing kpt #:    17
     total cpu time spent up to now is      226.5 secs

     Computing kpt #:    18
     total cpu time spent up to now is      239.5 secs

     Computing kpt #:    19
     total cpu time spent up to now is      252.4 secs

     Computing kpt #:    20
     total cpu time spent up to now is      265.1 secs

     Computing kpt #:    21
     total cpu time spent up to now is      277.9 secs

     Computing kpt #:    22
     total cpu time spent up to now is      290.9 secs

     Computing kpt #:    23
     total cpu time spent up to now is      303.8 secs

     Computing kpt #:    24
     total cpu time spent up to now is      316.6 secs

     Computing kpt #:    25
     total cpu time spent up to now is      329.4 secs

     Computing kpt #:    26
     total cpu time spent up to now is      342.2 secs

     Computing kpt #:    27
     total cpu time spent up to now is      355.1 secs

     Computing kpt #:    28
     total cpu time spent up to now is      368.1 secs

     Computing kpt #:    29
     total cpu time spent up to now is      380.8 secs

     Computing kpt #:    30
     total cpu time spent up to now is      393.6 secs

     Computing kpt #:    31
     total cpu time spent up to now is      406.4 secs

     Computing kpt #:    32
     total cpu time spent up to now is      419.4 secs

     Computing kpt #:    33
     total cpu time spent up to now is      432.2 secs

     Computing kpt #:    34
     total cpu time spent up to now is      444.9 secs

     Computing kpt #:    35
     total cpu time spent up to now is      457.8 secs

     Computing kpt #:    36
     total cpu time spent up to now is      470.6 secs

     Computing kpt #:    37
     total cpu time spent up to now is      483.5 secs

     Computing kpt #:    38
     total cpu time spent up to now is      496.3 secs

     Computing kpt #:    39
     total cpu time spent up to now is      509.1 secs

     Computing kpt #:    40
     total cpu time spent up to now is      521.9 secs

     Computing kpt #:    41
     total cpu time spent up to now is      534.8 secs

     Computing kpt #:    42
     total cpu time spent up to now is      547.8 secs

     Computing kpt #:    43
     total cpu time spent up to now is      560.6 secs

     Computing kpt #:    44
     total cpu time spent up to now is      573.3 secs

     Computing kpt #:    45
     total cpu time spent up to now is      586.1 secs

     Computing kpt #:    46
     total cpu time spent up to now is      599.0 secs

     Computing kpt #:    47
     total cpu time spent up to now is      611.9 secs

     Computing kpt #:    48
     total cpu time spent up to now is      624.8 secs

     Computing kpt #:    49
     total cpu time spent up to now is      637.7 secs

     Computing kpt #:    50
     total cpu time spent up to now is      650.6 secs

     Computing kpt #:    51
     total cpu time spent up to now is      663.6 secs

     Computing kpt #:    52
     total cpu time spent up to now is      676.4 secs

     Computing kpt #:    53
     total cpu time spent up to now is      689.3 secs

     Computing kpt #:    54
     total cpu time spent up to now is      702.2 secs

     Computing kpt #:    55
     total cpu time spent up to now is      715.1 secs

     Computing kpt #:    56
     total cpu time spent up to now is      728.2 secs

     Computing kpt #:    57
     total cpu time spent up to now is      741.0 secs

     Computing kpt #:    58
     total cpu time spent up to now is      753.8 secs

     Computing kpt #:    59
     total cpu time spent up to now is      766.6 secs

     Computing kpt #:    60
     total cpu time spent up to now is      779.6 secs

     Computing kpt #:    61
     total cpu time spent up to now is      792.4 secs

     Computing kpt #:    62
     total cpu time spent up to now is      805.3 secs

     Computing kpt #:    63
     total cpu time spent up to now is      818.1 secs

     Computing kpt #:    64
     total cpu time spent up to now is      831.0 secs

     Computing kpt #:    65
     total cpu time spent up to now is      844.0 secs

     Computing kpt #:    66
     total cpu time spent up to now is      856.8 secs

     Computing kpt #:    67
     total cpu time spent up to now is      869.5 secs

     Computing kpt #:    68
     total cpu time spent up to now is      882.4 secs

     Computing kpt #:    69
     total cpu time spent up to now is      895.3 secs

     Computing kpt #:    70
     total cpu time spent up to now is      908.2 secs

     Computing kpt #:    71
     total cpu time spent up to now is      920.9 secs

     Computing kpt #:    72
     total cpu time spent up to now is      933.7 secs

     Computing kpt #:    73
     total cpu time spent up to now is      946.6 secs

     Computing kpt #:    74
     total cpu time spent up to now is      959.6 secs

     Computing kpt #:    75
     total cpu time spent up to now is      972.4 secs

     Computing kpt #:    76
     total cpu time spent up to now is      985.2 secs

     Computing kpt #:    77
     total cpu time spent up to now is      998.0 secs

     Computing kpt #:    78
     total cpu time spent up to now is     1010.9 secs

     Computing kpt #:    79
     total cpu time spent up to now is     1023.9 secs

     Computing kpt #:    80
     total cpu time spent up to now is     1036.7 secs

     ethr =  1.26E-12,  avg # of iterations = 12.1

     total cpu time spent up to now is     1036.8 secs

     End of band structure calculation

          k = 0.0000 0.0000 0.0000 ( 44881 PWs)   bands (ev):

  -115.5054-115.5035-115.4975-115.4905-115.4870-115.4869-115.4849-115.4847
  -115.4838-115.4837-115.4834-115.4820-115.4817-115.4816-115.4816-115.4814
  -115.4768-115.4764-115.4757-115.4755-115.4740-115.4650 -69.8655 -69.8629
   -69.8617 -69.8591 -69.8586 -69.8584 -69.8576 -69.8533 -69.8516 -69.8501
   -69.8497 -69.8487 -69.8478 -69.8475 -69.8467 -69.8457 -69.8455 -69.8449
   -69.8442 -69.8440 -69.8440 -69.8433 -69.8431 -69.8427 -69.8422 -69.8417
   -69.8409 -69.8405 -69.8404 -69.8401 -69.8393 -69.8391 -69.8390 -69.8388
   -69.8388 -69.8386 -69.8384 -69.8383 -69.8376 -69.8373 -69.8369 -69.8368
   -69.8367 -69.8366 -69.8365 -69.8365 -69.8362 -69.8348 -69.8343 -69.8342
   -69.8333 -69.8322 -69.8320 -69.8319 -69.8318 -69.8313 -69.8303 -69.8290
   -69.8288 -69.8271 -69.8268 -69.8265 -69.8257 -69.8234 -69.8219 -69.8171
   -64.9368 -64.9346 -64.9321 -64.9308 -64.9235 -64.9211 -64.9185 -64.9132
   -64.9078 -64.9069 -64.8989 -64.8953 -64.8857 -64.8751 -31.9315 -31.9293
   -31.9261 -31.9257 -31.9239 -31.9232 -31.9225 -31.9211 -31.9197 -31.9184
   -31.9167 -31.9160 -31.9149 -31.9142 -31.9104 -31.9096 -31.9076 -31.9075
   -31.9071 -31.9048 -31.9045 -31.9026 -31.9003 -31.8987 -31.8981 -31.8972
   -31.8959 -31.8933 -31.8914 -31.8892 -31.8889 -31.8871 -31.8834 -31.8820
   -31.8803 -31.8796 -31.8744 -31.8700 -31.8679 -31.8656 -31.8605 -31.8594
   -10.1475  -9.8413  -9.7885  -9.7366  -9.6888  -9.6689  -9.6373  -9.6137
    -9.5474  -9.5066  -9.4988  -9.4846  -9.4766  -9.4357  -9.4340  -9.4077
    -9.3817  -9.3548  -9.3439  -9.3186  -9.3070  -9.2817  -9.2653  -9.2374
    -9.2169  -9.2045  -9.1912  -9.1724  -9.1629  -9.1565  -9.1484  -9.1230
    -9.0460  -9.0374  -9.0019  -8.9638   1.6801   1.6888   1.7068   1.7250
     1.7322   1.7522   1.7704   1.7831   1.8203   1.8300   1.8409   1.8718
     1.8816   1.9132   1.9392   1.9635   1.9785   1.9923   2.0166   2.0303
     2.0550   2.0705   2.0937   2.1195   2.1240   2.1353   2.1481   2.1700
     2.1743   2.1826   2.2082   2.2131   2.2296   2.2382   2.2544   2.2565
     2.2651   2.2789   2.2806   2.2998   2.3025   2.3246   2.3258   2.3457
     2.3489   2.3720   2.3772   2.3853   2.3922   2.4060   2.4135   2.4314
     2.4468   2.4743   2.4981   2.5221   2.5540   2.5740   2.5771   2.6021
     2.6143   2.6518   2.6606   2.6724   2.6962   2.7152   2.7234   2.7392
     2.7621   2.7754   2.7823   2.7890   2.8106   2.8183   2.8227   2.8321
     2.8566   2.8731   2.8807   2.8927   2.9127   2.9282   2.9334   2.9595
     2.9915   2.9980   3.0032   3.0284   3.0499   3.0595   3.0775   3.0835
     3.1144   3.1225   3.1419   3.1439   3.1503   3.1644   3.1674   3.1824
     3.1941   3.1969   3.2249   3.2338   3.2441   3.2569   3.2588   3.3003
     3.3170   3.3316   3.3831   3.4334   3.5065   3.5658   3.5997   3.6126
     3.6668   3.7049   3.7116   3.7568   3.7700   3.7983   3.8274   3.8516
     3.8709   3.9061   3.9487   3.9731   3.9907   4.0386   4.0995   4.1441
     4.1894   4.1941   4.2300   4.2606   4.2948   4.3705   4.4749   4.4859
     4.5336   4.5478   4.6045   4.6350   4.6743   4.7138   4.7216   4.7460
     4.7661   4.8537   4.9315   4.9455   4.9820   5.0984   5.1261   5.3003
     5.3252   5.3791   5.4182   5.4433   5.4743   5.5189   5.5686   5.5743
     5.6459   5.6639   5.6884   5.6948   5.7007   5.7156   5.7483   5.7833
     5.8066   5.8929   5.9005   5.9591   5.9723   6.0026   6.0294   6.0577
     6.0881   6.0987   6.1521   6.1946   6.2101   6.2285   6.2602   6.2673
     6.2950   6.3065   6.3174   6.3351   6.3687   6.3831   6.3859   6.3919
     6.4007   6.4256   6.5010   6.5228   6.5565   6.5855   6.5936   6.6303
     6.6539   6.6643   6.6897   6.7118   6.7535   6.7817   6.8252   6.9245
     6.9259   6.9684   7.0434   7.2208   7.2268   7.2458

     occupation numbers 
     1.0000   1.0000   1.0000   1.0000   1.0000   1.0000   1.0000   1.0000
     1.0000   1.0000   1.0000   1.0000   1.0000   1.0000   1.0000   1.0000
     1.0000   1.0000   1.0000   1.0000   1.0000   1.0000   1.0000   1.0000
     1.0000   1.0000   1.0000   1.0000   1.0000   1.0000   1.0000   1.0000
     1.0000   1.0000   1.0000   1.0000   1.0000   1.0000   1.0000   1.0000
     1.0000   1.0000   1.0000   1.0000   1.0000   1.0000   1.0000   1.0000
     1.0000   1.0000   1.0000   1.0000   1.0000   1.0000   1.0000   1.0000
     1.0000   1.0000   1.0000   1.0000   1.0000   1.0000   1.0000   1.0000
     1.0000   1.0000   1.0000   1.0000   1.0000   1.0000   1.0000   1.0000
     1.0000   1.0000   1.0000   1.0000   1.0000   1.0000   1.0000   1.0000
     1.0000   1.0000   1.0000   1.0000   1.0000   1.0000   1.0000   1.0000
     1.0000   1.0000   1.0000   1.0000   1.0000   1.0000   1.0000   1.0000
     1.0000   1.0000   1.0000   1.0000   1.0000   1.0000   1.0000   1.0000
     1.0000   1.0000   1.0000   1.0000   1.0000   1.0000   1.0000   1.0000
     1.0000   1.0000   1.0000   1.0000   1.0000   1.0000   1.0000   1.0000
     1.0000   1.0000   1.0000   1.0000   1.0000   1.0000   1.0000   1.0000
     1.0000   1.0000   1.0000   1.0000   1.0000   1.0000   1.0000   1.0000
     1.0000   1.0000   1.0000   1.0000   1.0000   1.0000   1.0000   1.0000
     1.0000   1.0000   1.0000   1.0000   1.0000   1.0000   1.0000   1.0000
     1.0000   1.0000   1.0000   1.0000   1.0000   1.0000   1.0000   1.0000
     1.0000   1.0000   1.0000   1.0000   1.0000   1.0000   1.0000   1.0000
     1.0000   1.0000   1.0000   1.0000   1.0000   1.0000   1.0000   1.0000
     1.0000   1.0000   1.0000   1.0000   1.0000   1.0000   1.0000   1.0000
     1.0000   1.0000   1.0000   1.0000   1.0000   1.0000   1.0000   1.0000
     1.0000   1.0000   1.0000   1.0000   1.0000   1.0000   1.0000   1.0000
     1.0000   1.0000   1.0000   1.0000   1.0000   1.0000   1.0000   1.0000
     1.0000   1.0000   1.0000   1.0000   1.0000   1.0000   1.0000   1.0000
     1.0000   1.0000   1.0000   1.0000   1.0000   1.0000   1.0000   1.0000
     1.0000   1.0000   1.0000   1.0000   1.0000   1.0000   1.0000   1.0000
     1.0000   1.0000   1.0000   1.0000   1.0000   1.0000   1.0000   1.0000
     1.0000   1.0000   1.0000   1.0000   1.0000   1.0000   1.0000   1.0000
     1.0000   1.0000   1.0000   1.0000   1.0000   1.0000   1.0000   1.0000
     1.0000   1.0000   1.0000   1.0000   1.0000   1.0000   1.0000   1.0000
     1.0000   1.0000   1.0000   1.0000   1.0000   1.0000   1.0000   1.0000
     1.0000   1.0000   1.0000   1.0000   1.0000   1.0000   1.0000   1.0000
     1.0000   1.0000   1.0000   1.0000   1.0000   1.0000   1.0000   1.0000
     1.0000   1.0000   1.0000   1.0000   1.0000   1.0000   1.0000   1.0000
     1.0000   1.0000   1.0000   1.0000   1.0000   1.0000   1.0000   1.0000
     1.0000   1.0000   1.0000   1.0000   1.0000   1.0000   1.0000   1.0000
     1.0000   1.0000   1.0000   1.0000   1.0000   1.0000   1.0000   1.0000
     1.0000   1.0000   1.0000   1.0000   1.0000   1.0000   1.0000   1.0000
     1.0000   1.0000   1.0000   1.0000   1.0000   1.0000   1.0000   1.0000
     1.0000   1.0000   1.0000   1.0000   1.0000   1.0000   1.0000   1.0000
     1.0000   1.0000   1.0000   1.0000   1.0000   1.0000   1.0000   1.0000
     1.0000   1.0000   1.0000   1.0000   1.0000   1.0000   1.0000   1.0000
     1.0000   1.0000   1.0000   1.0000   1.0000   1.0000   1.0000   1.0000
     1.0000   1.0000   1.0000   1.0000   1.0000   1.0000   1.0000   1.0000
     1.0000   1.0000   1.0000   1.0000   1.0000   1.0000   1.0000   1.0000
     1.0000   1.0000   1.0000   1.0000   1.0000   1.0000   1.0000   1.0000
     1.0000   1.0000   1.0000   1.0000   1.0000   1.0000

          k = 0.0001-0.0000 0.1351 ( 44945 PWs)   bands (ev):

  -115.5054-115.5035-115.4975-115.4905-115.4870-115.4869-115.4849-115.4847
  -115.4838-115.4837-115.4834-115.4820-115.4817-115.4816-115.4816-115.4814
  -115.4768-115.4764-115.4757-115.4755-115.4740-115.4650 -69.8655 -69.8629
   -69.8617 -69.8591 -69.8586 -69.8584 -69.8576 -69.8533 -69.8516 -69.8501
   -69.8498 -69.8487 -69.8478 -69.8475 -69.8467 -69.8457 -69.8455 -69.8449
   -69.8442 -69.8440 -69.8440 -69.8433 -69.8431 -69.8427 -69.8422 -69.8417
   -69.8409 -69.8405 -69.8404 -69.8401 -69.8393 -69.8391 -69.8390 -69.8388
   -69.8388 -69.8386 -69.8384 -69.8383 -69.8376 -69.8373 -69.8369 -69.8368
   -69.8367 -69.8366 -69.8365 -69.8365 -69.8362 -69.8348 -69.8343 -69.8342
   -69.8333 -69.8322 -69.8320 -69.8319 -69.8318 -69.8313 -69.8303 -69.8290
   -69.8288 -69.8271 -69.8268 -69.8265 -69.8257 -69.8234 -69.8219 -69.8171
   -64.9368 -64.9346 -64.9321 -64.9308 -64.9235 -64.9211 -64.9185 -64.9132
   -64.9078 -64.9069 -64.8989 -64.8953 -64.8857 -64.8751 -31.9315 -31.9293
   -31.9262 -31.9257 -31.9239 -31.9232 -31.9225 -31.9211 -31.9197 -31.9184
   -31.9168 -31.9160 -31.9149 -31.9142 -31.9104 -31.9096 -31.9076 -31.9075
   -31.9071 -31.9048 -31.9045 -31.9026 -31.9003 -31.8987 -31.8981 -31.8972
   -31.8958 -31.8933 -31.8914 -31.8892 -31.8890 -31.8871 -31.8834 -31.8820
   -31.8803 -31.8796 -31.8744 -31.8700 -31.8679 -31.8656 -31.8605 -31.8594
   -10.1391  -9.8834  -9.7619  -9.7322  -9.6855  -9.6679  -9.6275  -9.6040
    -9.5483  -9.5297  -9.5137  -9.4877  -9.4689  -9.4490  -9.4233  -9.4122
    -9.3735  -9.3560  -9.3357  -9.3221  -9.3037  -9.2734  -9.2633  -9.2360
    -9.2147  -9.2052  -9.1907  -9.1711  -9.1644  -9.1565  -9.1479  -9.1261
    -9.0476  -9.0387  -9.0031  -8.9655   1.6822   1.6965   1.7113   1.7269
     1.7480   1.7549   1.7802   1.7871   1.8229   1.8314   1.8442   1.8708
     1.8892   1.9158   1.9438   1.9705   1.9845   1.9964   2.0193   2.0309
     2.0572   2.0692   2.0911   2.1159   2.1240   2.1367   2.1469   2.1645
     2.1733   2.1824   2.2004   2.2080   2.2266   2.2340   2.2461   2.2555
     2.2627   2.2775   2.2849   2.2967   2.3086   2.3177   2.3347   2.3437
     2.3498   2.3655   2.3786   2.3844   2.3972   2.4049   2.4101   2.4316
     2.4465   2.4690   2.4930   2.5213   2.5450   2.5690   2.5749   2.5945
     2.6098   2.6427   2.6494   2.6659   2.6889   2.7088   2.7119   2.7301
     2.7362   2.7643   2.7730   2.7864   2.7960   2.8143   2.8242   2.8378
     2.8493   2.8603   2.8685   2.8946   2.9080   2.9283   2.9357   2.9469
     2.9808   2.9925   3.0084   3.0229   3.0484   3.0549   3.0687   3.0828
     3.1168   3.1287   3.1371   3.1407   3.1582   3.1663   3.1744   3.1872
     3.1924   3.2049   3.2251   3.2302   3.2408   3.2570   3.2680   3.2905
     3.3141   3.3285   3.3751   3.4684   3.5492   3.5618   3.6191   3.6399
     3.6752   3.7096   3.7165   3.7531   3.7767   3.8082   3.8384   3.8591
     3.8772   3.9101   3.9678   3.9787   4.0111   4.0564   4.1037   4.1590
     4.1929   4.2163   4.2453   4.2895   4.3011   4.3889   4.4636   4.4949
     4.5086   4.5325   4.5663   4.5945   4.6358   4.6609   4.6919   4.7513
     4.8162   4.8834   4.9173   4.9765   5.0597   5.0991   5.2094   5.3104
     5.3326   5.3862   5.4300   5.4418   5.4810   5.5209   5.5631   5.5752
     5.6070   5.6349   5.6635   5.6754   5.7013   5.7102   5.7348   5.7550
     5.7740   5.8166   5.8613   5.9266   5.9453   5.9639   6.0052   6.0517
     6.0733   6.0896   6.1244   6.1463   6.2011   6.2283   6.2510   6.2675
     6.2931   6.3208   6.3442   6.3615   6.3782   6.3947   6.4095   6.4430
     6.4742   6.4997   6.5065   6.5248   6.5726   6.5993   6.6077   6.6395
     6.6599   6.6765   6.6898   6.7184   6.7448   6.7793   6.8172   6.8816
     6.9179   7.0037   7.0568   7.1449   7.2182   7.2406

     occupation numbers 
     1.0000   1.0000   1.0000   1.0000   1.0000   1.0000   1.0000   1.0000
     1.0000   1.0000   1.0000   1.0000   1.0000   1.0000   1.0000   1.0000
     1.0000   1.0000   1.0000   1.0000   1.0000   1.0000   1.0000   1.0000
     1.0000   1.0000   1.0000   1.0000   1.0000   1.0000   1.0000   1.0000
     1.0000   1.0000   1.0000   1.0000   1.0000   1.0000   1.0000   1.0000
     1.0000   1.0000   1.0000   1.0000   1.0000   1.0000   1.0000   1.0000
     1.0000   1.0000   1.0000   1.0000   1.0000   1.0000   1.0000   1.0000
     1.0000   1.0000   1.0000   1.0000   1.0000   1.0000   1.0000   1.0000
     1.0000   1.0000   1.0000   1.0000   1.0000   1.0000   1.0000   1.0000
     1.0000   1.0000   1.0000   1.0000   1.0000   1.0000   1.0000   1.0000
     1.0000   1.0000   1.0000   1.0000   1.0000   1.0000   1.0000   1.0000
     1.0000   1.0000   1.0000   1.0000   1.0000   1.0000   1.0000   1.0000
     1.0000   1.0000   1.0000   1.0000   1.0000   1.0000   1.0000   1.0000
     1.0000   1.0000   1.0000   1.0000   1.0000   1.0000   1.0000   1.0000
     1.0000   1.0000   1.0000   1.0000   1.0000   1.0000   1.0000   1.0000
     1.0000   1.0000   1.0000   1.0000   1.0000   1.0000   1.0000   1.0000
     1.0000   1.0000   1.0000   1.0000   1.0000   1.0000   1.0000   1.0000
     1.0000   1.0000   1.0000   1.0000   1.0000   1.0000   1.0000   1.0000
     1.0000   1.0000   1.0000   1.0000   1.0000   1.0000   1.0000   1.0000
     1.0000   1.0000   1.0000   1.0000   1.0000   1.0000   1.0000   1.0000
     1.0000   1.0000   1.0000   1.0000   1.0000   1.0000   1.0000   1.0000
     1.0000   1.0000   1.0000   1.0000   1.0000   1.0000   1.0000   1.0000
     1.0000   1.0000   1.0000   1.0000   1.0000   1.0000   1.0000   1.0000
     1.0000   1.0000   1.0000   1.0000   1.0000   1.0000   1.0000   1.0000
     1.0000   1.0000   1.0000   1.0000   1.0000   1.0000   1.0000   1.0000
     1.0000   1.0000   1.0000   1.0000   1.0000   1.0000   1.0000   1.0000
     1.0000   1.0000   1.0000   1.0000   1.0000   1.0000   1.0000   1.0000
     1.0000   1.0000   1.0000   1.0000   1.0000   1.0000   1.0000   1.0000
     1.0000   1.0000   1.0000   1.0000   1.0000   1.0000   1.0000   1.0000
     1.0000   1.0000   1.0000   1.0000   1.0000   1.0000   1.0000   1.0000
     1.0000   1.0000   1.0000   1.0000   1.0000   1.0000   1.0000   1.0000
     1.0000   1.0000   1.0000   1.0000   1.0000   1.0000   1.0000   1.0000
     1.0000   1.0000   1.0000   1.0000   1.0000   1.0000   1.0000   1.0000
     1.0000   1.0000   1.0000   1.0000   1.0000   1.0000   1.0000   1.0000
     1.0000   1.0000   1.0000   1.0000   1.0000   1.0000   1.0000   1.0000
     1.0000   1.0000   1.0000   1.0000   1.0000   1.0000   1.0000   1.0000
     1.0000   1.0000   1.0000   1.0000   1.0000   1.0000   1.0000   1.0000
     1.0000   1.0000   1.0000   1.0000   1.0000   1.0000   1.0000   1.0000
     1.0000   1.0000   1.0000   1.0000   1.0000   1.0000   1.0000   1.0000
     1.0000   1.0000   1.0000   1.0000   1.0000   1.0000   1.0000   1.0000
     1.0000   1.0000   1.0000   1.0000   1.0000   1.0000   1.0000   1.0000
     1.0000   1.0000   1.0000   1.0000   1.0000   1.0000   1.0000   1.0000
     1.0000   1.0000   1.0000   1.0000   1.0000   1.0000   1.0000   1.0000
     1.0000   1.0000   1.0000   1.0000   1.0000   1.0000   1.0000   1.0000
     1.0000   1.0000   1.0000   1.0000   1.0000   1.0000   1.0000   1.0000
     1.0000   1.0000   1.0000   1.0000   1.0000   1.0000   1.0000   1.0000
     1.0000   1.0000   1.0000   1.0000   1.0000   1.0000   1.0000   1.0000
     1.0000   1.0000   1.0000   1.0000   1.0000   1.0000   1.0000   1.0000
     1.0000   1.0000   1.0000   1.0000   1.0000   1.0000   1.0000   1.0000
     1.0000   1.0000   1.0000   1.0000   1.0000   1.0000

          k = 0.0001-0.0001 0.2701 ( 45008 PWs)   bands (ev):

  -115.5054-115.5035-115.4975-115.4905-115.4870-115.4869-115.4849-115.4847
  -115.4838-115.4837-115.4834-115.4820-115.4817-115.4816-115.4816-115.4814
  -115.4768-115.4764-115.4757-115.4755-115.4740-115.4650 -69.8655 -69.8629
   -69.8617 -69.8591 -69.8586 -69.8584 -69.8576 -69.8533 -69.8516 -69.8501
   -69.8498 -69.8487 -69.8478 -69.8475 -69.8467 -69.8457 -69.8455 -69.8449
   -69.8442 -69.8440 -69.8440 -69.8433 -69.8431 -69.8427 -69.8422 -69.8417
   -69.8409 -69.8405 -69.8404 -69.8401 -69.8393 -69.8391 -69.8390 -69.8388
   -69.8388 -69.8386 -69.8384 -69.8383 -69.8376 -69.8373 -69.8369 -69.8368
   -69.8367 -69.8366 -69.8365 -69.8365 -69.8362 -69.8348 -69.8343 -69.8342
   -69.8333 -69.8322 -69.8320 -69.8319 -69.8318 -69.8313 -69.8303 -69.8290
   -69.8288 -69.8271 -69.8268 -69.8265 -69.8257 -69.8234 -69.8219 -69.8171
   -64.9368 -64.9346 -64.9321 -64.9308 -64.9235 -64.9211 -64.9185 -64.9132
   -64.9078 -64.9069 -64.8989 -64.8953 -64.8857 -64.8751 -31.9315 -31.9292
   -31.9262 -31.9258 -31.9239 -31.9230 -31.9225 -31.9211 -31.9197 -31.9184
   -31.9170 -31.9160 -31.9149 -31.9142 -31.9103 -31.9095 -31.9076 -31.9074
   -31.9071 -31.9048 -31.9044 -31.9026 -31.9003 -31.8987 -31.8981 -31.8972
   -31.8958 -31.8933 -31.8914 -31.8892 -31.8890 -31.8871 -31.8834 -31.8820
   -31.8803 -31.8796 -31.8744 -31.8700 -31.8679 -31.8656 -31.8605 -31.8594
   -10.1146  -9.9474  -9.7353  -9.7204  -9.6765  -9.6636  -9.6187  -9.5814
    -9.5631  -9.5488  -9.5289  -9.5022  -9.4796  -9.4471  -9.4344  -9.4091
    -9.3665  -9.3568  -9.3275  -9.3078  -9.2989  -9.2635  -9.2580  -9.2342
    -9.2102  -9.2064  -9.1877  -9.1713  -9.1640  -9.1557  -9.1464  -9.1345
    -9.0524  -9.0413  -9.0057  -8.9697   1.6904   1.7078   1.7227   1.7384
     1.7617   1.7762   1.7936   1.8092   1.8279   1.8368   1.8549   1.8711
     1.9068   1.9226   1.9564   1.9861   2.0007   2.0092   2.0198   2.0355
     2.0624   2.0662   2.0828   2.1087   2.1200   2.1279   2.1459   2.1566
     2.1713   2.1751   2.1844   2.1959   2.2129   2.2262   2.2349   2.2510
     2.2613   2.2787   2.2862   2.2955   2.3143   2.3229   2.3341   2.3465
     2.3545   2.3593   2.3730   2.3898   2.3963   2.4007   2.4135   2.4284
     2.4436   2.4622   2.4798   2.5104   2.5256   2.5384   2.5591   2.5755
     2.5971   2.6146   2.6251   2.6409   2.6639   2.6854   2.6995   2.7079
     2.7236   2.7463   2.7596   2.7733   2.7814   2.7980   2.8158   2.8266
     2.8370   2.8434   2.8622   2.8822   2.9011   2.9296   2.9355   2.9454
     2.9700   2.9782   2.9937   3.0233   3.0368   3.0520   3.0737   3.0818
     3.1151   3.1327   3.1404   3.1462   3.1604   3.1702   3.1828   3.1911
     3.2025   3.2160   3.2287   3.2323   3.2402   3.2510   3.2744   3.2848
     3.2975   3.3303   3.4362   3.5119   3.5621   3.5937   3.6387   3.6602
     3.6874   3.7096   3.7323   3.7648   3.8007   3.8319   3.8527   3.8708
     3.9057   3.9281   3.9865   4.0069   4.0475   4.0758   4.1153   4.1687
     4.2027   4.2481   4.2678   4.3387   4.3437   4.4071   4.4228   4.4667
     4.4850   4.5379   4.5394   4.5609   4.6086   4.6525   4.7192   4.7467
     4.8229   4.8957   5.0128   5.0684   5.0980   5.1671   5.2319   5.2994
     5.3298   5.3543   5.3856   5.4374   5.4571   5.4946   5.5163   5.5486
     5.5629   5.6142   5.6172   5.6376   5.6806   5.7014   5.7322   5.7462
     5.7742   5.7958   5.8123   5.8487   5.8797   5.9083   5.9525   5.9839
     6.0136   6.0380   6.0688   6.1622   6.2010   6.2302   6.2486   6.2836
     6.3115   6.3366   6.3507   6.3795   6.4129   6.4330   6.4607   6.4906
     6.5146   6.5418   6.5589   6.5937   6.6083   6.6390   6.6421   6.6556
     6.6851   6.6942   6.7063   6.7199   6.7501   6.7761   6.7951   6.8370
     6.8804   6.9704   7.0529   7.0846   7.2052   7.2272

     occupation numbers 
     1.0000   1.0000   1.0000   1.0000   1.0000   1.0000   1.0000   1.0000
     1.0000   1.0000   1.0000   1.0000   1.0000   1.0000   1.0000   1.0000
     1.0000   1.0000   1.0000   1.0000   1.0000   1.0000   1.0000   1.0000
     1.0000   1.0000   1.0000   1.0000   1.0000   1.0000   1.0000   1.0000
     1.0000   1.0000   1.0000   1.0000   1.0000   1.0000   1.0000   1.0000
     1.0000   1.0000   1.0000   1.0000   1.0000   1.0000   1.0000   1.0000
     1.0000   1.0000   1.0000   1.0000   1.0000   1.0000   1.0000   1.0000
     1.0000   1.0000   1.0000   1.0000   1.0000   1.0000   1.0000   1.0000
     1.0000   1.0000   1.0000   1.0000   1.0000   1.0000   1.0000   1.0000
     1.0000   1.0000   1.0000   1.0000   1.0000   1.0000   1.0000   1.0000
     1.0000   1.0000   1.0000   1.0000   1.0000   1.0000   1.0000   1.0000
     1.0000   1.0000   1.0000   1.0000   1.0000   1.0000   1.0000   1.0000
     1.0000   1.0000   1.0000   1.0000   1.0000   1.0000   1.0000   1.0000
     1.0000   1.0000   1.0000   1.0000   1.0000   1.0000   1.0000   1.0000
     1.0000   1.0000   1.0000   1.0000   1.0000   1.0000   1.0000   1.0000
     1.0000   1.0000   1.0000   1.0000   1.0000   1.0000   1.0000   1.0000
     1.0000   1.0000   1.0000   1.0000   1.0000   1.0000   1.0000   1.0000
     1.0000   1.0000   1.0000   1.0000   1.0000   1.0000   1.0000   1.0000
     1.0000   1.0000   1.0000   1.0000   1.0000   1.0000   1.0000   1.0000
     1.0000   1.0000   1.0000   1.0000   1.0000   1.0000   1.0000   1.0000
     1.0000   1.0000   1.0000   1.0000   1.0000   1.0000   1.0000   1.0000
     1.0000   1.0000   1.0000   1.0000   1.0000   1.0000   1.0000   1.0000
     1.0000   1.0000   1.0000   1.0000   1.0000   1.0000   1.0000   1.0000
     1.0000   1.0000   1.0000   1.0000   1.0000   1.0000   1.0000   1.0000
     1.0000   1.0000   1.0000   1.0000   1.0000   1.0000   1.0000   1.0000
     1.0000   1.0000   1.0000   1.0000   1.0000   1.0000   1.0000   1.0000
     1.0000   1.0000   1.0000   1.0000   1.0000   1.0000   1.0000   1.0000
     1.0000   1.0000   1.0000   1.0000   1.0000   1.0000   1.0000   1.0000
     1.0000   1.0000   1.0000   1.0000   1.0000   1.0000   1.0000   1.0000
     1.0000   1.0000   1.0000   1.0000   1.0000   1.0000   1.0000   1.0000
     1.0000   1.0000   1.0000   1.0000   1.0000   1.0000   1.0000   1.0000
     1.0000   1.0000   1.0000   1.0000   1.0000   1.0000   1.0000   1.0000
     1.0000   1.0000   1.0000   1.0000   1.0000   1.0000   1.0000   1.0000
     1.0000   1.0000   1.0000   1.0000   1.0000   1.0000   1.0000   1.0000
     1.0000   1.0000   1.0000   1.0000   1.0000   1.0000   1.0000   1.0000
     1.0000   1.0000   1.0000   1.0000   1.0000   1.0000   1.0000   1.0000
     1.0000   1.0000   1.0000   1.0000   1.0000   1.0000   1.0000   1.0000
     1.0000   1.0000   1.0000   1.0000   1.0000   1.0000   1.0000   1.0000
     1.0000   1.0000   1.0000   1.0000   1.0000   1.0000   1.0000   1.0000
     1.0000   1.0000   1.0000   1.0000   1.0000   1.0000   1.0000   1.0000
     1.0000   1.0000   1.0000   1.0000   1.0000   1.0000   1.0000   1.0000
     1.0000   1.0000   1.0000   1.0000   1.0000   1.0000   1.0000   1.0000
     1.0000   1.0000   1.0000   1.0000   1.0000   1.0000   1.0000   1.0000
     1.0000   1.0000   1.0000   1.0000   1.0000   1.0000   1.0000   1.0000
     1.0000   1.0000   1.0000   1.0000   1.0000   1.0000   1.0000   1.0000
     1.0000   1.0000   1.0000   1.0000   1.0000   1.0000   1.0000   1.0000
     1.0000   1.0000   1.0000   1.0000   1.0000   1.0000   1.0000   1.0000
     1.0000   1.0000   1.0000   1.0000   1.0000   1.0000   1.0000   1.0000
     1.0000   1.0000   1.0000   1.0000   1.0000   1.0000   1.0000   1.0000
     1.0000   1.0000   1.0000   1.0000   1.0000   1.0000

          k = 0.0002-0.0001 0.4052 ( 45009 PWs)   bands (ev):

  -115.5054-115.5035-115.4975-115.4905-115.4870-115.4869-115.4849-115.4847
  -115.4838-115.4837-115.4834-115.4820-115.4817-115.4816-115.4816-115.4814
  -115.4768-115.4764-115.4757-115.4755-115.4740-115.4650 -69.8655 -69.8629
   -69.8617 -69.8591 -69.8586 -69.8584 -69.8576 -69.8533 -69.8516 -69.8501
   -69.8498 -69.8487 -69.8478 -69.8475 -69.8467 -69.8457 -69.8455 -69.8449
   -69.8442 -69.8440 -69.8440 -69.8433 -69.8431 -69.8427 -69.8422 -69.8417
   -69.8409 -69.8405 -69.8404 -69.8401 -69.8393 -69.8391 -69.8390 -69.8388
   -69.8388 -69.8386 -69.8384 -69.8383 -69.8376 -69.8373 -69.8369 -69.8368
   -69.8367 -69.8366 -69.8365 -69.8365 -69.8362 -69.8348 -69.8343 -69.8342
   -69.8333 -69.8322 -69.8320 -69.8319 -69.8318 -69.8313 -69.8303 -69.8290
   -69.8288 -69.8271 -69.8268 -69.8265 -69.8257 -69.8234 -69.8219 -69.8171
   -64.9368 -64.9346 -64.9321 -64.9308 -64.9235 -64.9211 -64.9185 -64.9132
   -64.9078 -64.9069 -64.8989 -64.8953 -64.8857 -64.8751 -31.9315 -31.9292
   -31.9263 -31.9258 -31.9239 -31.9229 -31.9224 -31.9212 -31.9197 -31.9183
   -31.9172 -31.9160 -31.9149 -31.9142 -31.9103 -31.9095 -31.9076 -31.9074
   -31.9071 -31.9048 -31.9044 -31.9026 -31.9002 -31.8987 -31.8981 -31.8972
   -31.8958 -31.8933 -31.8914 -31.8892 -31.8890 -31.8871 -31.8834 -31.8820
   -31.8803 -31.8796 -31.8744 -31.8700 -31.8679 -31.8656 -31.8605 -31.8594
   -10.0792 -10.0049  -9.7207  -9.7070  -9.6692  -9.6585  -9.6162  -9.5886
    -9.5796  -9.5480  -9.5277  -9.5066  -9.4856  -9.4506  -9.4385  -9.4144
    -9.3734  -9.3535  -9.3143  -9.3011  -9.2881  -9.2614  -9.2512  -9.2332
    -9.2155  -9.2021  -9.1836  -9.1724  -9.1609  -9.1534  -9.1455  -9.1429
    -9.0573  -9.0430  -9.0078  -8.9732   1.6991   1.7111   1.7356   1.7487
     1.7755   1.7868   1.8043   1.8146   1.8285   1.8605   1.8702   1.8885
     1.9176   1.9303   1.9653   1.9984   2.0076   2.0175   2.0269   2.0429
     2.0582   2.0649   2.0853   2.0985   2.1095   2.1179   2.1376   2.1471
     2.1547   2.1653   2.1773   2.1982   2.2043   2.2212   2.2277   2.2512
     2.2588   2.2776   2.2851   2.3014   2.3141   2.3247   2.3428   2.3494
     2.3543   2.3685   2.3723   2.3821   2.3938   2.4053   2.4168   2.4298
     2.4438   2.4517   2.4700   2.4731   2.4870   2.5018   2.5417   2.5522
     2.5823   2.5988   2.6135   2.6314   2.6472   2.6670   2.6831   2.7090
     2.7236   2.7362   2.7474   2.7711   2.7767   2.7909   2.7936   2.8151
     2.8253   2.8382   2.8614   2.8770   2.9012   2.9130   2.9420   2.9496
     2.9583   2.9770   2.9898   3.0173   3.0292   3.0544   3.0731   3.0909
     3.1118   3.1254   3.1432   3.1560   3.1615   3.1807   3.1873   3.1959
     3.2037   3.2204   3.2304   3.2390   3.2405   3.2483   3.2675   3.2853
     3.2973   3.3306   3.5008   3.5456   3.5699   3.6175   3.6431   3.6718
     3.6939   3.7012   3.7355   3.7624   3.8202   3.8399   3.8626   3.8917
     3.9406   3.9715   4.0051   4.0385   4.0613   4.0873   4.1102   4.1389
     4.1711   4.1967   4.2574   4.3435   4.3626   4.3935   4.4110   4.4887
     4.5132   4.5409   4.5675   4.6336   4.6821   4.7046   4.7742   4.7959
     4.8665   4.9186   5.0093   5.0642   5.1269   5.1716   5.2262   5.2360
     5.2657   5.2924   5.3334   5.3576   5.3737   5.4041   5.4476   5.4800
     5.6142   5.6322   5.6449   5.6759   5.6889   5.7093   5.7460   5.7660
     5.7962   5.8199   5.8425   5.8529   5.8789   5.9008   5.9167   5.9389
     5.9412   5.9587   6.0008   6.0765   6.2018   6.2403   6.2659   6.2884
     6.3221   6.3475   6.3761   6.3914   6.4332   6.4587   6.4735   6.5309
     6.5393   6.5641   6.5824   6.6166   6.6405   6.6453   6.6650   6.6790
     6.6925   6.7149   6.7284   6.7437   6.7563   6.7759   6.7863   6.8113
     6.8295   6.8461   7.0889   7.1073   7.1901   7.2131

     occupation numbers 
     1.0000   1.0000   1.0000   1.0000   1.0000   1.0000   1.0000   1.0000
     1.0000   1.0000   1.0000   1.0000   1.0000   1.0000   1.0000   1.0000
     1.0000   1.0000   1.0000   1.0000   1.0000   1.0000   1.0000   1.0000
     1.0000   1.0000   1.0000   1.0000   1.0000   1.0000   1.0000   1.0000
     1.0000   1.0000   1.0000   1.0000   1.0000   1.0000   1.0000   1.0000
     1.0000   1.0000   1.0000   1.0000   1.0000   1.0000   1.0000   1.0000
     1.0000   1.0000   1.0000   1.0000   1.0000   1.0000   1.0000   1.0000
     1.0000   1.0000   1.0000   1.0000   1.0000   1.0000   1.0000   1.0000
     1.0000   1.0000   1.0000   1.0000   1.0000   1.0000   1.0000   1.0000
     1.0000   1.0000   1.0000   1.0000   1.0000   1.0000   1.0000   1.0000
     1.0000   1.0000   1.0000   1.0000   1.0000   1.0000   1.0000   1.0000
     1.0000   1.0000   1.0000   1.0000   1.0000   1.0000   1.0000   1.0000
     1.0000   1.0000   1.0000   1.0000   1.0000   1.0000   1.0000   1.0000
     1.0000   1.0000   1.0000   1.0000   1.0000   1.0000   1.0000   1.0000
     1.0000   1.0000   1.0000   1.0000   1.0000   1.0000   1.0000   1.0000
     1.0000   1.0000   1.0000   1.0000   1.0000   1.0000   1.0000   1.0000
     1.0000   1.0000   1.0000   1.0000   1.0000   1.0000   1.0000   1.0000
     1.0000   1.0000   1.0000   1.0000   1.0000   1.0000   1.0000   1.0000
     1.0000   1.0000   1.0000   1.0000   1.0000   1.0000   1.0000   1.0000
     1.0000   1.0000   1.0000   1.0000   1.0000   1.0000   1.0000   1.0000
     1.0000   1.0000   1.0000   1.0000   1.0000   1.0000   1.0000   1.0000
     1.0000   1.0000   1.0000   1.0000   1.0000   1.0000   1.0000   1.0000
     1.0000   1.0000   1.0000   1.0000   1.0000   1.0000   1.0000   1.0000
     1.0000   1.0000   1.0000   1.0000   1.0000   1.0000   1.0000   1.0000
     1.0000   1.0000   1.0000   1.0000   1.0000   1.0000   1.0000   1.0000
     1.0000   1.0000   1.0000   1.0000   1.0000   1.0000   1.0000   1.0000
     1.0000   1.0000   1.0000   1.0000   1.0000   1.0000   1.0000   1.0000
     1.0000   1.0000   1.0000   1.0000   1.0000   1.0000   1.0000   1.0000
     1.0000   1.0000   1.0000   1.0000   1.0000   1.0000   1.0000   1.0000
     1.0000   1.0000   1.0000   1.0000   1.0000   1.0000   1.0000   1.0000
     1.0000   1.0000   1.0000   1.0000   1.0000   1.0000   1.0000   1.0000
     1.0000   1.0000   1.0000   1.0000   1.0000   1.0000   1.0000   1.0000
     1.0000   1.0000   1.0000   1.0000   1.0000   1.0000   1.0000   1.0000
     1.0000   1.0000   1.0000   1.0000   1.0000   1.0000   1.0000   1.0000
     1.0000   1.0000   1.0000   1.0000   1.0000   1.0000   1.0000   1.0000
     1.0000   1.0000   1.0000   1.0000   1.0000   1.0000   1.0000   1.0000
     1.0000   1.0000   1.0000   1.0000   1.0000   1.0000   1.0000   1.0000
     1.0000   1.0000   1.0000   1.0000   1.0000   1.0000   1.0000   1.0000
     1.0000   1.0000   1.0000   1.0000   1.0000   1.0000   1.0000   1.0000
     1.0000   1.0000   1.0000   1.0000   1.0000   1.0000   1.0000   1.0000
     1.0000   1.0000   1.0000   1.0000   1.0000   1.0000   1.0000   1.0000
     1.0000   1.0000   1.0000   1.0000   1.0000   1.0000   1.0000   1.0000
     1.0000   1.0000   1.0000   1.0000   1.0000   1.0000   1.0000   1.0000
     1.0000   1.0000   1.0000   1.0000   1.0000   1.0000   1.0000   1.0000
     1.0000   1.0000   1.0000   1.0000   1.0000   1.0000   1.0000   1.0000
     1.0000   1.0000   1.0000   1.0000   1.0000   1.0000   1.0000   1.0000
     1.0000   1.0000   1.0000   1.0000   1.0000   1.0000   1.0000   1.0000
     1.0000   1.0000   1.0000   1.0000   1.0000   1.0000   1.0000   1.0000
     1.0000   1.0000   1.0000   1.0000   1.0000   1.0000   1.0000   1.0000
     1.0000   1.0000   1.0000   1.0000   1.0000   1.0000

          k = 0.0002-0.0001 0.5402 ( 45009 PWs)   bands (ev):

  -115.5054-115.5035-115.4975-115.4905-115.4870-115.4869-115.4849-115.4847
  -115.4838-115.4837-115.4834-115.4820-115.4817-115.4816-115.4816-115.4814
  -115.4768-115.4764-115.4757-115.4755-115.4740-115.4650 -69.8655 -69.8629
   -69.8617 -69.8591 -69.8586 -69.8584 -69.8576 -69.8533 -69.8516 -69.8501
   -69.8498 -69.8487 -69.8478 -69.8475 -69.8467 -69.8457 -69.8455 -69.8449
   -69.8442 -69.8440 -69.8440 -69.8433 -69.8431 -69.8427 -69.8422 -69.8417
   -69.8409 -69.8405 -69.8404 -69.8401 -69.8393 -69.8391 -69.8390 -69.8388
   -69.8388 -69.8386 -69.8384 -69.8383 -69.8376 -69.8373 -69.8369 -69.8368
   -69.8367 -69.8366 -69.8365 -69.8365 -69.8362 -69.8348 -69.8343 -69.8342
   -69.8333 -69.8322 -69.8320 -69.8319 -69.8318 -69.8313 -69.8303 -69.8290
   -69.8288 -69.8271 -69.8268 -69.8265 -69.8257 -69.8234 -69.8219 -69.8171
   -64.9368 -64.9346 -64.9321 -64.9308 -64.9235 -64.9211 -64.9185 -64.9132
   -64.9078 -64.9069 -64.8989 -64.8953 -64.8857 -64.8751 -31.9315 -31.9292
   -31.9263 -31.9258 -31.9239 -31.9229 -31.9224 -31.9212 -31.9197 -31.9183
   -31.9172 -31.9160 -31.9149 -31.9142 -31.9103 -31.9095 -31.9076 -31.9074
   -31.9071 -31.9048 -31.9044 -31.9026 -31.9002 -31.8987 -31.8981 -31.8972
   -31.8958 -31.8933 -31.8914 -31.8892 -31.8890 -31.8871 -31.8834 -31.8820
   -31.8803 -31.8796 -31.8744 -31.8700 -31.8679 -31.8656 -31.8605 -31.8594
   -10.0792 -10.0049  -9.7207  -9.7070  -9.6692  -9.6585  -9.6162  -9.5886
    -9.5796  -9.5480  -9.5277  -9.5066  -9.4856  -9.4506  -9.4385  -9.4144
    -9.3734  -9.3535  -9.3143  -9.3011  -9.2881  -9.2614  -9.2512  -9.2332
    -9.2155  -9.2021  -9.1836  -9.1724  -9.1609  -9.1534  -9.1455  -9.1429
    -9.0573  -9.0430  -9.0078  -8.9732   1.6991   1.7111   1.7356   1.7487
     1.7755   1.7868   1.8043   1.8146   1.8285   1.8605   1.8702   1.8885
     1.9176   1.9303   1.9653   1.9984   2.0076   2.0175   2.0269   2.0429
     2.0582   2.0649   2.0853   2.0985   2.1095   2.1179   2.1376   2.1471
     2.1547   2.1653   2.1773   2.1982   2.2043   2.2212   2.2277   2.2512
     2.2588   2.2776   2.2851   2.3014   2.3141   2.3247   2.3428   2.3494
     2.3543   2.3685   2.3723   2.3821   2.3938   2.4053   2.4168   2.4298
     2.4438   2.4517   2.4700   2.4731   2.4870   2.5018   2.5417   2.5522
     2.5823   2.5988   2.6135   2.6314   2.6472   2.6670   2.6831   2.7090
     2.7236   2.7362   2.7474   2.7711   2.7767   2.7909   2.7936   2.8151
     2.8253   2.8382   2.8614   2.8770   2.9012   2.9130   2.9420   2.9496
     2.9583   2.9770   2.9898   3.0173   3.0292   3.0544   3.0731   3.0909
     3.1118   3.1254   3.1432   3.1560   3.1615   3.1807   3.1873   3.1959
     3.2037   3.2204   3.2304   3.2390   3.2405   3.2483   3.2675   3.2853
     3.2973   3.3306   3.5008   3.5456   3.5699   3.6175   3.6431   3.6718
     3.6939   3.7012   3.7355   3.7624   3.8202   3.8399   3.8626   3.8917
     3.9406   3.9715   4.0051   4.0385   4.0613   4.0873   4.1102   4.1389
     4.1711   4.1967   4.2574   4.3435   4.3626   4.3935   4.4110   4.4887
     4.5132   4.5409   4.5675   4.6336   4.6821   4.7046   4.7742   4.7959
     4.8665   4.9186   5.0093   5.0642   5.1269   5.1716   5.2262   5.2360
     5.2657   5.2924   5.3334   5.3576   5.3737   5.4041   5.4476   5.4800
     5.6142   5.6322   5.6449   5.6759   5.6889   5.7093   5.7460   5.7660
     5.7962   5.8199   5.8425   5.8529   5.8789   5.9008   5.9167   5.9389
     5.9412   5.9587   6.0008   6.0765   6.2018   6.2403   6.2659   6.2884
     6.3221   6.3475   6.3761   6.3914   6.4332   6.4587   6.4735   6.5309
     6.5393   6.5641   6.5824   6.6166   6.6405   6.6453   6.6650   6.6790
     6.6925   6.7149   6.7284   6.7437   6.7563   6.7759   6.7863   6.8113
     6.8295   6.8461   7.0889   7.1073   7.1901   7.2131

     occupation numbers 
     1.0000   1.0000   1.0000   1.0000   1.0000   1.0000   1.0000   1.0000
     1.0000   1.0000   1.0000   1.0000   1.0000   1.0000   1.0000   1.0000
     1.0000   1.0000   1.0000   1.0000   1.0000   1.0000   1.0000   1.0000
     1.0000   1.0000   1.0000   1.0000   1.0000   1.0000   1.0000   1.0000
     1.0000   1.0000   1.0000   1.0000   1.0000   1.0000   1.0000   1.0000
     1.0000   1.0000   1.0000   1.0000   1.0000   1.0000   1.0000   1.0000
     1.0000   1.0000   1.0000   1.0000   1.0000   1.0000   1.0000   1.0000
     1.0000   1.0000   1.0000   1.0000   1.0000   1.0000   1.0000   1.0000
     1.0000   1.0000   1.0000   1.0000   1.0000   1.0000   1.0000   1.0000
     1.0000   1.0000   1.0000   1.0000   1.0000   1.0000   1.0000   1.0000
     1.0000   1.0000   1.0000   1.0000   1.0000   1.0000   1.0000   1.0000
     1.0000   1.0000   1.0000   1.0000   1.0000   1.0000   1.0000   1.0000
     1.0000   1.0000   1.0000   1.0000   1.0000   1.0000   1.0000   1.0000
     1.0000   1.0000   1.0000   1.0000   1.0000   1.0000   1.0000   1.0000
     1.0000   1.0000   1.0000   1.0000   1.0000   1.0000   1.0000   1.0000
     1.0000   1.0000   1.0000   1.0000   1.0000   1.0000   1.0000   1.0000
     1.0000   1.0000   1.0000   1.0000   1.0000   1.0000   1.0000   1.0000
     1.0000   1.0000   1.0000   1.0000   1.0000   1.0000   1.0000   1.0000
     1.0000   1.0000   1.0000   1.0000   1.0000   1.0000   1.0000   1.0000
     1.0000   1.0000   1.0000   1.0000   1.0000   1.0000   1.0000   1.0000
     1.0000   1.0000   1.0000   1.0000   1.0000   1.0000   1.0000   1.0000
     1.0000   1.0000   1.0000   1.0000   1.0000   1.0000   1.0000   1.0000
     1.0000   1.0000   1.0000   1.0000   1.0000   1.0000   1.0000   1.0000
     1.0000   1.0000   1.0000   1.0000   1.0000   1.0000   1.0000   1.0000
     1.0000   1.0000   1.0000   1.0000   1.0000   1.0000   1.0000   1.0000
     1.0000   1.0000   1.0000   1.0000   1.0000   1.0000   1.0000   1.0000
     1.0000   1.0000   1.0000   1.0000   1.0000   1.0000   1.0000   1.0000
     1.0000   1.0000   1.0000   1.0000   1.0000   1.0000   1.0000   1.0000
     1.0000   1.0000   1.0000   1.0000   1.0000   1.0000   1.0000   1.0000
     1.0000   1.0000   1.0000   1.0000   1.0000   1.0000   1.0000   1.0000
     1.0000   1.0000   1.0000   1.0000   1.0000   1.0000   1.0000   1.0000
     1.0000   1.0000   1.0000   1.0000   1.0000   1.0000   1.0000   1.0000
     1.0000   1.0000   1.0000   1.0000   1.0000   1.0000   1.0000   1.0000
     1.0000   1.0000   1.0000   1.0000   1.0000   1.0000   1.0000   1.0000
     1.0000   1.0000   1.0000   1.0000   1.0000   1.0000   1.0000   1.0000
     1.0000   1.0000   1.0000   1.0000   1.0000   1.0000   1.0000   1.0000
     1.0000   1.0000   1.0000   1.0000   1.0000   1.0000   1.0000   1.0000
     1.0000   1.0000   1.0000   1.0000   1.0000   1.0000   1.0000   1.0000
     1.0000   1.0000   1.0000   1.0000   1.0000   1.0000   1.0000   1.0000
     1.0000   1.0000   1.0000   1.0000   1.0000   1.0000   1.0000   1.0000
     1.0000   1.0000   1.0000   1.0000   1.0000   1.0000   1.0000   1.0000
     1.0000   1.0000   1.0000   1.0000   1.0000   1.0000   1.0000   1.0000
     1.0000   1.0000   1.0000   1.0000   1.0000   1.0000   1.0000   1.0000
     1.0000   1.0000   1.0000   1.0000   1.0000   1.0000   1.0000   1.0000
     1.0000   1.0000   1.0000   1.0000   1.0000   1.0000   1.0000   1.0000
     1.0000   1.0000   1.0000   1.0000   1.0000   1.0000   1.0000   1.0000
     1.0000   1.0000   1.0000   1.0000   1.0000   1.0000   1.0000   1.0000
     1.0000   1.0000   1.0000   1.0000   1.0000   1.0000   1.0000   1.0000
     1.0000   1.0000   1.0000   1.0000   1.0000   1.0000   1.0000   1.0000
     1.0000   1.0000   1.0000   1.0000   1.0000   1.0000

          k = 0.0003-0.0002 0.6753 ( 45008 PWs)   bands (ev):

  -115.5054-115.5035-115.4975-115.4905-115.4870-115.4869-115.4849-115.4847
  -115.4838-115.4837-115.4834-115.4820-115.4817-115.4816-115.4816-115.4814
  -115.4768-115.4764-115.4757-115.4755-115.4740-115.4650 -69.8655 -69.8629
   -69.8617 -69.8591 -69.8586 -69.8584 -69.8576 -69.8533 -69.8516 -69.8501
   -69.8498 -69.8487 -69.8478 -69.8475 -69.8467 -69.8457 -69.8455 -69.8449
   -69.8442 -69.8440 -69.8440 -69.8433 -69.8431 -69.8427 -69.8422 -69.8417
   -69.8409 -69.8405 -69.8404 -69.8401 -69.8393 -69.8391 -69.8390 -69.8388
   -69.8388 -69.8386 -69.8384 -69.8383 -69.8376 -69.8373 -69.8369 -69.8368
   -69.8367 -69.8366 -69.8365 -69.8365 -69.8362 -69.8348 -69.8343 -69.8342
   -69.8333 -69.8322 -69.8320 -69.8319 -69.8318 -69.8313 -69.8303 -69.8290
   -69.8288 -69.8271 -69.8268 -69.8265 -69.8257 -69.8234 -69.8219 -69.8171
   -64.9368 -64.9346 -64.9321 -64.9308 -64.9235 -64.9211 -64.9185 -64.9132
   -64.9078 -64.9069 -64.8989 -64.8953 -64.8857 -64.8751 -31.9315 -31.9292
   -31.9262 -31.9258 -31.9239 -31.9230 -31.9225 -31.9211 -31.9197 -31.9184
   -31.9170 -31.9160 -31.9149 -31.9142 -31.9103 -31.9095 -31.9076 -31.9074
   -31.9071 -31.9048 -31.9044 -31.9026 -31.9003 -31.8987 -31.8981 -31.8972
   -31.8958 -31.8933 -31.8914 -31.8892 -31.8890 -31.8871 -31.8834 -31.8820
   -31.8803 -31.8796 -31.8744 -31.8700 -31.8679 -31.8656 -31.8605 -31.8594
   -10.1146  -9.9474  -9.7353  -9.7204  -9.6765  -9.6636  -9.6187  -9.5814
    -9.5631  -9.5488  -9.5289  -9.5022  -9.4796  -9.4471  -9.4344  -9.4091
    -9.3665  -9.3568  -9.3275  -9.3078  -9.2989  -9.2635  -9.2580  -9.2342
    -9.2102  -9.2064  -9.1877  -9.1713  -9.1640  -9.1557  -9.1464  -9.1345
    -9.0524  -9.0413  -9.0057  -8.9697   1.6904   1.7078   1.7227   1.7384
     1.7617   1.7762   1.7936   1.8092   1.8279   1.8368   1.8549   1.8711
     1.9068   1.9226   1.9564   1.9861   2.0007   2.0092   2.0198   2.0355
     2.0624   2.0662   2.0828   2.1087   2.1200   2.1279   2.1459   2.1566
     2.1713   2.1751   2.1844   2.1959   2.2129   2.2262   2.2349   2.2510
     2.2613   2.2787   2.2862   2.2955   2.3143   2.3229   2.3341   2.3465
     2.3545   2.3593   2.3730   2.3898   2.3963   2.4007   2.4135   2.4284
     2.4436   2.4622   2.4798   2.5104   2.5256   2.5384   2.5591   2.5755
     2.5971   2.6146   2.6251   2.6409   2.6639   2.6854   2.6995   2.7079
     2.7236   2.7463   2.7596   2.7733   2.7814   2.7980   2.8158   2.8266
     2.8370   2.8434   2.8622   2.8822   2.9011   2.9296   2.9355   2.9454
     2.9700   2.9782   2.9937   3.0233   3.0368   3.0520   3.0737   3.0818
     3.1151   3.1327   3.1404   3.1462   3.1604   3.1702   3.1828   3.1911
     3.2025   3.2160   3.2287   3.2323   3.2402   3.2510   3.2744   3.2848
     3.2975   3.3303   3.4362   3.5119   3.5621   3.5937   3.6387   3.6602
     3.6874   3.7096   3.7323   3.7648   3.8007   3.8319   3.8527   3.8708
     3.9057   3.9281   3.9865   4.0069   4.0475   4.0758   4.1153   4.1687
     4.2027   4.2481   4.2678   4.3387   4.3437   4.4071   4.4228   4.4667
     4.4850   4.5379   4.5394   4.5609   4.6086   4.6525   4.7192   4.7467
     4.8229   4.8957   5.0128   5.0684   5.0980   5.1671   5.2319   5.2994
     5.3298   5.3543   5.3856   5.4374   5.4571   5.4946   5.5163   5.5486
     5.5629   5.6142   5.6172   5.6376   5.6806   5.7014   5.7322   5.7462
     5.7742   5.7958   5.8123   5.8487   5.8797   5.9083   5.9525   5.9839
     6.0136   6.0380   6.0688   6.1622   6.2010   6.2302   6.2486   6.2836
     6.3115   6.3366   6.3507   6.3795   6.4129   6.4330   6.4607   6.4906
     6.5146   6.5418   6.5589   6.5937   6.6083   6.6390   6.6421   6.6556
     6.6851   6.6942   6.7063   6.7199   6.7501   6.7761   6.7951   6.8370
     6.8804   6.9704   7.0529   7.0846   7.2052   7.2272

     occupation numbers 
     1.0000   1.0000   1.0000   1.0000   1.0000   1.0000   1.0000   1.0000
     1.0000   1.0000   1.0000   1.0000   1.0000   1.0000   1.0000   1.0000
     1.0000   1.0000   1.0000   1.0000   1.0000   1.0000   1.0000   1.0000
     1.0000   1.0000   1.0000   1.0000   1.0000   1.0000   1.0000   1.0000
     1.0000   1.0000   1.0000   1.0000   1.0000   1.0000   1.0000   1.0000
     1.0000   1.0000   1.0000   1.0000   1.0000   1.0000   1.0000   1.0000
     1.0000   1.0000   1.0000   1.0000   1.0000   1.0000   1.0000   1.0000
     1.0000   1.0000   1.0000   1.0000   1.0000   1.0000   1.0000   1.0000
     1.0000   1.0000   1.0000   1.0000   1.0000   1.0000   1.0000   1.0000
     1.0000   1.0000   1.0000   1.0000   1.0000   1.0000   1.0000   1.0000
     1.0000   1.0000   1.0000   1.0000   1.0000   1.0000   1.0000   1.0000
     1.0000   1.0000   1.0000   1.0000   1.0000   1.0000   1.0000   1.0000
[...]
   -31.9261 -31.9257 -31.9239 -31.9232 -31.9225 -31.9211 -31.9197 -31.9184
   -31.9167 -31.9160 -31.9149 -31.9142 -31.9104 -31.9096 -31.9076 -31.9075
   -31.9071 -31.9048 -31.9044 -31.9026 -31.9003 -31.8987 -31.8981 -31.8972
   -31.8959 -31.8933 -31.8914 -31.8891 -31.8890 -31.8871 -31.8834 -31.8820
   -31.8803 -31.8796 -31.8744 -31.8700 -31.8679 -31.8656 -31.8605 -31.8594
   -10.0289  -9.9895  -9.7898  -9.7541  -9.7003  -9.6574  -9.6382  -9.6308
    -9.5585  -9.5206  -9.5119  -9.4904  -9.4545  -9.4397  -9.4011  -9.3840
    -9.3650  -9.3603  -9.3152  -9.2983  -9.2854  -9.2744  -9.2560  -9.2453
    -9.2371  -9.2334  -9.2125  -9.1723  -9.1629  -9.1599  -9.1374  -9.1166
    -9.0391  -9.0357  -9.0059  -8.9644   1.7018   1.7232   1.7407   1.7517
     1.7687   1.7750   1.7829   1.8211   1.8244   1.8462   1.8710   1.8796
     1.9078   1.9462   1.9545   1.9814   1.9938   2.0095   2.0104   2.0416
     2.0516   2.0736   2.0834   2.1018   2.1057   2.1195   2.1311   2.1584
     2.1758   2.1833   2.1861   2.2049   2.2123   2.2254   2.2395   2.2521
     2.2643   2.2707   2.2729   2.2957   2.2982   2.3059   2.3129   2.3313
     2.3412   2.3444   2.3534   2.3780   2.3813   2.3996   2.4061   2.4110
     2.4290   2.4410   2.4502   2.4669   2.5004   2.5113   2.5380   2.5657
     2.6073   2.6113   2.6297   2.6370   2.6667   2.6783   2.6985   2.7209
     2.7315   2.7481   2.7593   2.7779   2.7915   2.8013   2.8276   2.8381
     2.8508   2.8624   2.8819   2.9056   2.9195   2.9385   2.9678   2.9737
     2.9793   2.9867   3.0314   3.0361   3.0436   3.0624   3.0671   3.0736
     3.1033   3.1109   3.1249   3.1376   3.1490   3.1594   3.1691   3.1920
     3.2017   3.2143   3.2236   3.2353   3.2372   3.2597   3.2775   3.2860
     3.3022   3.3341   3.3466   3.3698   3.4222   3.4654   3.5379   3.5696
     3.6142   3.6445   3.6765   3.6885   3.7298   3.7538   3.7708   3.8128
     3.8635   3.8857   3.9649   4.0104   4.0238   4.1151   4.1522   4.2035
     4.2935   4.3179   4.3859   4.4857   4.5475   4.5823   4.6434   4.6776
     4.7107   4.7408   4.7769   4.7876   4.8227   4.8567   4.8796   4.8996
     4.9253   4.9528   4.9842   5.0129   5.0237   5.1114   5.1232   5.3208
     5.3294   5.3493   5.3772   5.3987   5.4155   5.4517   5.4646   5.5063
     5.5965   5.6333   5.6545   5.6893   5.7453   5.7593   5.8054   5.8299
     5.8787   5.8884   5.9071   5.9352   5.9668   6.0029   6.0392   6.0524
     6.0738   6.1103   6.1160   6.1516   6.1724   6.1910   6.1943   6.2234
     6.2265   6.2359   6.2631   6.2861   6.3074   6.3258   6.3380   6.3552
     6.3953   6.4072   6.4263   6.4411   6.4524   6.4740   6.4856   6.5203
     6.5422   6.5534   6.5865   6.6012   6.6677   6.7102   6.7214   6.7898
     6.8181   6.8333   7.0427   7.0811   7.1238   7.1680

     occupation numbers 
     1.0000   1.0000   1.0000   1.0000   1.0000   1.0000   1.0000   1.0000
     1.0000   1.0000   1.0000   1.0000   1.0000   1.0000   1.0000   1.0000
     1.0000   1.0000   1.0000   1.0000   1.0000   1.0000   1.0000   1.0000
     1.0000   1.0000   1.0000   1.0000   1.0000   1.0000   1.0000   1.0000
     1.0000   1.0000   1.0000   1.0000   1.0000   1.0000   1.0000   1.0000
     1.0000   1.0000   1.0000   1.0000   1.0000   1.0000   1.0000   1.0000
     1.0000   1.0000   1.0000   1.0000   1.0000   1.0000   1.0000   1.0000
     1.0000   1.0000   1.0000   1.0000   1.0000   1.0000   1.0000   1.0000
     1.0000   1.0000   1.0000   1.0000   1.0000   1.0000   1.0000   1.0000
     1.0000   1.0000   1.0000   1.0000   1.0000   1.0000   1.0000   1.0000
     1.0000   1.0000   1.0000   1.0000   1.0000   1.0000   1.0000   1.0000
     1.0000   1.0000   1.0000   1.0000   1.0000   1.0000   1.0000   1.0000
     1.0000   1.0000   1.0000   1.0000   1.0000   1.0000   1.0000   1.0000
     1.0000   1.0000   1.0000   1.0000   1.0000   1.0000   1.0000   1.0000
     1.0000   1.0000   1.0000   1.0000   1.0000   1.0000   1.0000   1.0000
     1.0000   1.0000   1.0000   1.0000   1.0000   1.0000   1.0000   1.0000
     1.0000   1.0000   1.0000   1.0000   1.0000   1.0000   1.0000   1.0000
     1.0000   1.0000   1.0000   1.0000   1.0000   1.0000   1.0000   1.0000
     1.0000   1.0000   1.0000   1.0000   1.0000   1.0000   1.0000   1.0000
     1.0000   1.0000   1.0000   1.0000   1.0000   1.0000   1.0000   1.0000
     1.0000   1.0000   1.0000   1.0000   1.0000   1.0000   1.0000   1.0000
     1.0000   1.0000   1.0000   1.0000   1.0000   1.0000   1.0000   1.0000
     1.0000   1.0000   1.0000   1.0000   1.0000   1.0000   1.0000   1.0000
     1.0000   1.0000   1.0000   1.0000   1.0000   1.0000   1.0000   1.0000
     1.0000   1.0000   1.0000   1.0000   1.0000   1.0000   1.0000   1.0000
     1.0000   1.0000   1.0000   1.0000   1.0000   1.0000   1.0000   1.0000
     1.0000   1.0000   1.0000   1.0000   1.0000   1.0000   1.0000   1.0000
     1.0000   1.0000   1.0000   1.0000   1.0000   1.0000   1.0000   1.0000
     1.0000   1.0000   1.0000   1.0000   1.0000   1.0000   1.0000   1.0000
     1.0000   1.0000   1.0000   1.0000   1.0000   1.0000   1.0000   1.0000
     1.0000   1.0000   1.0000   1.0000   1.0000   1.0000   1.0000   1.0000
     1.0000   1.0000   1.0000   1.0000   1.0000   1.0000   1.0000   1.0000
     1.0000   1.0000   1.0000   1.0000   1.0000   1.0000   1.0000   1.0000
     1.0000   1.0000   1.0000   1.0000   1.0000   1.0000   1.0000   1.0000
     1.0000   1.0000   1.0000   1.0000   1.0000   1.0000   1.0000   1.0000
     1.0000   1.0000   1.0000   1.0000   1.0000   1.0000   1.0000   1.0000
     1.0000   1.0000   1.0000   1.0000   1.0000   1.0000   1.0000   1.0000
     1.0000   1.0000   1.0000   1.0000   1.0000   1.0000   1.0000   1.0000
     1.0000   1.0000   1.0000   1.0000   1.0000   1.0000   1.0000   1.0000
     1.0000   1.0000   1.0000   1.0000   1.0000   1.0000   1.0000   1.0000
     1.0000   1.0000   1.0000   1.0000   1.0000   1.0000   1.0000   1.0000
     1.0000   1.0000   1.0000   1.0000   1.0000   1.0000   1.0000   1.0000
     1.0000   1.0000   1.0000   1.0000   1.0000   1.0000   1.0000   1.0000
     1.0000   1.0000   1.0000   1.0000   1.0000   1.0000   1.0000   1.0000
     1.0000   1.0000   1.0000   1.0000   1.0000   1.0000   1.0000   1.0000
     1.0000   1.0000   1.0000   1.0000   1.0000   1.0000   1.0000   1.0000
     1.0000   1.0000   1.0000   1.0000   1.0000   1.0000   1.0000   1.0000
     1.0000   1.0000   1.0000   1.0000   1.0000   1.0000   1.0000   1.0000
     1.0000   1.0000   1.0000   1.0000   1.0000   1.0000   1.0000   1.0000
     1.0000   1.0000   1.0000   1.0000   1.0000   1.0000

     highest occupied level (ev):     7.2458



               ==================================================
                            POLARIZATION CALCULATION
                         !!! NOT THOROUGHLY TESTED !!!
               --------------------------------------------------


                     K-POINTS STRINGS USED IN CALCULATIONS
                     ~~~~~~~~~~~~~~~~~~~~~~~~~~~~~~~~~~~~~

       G-vector along string (2 pi/a):  0.00039 -0.00024  0.94543
       Modulus of the vector (1/bohr):  0.32244
       Number of k-points per string:   8
       Number of different strings  :  10


                               IONIC POLARIZATION
                               ~~~~~~~~~~~~~~~~~~

        Note: (mod 1) means that the phases (angles ranging from
        -pi to pi) have been mapped to the interval [-1/2,+1/2) by
        dividing by 2*pi; (mod 2) refers to the interval [-1,+1)

  ============================================================================
    Ion    Species    Charge              Position                Phase
  ----------------------------------------------------------------------------
     1        Zn      20.000       0.1663  0.0972  0.2061    -0.10139 (mod 2)
     2        Zn      20.000       0.1676  0.0961  0.7354    -0.09310 (mod 2)
     3        Zn      20.000       0.0019  0.3863  0.2067    -0.09278 (mod 2)
     4        Zn      20.000      -0.0010  0.3854  0.7347    -0.10928 (mod 2)
     5        Zn      20.000      -0.1663  0.6732  0.2043    -0.14154 (mod 2)
     6        Mg      10.000      -0.1656  0.6765  0.7362     0.95766 (mod 2)
     7        Zn      20.000       0.5010  0.0966  0.2060    -0.10207 (mod 2)
     8        Zn      20.000       0.4994  0.0973  0.7351    -0.09609 (mod 2)
     9        Mg      10.000       0.3330  0.3860  0.2058    -0.05352 (mod 2)
    10        Mg      10.000       0.3335  0.3850  0.7342     0.94139 (mod 2)
    11        Mg      10.000       0.1651  0.6728  0.2071    -0.04282 (mod 2)
    12        Zn      20.000       0.1671  0.6754  0.7315    -0.16989 (mod 2)
    13        Mg      10.000       0.8338  0.0981  0.2036    -0.07222 (mod 2)
    14        Mg      10.000       0.8344  0.0966  0.7333     0.93612 (mod 2)
    15        Zn      20.000       0.6669  0.3855  0.2035    -0.14929 (mod 2)
    16        Mg      10.000       0.6658  0.3868  0.7373     0.97254 (mod 2)
    17        Zn      20.000       0.4979  0.6739  0.2064    -0.09751 (mod 2)
    18        Zn      20.000       0.5015  0.6743  0.7345    -0.11005 (mod 2)
    19        Zn      20.000      -0.0018  0.1929  0.4712     0.90811 (mod 2)
    20        Zn      20.000       0.0004  0.1923  0.9992     0.89276 (mod 2)
    21        Mg      10.000      -0.1688  0.4818  0.4704     0.44578 (mod 2)
    22        Zn      20.000      -0.1651  0.4812  0.9978     0.86325 (mod 2)
    23        Zn      20.000      -0.3317  0.7696  0.4698     0.87729 (mod 2)
    24        Mg      10.000      -0.3351  0.7695  1.0021    -0.52895 (mod 2)
    25        Zn      20.000       0.3328  0.1921  0.4692     0.87288 (mod 2)
    26        Mg      10.000       0.3330  0.1923  1.0001    -0.54399 (mod 2)
    27        Mg      10.000       0.1653  0.4795  0.4715     0.45748 (mod 2)
    28        Zn      20.000       0.1662  0.4824  0.9970     0.85018 (mod 2)
    29        Zn      20.000      -0.0018  0.7704  0.4709     0.90059 (mod 2)
    30        Zn      20.000       0.0022  0.7695  0.9997     0.89897 (mod 2)
    31        Mg      10.000       0.6647  0.1944  0.4703     0.44855 (mod 2)
    32        Zn      20.000       0.6672  0.1913  0.9967     0.85015 (mod 2)
    33        Zn      20.000       0.5019  0.4803  0.4709     0.90481 (mod 2)
    34        Zn      20.000       0.4981  0.4827  0.9991     0.89338 (mod 2)
    35        Mg      10.000       0.3351  0.7708  0.4695     0.43823 (mod 2)
    36        Mg      10.000       0.3318  0.7680  0.9973    -0.57208 (mod 2)
    37        O        6.000       0.1673  0.0956  0.0029     0.01658 (mod 2)
    38        O        6.000       0.1659  0.0962  0.5317    -0.98391 (mod 2)
    39        O        6.000       0.0009  0.3846  0.0030     0.01660 (mod 2)
    40        O        6.000      -0.0020  0.3856  0.5312    -0.98750 (mod 2)
    41        O        6.000      -0.1661  0.6738  0.0009     0.00347 (mod 2)
    42        O        6.000      -0.1667  0.6733  0.5340    -0.97222 (mod 2)
    43        O        6.000       0.5008  0.0962  0.0024     0.01479 (mod 2)
    44        O        6.000       0.4992  0.0967  0.5315    -0.98410 (mod 2)
    45        O        6.000       0.3327  0.3844  0.0030     0.01722 (mod 2)
    46        O        6.000       0.3330  0.3850  0.5315    -0.98465 (mod 2)
    47        O        6.000       0.1675  0.6729  0.0049     0.02716 (mod 2)
    48        O        6.000       0.1675  0.6736  0.5278     0.99365 (mod 2)
    49        O        6.000       0.8339  0.0943  0.0009     0.00667 (mod 2)
    50        O        6.000       0.8312  0.0964  0.5307    -0.98763 (mod 2)
    51        O        6.000       0.6671  0.3849 -0.0003    -0.00054 (mod 2)
    52        O        6.000       0.6673  0.3850  0.5346    -0.96621 (mod 2)
    53        O        6.000       0.4989  0.6741  0.0029     0.01683 (mod 2)
    54        O        6.000       0.5009  0.6739  0.5309    -0.98804 (mod 2)
    55        O        6.000      -0.0003  0.1931  0.2673    -0.48396 (mod 2)
    56        O        6.000       0.0002  0.1928  0.7958     0.51379 (mod 2)
    57        O        6.000      -0.1667  0.4812  0.2678    -0.48171 (mod 2)
    58        O        6.000      -0.1671  0.4833  0.7944     0.50534 (mod 2)
    59        O        6.000      -0.3336  0.7696  0.2660    -0.49318 (mod 2)
    60        O        6.000      -0.3327  0.7703  0.7994     0.53294 (mod 2)
    61        O        6.000       0.3337  0.1934  0.2654    -0.49388 (mod 2)
    62        O        6.000       0.3334  0.1937  0.7979     0.52682 (mod 2)
    63        O        6.000       0.1678  0.4817  0.2695    -0.47145 (mod 2)
    64        O        6.000       0.1668  0.4822  0.7932     0.49948 (mod 2)
    65        O        6.000      -0.0007  0.7701  0.2673    -0.48468 (mod 2)
    66        O        6.000       0.0015  0.7711  0.7963     0.51622 (mod 2)
    67        O        6.000       0.6676  0.1934  0.2678    -0.47966 (mod 2)
    68        O        6.000       0.6678  0.1934  0.7931     0.50041 (mod 2)
    69        O        6.000       0.5002  0.4812  0.2670    -0.48504 (mod 2)
    70        O        6.000       0.4989  0.4817  0.7959     0.51515 (mod 2)
    71        O        6.000       0.3313  0.7718  0.2666    -0.48830 (mod 2)
    72        O        6.000       0.3339  0.7708  0.7948     0.50837 (mod 2)
  ----------------------------------------------------------------------------
                                               IONIC PHASE:  -0.25161 (mod 2)
  ============================================================================


                            ELECTRONIC POLARIZATION
                            ~~~~~~~~~~~~~~~~~~~~~~~

        Note: (mod 1) means that the phases (angles ranging from
        -pi to pi) have been mapped to the interval [-1/2,+1/2) by
        dividing by 2*pi; (mod 2) refers to the interval [-1,+1)

  ============================================================================
   Spin    String     Weight      First k-point in string         Phase
  ----------------------------------------------------------------------------
    up        1      0.062500      0.0000  0.0000  0.0000     0.04511 (mod 1)
    up        2      0.125000     -0.0001  0.2886 -0.0001     0.04150 (mod 1)
    up        3      0.062500      0.0002 -0.5771  0.0001     0.03888 (mod 1)
    up        4      0.125000      0.2499  0.1442  0.0001     0.04152 (mod 1)
    up        5      0.125000      0.2498  0.4327 -0.0000     0.03888 (mod 1)
    up        6      0.125000      0.2502 -0.4330  0.0002     0.03885 (mod 1)
    up        7      0.125000      0.2501 -0.1444  0.0001     0.04150 (mod 1)
    up        8      0.062500     -0.4999 -0.2884 -0.0001     0.03891 (mod 1)
    up        9      0.125000     -0.5000  0.0002 -0.0002     0.03886 (mod 1)
    up       10      0.062500     -0.4996 -0.8655  0.0000     0.03885 (mod 1)
  ----------------------------------------------------------------------------
   down       1      0.062500      0.0000  0.0000  0.0000     0.04511 (mod 1)
   down       2      0.125000     -0.0001  0.2886 -0.0001     0.04150 (mod 1)
   down       3      0.062500      0.0002 -0.5771  0.0001     0.03888 (mod 1)
   down       4      0.125000      0.2499  0.1442  0.0001     0.04152 (mod 1)
   down       5      0.125000      0.2498  0.4327 -0.0000     0.03888 (mod 1)
   down       6      0.125000      0.2502 -0.4330  0.0002     0.03885 (mod 1)
   down       7      0.125000      0.2501 -0.1444  0.0001     0.04150 (mod 1)
   down       8      0.062500     -0.4999 -0.2884 -0.0001     0.03891 (mod 1)
   down       9      0.125000     -0.5000  0.0002 -0.0002     0.03886 (mod 1)
   down      10      0.062500     -0.4996 -0.8655  0.0000     0.03885 (mod 1)
  ----------------------------------------------------------------------------
                                        Average phase (up):   0.04025 (mod 1)
                                      Average phase (down):   0.04025 (mod 1)
                                          ELECTRONIC PHASE:   0.08050 (mod 2)
  ============================================================================


                               SUMMARY OF PHASES
                               ~~~~~~~~~~~~~~~~~

                          Ionic Phase: -0.25161 (mod 2)
                     Electronic Phase:  0.08050 (mod 2)
                          TOTAL PHASE: -0.17112 (mod 2)


                             VALUES OF POLARIZATION
                             ~~~~~~~~~~~~~~~~~~~~~~

        The calculation of phases done along the direction of vector 3
        of the reciprocal lattice gives the following contribution to
        the polarization vector (in different units, and being Omega
        the volume of the unit cell):

           P =  -3.3345011  (mod  38.9733546)  (e/Omega).bohr

           P =  -0.0005819  (mod   0.0068015)  e/bohr^2

           P =  -0.0332695  (mod   0.3888512)  C/m^2

        The polarization direction is:  (-0.00042 , 0.00026 , 1.00000 )


               ==================================================



     Writing output data file ZnO.save/
 
     init_run     :      2.43s CPU      5.92s WALL (       1 calls)
     electrons    :   1412.57s CPU   1440.49s WALL (       1 calls)

     Called by init_run:
     wfcinit      :      0.00s CPU      0.01s WALL (       1 calls)
     wfcinit:atom :      0.13s CPU      0.14s WALL (      80 calls)
     wfcinit:wfcr :     64.85s CPU     66.33s WALL (      80 calls)
     potinit      :      0.20s CPU      0.46s WALL (       1 calls)
     hinit0       :      1.43s CPU      4.32s WALL (       1 calls)

     Called by electrons:
     c_bands      :   1003.30s CPU   1029.23s WALL (       1 calls)
     v_of_rho     :      0.15s CPU      0.35s WALL (       1 calls)
     v_h          :      0.01s CPU      0.01s WALL (       1 calls)
     v_xc         :      0.14s CPU      0.33s WALL (       1 calls)
     newd         :      0.08s CPU      0.19s WALL (       1 calls)

     Called by c_bands:
     init_us_2    :      0.75s CPU      0.77s WALL (     220 calls)
     cegterg      :    935.78s CPU    960.15s WALL (      80 calls)

     Called by sum_band:

     Called by *egterg:
     h_psi        :    413.74s CPU    423.46s WALL (    1130 calls)
     s_psi        :     36.15s CPU     36.17s WALL (    1130 calls)
     g_psi        :      0.34s CPU      0.35s WALL (     970 calls)
     cdiaghg      :    288.97s CPU    294.86s WALL (    1050 calls)
     cegterg:over :     72.53s CPU     82.28s WALL (     970 calls)
     cegterg:upda :     89.86s CPU     90.09s WALL (     970 calls)
     cegterg:last :     83.31s CPU     83.44s WALL (     320 calls)
     cdiaghg:chol :     16.53s CPU     16.90s WALL (    1050 calls)
     cdiaghg:inve :     12.29s CPU     12.34s WALL (    1050 calls)
     cdiaghg:para :     45.70s CPU     49.24s WALL (    2100 calls)

     Called by h_psi:
     h_psi:pot    :    412.78s CPU    422.48s WALL (    1130 calls)
     h_psi:calbec :     51.84s CPU     59.05s WALL (    1130 calls)
     vloc_psi     :    324.06s CPU    326.47s WALL (    1130 calls)
     add_vuspsi   :     36.86s CPU     36.95s WALL (    1130 calls)

     General routines
     calbec       :     65.77s CPU     74.22s WALL (    1270 calls)
     fft          :      1.37s CPU      4.07s WALL (      13 calls)
     ffts         :      0.01s CPU      0.01s WALL (       1 calls)
     fftw         :    320.50s CPU    322.88s WALL (  725218 calls)
     interpolate  :      0.02s CPU      0.02s WALL (       1 calls)
 
     Parallel routines
     fft_scatt_xy :      9.34s CPU      9.40s WALL (  725232 calls)
     fft_scatt_yz :    275.04s CPU    279.47s WALL (  725232 calls)
 
     PWSCF        :  24m41.68s CPU  25m35.84s WALL

 
   This run was terminated on:   2:36: 3  15Jul2022            

=------------------------------------------------------------------------------=
   JOB DONE.
=------------------------------------------------------------------------------=
