
     Program PWSCF v.6.4.1 starts on 17Sep2021 at 16:58:50 

     This program is part of the open-source Quantum ESPRESSO suite
     for quantum simulation of materials; please cite
         "P. Giannozzi et al., J. Phys.:Condens. Matter 21 395502 (2009);
         "P. Giannozzi et al., J. Phys.:Condens. Matter 29 465901 (2017);
          URL http://www.quantum-espresso.org", 
     in publications or presentations arising from this work. More details at
     http://www.quantum-espresso.org/quote

     Parallel version (MPI), running on    64 processors

     MPI processes distributed on     1 nodes
     K-points division:     npool     =       8
     R & G space division:  proc/nbgrp/npool/nimage =       8
     Waiting for input...
     Reading input from standard input
Warning: card &IONS ignored
Warning: card   UPSCALE           = 100.D0, ignored
Warning: card / ignored
Warning: card &CELL ignored
Warning: card   CELL_DYNAMICS     = 'BFGS' ignored
Warning: card   PRESS_CONV_THR    = 0.5D0 ignored
Warning: card   CELL_DOFREE = 'ALL' ignored
Warning: card / ignored

     Current dimensions of program PWSCF are:
     Max number of different atomic species (ntypx) = 10
     Max number of k-points (npk) =  40000
     Max angular momentum in pseudopotentials (lmaxx) =  3

     Subspace diagonalization in iterative solution of the eigenvalue problem:
     one sub-group per band group will be used
     scalapack distributed-memory algorithm (size of sub-group:  2*  2 procs)

 
     Parallelization info
     --------------------
     sticks:   dense  smooth     PW     G-vecs:    dense   smooth      PW
     Min        1463     702    191               135940    45213    6504
     Max        1464     703    192               135945    45214    6509
     Sum       11705    5623   1531              1087527   361709   52049
 


     bravais-lattice index     =            0
     lattice parameter (alat)  =      18.4233  a.u.
     unit-cell volume          =    5758.9404 (a.u.)^3
     number of atoms/cell      =           72
     number of atomic types    =            3
     number of electrons       =       796.00
     number of Kohn-Sham states=          478
     kinetic-energy cutoff     =      60.0000  Ry
     charge density cutoff     =     500.0000  Ry
     convergence threshold     =      1.0E-08
     mixing beta               =       0.5000
     number of iterations used =            8  plain     mixing
     Exchange-correlation      = SLA  PW   PSX  PSC ( 1  4 10  8 0 0)
     Using LIBXC version       =    4   3   4

     celldm(1)=  18.423338  celldm(2)=   0.000000  celldm(3)=   0.000000
     celldm(4)=   0.000000  celldm(5)=   0.000000  celldm(6)=   0.000000

     crystal axes: (cart. coord. in units of alat)
               a(1) = (   1.000000   0.000410  -0.000414 )  
               a(2) = (  -0.499644   0.866141   0.000428 )  
               a(3) = (  -0.000442   0.000273   1.063032 )  

     reciprocal axes: (cart. coord. in units 2 pi/alat)
               b(1) = (  0.999764  0.576725  0.000267 )  
               b(2) = ( -0.000473  1.154273 -0.000296 )  
               b(3) = (  0.000389 -0.000240  0.940706 )  


     PseudoPot. # 1 for Zn read from file:
     ./GBRV_PBEsol/zn_pbesol_v1.uspp.F.UPF
     MD5 check sum: 7d8615e52efe7c1e2b1899de8658bae2
     Pseudo is Ultrasoft, Zval = 20.0
     Generated by new atomic code, or converted to UPF format
     Using radial grid of  943 points,  6 beta functions with: 
                l(1) =   0
                l(2) =   0
                l(3) =   1
                l(4) =   1
                l(5) =   2
                l(6) =   2
     Q(r) pseudized with  8 coefficients,  rinner =    1.100   1.100   1.100
                                                       1.100   1.100

     PseudoPot. # 2 for O  read from file:
     ./GBRV_PBEsol/o_pbesol_v1.2.uspp.F.UPF
     MD5 check sum: 501638753501ef6325af9037351f7734
     Pseudo is Ultrasoft + core correction, Zval =  6.0
     Generated by new atomic code, or converted to UPF format
     Using radial grid of  737 points,  5 beta functions with: 
                l(1) =   0
                l(2) =   0
                l(3) =   1
                l(4) =   1
                l(5) =   2
     Q(r) pseudized with  8 coefficients,  rinner =    0.900   0.900   0.900
                                                       0.900   0.900

     PseudoPot. # 3 for Mg read from file:
     ./GBRV_PBEsol/mg_pbesol_v1.4.uspp.F.UPF
     MD5 check sum: 4059f37963cf5867752dbf5ab2400678
     Pseudo is Ultrasoft, Zval = 10.0
     Generated by new atomic code, or converted to UPF format
     Using radial grid of  821 points,  7 beta functions with: 
                l(1) =   0
                l(2) =   0
                l(3) =   0
                l(4) =   1
                l(5) =   1
                l(6) =   2
                l(7) =   2
     Q(r) pseudized with  8 coefficients,  rinner =    1.200   1.200   1.200
                                                       1.200   1.200

     atomic species   valence    mass     pseudopotential
        Zn            20.00    65.38000     Zn( 1.00)
        O              6.00    15.99900     O ( 1.00)
        Mg            10.00    24.30500     Mg( 1.00)

     No symmetry found


                                    s                        frac. trans.

      isym =  1     identity                                     

 cryst.   s( 1) = (     1          0          0      )
                  (     0          1          0      )
                  (     0          0          1      )

 cart.    s( 1) = (  1.0000000 -0.0000000 -0.0000000 )
                  (  0.0000000  1.0000000 -0.0000000 )
                  (  0.0000000  0.0000000  1.0000000 )


   Cartesian axes

     site n.     atom                  positions (alat units)
         1           Zn  tau(   1) = (   0.1663752   0.0971963   0.2068006  )
         2           Zn  tau(   2) = (   0.1675881   0.0961126   0.7387797  )
         3           Zn  tau(   3) = (   0.0018506   0.3862382   0.2073682  )
         4           Zn  tau(   4) = (  -0.0009521   0.3853919   0.7380868  )
         5           Zn  tau(   5) = (  -0.1662899   0.6732579   0.2050669  )
         6           Mg  tau(   6) = (  -0.1656076   0.6764740   0.7394281  )
         7           Zn  tau(   7) = (   0.5009299   0.0965469   0.2066203  )
         8           Zn  tau(   8) = (   0.4994474   0.0973012   0.7384913  )
         9           Mg  tau(   9) = (   0.3329852   0.3859834   0.2065205  )
        10           Mg  tau(  10) = (   0.3334162   0.3850287   0.7375273  )
        11           Mg  tau(  11) = (   0.1651167   0.6728228   0.2076457  )
        12           Zn  tau(  12) = (   0.1670619   0.6754060   0.7349735  )
        13           Mg  tau(  13) = (   0.8338331   0.0980571   0.2042635  )
        14           Mg  tau(  14) = (   0.8343573   0.0965822   0.7366490  )
        15           Zn  tau(  15) = (   0.6668708   0.3855155   0.2042245  )
        16           Mg  tau(  16) = (   0.6658610   0.3867595   0.7405698  )
        17           Zn  tau(  17) = (   0.4979518   0.6739480   0.2069780  )
        18           Zn  tau(  18) = (   0.5014655   0.6742661   0.7378935  )
        19           Zn  tau(  19) = (  -0.0017588   0.1928725   0.4731774  )
        20           Zn  tau(  20) = (   0.0003725   0.1922785   1.0038608  )
        21           Mg  tau(  21) = (  -0.1688165   0.4818470   0.4723944  )
        22           Zn  tau(  22) = (  -0.1651103   0.4811731   1.0025140  )
        23           Zn  tau(  23) = (  -0.3317319   0.7696000   0.4719233  )
        24           Mg  tau(  24) = (  -0.3350689   0.7694636   1.0067103  )
        25           Zn  tau(  25) = (   0.3327835   0.1920869   0.4712723  )
        26           Mg  tau(  26) = (   0.3330164   0.1923277   1.0046690  )
        27           Mg  tau(  27) = (   0.1652913   0.4794756   0.4734241  )
        28           Zn  tau(  28) = (   0.1661769   0.4824272   1.0017108  )
        29           Zn  tau(  29) = (  -0.0017856   0.7704426   0.4729302  )
        30           Zn  tau(  30) = (   0.0020994   0.7695209   1.0043315  )
        31           Mg  tau(  31) = (   0.6647390   0.1943594   0.4722179  )
        32           Zn  tau(  32) = (   0.6672157   0.1913907   1.0014156  )
        33           Zn  tau(  33) = (   0.5018744   0.4802934   0.4728500  )
        34           Zn  tau(  34) = (   0.4981023   0.4827313   1.0037403  )
        35           Mg  tau(  35) = (   0.3351121   0.7707801   0.4714922  )
        36           Mg  tau(  36) = (   0.3318363   0.7679961   1.0019283  )
        37           O   tau(  37) = (   0.1673240   0.0955770   0.0032559  )
        38           O   tau(  38) = (   0.1658820   0.0962152   0.5347245  )
        39           O   tau(  39) = (   0.0009002   0.3846172   0.0033886  )
        40           O   tau(  40) = (  -0.0019838   0.3856033   0.5342283  )
        41           O   tau(  41) = (  -0.1661200   0.6737885   0.0013812  )
        42           O   tau(  42) = (  -0.1666992   0.6732480   0.5368990  )
        43           O   tau(  43) = (   0.5007260   0.0962275   0.0028047  )
        44           O   tau(  44) = (   0.4992477   0.0966360   0.5345491  )
        45           O   tau(  45) = (   0.3327721   0.3844156   0.0033233  )
        46           O   tau(  46) = (   0.3330428   0.3850448   0.5345381  )
        47           O   tau(  47) = (   0.1674554   0.6729116   0.0050723  )
        48           O   tau(  48) = (   0.1675102   0.6735778   0.5310391  )
        49           O   tau(  49) = (   0.8339143   0.0943768   0.0011919  )
        50           O   tau(  50) = (   0.8312163   0.0964555   0.5336858  )
        51           O   tau(  51) = (   0.6670716   0.3848803   0.0002401  )
        52           O   tau(  52) = (   0.6672568   0.3850155   0.5374975  )
        53           O   tau(  53) = (   0.4988931   0.6741112   0.0032759  )
        54           O   tau(  54) = (   0.5009245   0.6738985   0.5340019  )
        55           O   tau(  55) = (  -0.0002770   0.1931455   0.2690311  )
        56           O   tau(  56) = (   0.0002008   0.1928579   0.8001375  )
        57           O   tau(  57) = (  -0.1666454   0.4811963   0.2694547  )
        58           O   tau(  58) = (  -0.1671411   0.4832689   0.7988882  )
        59           O   tau(  59) = (  -0.3335868   0.7696452   0.2678169  )
        60           O   tau(  60) = (  -0.3326687   0.7702553   0.8036539  )
        61           O   tau(  61) = (   0.3337044   0.1933361   0.2672791  )
        62           O   tau(  62) = (   0.3333596   0.1936480   0.8021442  )
        63           O   tau(  63) = (   0.1678124   0.4817537   0.2710360  )
        64           O   tau(  64) = (   0.1667215   0.4822013   0.7977659  )
        65           O   tau(  65) = (  -0.0006851   0.7701417   0.2690641  )
        66           O   tau(  66) = (   0.0014127   0.7710611   0.8007172  )
        67           O   tau(  67) = (   0.6675323   0.1933295   0.2693443  )
        68           O   tau(  68) = (   0.6677418   0.1933547   0.7976135  )
        69           O   tau(  69) = (   0.5001911   0.4812010   0.2687019  )
        70           O   tau(  70) = (   0.4988953   0.4817113   0.8002242  )
        71           O   tau(  71) = (   0.3313741   0.7717280   0.2681798  )
        72           O   tau(  72) = (   0.3338878   0.7707462   0.7991499  )

   Crystallographic axes

     site n.     atom                  positions (cryst. coord.)
         1           Zn  tau(   1) = (  0.2224468  0.1120511  0.1945799  )
         2           Zn  tau(   2) = (  0.2231767  0.1106421  0.6950164  )
         3           Zn  tau(   3) = (  0.2246589  0.4457621  0.1949804  )
         4           Zn  tau(   4) = (  0.2215107  0.4446292  0.6942296  )
         5           Zn  tau(   5) = (  0.2220888  0.7771414  0.1926812  )
         6           Mg  tau(   6) = (  0.2247688  0.7806949  0.6953573  )
         7           Zn  tau(   7) = (  0.5565479  0.1111433  0.1945407  )
         8           Zn  tau(   8) = (  0.5556431  0.1118571  0.6948741  )
         9           Mg  tau(   9) = (  0.5555681  0.4453116  0.1943120  )
        10           Mg  tau(  10) = (  0.5555904  0.4440520  0.6938335  )
        11           Mg  tau(  11) = (  0.5531670  0.7764816  0.1952363  )
        12           Zn  tau(  12) = (  0.5567426  0.7793062  0.6912966  )
        13           Mg  tau(  13) = (  0.8902429  0.1127297  0.1924529  )
        14           Mg  tau(  14) = (  0.8900588  0.1108693  0.6932716  )
        15           Zn  tau(  15) = (  0.8891045  0.4446142  0.1922823  )
        16           Mg  tau(  16) = (  0.8889558  0.4458917  0.6968246  )
        17           Zn  tau(  17) = (  0.8865723  0.7776231  0.1947375  )
        18           Zn  tau(  18) = (  0.8904106  0.7778313  0.6941740  )
        19           Zn  tau(  19) = (  0.1096026  0.2224882  0.4450736  )
        20           Zn  tau(  20) = (  0.1115327  0.2216443  0.9442915  )
        21           Mg  tau(  21) = (  0.1092429  0.5561229  0.4442027  )
        22           Zn  tau(  22) = (  0.1127013  0.5551862  0.9428908  )
        23           Zn  tau(  23) = (  0.1123202  0.8883457  0.4436270  )
        24           Mg  tau(  24) = (  0.1090483  0.8880313  0.9467029  )
        25           Zn  tau(  25) = (  0.4436124  0.2214237  0.4434119  )
        26           Mg  tau(  26) = (  0.4441267  0.2215435  0.9451813  )
        27           Mg  tau(  27) = (  0.4419045  0.5532273  0.4453020  )
        28           Zn  tau(  28) = (  0.4446334  0.5564773  0.9422639  )
        29           Zn  tau(  29) = (  0.4426748  0.8891619  0.4447024  )
        30           Zn  tau(  30) = (  0.4461695  0.8879387  0.9445964  )
        31           Mg  tau(  31) = (  0.7768004  0.2238895  0.4444302  )
        32           Zn  tau(  32) = (  0.7777059  0.2203049  0.9422512  )
        33           Zn  tau(  33) = (  0.7788797  0.5540122  0.4448927  )
        34           Zn  tau(  34) = (  0.7766564  0.5566707  0.9443022  )
        35           Mg  tau(  35) = (  0.7796873  0.8893925  0.4434808  )
        36           Mg  tau(  36) = (  0.7749485  0.8860234  0.9424645  )
        37           O   tau(  37) = (  0.2224070  0.1102418  0.0031051  )
        38           O   tau(  38) = (  0.2214756  0.1108217  0.5030599  )
        39           O   tau(  39) = (  0.2227192  0.4439518  0.0030957  )
        40           O   tau(  40) = (  0.2205466  0.4449341  0.5024582  )
        41           O   tau(  41) = (  0.2225103  0.7778141  0.0010729  )
        42           O   tau(  42) = (  0.2217627  0.7770318  0.5048373  )
        43           O   tau(  43) = (  0.5561054  0.1108351  0.0028103  )
        44           O   tau(  44) = (  0.5550053  0.1111499  0.5030246  )
        45           O   tau(  45) = (  0.5543965  0.4435621  0.0031635  )
        46           O   tau(  46) = (  0.5551721  0.4441310  0.5028802  )
        47           O   tau(  47) = (  0.5555021  0.7766430  0.0046752  )
        48           O   tau(  48) = (  0.5560818  0.7772561  0.4994550  )
        49           O   tau(  49) = (  0.8881473  0.1085418  0.0014233  )
        50           O   tau(  50) = (  0.8867911  0.1107847  0.5023417  )
        51           O   tau(  51) = (  0.8888843  0.4439413  0.0003932  )
        52           O   tau(  52) = (  0.8892911  0.4439381  0.5057943  )
        53           O   tau(  53) = (  0.8875530  0.7778714  0.0031141  )
        54           O   tau(  54) = (  0.8896032  0.7774677  0.5023719  )
        55           O   tau(  55) = (  0.1111869  0.2228631  0.2530326  )
        56           O   tau(  56) = (  0.1116407  0.2223735  0.7526477  )
        57           O   tau(  57) = (  0.1109839  0.5554309  0.2532972  )
        58           O   tau(  58) = (  0.1118253  0.5576667  0.7513376  )
        59           O   tau(  59) = (  0.1104372  0.8884592  0.2516222  )
        60           O   tau(  60) = (  0.1118503  0.8890043  0.7556873  )
        61           O   tau(  61) = (  0.4451989  0.2229256  0.2515144  )
        62           O   tau(  62) = (  0.4451771  0.2231274  0.7546649  )
        63           O   tau(  63) = (  0.4456848  0.5559156  0.2549148  )
        64           O   tau(  64) = (  0.4449931  0.5562767  0.7504120  )
        65           O   tau(  65) = (  0.4435470  0.8888744  0.2529250  )
        66           O   tau(  66) = (  0.4463168  0.8897772  0.7530546  )
        67           O   tau(  67) = (  0.7789447  0.2227594  0.2535872  )
        68           O   tau(  68) = (  0.7793100  0.2226319  0.7505331  )
        69           O   tau(  69) = (  0.7776656  0.5551211  0.2528486  )
        70           O   tau(  70) = (  0.7768066  0.5555533  0.7528540  )
        71           O   tau(  71) = (  0.7764425  0.8905487  0.2522220  )
        72           O   tau(  72) = (  0.7785313  0.8892568  0.7517098  )

     number of k points=    36  Marzari-Vanderbilt smearing, width (Ry)=  0.0010
                       cart. coord. in units 2pi/alat
        k(    1) = (   0.0000000   0.0000000   0.0000000), wk =   0.0312500
        k(    2) = (   0.0000973  -0.0000600   0.2351764), wk =   0.0625000
        k(    3) = (  -0.0001947   0.0001200  -0.4703528), wk =   0.0312500
        k(    4) = (  -0.0001183   0.2885683  -0.0000741), wk =   0.0625000
        k(    5) = (  -0.0000209   0.2885082   0.2351023), wk =   0.0625000
        k(    6) = (  -0.0003129   0.2886883  -0.4704269), wk =   0.0625000
        k(    7) = (  -0.0002156   0.2886283  -0.2352505), wk =   0.0625000
        k(    8) = (   0.0002365  -0.5771365   0.0001481), wk =   0.0312500
        k(    9) = (   0.0003339  -0.5771965   0.2353245), wk =   0.0625000
        k(   10) = (   0.0000418  -0.5770165  -0.4702047), wk =   0.0312500
        k(   11) = (   0.2499410   0.1441813   0.0000669), wk =   0.0625000
        k(   12) = (   0.2500383   0.1441212   0.2352433), wk =   0.0625000
        k(   13) = (   0.2497463   0.1443013  -0.4702860), wk =   0.0625000
        k(   14) = (   0.2498437   0.1442413  -0.2351095), wk =   0.0625000
        k(   15) = (   0.2498227   0.4327495  -0.0000072), wk =   0.0625000
        k(   16) = (   0.2499201   0.4326895   0.2351692), wk =   0.0625000
        k(   17) = (   0.2496281   0.4328696  -0.4703600), wk =   0.0625000
        k(   18) = (   0.2497254   0.4328095  -0.2351836), wk =   0.0625000
        k(   19) = (   0.2501775  -0.4329553   0.0002150), wk =   0.0625000
        k(   20) = (   0.2502749  -0.4330153   0.2353914), wk =   0.0625000
        k(   21) = (   0.2499828  -0.4328352  -0.4701378), wk =   0.0625000
        k(   22) = (   0.2500802  -0.4328952  -0.2349614), wk =   0.0625000
        k(   23) = (   0.2500593  -0.1443870   0.0001409), wk =   0.0625000
        k(   24) = (   0.2501566  -0.1444470   0.2353173), wk =   0.0625000
        k(   25) = (   0.2498646  -0.1442670  -0.4702119), wk =   0.0625000
        k(   26) = (   0.2499619  -0.1443270  -0.2350355), wk =   0.0625000
        k(   27) = (  -0.4998820  -0.2883625  -0.0001337), wk =   0.0312500
        k(   28) = (  -0.4997847  -0.2884225   0.2350427), wk =   0.0625000
        k(   29) = (  -0.5000767  -0.2882425  -0.4704866), wk =   0.0312500
        k(   30) = (  -0.5000003   0.0002057  -0.0002078), wk =   0.0625000
        k(   31) = (  -0.4999029   0.0001457   0.2349686), wk =   0.0625000
        k(   32) = (  -0.5001949   0.0003258  -0.4705606), wk =   0.0625000
        k(   33) = (  -0.5000976   0.0002658  -0.2353842), wk =   0.0625000
        k(   34) = (  -0.4996455  -0.8654990   0.0000144), wk =   0.0312500
        k(   35) = (  -0.4995481  -0.8655591   0.2351908), wk =   0.0625000
        k(   36) = (  -0.4998402  -0.8653790  -0.4703384), wk =   0.0312500

                       cryst. coord.
        k(    1) = (   0.0000000   0.0000000   0.0000000), wk =   0.0312500
        k(    2) = (   0.0000000  -0.0000000   0.2500000), wk =   0.0625000
        k(    3) = (  -0.0000000   0.0000000  -0.5000000), wk =   0.0312500
        k(    4) = (   0.0000000   0.2500000  -0.0000000), wk =   0.0625000
        k(    5) = (   0.0000000   0.2500000   0.2500000), wk =   0.0625000
        k(    6) = (  -0.0000000   0.2500000  -0.5000000), wk =   0.0625000
        k(    7) = (  -0.0000000   0.2500000  -0.2500000), wk =   0.0625000
        k(    8) = (  -0.0000000  -0.5000000   0.0000000), wk =   0.0312500
        k(    9) = (  -0.0000000  -0.5000000   0.2500000), wk =   0.0625000
        k(   10) = (  -0.0000000  -0.5000000  -0.5000000), wk =   0.0312500
        k(   11) = (   0.2500000  -0.0000000  -0.0000000), wk =   0.0625000
        k(   12) = (   0.2500000  -0.0000000   0.2500000), wk =   0.0625000
        k(   13) = (   0.2500000  -0.0000000  -0.5000000), wk =   0.0625000
        k(   14) = (   0.2500000  -0.0000000  -0.2500000), wk =   0.0625000
        k(   15) = (   0.2500000   0.2500000  -0.0000000), wk =   0.0625000
        k(   16) = (   0.2500000   0.2500000   0.2500000), wk =   0.0625000
        k(   17) = (   0.2500000   0.2500000  -0.5000000), wk =   0.0625000
        k(   18) = (   0.2500000   0.2500000  -0.2500000), wk =   0.0625000
        k(   19) = (   0.2500000  -0.5000000  -0.0000000), wk =   0.0625000
        k(   20) = (   0.2500000  -0.5000000   0.2500000), wk =   0.0625000
        k(   21) = (   0.2500000  -0.5000000  -0.5000000), wk =   0.0625000
        k(   22) = (   0.2500000  -0.5000000  -0.2500000), wk =   0.0625000
        k(   23) = (   0.2500000  -0.2500000   0.0000000), wk =   0.0625000
        k(   24) = (   0.2500000  -0.2500000   0.2500000), wk =   0.0625000
        k(   25) = (   0.2500000  -0.2500000  -0.5000000), wk =   0.0625000
        k(   26) = (   0.2500000  -0.2500000  -0.2500000), wk =   0.0625000
        k(   27) = (  -0.5000000   0.0000000   0.0000000), wk =   0.0312500
        k(   28) = (  -0.5000000   0.0000000   0.2500000), wk =   0.0625000
        k(   29) = (  -0.5000000   0.0000000  -0.5000000), wk =   0.0312500
        k(   30) = (  -0.5000000   0.2500000   0.0000000), wk =   0.0625000
        k(   31) = (  -0.5000000   0.2500000   0.2500000), wk =   0.0625000
        k(   32) = (  -0.5000000   0.2500000  -0.5000000), wk =   0.0625000
        k(   33) = (  -0.5000000   0.2500000  -0.2500000), wk =   0.0625000
        k(   34) = (  -0.5000000  -0.5000000   0.0000000), wk =   0.0312500
        k(   35) = (  -0.5000000  -0.5000000   0.2500000), wk =   0.0625000
        k(   36) = (  -0.5000000  -0.5000000  -0.5000000), wk =   0.0312500

     Dense  grid:  1087527 G-vectors     FFT dimensions: ( 135, 135, 144)

     Smooth grid:   361709 G-vectors     FFT dimensions: (  96,  96, 100)

     Dynamical RAM for                 wfc:      41.20 MB

     Dynamical RAM for     wfc (w. buffer):     247.21 MB

     Dynamical RAM for           str. fact:       6.22 MB

     Dynamical RAM for           local pot:       0.00 MB

     Dynamical RAM for          nlocal pot:      97.40 MB

     Dynamical RAM for                qrad:      21.02 MB

     Dynamical RAM for          rho,v,vnew:      13.73 MB

     Dynamical RAM for               rhoin:       4.58 MB

     Dynamical RAM for            rho*nmix:      33.19 MB

     Dynamical RAM for           G-vectors:       8.12 MB

     Dynamical RAM for          h,s,v(r/c):      41.84 MB

     Dynamical RAM for          <psi|beta>:       8.24 MB

     Dynamical RAM for                 psi:     164.81 MB

     Dynamical RAM for                hpsi:     164.81 MB

     Dynamical RAM for                spsi:     164.81 MB

     Dynamical RAM for      wfcinit/wfcrot:      91.92 MB

     Dynamical RAM for           addusdens:      64.30 MB

     Dynamical RAM for          addusforce:     109.99 MB

     Dynamical RAM for         addusstress:      57.95 MB

     Estimated static dynamical RAM per process >     452.29 MB

     Estimated max dynamical RAM per process >     996.79 MB

     Estimated total dynamical RAM >      62.30 GB

     Check: negative core charge=   -0.000002

     Initial potential from superposition of free atoms

     starting charge  791.79390, renormalised to  796.00000
     Starting wfcs are  500 randomized atomic wfcs

     total cpu time spent up to now is       30.4 secs

     Self-consistent Calculation

     iteration #  1     ecut=    60.00 Ry     beta= 0.50
     Davidson diagonalization with overlap
     ethr =  1.00E-02,  avg # of iterations =  4.4

     total cpu time spent up to now is      130.2 secs

     total energy              =  -13055.48406695 Ry
     Harris-Foulkes estimate   =  -13069.85785219 Ry
     estimated scf accuracy    <      21.48900575 Ry

     iteration #  2     ecut=    60.00 Ry     beta= 0.50
     Davidson diagonalization with overlap
     ethr =  2.70E-03,  avg # of iterations =  3.2

     total cpu time spent up to now is      257.7 secs

     total energy              =  -13061.97849797 Ry
     Harris-Foulkes estimate   =  -13067.19862179 Ry
     estimated scf accuracy    <      11.97380603 Ry

     iteration #  3     ecut=    60.00 Ry     beta= 0.50
     Davidson diagonalization with overlap
     ethr =  1.50E-03,  avg # of iterations =  2.0

     total cpu time spent up to now is      340.5 secs

     total energy              =  -13064.09665575 Ry
     Harris-Foulkes estimate   =  -13064.17204102 Ry
     estimated scf accuracy    <       0.20829190 Ry

     iteration #  4     ecut=    60.00 Ry     beta= 0.50
     Davidson diagonalization with overlap
     ethr =  2.62E-05,  avg # of iterations =  5.5

     total cpu time spent up to now is      488.6 secs

     total energy              =  -13064.11397671 Ry
     Harris-Foulkes estimate   =  -13064.15849402 Ry
     estimated scf accuracy    <       0.12727401 Ry

     iteration #  5     ecut=    60.00 Ry     beta= 0.50
     Davidson diagonalization with overlap
     ethr =  1.60E-05,  avg # of iterations =  4.6

     total cpu time spent up to now is      589.6 secs

     total energy              =  -13064.13315257 Ry
     Harris-Foulkes estimate   =  -13064.13351003 Ry
     estimated scf accuracy    <       0.00259859 Ry

     iteration #  6     ecut=    60.00 Ry     beta= 0.50
     Davidson diagonalization with overlap
     ethr =  3.26E-07,  avg # of iterations =  5.6

     total cpu time spent up to now is      752.3 secs

     total energy              =  -13064.13353784 Ry
     Harris-Foulkes estimate   =  -13064.13366801 Ry
     estimated scf accuracy    <       0.00054757 Ry

     iteration #  7     ecut=    60.00 Ry     beta= 0.50
     Davidson diagonalization with overlap
     ethr =  6.88E-08,  avg # of iterations =  2.0

     total cpu time spent up to now is      826.0 secs

     total energy              =  -13064.13365647 Ry
     Harris-Foulkes estimate   =  -13064.13368080 Ry
     estimated scf accuracy    <       0.00014187 Ry

     iteration #  8     ecut=    60.00 Ry     beta= 0.50
     Davidson diagonalization with overlap
     ethr =  1.78E-08,  avg # of iterations =  2.0

     total cpu time spent up to now is      896.9 secs

     total energy              =  -13064.13368611 Ry
     Harris-Foulkes estimate   =  -13064.13368267 Ry
     estimated scf accuracy    <       0.00001309 Ry

     iteration #  9     ecut=    60.00 Ry     beta= 0.50
     Davidson diagonalization with overlap
     ethr =  1.64E-09,  avg # of iterations =  2.0

     total cpu time spent up to now is      970.0 secs

     total energy              =  -13064.13368812 Ry
     Harris-Foulkes estimate   =  -13064.13368817 Ry
     estimated scf accuracy    <       0.00000191 Ry

     iteration # 10     ecut=    60.00 Ry     beta= 0.50
     Davidson diagonalization with overlap
     ethr =  2.41E-10,  avg # of iterations =  2.0

     total cpu time spent up to now is     1045.0 secs

     total energy              =  -13064.13368857 Ry
     Harris-Foulkes estimate   =  -13064.13368860 Ry
     estimated scf accuracy    <       0.00000046 Ry

     iteration # 11     ecut=    60.00 Ry     beta= 0.50
     Davidson diagonalization with overlap
     ethr =  5.78E-11,  avg # of iterations =  2.0

     total cpu time spent up to now is     1117.7 secs

     total energy              =  -13064.13368865 Ry
     Harris-Foulkes estimate   =  -13064.13368865 Ry
     estimated scf accuracy    <       0.00000003 Ry

     iteration # 12     ecut=    60.00 Ry     beta= 0.50
     Davidson diagonalization with overlap
     ethr =  3.40E-12,  avg # of iterations =  2.0

     total cpu time spent up to now is     1204.2 secs

     End of self-consistent calculation

          k = 0.0000 0.0000 0.0000 ( 45179 PWs)   bands (ev):

  -115.5714-115.5704-115.5633-115.5593-115.5542-115.5541-115.5539-115.5539
  -115.5516-115.5511-115.5510-115.5506-115.5500-115.5497-115.5491-115.5479
  -115.5452-115.5449-115.5448-115.5441-115.5432-115.5331 -69.9307 -69.9286
   -69.9276 -69.9261 -69.9246 -69.9245 -69.9234 -69.9193 -69.9191 -69.9167
   -69.9161 -69.9159 -69.9158 -69.9148 -69.9147 -69.9125 -69.9124 -69.9118
   -69.9112 -69.9111 -69.9108 -69.9106 -69.9102 -69.9096 -69.9096 -69.9093
   -69.9088 -69.9087 -69.9078 -69.9078 -69.9077 -69.9075 -69.9074 -69.9070
   -69.9066 -69.9064 -69.9060 -69.9059 -69.9059 -69.9054 -69.9054 -69.9052
   -69.9048 -69.9045 -69.9044 -69.9037 -69.9031 -69.9030 -69.9028 -69.9024
   -69.9016 -69.9013 -69.9005 -69.9001 -69.8992 -69.8989 -69.8987 -69.8983
   -69.8981 -69.8966 -69.8959 -69.8950 -69.8935 -69.8920 -69.8900 -69.8855
   -65.0163 -65.0147 -65.0125 -65.0096 -65.0034 -65.0017 -64.9997 -64.9937
   -64.9895 -64.9890 -64.9802 -64.9755 -64.9667 -64.9568 -32.0093 -32.0081
   -32.0051 -32.0043 -32.0034 -32.0021 -32.0010 -32.0008 -31.9984 -31.9979
   -31.9961 -31.9952 -31.9941 -31.9935 -31.9899 -31.9891 -31.9881 -31.9876
   -31.9868 -31.9853 -31.9848 -31.9818 -31.9803 -31.9795 -31.9787 -31.9780
   -31.9766 -31.9749 -31.9727 -31.9704 -31.9689 -31.9661 -31.9644 -31.9618
   -31.9615 -31.9593 -31.9543 -31.9507 -31.9487 -31.9460 -31.9419 -31.9408
   -10.1852  -9.8839  -9.8324  -9.7773  -9.7301  -9.7107  -9.6803  -9.6561
    -9.5900  -9.5520  -9.5442  -9.5305  -9.5215  -9.4818  -9.4795  -9.4539
    -9.4282  -9.4013  -9.3903  -9.3650  -9.3569  -9.3287  -9.3122  -9.2847
    -9.2642  -9.2524  -9.2393  -9.2216  -9.2128  -9.2040  -9.1967  -9.1729
    -9.0967  -9.0869  -9.0535  -9.0140   1.6369   1.6451   1.6632   1.6811
     1.6883   1.7072   1.7257   1.7375   1.7737   1.7816   1.7952   1.8245
     1.8351   1.8638   1.8923   1.9143   1.9282   1.9424   1.9664   1.9798
     2.0050   2.0187   2.0419   2.0685   2.0723   2.0814   2.0975   2.1158
     2.1183   2.1316   2.1558   2.1600   2.1760   2.1849   2.2012   2.2036
     2.2117   2.2270   2.2277   2.2462   2.2490   2.2714   2.2724   2.2921
     2.2968   2.3184   2.3229   2.3322   2.3385   2.3530   2.3612   2.3780
     2.3907   2.4200   2.4436   2.4673   2.4996   2.5187   2.5208   2.5449
     2.5574   2.5958   2.6046   2.6136   2.6379   2.6579   2.6655   2.6806
     2.7036   2.7168   2.7248   2.7298   2.7518   2.7597   2.7638   2.7737
     2.7981   2.8143   2.8199   2.8344   2.8513   2.8671   2.8726   2.8990
     2.9302   2.9371   2.9422   2.9650   2.9861   2.9974   3.0156   3.0216
     3.0506   3.0578   3.0780   3.0798   3.0856   3.0998   3.1040   3.1173
     3.1285   3.1316   3.1580   3.1671   3.1774   3.1906   3.1932   3.2353
     3.2531   3.2657   3.3157   3.3698   3.4452   3.5052   3.5433   3.5569
     3.6120   3.6457   3.6529   3.6975   3.7093   3.7408   3.7681   3.7926
     3.8133   3.8471   3.8909   3.9134   3.9294   3.9766   4.0409   4.0828
     4.1278   4.1331   4.1689   4.1982   4.2374   4.3108   4.4175   4.4261
     4.4733   4.4877   4.5452   4.5747   4.6143   4.6618   4.6672   4.6901
     4.7124   4.7948   4.8669   4.8834   4.9170   5.0397   5.0665   5.2433
     5.2661   5.3206   5.3571   5.3815   5.4114   5.4656   5.5159   5.5236
     5.5870   5.6018   5.6266   5.6353   5.6450   5.6568   5.6903   5.7176
     5.7353   5.8268   5.8339   5.8920   5.9152   5.9410   5.9657   5.9967
     6.0209   6.0303   6.0858   6.1350   6.1461   6.1651   6.1980   6.2075
     6.2226   6.2412   6.2454   6.2630   6.2916   6.3025   6.3113   6.3169
     6.3272   6.3445   6.4401   6.4557   6.4889   6.5243   6.5269   6.5665
     6.5883   6.5958   6.6288   6.6442   6.6912   6.7178   6.7636   6.8613
     6.8626   6.9053   6.9799   7.1505   7.1580   7.1799   8.8468  11.3039
    11.3482  11.9189  11.9700  12.0930  12.1697  12.2805  12.4545  12.8430
    12.8454  12.8626  12.8695  12.9186  12.9718  13.0917  13.1193  13.2210
    13.2292  13.3448  13.4100  13.5565  14.8576  14.8685  14.9830  14.9886
    15.0776  15.1015  15.1435  15.1616  15.2120  15.2265  15.2396  15.2671
    15.3023  15.3103  15.3154  15.3401  15.3827  15.4714  15.4975  15.5230
    15.5978  15.6897  15.7267  15.7531  15.8187  15.9083  15.9580  16.0567
    16.1158  16.2187  16.2424  16.2733  16.3325  16.3424  16.3466  16.3581
    16.3736  16.5041  16.8225  16.9068  16.9245  17.0769  17.2559  17.3302
    17.3575  17.4397  17.6159  17.6244  17.6603  17.9055  18.1506  18.2047
    18.2514  18.3105  18.3949  18.4815  18.6107  18.6914

     occupation numbers 
     1.0000   1.0000   1.0000   1.0000   1.0000   1.0000   1.0000   1.0000
     1.0000   1.0000   1.0000   1.0000   1.0000   1.0000   1.0000   1.0000
     1.0000   1.0000   1.0000   1.0000   1.0000   1.0000   1.0000   1.0000
     1.0000   1.0000   1.0000   1.0000   1.0000   1.0000   1.0000   1.0000
     1.0000   1.0000   1.0000   1.0000   1.0000   1.0000   1.0000   1.0000
     1.0000   1.0000   1.0000   1.0000   1.0000   1.0000   1.0000   1.0000
     1.0000   1.0000   1.0000   1.0000   1.0000   1.0000   1.0000   1.0000
     1.0000   1.0000   1.0000   1.0000   1.0000   1.0000   1.0000   1.0000
     1.0000   1.0000   1.0000   1.0000   1.0000   1.0000   1.0000   1.0000
     1.0000   1.0000   1.0000   1.0000   1.0000   1.0000   1.0000   1.0000
     1.0000   1.0000   1.0000   1.0000   1.0000   1.0000   1.0000   1.0000
     1.0000   1.0000   1.0000   1.0000   1.0000   1.0000   1.0000   1.0000
     1.0000   1.0000   1.0000   1.0000   1.0000   1.0000   1.0000   1.0000
     1.0000   1.0000   1.0000   1.0000   1.0000   1.0000   1.0000   1.0000
     1.0000   1.0000   1.0000   1.0000   1.0000   1.0000   1.0000   1.0000
     1.0000   1.0000   1.0000   1.0000   1.0000   1.0000   1.0000   1.0000
     1.0000   1.0000   1.0000   1.0000   1.0000   1.0000   1.0000   1.0000
     1.0000   1.0000   1.0000   1.0000   1.0000   1.0000   1.0000   1.0000
     1.0000   1.0000   1.0000   1.0000   1.0000   1.0000   1.0000   1.0000
     1.0000   1.0000   1.0000   1.0000   1.0000   1.0000   1.0000   1.0000
     1.0000   1.0000   1.0000   1.0000   1.0000   1.0000   1.0000   1.0000
     1.0000   1.0000   1.0000   1.0000   1.0000   1.0000   1.0000   1.0000
     1.0000   1.0000   1.0000   1.0000   1.0000   1.0000   1.0000   1.0000
     1.0000   1.0000   1.0000   1.0000   1.0000   1.0000   1.0000   1.0000
     1.0000   1.0000   1.0000   1.0000   1.0000   1.0000   1.0000   1.0000
     1.0000   1.0000   1.0000   1.0000   1.0000   1.0000   1.0000   1.0000
     1.0000   1.0000   1.0000   1.0000   1.0000   1.0000   1.0000   1.0000
     1.0000   1.0000   1.0000   1.0000   1.0000   1.0000   1.0000   1.0000
     1.0000   1.0000   1.0000   1.0000   1.0000   1.0000   1.0000   1.0000
     1.0000   1.0000   1.0000   1.0000   1.0000   1.0000   1.0000   1.0000
     1.0000   1.0000   1.0000   1.0000   1.0000   1.0000   1.0000   1.0000
     1.0000   1.0000   1.0000   1.0000   1.0000   1.0000   1.0000   1.0000
     1.0000   1.0000   1.0000   1.0000   1.0000   1.0000   1.0000   1.0000
     1.0000   1.0000   1.0000   1.0000   1.0000   1.0000   1.0000   1.0000
     1.0000   1.0000   1.0000   1.0000   1.0000   1.0000   1.0000   1.0000
     1.0000   1.0000   1.0000   1.0000   1.0000   1.0000   1.0000   1.0000
     1.0000   1.0000   1.0000   1.0000   1.0000   1.0000   1.0000   1.0000
     1.0000   1.0000   1.0000   1.0000   1.0000   1.0000   1.0000   1.0000
     1.0000   1.0000   1.0000   1.0000   1.0000   1.0000   1.0000   1.0000
     1.0000   1.0000   1.0000   1.0000   1.0000   1.0000   1.0000   1.0000
     1.0000   1.0000   1.0000   1.0000   1.0000   1.0000   1.0000   1.0000
     1.0000   1.0000   1.0000   1.0000   1.0000   1.0000   1.0000   1.0000
     1.0000   1.0000   1.0000   1.0000   1.0000   1.0000   1.0000   1.0000
     1.0000   1.0000   1.0000   1.0000   1.0000   1.0000   1.0000   1.0000
     1.0000   1.0000   1.0000   1.0000   1.0000   1.0000   1.0000   1.0000
     1.0000   1.0000   1.0000   1.0000   1.0000   1.0000   1.0000   1.0000
     1.0000   1.0000   1.0000   1.0000   1.0000   1.0000   1.0000   1.0000
     1.0000   1.0000   1.0000   1.0000   1.0000   1.0000   1.0000   1.0000
     1.0000   1.0000   1.0000   1.0000   1.0000   1.0000   1.0000   1.0000
     1.0000   1.0000   1.0000   1.0000   1.0000   1.0000   0.0000   0.0000
     0.0000   0.0000   0.0000   0.0000   0.0000   0.0000   0.0000   0.0000
     0.0000   0.0000   0.0000   0.0000   0.0000   0.0000   0.0000   0.0000
     0.0000   0.0000   0.0000   0.0000   0.0000   0.0000   0.0000   0.0000
     0.0000   0.0000   0.0000   0.0000   0.0000   0.0000   0.0000   0.0000
     0.0000   0.0000   0.0000   0.0000   0.0000   0.0000   0.0000   0.0000
     0.0000   0.0000   0.0000   0.0000   0.0000   0.0000   0.0000   0.0000
     0.0000   0.0000   0.0000   0.0000   0.0000   0.0000   0.0000   0.0000
     0.0000   0.0000   0.0000   0.0000   0.0000   0.0000   0.0000   0.0000
     0.0000   0.0000   0.0000   0.0000   0.0000   0.0000   0.0000   0.0000
     0.0000   0.0000   0.0000   0.0000   0.0000   0.0000

          k = 0.0001-0.0001 0.2352 ( 45189 PWs)   bands (ev):

  -115.5714-115.5704-115.5633-115.5593-115.5542-115.5541-115.5539-115.5539
  -115.5516-115.5511-115.5510-115.5506-115.5500-115.5497-115.5491-115.5479
  -115.5452-115.5449-115.5448-115.5441-115.5432-115.5331 -69.9307 -69.9286
   -69.9276 -69.9261 -69.9246 -69.9245 -69.9234 -69.9193 -69.9191 -69.9167
   -69.9161 -69.9159 -69.9157 -69.9148 -69.9147 -69.9125 -69.9124 -69.9118
   -69.9113 -69.9111 -69.9108 -69.9106 -69.9102 -69.9096 -69.9096 -69.9093
   -69.9088 -69.9087 -69.9078 -69.9078 -69.9077 -69.9075 -69.9074 -69.9070
   -69.9066 -69.9064 -69.9060 -69.9059 -69.9059 -69.9054 -69.9054 -69.9052
   -69.9048 -69.9045 -69.9044 -69.9037 -69.9031 -69.9030 -69.9028 -69.9024
   -69.9016 -69.9013 -69.9005 -69.9001 -69.8992 -69.8989 -69.8987 -69.8983
   -69.8981 -69.8966 -69.8959 -69.8950 -69.8935 -69.8920 -69.8900 -69.8855
   -65.0163 -65.0147 -65.0125 -65.0096 -65.0034 -65.0017 -64.9997 -64.9937
   -64.9895 -64.9890 -64.9802 -64.9755 -64.9667 -64.9568 -32.0093 -32.0080
   -32.0052 -32.0044 -32.0034 -32.0020 -32.0010 -32.0008 -31.9984 -31.9978
   -31.9961 -31.9954 -31.9941 -31.9935 -31.9899 -31.9891 -31.9881 -31.9876
   -31.9868 -31.9853 -31.9848 -31.9818 -31.9803 -31.9795 -31.9787 -31.9780
   -31.9766 -31.9749 -31.9727 -31.9704 -31.9689 -31.9662 -31.9644 -31.9618
   -31.9615 -31.9593 -31.9543 -31.9507 -31.9487 -31.9460 -31.9419 -31.9408
   -10.1602  -9.9731  -9.7833  -9.7650  -9.7206  -9.7069  -9.6627  -9.6303
    -9.6004  -9.5924  -9.5700  -9.5432  -9.5221  -9.4910  -9.4791  -9.4544
    -9.4147  -9.4033  -9.3777  -9.3595  -9.3487  -9.3131  -9.3064  -9.2823
    -9.2581  -9.2549  -9.2370  -9.2200  -9.2139  -9.2037  -9.1952  -9.1817
    -9.1018  -9.0900  -9.0563  -9.0186   1.6437   1.6612   1.6749   1.6905
     1.7129   1.7250   1.7454   1.7569   1.7792   1.7871   1.8054   1.8234
     1.8553   1.8723   1.9048   1.9332   1.9455   1.9535   1.9693   1.9840
     2.0113   2.0160   2.0329   2.0599   2.0681   2.0796   2.0931   2.1047
     2.1199   2.1264   2.1367   2.1446   2.1647   2.1744   2.1844   2.1986
     2.2099   2.2264   2.2336   2.2425   2.2608   2.2672   2.2824   2.2915
     2.2994   2.3058   2.3213   2.3362   2.3438   2.3473   2.3582   2.3766
     2.3894   2.4087   2.4286   2.4610   2.4765   2.4965   2.5074   2.5259
     2.5444   2.5669   2.5748   2.5915   2.6126   2.6342   2.6466   2.6507
     2.6693   2.6908   2.7079   2.7171   2.7254   2.7430   2.7602   2.7748
     2.7822   2.7874   2.8052   2.8240   2.8436   2.8700   2.8768   2.8825
     2.9145   2.9201   2.9337   2.9638   2.9781   2.9885   3.0099   3.0178
     3.0529   3.0693   3.0749   3.0778   3.0972   3.1030   3.1156   3.1231
     3.1360   3.1478   3.1625   3.1629   3.1733   3.1861   3.2090   3.2180
     3.2345   3.2633   3.3522   3.4415   3.5020   3.5233   3.5801   3.5981
     3.6256   3.6510   3.6708   3.7024   3.7272   3.7681   3.7905   3.8092
     3.8370   3.8655   3.9239   3.9406   3.9781   4.0122   4.0531   4.1084
     4.1408   4.1917   4.1984   4.2695   4.2814   4.3430   4.3775   4.4024
     4.4338   4.4632   4.4803   4.5017   4.5498   4.5877   4.6460   4.6746
     4.7609   4.8345   4.9469   4.9823   5.0294   5.0853   5.1789   5.2473
     5.2871   5.3149   5.3363   5.3716   5.4134   5.4472   5.4713   5.4832
     5.5220   5.5533   5.5639   5.5778   5.6263   5.6426   5.6722   5.6814
     5.7057   5.7266   5.7462   5.8076   5.8385   5.8670   5.9078   5.9364
     5.9724   5.9956   6.0185   6.0857   6.1366   6.1627   6.1831   6.2090
     6.2388   6.2638   6.2803   6.3090   6.3350   6.3566   6.3836   6.4136
     6.4476   6.4682   6.4769   6.4994   6.5276   6.5577   6.5707   6.5872
     6.6097   6.6241   6.6317   6.6519   6.6784   6.7101   6.7384   6.7837
     6.8286   6.9414   6.9769   7.0133   7.1433   7.1653   9.1597  10.5845
    11.8833  11.9476  12.0042  12.1306  12.2004  12.3219  12.3892  12.4437
    12.4615  12.6075  12.6978  12.8054  12.9046  13.1853  13.4737  13.5307
    13.6470  13.6567  13.7341  13.8427  14.6104  14.6295  14.7394  14.7957
    14.8630  14.9090  14.9212  14.9616  15.1325  15.1384  15.2452  15.2635
    15.3012  15.3132  15.3939  15.4613  15.5174  15.5354  15.5679  15.6260
    15.7195  15.7244  15.8127  15.8500  15.9213  15.9836  16.0707  16.1405
    16.1640  16.1788  16.2025  16.2656  16.2973  16.3581  16.3707  16.3916
    16.4600  16.5831  16.8471  16.8710  16.9943  17.0617  17.1250  17.1910
    17.3288  17.3704  17.4999  17.6137  17.6897  17.7902  17.9669  18.0743
    18.1182  18.2145  18.3173  18.4458  18.5570  18.6291

     occupation numbers 
     1.0000   1.0000   1.0000   1.0000   1.0000   1.0000   1.0000   1.0000
     1.0000   1.0000   1.0000   1.0000   1.0000   1.0000   1.0000   1.0000
     1.0000   1.0000   1.0000   1.0000   1.0000   1.0000   1.0000   1.0000
     1.0000   1.0000   1.0000   1.0000   1.0000   1.0000   1.0000   1.0000
     1.0000   1.0000   1.0000   1.0000   1.0000   1.0000   1.0000   1.0000
     1.0000   1.0000   1.0000   1.0000   1.0000   1.0000   1.0000   1.0000
     1.0000   1.0000   1.0000   1.0000   1.0000   1.0000   1.0000   1.0000
     1.0000   1.0000   1.0000   1.0000   1.0000   1.0000   1.0000   1.0000
     1.0000   1.0000   1.0000   1.0000   1.0000   1.0000   1.0000   1.0000
     1.0000   1.0000   1.0000   1.0000   1.0000   1.0000   1.0000   1.0000
     1.0000   1.0000   1.0000   1.0000   1.0000   1.0000   1.0000   1.0000
     1.0000   1.0000   1.0000   1.0000   1.0000   1.0000   1.0000   1.0000
     1.0000   1.0000   1.0000   1.0000   1.0000   1.0000   1.0000   1.0000
     1.0000   1.0000   1.0000   1.0000   1.0000   1.0000   1.0000   1.0000
     1.0000   1.0000   1.0000   1.0000   1.0000   1.0000   1.0000   1.0000
     1.0000   1.0000   1.0000   1.0000   1.0000   1.0000   1.0000   1.0000
     1.0000   1.0000   1.0000   1.0000   1.0000   1.0000   1.0000   1.0000
     1.0000   1.0000   1.0000   1.0000   1.0000   1.0000   1.0000   1.0000
     1.0000   1.0000   1.0000   1.0000   1.0000   1.0000   1.0000   1.0000
     1.0000   1.0000   1.0000   1.0000   1.0000   1.0000   1.0000   1.0000
     1.0000   1.0000   1.0000   1.0000   1.0000   1.0000   1.0000   1.0000
     1.0000   1.0000   1.0000   1.0000   1.0000   1.0000   1.0000   1.0000
     1.0000   1.0000   1.0000   1.0000   1.0000   1.0000   1.0000   1.0000
     1.0000   1.0000   1.0000   1.0000   1.0000   1.0000   1.0000   1.0000
     1.0000   1.0000   1.0000   1.0000   1.0000   1.0000   1.0000   1.0000
     1.0000   1.0000   1.0000   1.0000   1.0000   1.0000   1.0000   1.0000
     1.0000   1.0000   1.0000   1.0000   1.0000   1.0000   1.0000   1.0000
     1.0000   1.0000   1.0000   1.0000   1.0000   1.0000   1.0000   1.0000
     1.0000   1.0000   1.0000   1.0000   1.0000   1.0000   1.0000   1.0000
     1.0000   1.0000   1.0000   1.0000   1.0000   1.0000   1.0000   1.0000
     1.0000   1.0000   1.0000   1.0000   1.0000   1.0000   1.0000   1.0000
     1.0000   1.0000   1.0000   1.0000   1.0000   1.0000   1.0000   1.0000
     1.0000   1.0000   1.0000   1.0000   1.0000   1.0000   1.0000   1.0000
     1.0000   1.0000   1.0000   1.0000   1.0000   1.0000   1.0000   1.0000
     1.0000   1.0000   1.0000   1.0000   1.0000   1.0000   1.0000   1.0000
     1.0000   1.0000   1.0000   1.0000   1.0000   1.0000   1.0000   1.0000
     1.0000   1.0000   1.0000   1.0000   1.0000   1.0000   1.0000   1.0000
     1.0000   1.0000   1.0000   1.0000   1.0000   1.0000   1.0000   1.0000
     1.0000   1.0000   1.0000   1.0000   1.0000   1.0000   1.0000   1.0000
     1.0000   1.0000   1.0000   1.0000   1.0000   1.0000   1.0000   1.0000
     1.0000   1.0000   1.0000   1.0000   1.0000   1.0000   1.0000   1.0000
     1.0000   1.0000   1.0000   1.0000   1.0000   1.0000   1.0000   1.0000
     1.0000   1.0000   1.0000   1.0000   1.0000   1.0000   1.0000   1.0000
     1.0000   1.0000   1.0000   1.0000   1.0000   1.0000   1.0000   1.0000
     1.0000   1.0000   1.0000   1.0000   1.0000   1.0000   1.0000   1.0000
     1.0000   1.0000   1.0000   1.0000   1.0000   1.0000   1.0000   1.0000
     1.0000   1.0000   1.0000   1.0000   1.0000   1.0000   1.0000   1.0000
     1.0000   1.0000   1.0000   1.0000   1.0000   1.0000   1.0000   1.0000
     1.0000   1.0000   1.0000   1.0000   1.0000   1.0000   1.0000   1.0000
     1.0000   1.0000   1.0000   1.0000   1.0000   1.0000   0.0000   0.0000
     0.0000   0.0000   0.0000   0.0000   0.0000   0.0000   0.0000   0.0000
     0.0000   0.0000   0.0000   0.0000   0.0000   0.0000   0.0000   0.0000
     0.0000   0.0000   0.0000   0.0000   0.0000   0.0000   0.0000   0.0000
     0.0000   0.0000   0.0000   0.0000   0.0000   0.0000   0.0000   0.0000
     0.0000   0.0000   0.0000   0.0000   0.0000   0.0000   0.0000   0.0000
     0.0000   0.0000   0.0000   0.0000   0.0000   0.0000   0.0000   0.0000
     0.0000   0.0000   0.0000   0.0000   0.0000   0.0000   0.0000   0.0000
     0.0000   0.0000   0.0000   0.0000   0.0000   0.0000   0.0000   0.0000
     0.0000   0.0000   0.0000   0.0000   0.0000   0.0000   0.0000   0.0000
     0.0000   0.0000   0.0000   0.0000   0.0000   0.0000

          k =-0.0002 0.0001-0.4704 ( 45246 PWs)   bands (ev):

  -115.5714-115.5704-115.5633-115.5593-115.5542-115.5541-115.5539-115.5539
  -115.5516-115.5511-115.5510-115.5506-115.5500-115.5497-115.5491-115.5479
  -115.5452-115.5449-115.5448-115.5441-115.5432-115.5331 -69.9307 -69.9286
   -69.9276 -69.9261 -69.9246 -69.9245 -69.9234 -69.9193 -69.9191 -69.9167
   -69.9161 -69.9159 -69.9157 -69.9148 -69.9147 -69.9125 -69.9124 -69.9118
   -69.9113 -69.9111 -69.9108 -69.9106 -69.9102 -69.9096 -69.9096 -69.9093
   -69.9088 -69.9087 -69.9078 -69.9078 -69.9077 -69.9075 -69.9074 -69.9070
   -69.9066 -69.9064 -69.9060 -69.9059 -69.9059 -69.9054 -69.9054 -69.9052
   -69.9048 -69.9045 -69.9044 -69.9037 -69.9031 -69.9030 -69.9028 -69.9024
   -69.9016 -69.9013 -69.9005 -69.9001 -69.8992 -69.8989 -69.8987 -69.8983
   -69.8981 -69.8966 -69.8959 -69.8950 -69.8935 -69.8920 -69.8900 -69.8855
   -65.0163 -65.0147 -65.0125 -65.0096 -65.0034 -65.0017 -64.9997 -64.9937
   -64.9895 -64.9890 -64.9802 -64.9755 -64.9667 -64.9568 -32.0093 -32.0079
   -32.0053 -32.0044 -32.0034 -32.0019 -32.0009 -32.0007 -31.9984 -31.9978
   -31.9961 -31.9956 -31.9941 -31.9935 -31.9899 -31.9890 -31.9881 -31.9877
   -31.9867 -31.9853 -31.9848 -31.9818 -31.9803 -31.9795 -31.9787 -31.9780
   -31.9766 -31.9749 -31.9726 -31.9704 -31.9689 -31.9662 -31.9644 -31.9618
   -31.9615 -31.9593 -31.9543 -31.9507 -31.9487 -31.9460 -31.9419 -31.9408
   -10.1079 -10.0584  -9.7606  -9.7459  -9.7117  -9.6992  -9.6589  -9.6340
    -9.6256  -9.5922  -9.5724  -9.5449  -9.5371  -9.4945  -9.4827  -9.4644
    -9.4237  -9.3988  -9.3598  -9.3480  -9.3335  -9.3102  -9.2970  -9.2812
    -9.2654  -9.2492  -9.2319  -9.2203  -9.2095  -9.2012  -9.1955  -9.1919
    -9.1088  -9.0927  -9.0590  -9.0237   1.6555   1.6664   1.6923   1.7049
     1.7317   1.7401   1.7597   1.7655   1.7813   1.8153   1.8294   1.8518
     1.8691   1.8838   1.9178   1.9502   1.9577   1.9678   1.9784   1.9948
     2.0028   2.0140   2.0305   2.0432   2.0577   2.0653   2.0841   2.0907
     2.1029   2.1104   2.1250   2.1480   2.1499   2.1698   2.1737   2.1983
     2.2061   2.2252   2.2328   2.2537   2.2608   2.2687   2.2909   2.2988
     2.3006   2.3148   2.3223   2.3259   2.3432   2.3544   2.3617   2.3777
     2.3865   2.3991   2.4044   2.4135   2.4253   2.4402   2.4837   2.4951
     2.5243   2.5437   2.5562   2.5781   2.5869   2.6079   2.6240   2.6503
     2.6688   2.6747   2.6887   2.7125   2.7207   2.7276   2.7344   2.7564
     2.7666   2.7822   2.8030   2.8162   2.8439   2.8509   2.8825   2.8898
     2.8967   2.9179   2.9275   2.9569   2.9656   2.9915   3.0100   3.0294
     3.0472   3.0601   3.0791   3.0912   3.0987   3.1179   3.1219   3.1292
     3.1389   3.1539   3.1655   3.1716   3.1739   3.1823   3.2005   3.2186
     3.2311   3.2629   3.4490   3.4928   3.5122   3.5594   3.5872   3.6144
     3.6320   3.6389   3.6760   3.6960   3.7546   3.7821   3.8013   3.8354
     3.8862   3.9284   3.9553   3.9835   4.0219   4.0287   4.0478   4.0631
     4.0981   4.1300   4.1991   4.2856   4.3036   4.3367   4.3436   4.4290
     4.4571   4.4792   4.5081   4.5874   4.6326   4.6655   4.7203   4.7498
     4.8529   4.8798   4.9168   4.9263   5.0464   5.1133   5.1491   5.1749
     5.2062   5.2362   5.2572   5.2672   5.3337   5.3352   5.3614   5.4059
     5.5630   5.5822   5.6021   5.6155   5.6441   5.6516   5.6996   5.7073
     5.7423   5.7660   5.7758   5.8113   5.8295   5.8381   5.8503   5.8670
     5.8801   5.9095   5.9245   5.9346   6.1353   6.1764   6.2053   6.2161
     6.2649   6.2840   6.3169   6.3249   6.3682   6.3847   6.4131   6.4730
     6.4862   6.5079   6.5127   6.5530   6.5753   6.5804   6.6026   6.6106
     6.6301   6.6528   6.6587   6.6715   6.6929   6.7078   6.7169   6.7337
     6.7372   6.7750   7.0299   7.0463   7.1214   7.1449   9.7791   9.8689
    12.0194  12.0503  12.0876  12.1501  12.1629  12.1755  12.2476  12.3213
    12.4527  12.5715  12.6290  12.7114  12.8498  12.9259  14.0465  14.0600
    14.0908  14.1065  14.1407  14.1666  14.2185  14.2711  14.3032  14.3538
    14.3835  14.4590  15.0013  15.0068  15.0335  15.0390  15.2519  15.2707
    15.3058  15.3169  15.4226  15.4697  15.4930  15.5930  15.7279  15.7535
    15.8449  15.8670  15.8867  15.9057  15.9267  15.9686  16.0289  16.0868
    16.2248  16.2485  16.2599  16.2913  16.3123  16.3273  16.4381  16.5064
    16.5534  16.6650  16.7410  16.8275  16.9180  16.9475  17.1564  17.1867
    17.2513  17.4346  17.4992  17.5257  17.5978  17.6839  17.8074  17.8550
    18.1202  18.2110  18.2754  18.4193  18.5887  18.5998

     occupation numbers 
     1.0000   1.0000   1.0000   1.0000   1.0000   1.0000   1.0000   1.0000
     1.0000   1.0000   1.0000   1.0000   1.0000   1.0000   1.0000   1.0000
     1.0000   1.0000   1.0000   1.0000   1.0000   1.0000   1.0000   1.0000
     1.0000   1.0000   1.0000   1.0000   1.0000   1.0000   1.0000   1.0000
     1.0000   1.0000   1.0000   1.0000   1.0000   1.0000   1.0000   1.0000
     1.0000   1.0000   1.0000   1.0000   1.0000   1.0000   1.0000   1.0000
     1.0000   1.0000   1.0000   1.0000   1.0000   1.0000   1.0000   1.0000
     1.0000   1.0000   1.0000   1.0000   1.0000   1.0000   1.0000   1.0000
     1.0000   1.0000   1.0000   1.0000   1.0000   1.0000   1.0000   1.0000
     1.0000   1.0000   1.0000   1.0000   1.0000   1.0000   1.0000   1.0000
     1.0000   1.0000   1.0000   1.0000   1.0000   1.0000   1.0000   1.0000
     1.0000   1.0000   1.0000   1.0000   1.0000   1.0000   1.0000   1.0000
     1.0000   1.0000   1.0000   1.0000   1.0000   1.0000   1.0000   1.0000
     1.0000   1.0000   1.0000   1.0000   1.0000   1.0000   1.0000   1.0000
     1.0000   1.0000   1.0000   1.0000   1.0000   1.0000   1.0000   1.0000
     1.0000   1.0000   1.0000   1.0000   1.0000   1.0000   1.0000   1.0000
     1.0000   1.0000   1.0000   1.0000   1.0000   1.0000   1.0000   1.0000
     1.0000   1.0000   1.0000   1.0000   1.0000   1.0000   1.0000   1.0000
     1.0000   1.0000   1.0000   1.0000   1.0000   1.0000   1.0000   1.0000
     1.0000   1.0000   1.0000   1.0000   1.0000   1.0000   1.0000   1.0000
     1.0000   1.0000   1.0000   1.0000   1.0000   1.0000   1.0000   1.0000
     1.0000   1.0000   1.0000   1.0000   1.0000   1.0000   1.0000   1.0000
     1.0000   1.0000   1.0000   1.0000   1.0000   1.0000   1.0000   1.0000
     1.0000   1.0000   1.0000   1.0000   1.0000   1.0000   1.0000   1.0000
     1.0000   1.0000   1.0000   1.0000   1.0000   1.0000   1.0000   1.0000
     1.0000   1.0000   1.0000   1.0000   1.0000   1.0000   1.0000   1.0000
     1.0000   1.0000   1.0000   1.0000   1.0000   1.0000   1.0000   1.0000
     1.0000   1.0000   1.0000   1.0000   1.0000   1.0000   1.0000   1.0000
     1.0000   1.0000   1.0000   1.0000   1.0000   1.0000   1.0000   1.0000
     1.0000   1.0000   1.0000   1.0000   1.0000   1.0000   1.0000   1.0000
     1.0000   1.0000   1.0000   1.0000   1.0000   1.0000   1.0000   1.0000
     1.0000   1.0000   1.0000   1.0000   1.0000   1.0000   1.0000   1.0000
     1.0000   1.0000   1.0000   1.0000   1.0000   1.0000   1.0000   1.0000
     1.0000   1.0000   1.0000   1.0000   1.0000   1.0000   1.0000   1.0000
     1.0000   1.0000   1.0000   1.0000   1.0000   1.0000   1.0000   1.0000
     1.0000   1.0000   1.0000   1.0000   1.0000   1.0000   1.0000   1.0000
     1.0000   1.0000   1.0000   1.0000   1.0000   1.0000   1.0000   1.0000
     1.0000   1.0000   1.0000   1.0000   1.0000   1.0000   1.0000   1.0000
     1.0000   1.0000   1.0000   1.0000   1.0000   1.0000   1.0000   1.0000
     1.0000   1.0000   1.0000   1.0000   1.0000   1.0000   1.0000   1.0000
     1.0000   1.0000   1.0000   1.0000   1.0000   1.0000   1.0000   1.0000
     1.0000   1.0000   1.0000   1.0000   1.0000   1.0000   1.0000   1.0000
     1.0000   1.0000   1.0000   1.0000   1.0000   1.0000   1.0000   1.0000
     1.0000   1.0000   1.0000   1.0000   1.0000   1.0000   1.0000   1.0000
     1.0000   1.0000   1.0000   1.0000   1.0000   1.0000   1.0000   1.0000
     1.0000   1.0000   1.0000   1.0000   1.0000   1.0000   1.0000   1.0000
     1.0000   1.0000   1.0000   1.0000   1.0000   1.0000   1.0000   1.0000
     1.0000   1.0000   1.0000   1.0000   1.0000   1.0000   1.0000   1.0000
     1.0000   1.0000   1.0000   1.0000   1.0000   1.0000   1.0000   1.0000
     1.0000   1.0000   1.0000   1.0000   1.0000   1.0000   0.0000   0.0000
     0.0000   0.0000   0.0000   0.0000   0.0000   0.0000   0.0000   0.0000
     0.0000   0.0000   0.0000   0.0000   0.0000   0.0000   0.0000   0.0000
     0.0000   0.0000   0.0000   0.0000   0.0000   0.0000   0.0000   0.0000
     0.0000   0.0000   0.0000   0.0000   0.0000   0.0000   0.0000   0.0000
     0.0000   0.0000   0.0000   0.0000   0.0000   0.0000   0.0000   0.0000
     0.0000   0.0000   0.0000   0.0000   0.0000   0.0000   0.0000   0.0000
     0.0000   0.0000   0.0000   0.0000   0.0000   0.0000   0.0000   0.0000
     0.0000   0.0000   0.0000   0.0000   0.0000   0.0000   0.0000   0.0000
     0.0000   0.0000   0.0000   0.0000   0.0000   0.0000   0.0000   0.0000
     0.0000   0.0000   0.0000   0.0000   0.0000   0.0000

          k =-0.0001 0.2886-0.0001 ( 45162 PWs)   bands (ev):

  -115.5714-115.5704-115.5633-115.5593-115.5542-115.5541-115.5539-115.5539
  -115.5516-115.5511-115.5510-115.5506-115.5500-115.5497-115.5491-115.5479
  -115.5452-115.5449-115.5448-115.5441-115.5432-115.5331 -69.9307 -69.9286
   -69.9276 -69.9261 -69.9246 -69.9245 -69.9234 -69.9193 -69.9191 -69.9167
   -69.9161 -69.9159 -69.9158 -69.9148 -69.9147 -69.9125 -69.9124 -69.9118
   -69.9112 -69.9111 -69.9108 -69.9106 -69.9102 -69.9096 -69.9096 -69.9093
   -69.9088 -69.9087 -69.9078 -69.9078 -69.9077 -69.9075 -69.9074 -69.9070
   -69.9066 -69.9064 -69.9060 -69.9059 -69.9059 -69.9054 -69.9054 -69.9053
   -69.9048 -69.9045 -69.9044 -69.9037 -69.9031 -69.9030 -69.9028 -69.9024
   -69.9016 -69.9013 -69.9005 -69.9001 -69.8992 -69.8989 -69.8987 -69.8983
   -69.8981 -69.8966 -69.8959 -69.8950 -69.8935 -69.8920 -69.8900 -69.8855
   -65.0163 -65.0147 -65.0125 -65.0096 -65.0034 -65.0017 -64.9997 -64.9937
   -64.9895 -64.9890 -64.9802 -64.9755 -64.9667 -64.9568 -32.0093 -32.0081
   -32.0051 -32.0043 -32.0034 -32.0021 -32.0010 -32.0008 -31.9984 -31.9979
   -31.9961 -31.9952 -31.9940 -31.9935 -31.9899 -31.9891 -31.9881 -31.9876
   -31.9868 -31.9853 -31.9848 -31.9818 -31.9804 -31.9794 -31.9787 -31.9780
   -31.9768 -31.9748 -31.9727 -31.9704 -31.9689 -31.9661 -31.9644 -31.9618
   -31.9614 -31.9593 -31.9543 -31.9507 -31.9488 -31.9460 -31.9419 -31.9408
   -10.1482  -9.9235  -9.8301  -9.7991  -9.7789  -9.6962  -9.6700  -9.6303
    -9.5917  -9.5703  -9.5517  -9.5353  -9.5138  -9.4823  -9.4605  -9.4396
    -9.4211  -9.4004  -9.3946  -9.3540  -9.3396  -9.3274  -9.3069  -9.2845
    -9.2765  -9.2598  -9.2505  -9.2229  -9.2184  -9.2029  -9.1932  -9.1702
    -9.0958  -9.0792  -9.0559  -9.0151   1.6480   1.6610   1.6773   1.6920
     1.7098   1.7231   1.7409   1.7520   1.7810   1.7925   1.8092   1.8287
     1.8553   1.8740   1.8943   1.9188   1.9347   1.9594   1.9748   1.9789
     1.9969   2.0081   2.0399   2.0614   2.0760   2.0790   2.0909   2.1048
     2.1210   2.1299   2.1466   2.1551   2.1628   2.1729   2.1930   2.1992
     2.2065   2.2202   2.2324   2.2440   2.2533   2.2595   2.2740   2.2781
     2.2866   2.2972   2.3132   2.3196   2.3300   2.3511   2.3626   2.3768
     2.3903   2.4186   2.4215   2.4360   2.4540   2.4666   2.4978   2.5178
     2.5465   2.5802   2.6040   2.6111   2.6225   2.6421   2.6534   2.6693
     2.6773   2.7030   2.7127   2.7363   2.7438   2.7537   2.7607   2.7731
     2.7965   2.8040   2.8147   2.8316   2.8529   2.8624   2.8809   2.9022
     2.9133   2.9426   2.9485   2.9549   2.9686   2.9958   3.0067   3.0323
     3.0432   3.0544   3.0659   3.0839   3.0954   3.1026   3.1238   3.1379
     3.1396   3.1533   3.1636   3.1689   3.1723   3.1946   3.2097   3.2325
     3.2396   3.2683   3.3029   3.3471   3.3907   3.4566   3.4983   3.5091
     3.5678   3.6078   3.6456   3.6677   3.6936   3.7194   3.7481   3.7836
     3.8082   3.8326   3.8990   3.9241   3.9407   4.0025   4.0517   4.1198
     4.1283   4.2029   4.2165   4.3342   4.3828   4.4391   4.4842   4.5249
     4.5408   4.5799   4.6161   4.6709   4.7098   4.7181   4.7891   4.8258
     4.8602   4.8866   4.9101   4.9246   4.9607   5.0342   5.0459   5.0990
     5.1507   5.1897   5.3082   5.3174   5.4018   5.4898   5.5182   5.5721
     5.5914   5.6061   5.6394   5.6677   5.6864   5.7188   5.7341   5.7561
     5.7758   5.8141   5.8471   5.8826   5.9008   5.9219   5.9418   5.9604
     5.9899   6.0078   6.0292   6.0825   6.1081   6.1218   6.1637   6.1832
     6.2021   6.2244   6.2597   6.2705   6.2804   6.3002   6.3111   6.3235
     6.3346   6.3607   6.3729   6.3883   6.4115   6.4314   6.4735   6.4848
     6.5184   6.5388   6.5793   6.6808   6.6995   6.7251   6.7570   6.8010
     6.8325   6.8514   6.8900   6.9490   7.1150   7.1200   9.2841  11.0977
    11.4964  11.5536  11.6842  12.0235  12.5372  12.5640  12.6138  12.7949
    12.8251  12.8973  13.0098  13.0479  13.1357  13.2335  13.2806  13.3642
    13.3976  13.5295  13.5730  13.7411  14.5112  14.5466  14.5775  14.6583
    14.7006  14.7756  14.8221  14.8882  14.9141  14.9410  15.0111  15.0384
    15.1491  15.2038  15.3381  15.3882  15.4268  15.4600  15.5228  15.5483
    15.7155  15.7658  15.9164  15.9794  16.0230  16.0881  16.1312  16.2548
    16.2795  16.3468  16.3664  16.4192  16.4617  16.4890  16.5334  16.6027
    16.6587  16.7612  16.9477  17.0124  17.1560  17.2292  17.2863  17.3398
    17.4237  17.5340  17.6389  17.7149  17.7457  17.9061  18.1482  18.1846
    18.2250  18.2783  18.4254  18.4563  18.4986  18.6025

     occupation numbers 
     1.0000   1.0000   1.0000   1.0000   1.0000   1.0000   1.0000   1.0000
     1.0000   1.0000   1.0000   1.0000   1.0000   1.0000   1.0000   1.0000
     1.0000   1.0000   1.0000   1.0000   1.0000   1.0000   1.0000   1.0000
     1.0000   1.0000   1.0000   1.0000   1.0000   1.0000   1.0000   1.0000
     1.0000   1.0000   1.0000   1.0000   1.0000   1.0000   1.0000   1.0000
     1.0000   1.0000   1.0000   1.0000   1.0000   1.0000   1.0000   1.0000
     1.0000   1.0000   1.0000   1.0000   1.0000   1.0000   1.0000   1.0000
     1.0000   1.0000   1.0000   1.0000   1.0000   1.0000   1.0000   1.0000
     1.0000   1.0000   1.0000   1.0000   1.0000   1.0000   1.0000   1.0000
     1.0000   1.0000   1.0000   1.0000   1.0000   1.0000   1.0000   1.0000
     1.0000   1.0000   1.0000   1.0000   1.0000   1.0000   1.0000   1.0000
     1.0000   1.0000   1.0000   1.0000   1.0000   1.0000   1.0000   1.0000
     1.0000   1.0000   1.0000   1.0000   1.0000   1.0000   1.0000   1.0000
     1.0000   1.0000   1.0000   1.0000   1.0000   1.0000   1.0000   1.0000
     1.0000   1.0000   1.0000   1.0000   1.0000   1.0000   1.0000   1.0000
     1.0000   1.0000   1.0000   1.0000   1.0000   1.0000   1.0000   1.0000
     1.0000   1.0000   1.0000   1.0000   1.0000   1.0000   1.0000   1.0000
     1.0000   1.0000   1.0000   1.0000   1.0000   1.0000   1.0000   1.0000
     1.0000   1.0000   1.0000   1.0000   1.0000   1.0000   1.0000   1.0000
     1.0000   1.0000   1.0000   1.0000   1.0000   1.0000   1.0000   1.0000
     1.0000   1.0000   1.0000   1.0000   1.0000   1.0000   1.0000   1.0000
     1.0000   1.0000   1.0000   1.0000   1.0000   1.0000   1.0000   1.0000
     1.0000   1.0000   1.0000   1.0000   1.0000   1.0000   1.0000   1.0000
     1.0000   1.0000   1.0000   1.0000   1.0000   1.0000   1.0000   1.0000
     1.0000   1.0000   1.0000   1.0000   1.0000   1.0000   1.0000   1.0000
     1.0000   1.0000   1.0000   1.0000   1.0000   1.0000   1.0000   1.0000
     1.0000   1.0000   1.0000   1.0000   1.0000   1.0000   1.0000   1.0000
     1.0000   1.0000   1.0000   1.0000   1.0000   1.0000   1.0000   1.0000
     1.0000   1.0000   1.0000   1.0000   1.0000   1.0000   1.0000   1.0000
     1.0000   1.0000   1.0000   1.0000   1.0000   1.0000   1.0000   1.0000
     1.0000   1.0000   1.0000   1.0000   1.0000   1.0000   1.0000   1.0000
     1.0000   1.0000   1.0000   1.0000   1.0000   1.0000   1.0000   1.0000
     1.0000   1.0000   1.0000   1.0000   1.0000   1.0000   1.0000   1.0000
     1.0000   1.0000   1.0000   1.0000   1.0000   1.0000   1.0000   1.0000
     1.0000   1.0000   1.0000   1.0000   1.0000   1.0000   1.0000   1.0000
     1.0000   1.0000   1.0000   1.0000   1.0000   1.0000   1.0000   1.0000
     1.0000   1.0000   1.0000   1.0000   1.0000   1.0000   1.0000   1.0000
     1.0000   1.0000   1.0000   1.0000   1.0000   1.0000   1.0000   1.0000
     1.0000   1.0000   1.0000   1.0000   1.0000   1.0000   1.0000   1.0000
     1.0000   1.0000   1.0000   1.0000   1.0000   1.0000   1.0000   1.0000
     1.0000   1.0000   1.0000   1.0000   1.0000   1.0000   1.0000   1.0000
     1.0000   1.0000   1.0000   1.0000   1.0000   1.0000   1.0000   1.0000
     1.0000   1.0000   1.0000   1.0000   1.0000   1.0000   1.0000   1.0000
     1.0000   1.0000   1.0000   1.0000   1.0000   1.0000   1.0000   1.0000
     1.0000   1.0000   1.0000   1.0000   1.0000   1.0000   1.0000   1.0000
     1.0000   1.0000   1.0000   1.0000   1.0000   1.0000   1.0000   1.0000
     1.0000   1.0000   1.0000   1.0000   1.0000   1.0000   1.0000   1.0000
     1.0000   1.0000   1.0000   1.0000   1.0000   1.0000   1.0000   1.0000
     1.0000   1.0000   1.0000   1.0000   1.0000   1.0000   1.0000   1.0000
     1.0000   1.0000   1.0000   1.0000   1.0000   1.0000   0.0000   0.0000
     0.0000   0.0000   0.0000   0.0000   0.0000   0.0000   0.0000   0.0000
     0.0000   0.0000   0.0000   0.0000   0.0000   0.0000   0.0000   0.0000
     0.0000   0.0000   0.0000   0.0000   0.0000   0.0000   0.0000   0.0000
     0.0000   0.0000   0.0000   0.0000   0.0000   0.0000   0.0000   0.0000
     0.0000   0.0000   0.0000   0.0000   0.0000   0.0000   0.0000   0.0000
     0.0000   0.0000   0.0000   0.0000   0.0000   0.0000   0.0000   0.0000
     0.0000   0.0000   0.0000   0.0000   0.0000   0.0000   0.0000   0.0000
     0.0000   0.0000   0.0000   0.0000   0.0000   0.0000   0.0000   0.0000
     0.0000   0.0000   0.0000   0.0000   0.0000   0.0000   0.0000   0.0000
     0.0000   0.0000   0.0000   0.0000   0.0000   0.0000

          k =-0.0000 0.2885 0.2351 ( 45207 PWs)   bands (ev):

  -115.5714-115.5704-115.5633-115.5593-115.5542-115.5541-115.5539-115.5539
  -115.5516-115.5511-115.5510-115.5506-115.5500-115.5497-115.5491-115.5479
  -115.5452-115.5449-115.5448-115.5441-115.5432-115.5331 -69.9307 -69.9286
   -69.9276 -69.9261 -69.9246 -69.9245 -69.9234 -69.9193 -69.9191 -69.9167
   -69.9161 -69.9159 -69.9157 -69.9148 -69.9147 -69.9125 -69.9124 -69.9118
   -69.9113 -69.9111 -69.9108 -69.9106 -69.9102 -69.9096 -69.9096 -69.9093
   -69.9088 -69.9087 -69.9078 -69.9078 -69.9077 -69.9075 -69.9074 -69.9070
   -69.9066 -69.9064 -69.9060 -69.9059 -69.9059 -69.9054 -69.9054 -69.9052
   -69.9048 -69.9045 -69.9044 -69.9037 -69.9031 -69.9030 -69.9028 -69.9024
   -69.9016 -69.9013 -69.9005 -69.9001 -69.8992 -69.8989 -69.8987 -69.8983
   -69.8981 -69.8966 -69.8959 -69.8950 -69.8935 -69.8920 -69.8900 -69.8855
   -65.0163 -65.0147 -65.0125 -65.0096 -65.0034 -65.0017 -64.9997 -64.9937
   -64.9895 -64.9890 -64.9802 -64.9755 -64.9667 -64.9568 -32.0093 -32.0080
   -32.0052 -32.0044 -32.0034 -32.0020 -32.0010 -32.0008 -31.9984 -31.9978
   -31.9961 -31.9954 -31.9941 -31.9935 -31.9899 -31.9891 -31.9881 -31.9877
   -31.9867 -31.9853 -31.9848 -31.9818 -31.9804 -31.9794 -31.9787 -31.9780
   -31.9768 -31.9748 -31.9727 -31.9704 -31.9689 -31.9662 -31.9644 -31.9618
   -31.9614 -31.9593 -31.9543 -31.9507 -31.9488 -31.9460 -31.9419 -31.9408
   -10.1236  -9.9617  -9.8520  -9.7951  -9.7386  -9.7080  -9.6695  -9.6560
    -9.5951  -9.5713  -9.5616  -9.5207  -9.4972  -9.4797  -9.4575  -9.4388
    -9.4205  -9.3957  -9.3830  -9.3602  -9.3411  -9.3241  -9.2983  -9.2888
    -9.2743  -9.2621  -9.2516  -9.2248  -9.2083  -9.2030  -9.1946  -9.1737
    -9.1013  -9.0825  -9.0574  -9.0187   1.6572   1.6801   1.6971   1.7089
     1.7260   1.7441   1.7556   1.7702   1.7931   1.7996   1.8191   1.8418
     1.8612   1.8832   1.9090   1.9261   1.9454   1.9593   1.9744   1.9937
     2.0003   2.0070   2.0335   2.0566   2.0690   2.0767   2.0896   2.0957
     2.1117   2.1299   2.1343   2.1515   2.1588   2.1712   2.1780   2.1916
     2.1945   2.2217   2.2265   2.2434   2.2478   2.2629   2.2682   2.2790
     2.2845   2.2916   2.3066   2.3205   2.3319   2.3505   2.3637   2.3743
     2.3921   2.3997   2.4204   2.4251   2.4481   2.4566   2.4685   2.4911
     2.5143   2.5325   2.5475   2.5812   2.6039   2.6150   2.6322   2.6584
     2.6779   2.6843   2.7001   2.7097   2.7195   2.7327   2.7533   2.7613
     2.7823   2.8081   2.8145   2.8194   2.8380   2.8598   2.8852   2.8919
     2.9133   2.9187   2.9515   2.9713   2.9806   2.9911   3.0119   3.0283
     3.0505   3.0577   3.0720   3.0780   3.0995   3.1056   3.1181   3.1295
     3.1387   3.1562   3.1611   3.1710   3.1749   3.1941   3.1956   3.2213
     3.2390   3.2642   3.3415   3.4145   3.4418   3.4911   3.5084   3.5595
     3.6180   3.6336   3.6578   3.6874   3.7023   3.7401   3.7564   3.7980
     3.8125   3.8650   3.9112   3.9656   3.9945   4.0359   4.0567   4.1337
     4.1717   4.2145   4.2479   4.3373   4.3795   4.4334   4.4609   4.4805
     4.5258   4.5466   4.5841   4.6090   4.6301   4.6839   4.7543   4.7750
     4.8300   4.9232   4.9525   5.0699   5.1274   5.1604   5.1740   5.2038
     5.2315   5.2675   5.3241   5.3464   5.3953   5.4185   5.4417   5.4801
     5.5083   5.5354   5.5494   5.5855   5.5994   5.6207   5.6644   5.7260
     5.7387   5.7701   5.8062   5.8161   5.8424   5.8637   5.9112   5.9435
     5.9751   6.0140   6.0253   6.0678   6.0916   6.1072   6.1433   6.1605
     6.1888   6.2323   6.2515   6.2618   6.2796   6.3226   6.3452   6.3597
     6.3886   6.4311   6.4452   6.4657   6.4720   6.4960   6.5033   6.5395
     6.5548   6.5699   6.5979   6.6370   6.6735   6.7136   6.7414   6.7735
     6.8100   6.8252   6.9293   6.9773   7.0862   7.1018   9.5207  10.7857
    11.2244  11.7073  11.9514  12.0501  12.2406  12.2771  12.4993  12.7006
    12.8416  12.9135  13.0266  13.0984  13.2192  13.3137  13.4371  13.5020
    13.7005  13.7309  13.7909  13.9653  14.3986  14.4550  14.5103  14.5651
    14.6136  14.7026  14.7442  14.7833  14.8360  14.8604  14.8858  14.9176
    14.9988  15.0486  15.3223  15.4322  15.4943  15.5548  15.6610  15.7328
    15.7812  15.8758  15.9222  15.9787  16.0442  16.0801  16.1593  16.1782
    16.2718  16.3035  16.3852  16.4418  16.4747  16.5290  16.6024  16.6657
    16.7175  16.7921  16.8793  17.0214  17.1274  17.2158  17.2734  17.3693
    17.4250  17.4829  17.5840  17.6351  17.7015  17.8015  17.8887  18.0621
    18.1509  18.2477  18.3324  18.4292  18.5480  18.5917

     occupation numbers 
     1.0000   1.0000   1.0000   1.0000   1.0000   1.0000   1.0000   1.0000
     1.0000   1.0000   1.0000   1.0000   1.0000   1.0000   1.0000   1.0000
     1.0000   1.0000   1.0000   1.0000   1.0000   1.0000   1.0000   1.0000
     1.0000   1.0000   1.0000   1.0000   1.0000   1.0000   1.0000   1.0000
     1.0000   1.0000   1.0000   1.0000   1.0000   1.0000   1.0000   1.0000
     1.0000   1.0000   1.0000   1.0000   1.0000   1.0000   1.0000   1.0000
     1.0000   1.0000   1.0000   1.0000   1.0000   1.0000   1.0000   1.0000
     1.0000   1.0000   1.0000   1.0000   1.0000   1.0000   1.0000   1.0000
     1.0000   1.0000   1.0000   1.0000   1.0000   1.0000   1.0000   1.0000
     1.0000   1.0000   1.0000   1.0000   1.0000   1.0000   1.0000   1.0000
     1.0000   1.0000   1.0000   1.0000   1.0000   1.0000   1.0000   1.0000
     1.0000   1.0000   1.0000   1.0000   1.0000   1.0000   1.0000   1.0000
     1.0000   1.0000   1.0000   1.0000   1.0000   1.0000   1.0000   1.0000
     1.0000   1.0000   1.0000   1.0000   1.0000   1.0000   1.0000   1.0000
     1.0000   1.0000   1.0000   1.0000   1.0000   1.0000   1.0000   1.0000
     1.0000   1.0000   1.0000   1.0000   1.0000   1.0000   1.0000   1.0000
     1.0000   1.0000   1.0000   1.0000   1.0000   1.0000   1.0000   1.0000
     1.0000   1.0000   1.0000   1.0000   1.0000   1.0000   1.0000   1.0000
     1.0000   1.0000   1.0000   1.0000   1.0000   1.0000   1.0000   1.0000
     1.0000   1.0000   1.0000   1.0000   1.0000   1.0000   1.0000   1.0000
     1.0000   1.0000   1.0000   1.0000   1.0000   1.0000   1.0000   1.0000
     1.0000   1.0000   1.0000   1.0000   1.0000   1.0000   1.0000   1.0000
     1.0000   1.0000   1.0000   1.0000   1.0000   1.0000   1.0000   1.0000
     1.0000   1.0000   1.0000   1.0000   1.0000   1.0000   1.0000   1.0000
     1.0000   1.0000   1.0000   1.0000   1.0000   1.0000   1.0000   1.0000
     1.0000   1.0000   1.0000   1.0000   1.0000   1.0000   1.0000   1.0000
     1.0000   1.0000   1.0000   1.0000   1.0000   1.0000   1.0000   1.0000
     1.0000   1.0000   1.0000   1.0000   1.0000   1.0000   1.0000   1.0000
     1.0000   1.0000   1.0000   1.0000   1.0000   1.0000   1.0000   1.0000
     1.0000   1.0000   1.0000   1.0000   1.0000   1.0000   1.0000   1.0000
     1.0000   1.0000   1.0000   1.0000   1.0000   1.0000   1.0000   1.0000
     1.0000   1.0000   1.0000   1.0000   1.0000   1.0000   1.0000   1.0000
     1.0000   1.0000   1.0000   1.0000   1.0000   1.0000   1.0000   1.0000
     1.0000   1.0000   1.0000   1.0000   1.0000   1.0000   1.0000   1.0000
     1.0000   1.0000   1.0000   1.0000   1.0000   1.0000   1.0000   1.0000
     1.0000   1.0000   1.0000   1.0000   1.0000   1.0000   1.0000   1.0000
     1.0000   1.0000   1.0000   1.0000   1.0000   1.0000   1.0000   1.0000
     1.0000   1.0000   1.0000   1.0000   1.0000   1.0000   1.0000   1.0000
     1.0000   1.0000   1.0000   1.0000   1.0000   1.0000   1.0000   1.0000
     1.0000   1.0000   1.0000   1.0000   1.0000   1.0000   1.0000   1.0000
     1.0000   1.0000   1.0000   1.0000   1.0000   1.0000   1.0000   1.0000
     1.0000   1.0000   1.0000   1.0000   1.0000   1.0000   1.0000   1.0000
     1.0000   1.0000   1.0000   1.0000   1.0000   1.0000   1.0000   1.0000
     1.0000   1.0000   1.0000   1.0000   1.0000   1.0000   1.0000   1.0000
     1.0000   1.0000   1.0000   1.0000   1.0000   1.0000   1.0000   1.0000
     1.0000   1.0000   1.0000   1.0000   1.0000   1.0000   1.0000   1.0000
     1.0000   1.0000   1.0000   1.0000   1.0000   1.0000   1.0000   1.0000
     1.0000   1.0000   1.0000   1.0000   1.0000   1.0000   1.0000   1.0000
     1.0000   1.0000   1.0000   1.0000   1.0000   1.0000   1.0000   1.0000
     1.0000   1.0000   1.0000   1.0000   1.0000   1.0000   0.0000   0.0000
     0.0000   0.0000   0.0000   0.0000   0.0000   0.0000   0.0000   0.0000
     0.0000   0.0000   0.0000   0.0000   0.0000   0.0000   0.0000   0.0000
     0.0000   0.0000   0.0000   0.0000   0.0000   0.0000   0.0000   0.0000
     0.0000   0.0000   0.0000   0.0000   0.0000   0.0000   0.0000   0.0000
     0.0000   0.0000   0.0000   0.0000   0.0000   0.0000   0.0000   0.0000
     0.0000   0.0000   0.0000   0.0000   0.0000   0.0000   0.0000   0.0000
     0.0000   0.0000   0.0000   0.0000   0.0000   0.0000   0.0000   0.0000
     0.0000   0.0000   0.0000   0.0000   0.0000   0.0000   0.0000   0.0000
     0.0000   0.0000   0.0000   0.0000   0.0000   0.0000   0.0000   0.0000
     0.0000   0.0000   0.0000   0.0000   0.0000   0.0000

          k =-0.0003 0.2887-0.4704 ( 45213 PWs)   bands (ev):

  -115.5714-115.5704-115.5633-115.5593-115.5542-115.5541-115.5539-115.5539
  -115.5516-115.5511-115.5510-115.5506-115.5500-115.5497-115.5491-115.5479
  -115.5452-115.5449-115.5448-115.5441-115.5432-115.5331 -69.9307 -69.9286
   -69.9276 -69.9261 -69.9246 -69.9245 -69.9234 -69.9193 -69.9191 -69.9167
   -69.9161 -69.9159 -69.9157 -69.9148 -69.9147 -69.9125 -69.9124 -69.9118
   -69.9113 -69.9111 -69.9108 -69.9106 -69.9102 -69.9096 -69.9096 -69.9093
   -69.9088 -69.9087 -69.9078 -69.9078 -69.9077 -69.9075 -69.9074 -69.9070
   -69.9066 -69.9064 -69.9060 -69.9059 -69.9059 -69.9054 -69.9053 -69.9052
   -69.9048 -69.9045 -69.9044 -69.9037 -69.9031 -69.9030 -69.9028 -69.9024
   -69.9016 -69.9013 -69.9005 -69.9001 -69.8992 -69.8989 -69.8987 -69.8983
   -69.8981 -69.8966 -69.8959 -69.8950 -69.8935 -69.8920 -69.8900 -69.8855
   -65.0163 -65.0147 -65.0125 -65.0096 -65.0034 -65.0017 -64.9997 -64.9937
   -64.9895 -64.9890 -64.9802 -64.9755 -64.9667 -64.9568 -32.0093 -32.0079
   -32.0053 -32.0044 -32.0034 -32.0019 -32.0009 -32.0007 -31.9984 -31.9978
   -31.9961 -31.9956 -31.9940 -31.9935 -31.9899 -31.9890 -31.9881 -31.9877
   -31.9867 -31.9853 -31.9848 -31.9818 -31.9803 -31.9794 -31.9787 -31.9780
   -31.9767 -31.9748 -31.9727 -31.9704 -31.9689 -31.9662 -31.9644 -31.9618
   -31.9614 -31.9593 -31.9543 -31.9507 -31.9488 -31.9460 -31.9419 -31.9408
   -10.0749 -10.0272  -9.8406  -9.7984  -9.7518  -9.7196  -9.6498  -9.6341
    -9.6148  -9.5908  -9.5511  -9.5185  -9.4989  -9.4736  -9.4502  -9.4392
    -9.4234  -9.3964  -9.3738  -9.3513  -9.3416  -9.3146  -9.3015  -9.2904
    -9.2729  -9.2588  -9.2486  -9.2204  -9.2151  -9.2031  -9.1941  -9.1772
    -9.1057  -9.0845  -9.0613  -9.0219   1.6755   1.6882   1.7214   1.7249
     1.7468   1.7564   1.7775   1.7871   1.7990   1.8254   1.8354   1.8554
     1.8700   1.8860   1.9223   1.9460   1.9549   1.9645   1.9830   1.9853
     2.0088   2.0145   2.0320   2.0416   2.0538   2.0635   2.0744   2.0980
     2.1087   2.1161   2.1287   2.1382   2.1516   2.1647   2.1761   2.1816
     2.1948   2.2126   2.2279   2.2355   2.2484   2.2626   2.2740   2.2772
     2.2929   2.3013   2.3083   2.3245   2.3285   2.3455   2.3502   2.3649
     2.3762   2.3841   2.3894   2.3979   2.4174   2.4353   2.4533   2.4709
     2.4797   2.5069   2.5251   2.5589   2.5640   2.5967   2.6141   2.6392
     2.6626   2.6699   2.6912   2.6990   2.7156   2.7262   2.7329   2.7530
     2.7693   2.7925   2.8047   2.8181   2.8452   2.8506   2.8832   2.8924
     2.9112   2.9314   2.9584   2.9721   2.9836   2.9961   3.0061   3.0308
     3.0412   3.0587   3.0692   3.0853   3.0952   3.1086   3.1162   3.1310
     3.1472   3.1514   3.1690   3.1713   3.1788   3.1906   3.2011   3.2203
     3.2362   3.2616   3.4206   3.4288   3.4979   3.5113   3.5447   3.5717
     3.6313   3.6384   3.6760   3.6923   3.7263   3.7495   3.7880   3.8174
     3.8678   3.8968   3.9173   3.9724   4.0008   4.0554   4.0765   4.1201
     4.2142   4.2464   4.2786   4.3097   4.3393   4.3809   4.4071   4.4499
     4.4533   4.5143   4.5532   4.6122   4.7504   4.7748   4.8697   4.9004
     4.9501   4.9662   5.0034   5.0427   5.0798   5.1335   5.1787   5.2118
     5.2581   5.2946   5.3202   5.3381   5.3811   5.3970   5.4133   5.4406
     5.4690   5.4983   5.5094   5.5406   5.5569   5.5905   5.6169   5.6253
     5.6527   5.6733   5.7312   5.7761   5.8229   5.8522   5.8988   5.9068
     5.9439   5.9826   6.0230   6.0624   6.1021   6.1417   6.1521   6.1903
     6.2208   6.2342   6.2536   6.2858   6.2980   6.3187   6.3466   6.3777
     6.3976   6.4488   6.4607   6.4711   6.4896   6.5092   6.5265   6.5647
     6.5861   6.6228   6.6334   6.6547   6.6786   6.6995   6.7307   6.7677
     6.7840   6.7939   6.9889   7.0038   7.0431   7.0845  10.0478  10.1326
    11.4455  11.5261  11.8947  11.9323  12.1841  12.2803  12.6041  12.6952
    12.7363  12.9268  12.9713  13.0084  13.0988  13.2454  13.9161  13.9932
    14.0646  14.0850  14.1240  14.1654  14.2115  14.2581  14.3151  14.3592
    14.3653  14.4727  14.5158  14.5722  14.6891  14.7387  14.8765  14.8888
    14.9400  14.9625  15.5163  15.5435  15.5850  15.6645  15.7406  15.7918
    15.8284  15.8764  15.9722  15.9898  16.0194  16.0454  16.1025  16.1772
    16.2348  16.2800  16.3861  16.4366  16.4920  16.5389  16.6448  16.7174
    16.8452  16.9066  16.9679  16.9960  17.0232  17.1291  17.2216  17.2859
    17.3847  17.5075  17.5386  17.5933  17.6619  17.7475  17.9051  17.9784
    18.0525  18.1477  18.3033  18.3628  18.5293  18.5784

     occupation numbers 
     1.0000   1.0000   1.0000   1.0000   1.0000   1.0000   1.0000   1.0000
     1.0000   1.0000   1.0000   1.0000   1.0000   1.0000   1.0000   1.0000
     1.0000   1.0000   1.0000   1.0000   1.0000   1.0000   1.0000   1.0000
     1.0000   1.0000   1.0000   1.0000   1.0000   1.0000   1.0000   1.0000
     1.0000   1.0000   1.0000   1.0000   1.0000   1.0000   1.0000   1.0000
     1.0000   1.0000   1.0000   1.0000   1.0000   1.0000   1.0000   1.0000
     1.0000   1.0000   1.0000   1.0000   1.0000   1.0000   1.0000   1.0000
     1.0000   1.0000   1.0000   1.0000   1.0000   1.0000   1.0000   1.0000
     1.0000   1.0000   1.0000   1.0000   1.0000   1.0000   1.0000   1.0000
     1.0000   1.0000   1.0000   1.0000   1.0000   1.0000   1.0000   1.0000
     1.0000   1.0000   1.0000   1.0000   1.0000   1.0000   1.0000   1.0000
     1.0000   1.0000   1.0000   1.0000   1.0000   1.0000   1.0000   1.0000
     1.0000   1.0000   1.0000   1.0000   1.0000   1.0000   1.0000   1.0000
     1.0000   1.0000   1.0000   1.0000   1.0000   1.0000   1.0000   1.0000
     1.0000   1.0000   1.0000   1.0000   1.0000   1.0000   1.0000   1.0000
     1.0000   1.0000   1.0000   1.0000   1.0000   1.0000   1.0000   1.0000
     1.0000   1.0000   1.0000   1.0000   1.0000   1.0000   1.0000   1.0000
     1.0000   1.0000   1.0000   1.0000   1.0000   1.0000   1.0000   1.0000
     1.0000   1.0000   1.0000   1.0000   1.0000   1.0000   1.0000   1.0000
     1.0000   1.0000   1.0000   1.0000   1.0000   1.0000   1.0000   1.0000
[...]
     atom   35 type  3   force =     0.00000000    0.00000000    0.00000000
     atom   36 type  3   force =     0.00000000    0.00000000    0.00000000
     atom   37 type  2   force =     0.00138756   -0.00080650   -0.00107822
     atom   38 type  2   force =    -0.00007023   -0.00000326    0.00001776
     atom   39 type  2   force =     0.00006928   -0.00004220    0.00010767
     atom   40 type  2   force =    -0.00007421    0.00159353   -0.00107321
     atom   41 type  2   force =    -0.00133686    0.00079412   -0.00058846
     atom   42 type  2   force =    -0.00000694   -0.00166959    0.00112891
     atom   43 type  2   force =    -0.00136272    0.00077643   -0.00051212
     atom   44 type  2   force =     0.00138021    0.00078085   -0.00047675
     atom   45 type  2   force =    -0.00007535   -0.00159014    0.00106713
     atom   46 type  2   force =    -0.00130903    0.00079447    0.00100037
     atom   47 type  2   force =     0.00144230    0.00074226    0.00119165
     atom   48 type  2   force =     0.00135896   -0.00077589   -0.00120717
     atom   49 type  2   force =     0.00004075   -0.00166567    0.00102548
     atom   50 type  2   force =    -0.00147297   -0.00079960    0.00049769
     atom   51 type  2   force =    -0.00000932   -0.00000749   -0.00008737
     atom   52 type  2   force =     0.00146554   -0.00084401    0.00064593
     atom   53 type  2   force =    -0.00001620    0.00162795   -0.00101036
     atom   54 type  2   force =    -0.00132060    0.00074537   -0.00056150
     atom   55 type  2   force =    -0.00137891   -0.00073379   -0.00047048
     atom   56 type  2   force =    -0.00130450   -0.00080655   -0.00053921
     atom   57 type  2   force =    -0.00000332   -0.00005462    0.00154652
     atom   58 type  2   force =    -0.00138720    0.00087611   -0.00110762
     atom   59 type  2   force =    -0.00001845   -0.00003359   -0.00001616
     atom   60 type  2   force =     0.00135848   -0.00078825    0.00112670
     atom   61 type  2   force =     0.00004120    0.00157676   -0.00052196
     atom   62 type  2   force =    -0.00003026    0.00161817    0.00106749
     atom   63 type  2   force =     0.00145248    0.00081671    0.00058049
     atom   64 type  2   force =     0.00135317   -0.00072348   -0.00056589
     atom   65 type  2   force =     0.00131426   -0.00076361   -0.00047395
     atom   66 type  2   force =    -0.00130517   -0.00078083   -0.00047012
     atom   67 type  2   force =     0.00141465   -0.00075734    0.00106110
     atom   68 type  2   force =     0.00140469    0.00077952   -0.00112745
     atom   69 type  2   force =    -0.00130711   -0.00080564   -0.00047668
     atom   70 type  2   force =    -0.00006055   -0.00155725   -0.00107913
     atom   71 type  2   force =    -0.00145781    0.00086231    0.00050252
     atom   72 type  2   force =     0.00002171    0.00156935    0.00104437
     The Hubbard contrib.    to forces
     atom    1 type  1   force =     0.00000000    0.00000000    0.00000000
     atom    2 type  1   force =     0.00000000    0.00000000    0.00000000
     atom    3 type  1   force =     0.00000000    0.00000000    0.00000000
     atom    4 type  1   force =     0.00000000    0.00000000    0.00000000
     atom    5 type  1   force =     0.00000000    0.00000000    0.00000000
     atom    6 type  3   force =     0.00000000    0.00000000    0.00000000
     atom    7 type  1   force =     0.00000000    0.00000000    0.00000000
     atom    8 type  1   force =     0.00000000    0.00000000    0.00000000
     atom    9 type  3   force =     0.00000000    0.00000000    0.00000000
     atom   10 type  3   force =     0.00000000    0.00000000    0.00000000
     atom   11 type  3   force =     0.00000000    0.00000000    0.00000000
     atom   12 type  1   force =     0.00000000    0.00000000    0.00000000
     atom   13 type  3   force =     0.00000000    0.00000000    0.00000000
     atom   14 type  3   force =     0.00000000    0.00000000    0.00000000
     atom   15 type  1   force =     0.00000000    0.00000000    0.00000000
     atom   16 type  3   force =     0.00000000    0.00000000    0.00000000
     atom   17 type  1   force =     0.00000000    0.00000000    0.00000000
     atom   18 type  1   force =     0.00000000    0.00000000    0.00000000
     atom   19 type  1   force =     0.00000000    0.00000000    0.00000000
     atom   20 type  1   force =     0.00000000    0.00000000    0.00000000
     atom   21 type  3   force =     0.00000000    0.00000000    0.00000000
     atom   22 type  1   force =     0.00000000    0.00000000    0.00000000
     atom   23 type  1   force =     0.00000000    0.00000000    0.00000000
     atom   24 type  3   force =     0.00000000    0.00000000    0.00000000
     atom   25 type  1   force =     0.00000000    0.00000000    0.00000000
     atom   26 type  3   force =     0.00000000    0.00000000    0.00000000
     atom   27 type  3   force =     0.00000000    0.00000000    0.00000000
     atom   28 type  1   force =     0.00000000    0.00000000    0.00000000
     atom   29 type  1   force =     0.00000000    0.00000000    0.00000000
     atom   30 type  1   force =     0.00000000    0.00000000    0.00000000
     atom   31 type  3   force =     0.00000000    0.00000000    0.00000000
     atom   32 type  1   force =     0.00000000    0.00000000    0.00000000
     atom   33 type  1   force =     0.00000000    0.00000000    0.00000000
     atom   34 type  1   force =     0.00000000    0.00000000    0.00000000
     atom   35 type  3   force =     0.00000000    0.00000000    0.00000000
     atom   36 type  3   force =     0.00000000    0.00000000    0.00000000
     atom   37 type  2   force =     0.00000000    0.00000000    0.00000000
     atom   38 type  2   force =     0.00000000    0.00000000    0.00000000
     atom   39 type  2   force =     0.00000000    0.00000000    0.00000000
     atom   40 type  2   force =     0.00000000    0.00000000    0.00000000
     atom   41 type  2   force =     0.00000000    0.00000000    0.00000000
     atom   42 type  2   force =     0.00000000    0.00000000    0.00000000
     atom   43 type  2   force =     0.00000000    0.00000000    0.00000000
     atom   44 type  2   force =     0.00000000    0.00000000    0.00000000
     atom   45 type  2   force =     0.00000000    0.00000000    0.00000000
     atom   46 type  2   force =     0.00000000    0.00000000    0.00000000
     atom   47 type  2   force =     0.00000000    0.00000000    0.00000000
     atom   48 type  2   force =     0.00000000    0.00000000    0.00000000
     atom   49 type  2   force =     0.00000000    0.00000000    0.00000000
     atom   50 type  2   force =     0.00000000    0.00000000    0.00000000
     atom   51 type  2   force =     0.00000000    0.00000000    0.00000000
     atom   52 type  2   force =     0.00000000    0.00000000    0.00000000
     atom   53 type  2   force =     0.00000000    0.00000000    0.00000000
     atom   54 type  2   force =     0.00000000    0.00000000    0.00000000
     atom   55 type  2   force =     0.00000000    0.00000000    0.00000000
     atom   56 type  2   force =     0.00000000    0.00000000    0.00000000
     atom   57 type  2   force =     0.00000000    0.00000000    0.00000000
     atom   58 type  2   force =     0.00000000    0.00000000    0.00000000
     atom   59 type  2   force =     0.00000000    0.00000000    0.00000000
     atom   60 type  2   force =     0.00000000    0.00000000    0.00000000
     atom   61 type  2   force =     0.00000000    0.00000000    0.00000000
     atom   62 type  2   force =     0.00000000    0.00000000    0.00000000
     atom   63 type  2   force =     0.00000000    0.00000000    0.00000000
     atom   64 type  2   force =     0.00000000    0.00000000    0.00000000
     atom   65 type  2   force =     0.00000000    0.00000000    0.00000000
     atom   66 type  2   force =     0.00000000    0.00000000    0.00000000
     atom   67 type  2   force =     0.00000000    0.00000000    0.00000000
     atom   68 type  2   force =     0.00000000    0.00000000    0.00000000
     atom   69 type  2   force =     0.00000000    0.00000000    0.00000000
     atom   70 type  2   force =     0.00000000    0.00000000    0.00000000
     atom   71 type  2   force =     0.00000000    0.00000000    0.00000000
     atom   72 type  2   force =     0.00000000    0.00000000    0.00000000
     The SCF correction term to forces
     atom    1 type  1   force =     0.00001123    0.00002624   -0.00000264
     atom    2 type  1   force =     0.00000275    0.00001485   -0.00002592
     atom    3 type  1   force =     0.00001478    0.00001164   -0.00003921
     atom    4 type  1   force =    -0.00000595    0.00000439   -0.00001523
     atom    5 type  1   force =     0.00003008    0.00000446    0.00001183
     atom    6 type  3   force =     0.00001086   -0.00000816    0.00000196
     atom    7 type  1   force =     0.00001742    0.00000519   -0.00000725
     atom    8 type  1   force =     0.00002862    0.00000855   -0.00002131
     atom    9 type  3   force =    -0.00000514   -0.00000593   -0.00000248
     atom   10 type  3   force =    -0.00001105   -0.00000331    0.00001262
     atom   11 type  3   force =     0.00001100    0.00000925    0.00001303
     atom   12 type  1   force =    -0.00000892    0.00000339    0.00000682
     atom   13 type  3   force =    -0.00001593   -0.00001191    0.00000402
     atom   14 type  3   force =    -0.00001669    0.00000973    0.00001413
     atom   15 type  1   force =     0.00000221   -0.00002537    0.00006252
     atom   16 type  3   force =     0.00001451   -0.00001930   -0.00001376
     atom   17 type  1   force =    -0.00004976    0.00001490   -0.00000307
     atom   18 type  1   force =    -0.00000523    0.00001317    0.00000134
     atom   19 type  1   force =     0.00002890   -0.00000625   -0.00000417
     atom   20 type  1   force =    -0.00001233    0.00002530    0.00001175
     atom   21 type  3   force =     0.00002070   -0.00000132    0.00000673
     atom   22 type  1   force =     0.00006995    0.00000476   -0.00001352
     atom   23 type  1   force =    -0.00001441    0.00004358    0.00001205
     atom   24 type  3   force =     0.00001024    0.00000780   -0.00001198
     atom   25 type  1   force =    -0.00002904   -0.00000883   -0.00000740
     atom   26 type  3   force =     0.00001255    0.00000256    0.00001367
     atom   27 type  3   force =     0.00000531    0.00001797    0.00000745
     atom   28 type  1   force =    -0.00001467   -0.00004192    0.00001662
     atom   29 type  1   force =     0.00004924    0.00000030   -0.00000274
     atom   30 type  1   force =    -0.00000828    0.00002405   -0.00002487
     atom   31 type  3   force =    -0.00000204   -0.00002472    0.00000163
     atom   32 type  1   force =    -0.00000586   -0.00005990   -0.00000569
     atom   33 type  1   force =    -0.00005311    0.00000935   -0.00001073
     atom   34 type  1   force =    -0.00005732   -0.00001371   -0.00001383
     atom   35 type  3   force =    -0.00002189   -0.00001584    0.00000463
     atom   36 type  3   force =    -0.00000168    0.00002419    0.00000970
     atom   37 type  2   force =     0.00000666    0.00000749    0.00000207
     atom   38 type  2   force =     0.00000796   -0.00000156   -0.00000595
     atom   39 type  2   force =     0.00000829    0.00000642   -0.00000089
     atom   40 type  2   force =     0.00000820    0.00000846   -0.00000690
     atom   41 type  2   force =     0.00000809    0.00000084    0.00000093
     atom   42 type  2   force =     0.00000211    0.00000568    0.00000339
     atom   43 type  2   force =    -0.00000457    0.00000181   -0.00000335
     atom   44 type  2   force =    -0.00000448   -0.00000260   -0.00000949
     atom   45 type  2   force =    -0.00001244   -0.00000562    0.00000619
     atom   46 type  2   force =    -0.00001579   -0.00000241    0.00000367
     atom   47 type  2   force =    -0.00000124   -0.00000592   -0.00000229
     atom   48 type  2   force =     0.00000713   -0.00000369   -0.00000964
     atom   49 type  2   force =    -0.00000196   -0.00000644    0.00000450
     atom   50 type  2   force =    -0.00000913   -0.00000948    0.00000428
     atom   51 type  2   force =     0.00000443   -0.00000641    0.00000492
     atom   52 type  2   force =     0.00000566   -0.00000701    0.00000299
     atom   53 type  2   force =    -0.00000947    0.00000662   -0.00000405
     atom   54 type  2   force =    -0.00000666    0.00001369   -0.00000842
     atom   55 type  2   force =     0.00000224   -0.00000324   -0.00001262
     atom   56 type  2   force =    -0.00000722    0.00000447   -0.00000019
     atom   57 type  2   force =     0.00000588   -0.00000134    0.00000211
     atom   58 type  2   force =     0.00000491    0.00000064   -0.00000175
     atom   59 type  2   force =     0.00000201    0.00000656    0.00000458
     atom   60 type  2   force =     0.00000949    0.00000008    0.00000440
     atom   61 type  2   force =    -0.00000566    0.00000331   -0.00000119
     atom   62 type  2   force =    -0.00000097    0.00000906    0.00000715
     atom   63 type  2   force =     0.00000399    0.00000010   -0.00000562
     atom   64 type  2   force =    -0.00000198   -0.00000692    0.00001506
     atom   65 type  2   force =     0.00000383   -0.00000317   -0.00000518
     atom   66 type  2   force =     0.00000012   -0.00000438    0.00000314
     atom   67 type  2   force =     0.00000576   -0.00000517    0.00000481
     atom   68 type  2   force =     0.00001017   -0.00000058   -0.00000300
     atom   69 type  2   force =    -0.00000745   -0.00000573   -0.00000764
     atom   70 type  2   force =    -0.00000682   -0.00001329   -0.00000174
     atom   71 type  2   force =    -0.00001115    0.00000414   -0.00000006
     atom   72 type  2   force =    -0.00000684    0.00001106    0.00000940

     Total force =     0.000117     Total SCF correction =     0.000227
     SCF correction compared to forces is large: reduce conv_thr to get better values


     Computing stress (Cartesian axis) and pressure

          total   stress  (Ry/bohr**3)                   (kbar)     P=   -0.08
  -0.00000047   0.00000000  -0.00000001         -0.07      0.00     -0.00
   0.00000000  -0.00000048   0.00000000          0.00     -0.07      0.00
  -0.00000001   0.00000000  -0.00000066         -0.00      0.00     -0.10

     kinetic stress (kbar)  28012.48      0.16     -0.43
                                0.16  28013.20      0.19
                               -0.43      0.19  28050.09

     local   stress (kbar)  -6962.65   -292.56   1632.02
                             -292.56 -11491.40  -1225.60
                             1632.02  -1225.60 -15142.23

     nonloc. stress (kbar)   1011.76      0.11      0.03
                                0.11   1012.02      0.06
                                0.03      0.06    995.25

     hartree stress (kbar)  46644.14    139.56   -798.03
                              139.56  48854.34    598.17
                             -798.03    598.17  50632.62

     exc-cor stress (kbar) -11243.84      0.01     -0.01
                                0.01 -11243.84      0.00
                               -0.01      0.00 -11244.26

     corecor stress (kbar)   -248.47     -0.00      0.00
                               -0.00   -248.47     -0.00
                                0.00     -0.00   -248.51

     ewald   stress (kbar) -57213.48    152.72   -833.58
                              152.72 -54895.94    627.18
                             -833.58    627.18 -53043.05

     hubbard stress (kbar)      0.00      0.00      0.00
                                0.00      0.00      0.00
                                0.00      0.00      0.00

     london  stress (kbar)      0.00      0.00      0.00
                                0.00      0.00      0.00
                                0.00      0.00      0.00

     DFT-D3  stress (kbar)      0.00      0.00      0.00
                                0.00      0.00      0.00
                                0.00      0.00      0.00

     XDM     stress (kbar)      0.00      0.00      0.00
                                0.00      0.00      0.00
                                0.00      0.00      0.00

     dft-nl  stress (kbar)      0.00      0.00      0.00
                                0.00      0.00      0.00
                                0.00      0.00      0.00

     TS-vdW  stress (kbar)      0.00      0.00      0.00
                                0.00      0.00      0.00
                                0.00      0.00      0.00



     Writing output data file ZnO.save/
 
     init_run     :     26.22s CPU     28.99s WALL (       1 calls)
     electrons    :   1153.64s CPU   1173.86s WALL (       1 calls)
     forces       :     17.98s CPU     18.27s WALL (       1 calls)
     stress       :    266.71s CPU    267.20s WALL (       1 calls)

     Called by init_run:
     wfcinit      :     22.03s CPU     22.86s WALL (       1 calls)
     wfcinit:atom :      0.13s CPU      0.22s WALL (       5 calls)
     wfcinit:wfcr :     21.16s CPU     21.79s WALL (       5 calls)
     potinit      :      2.09s CPU      2.45s WALL (       1 calls)
     hinit0       :      1.61s CPU      2.67s WALL (       1 calls)

     Called by electrons:
     c_bands      :   1045.27s CPU   1063.62s WALL (      12 calls)
     sum_band     :     93.53s CPU     94.63s WALL (      12 calls)
     v_of_rho     :     11.99s CPU     12.50s WALL (      13 calls)
     v_h          :      0.46s CPU      0.49s WALL (      13 calls)
     v_xc         :     13.17s CPU     13.67s WALL (      15 calls)
     newd         :      2.21s CPU      2.98s WALL (      13 calls)
     mix_rho      :      1.02s CPU      1.15s WALL (      12 calls)

     Called by c_bands:
     init_us_2    :      8.16s CPU      8.21s WALL (     135 calls)
     cegterg      :    955.59s CPU    971.84s WALL (      60 calls)

     Called by sum_band:
     sum_band:bec :      0.25s CPU      0.25s WALL (      60 calls)
     addusdens    :      2.17s CPU      2.85s WALL (      12 calls)

     Called by *egterg:
     h_psi        :    376.72s CPU    380.01s WALL (     259 calls)
     s_psi        :     92.47s CPU     92.56s WALL (     259 calls)
     g_psi        :      1.31s CPU      1.31s WALL (     194 calls)
     cdiaghg      :    275.35s CPU    284.00s WALL (     254 calls)
     cegterg:over :     98.20s CPU     99.19s WALL (     194 calls)
     cegterg:upda :     62.61s CPU     63.77s WALL (     194 calls)
     cegterg:last :     35.50s CPU     35.58s WALL (      60 calls)
     cdiaghg:chol :      9.59s CPU      9.88s WALL (     254 calls)
     cdiaghg:inve :      3.23s CPU      3.30s WALL (     254 calls)
     cdiaghg:para :     53.95s CPU     58.65s WALL (     508 calls)

     Called by h_psi:
     h_psi:pot    :    374.05s CPU    375.54s WALL (     259 calls)
     h_psi:calbec :     94.93s CPU     95.21s WALL (     259 calls)
     vloc_psi     :    186.73s CPU    187.70s WALL (     259 calls)
     add_vuspsi   :     92.39s CPU     92.62s WALL (     259 calls)

     General routines
     calbec       :    148.23s CPU    148.59s WALL (     344 calls)
     fft          :      4.60s CPU      5.70s WALL (     192 calls)
     ffts         :      0.12s CPU      0.16s WALL (      25 calls)
     fftw         :    208.35s CPU    209.47s WALL (  169384 calls)
     interpolate  :      0.39s CPU      0.45s WALL (      13 calls)
 
     Parallel routines
     fft_scatt_xy :     40.64s CPU     40.80s WALL (  169601 calls)
     fft_scatt_yz :     53.30s CPU     54.06s WALL (  169601 calls)
 
     PWSCF        :  24m28.01s CPU  24m56.17s WALL

 
   This run was terminated on:  17:23:47  17Sep2021            

=------------------------------------------------------------------------------=
   JOB DONE.
=------------------------------------------------------------------------------=
